<event>
 7    1  0.8661710E-006  0.9226592E+02  0.7561462E-02  0.1297455E+00
          1   -1    0    0  501    0  0.00000000000E+00  0.00000000000E+00  0.13208107615E+03  0.13208107615E+03  0.00000000000E+00 0. -1.
         -1   -1    0    0    0  501 -0.00000000000E+00 -0.00000000000E+00 -0.10422690728E+03  0.10422690728E+03  0.00000000000E+00 0.  1.
         23    2    1    2    0    0  0.46456578536E+02 -0.10494081584E+00  0.20721819441E+02  0.13389135095E+03  0.12385182824E+03 0.  0.
          5    1    3    3  502    0  0.78702600139E+01 -0.58803486430E+02  0.22261967347E+02  0.63504791939E+02  0.41800000000E+01 0. -1.
         -5    1    3    3    0  502  0.38586318522E+02  0.58698545614E+02 -0.15401479065E+01  0.70386559014E+02  0.41800000000E+01 0.  1.
        -11    1    1    2    0    0 -0.27455832709E+02  0.14312197116E+02 -0.39444708113E+02  0.50145256348E+02  0.00000000000E+00 0.  1.
         11    1    1    2    0    0 -0.19000745827E+02 -0.14207256301E+02  0.46577057536E+02  0.52271376128E+02  0.00000000000E+00 0. -1.
</event>
<event>
 7    1  0.8661710E-006  0.1121442E+03  0.7561462E-02  0.1256650E+00
         -2   -1    0    0    0  501 -0.00000000000E+00  0.00000000000E+00  0.86318260452E+02  0.86318260452E+02  0.00000000000E+00 0.  1.
          2   -1    0    0  501    0  0.00000000000E+00 -0.00000000000E+00 -0.17363361281E+03  0.17363361281E+03  0.00000000000E+00 0. -1.
         23    2    1    2    0    0 -0.38608136284E+02 -0.21758677523E+02 -0.99292957620E+01  0.13308059855E+03  0.12509127292E+03 0.  0.
          5    1    3    3  502    0 -0.81947343750E+02 -0.27381979104E+02  0.51652849796E+01  0.86656174023E+02  0.41800000000E+01 0.  1.
         -5    1    3    3    0  502  0.43339207467E+02  0.56233015803E+01 -0.15094580742E+02  0.46424424523E+02  0.41800000000E+01 0.  1.
        -11    1    1    2    0    0  0.61101315595E+02  0.32221649831E+02 -0.34229160742E+02  0.77092418112E+02  0.00000000000E+00 0.  1.
         11    1    1    2    0    0 -0.22493179311E+02 -0.10462972308E+02 -0.43156895851E+02  0.49778856601E+02  0.00000000000E+00 0. -1.
</event>
<event>
 7    1  0.8661710E-006  0.1154938E+03  0.7561462E-02  0.1250722E+00
         -2   -1    0    0    0  501 -0.00000000000E+00  0.00000000000E+00  0.11219041492E+03  0.11219041492E+03  0.00000000000E+00 0.  1.
          2   -1    0    0  501    0  0.00000000000E+00 -0.00000000000E+00 -0.17012386841E+03  0.17012386841E+03  0.00000000000E+00 0. -1.
         23    2    1    2    0    0  0.80923148195E+02 -0.14839256632E+02 -0.13333678516E+02  0.15030620299E+03  0.12508160625E+03 0.  0.
          5    1    3    3  502    0  0.92833512710E+02 -0.43308034133E+01 -0.53216362089E+02  0.10717401987E+03  0.41800000000E+01 0.  1.
         -5    1    3    3    0  502 -0.11910364516E+02 -0.10508453218E+02  0.39882683573E+02  0.43132183123E+02  0.41800000000E+01 0.  1.
        -11    1    1    2    0    0 -0.38920752094E+02 -0.37756821922E+02 -0.33639071590E+02  0.63812143693E+02  0.00000000000E+00 0. -1.
         11    1    1    2    0    0 -0.42002396100E+02  0.52596078554E+02 -0.10960703385E+02  0.68195936654E+02  0.00000000000E+00 0.  1.
</event>
<event>
 7    1  0.1010462E-005  0.3262344E+03  0.7561462E-02  0.1072815E+00
         -1   -1    0    0    0  501 -0.00000000000E+00  0.00000000000E+00  0.78104717130E+03  0.78104717130E+03  0.00000000000E+00 0.  1.
          1   -1    0    0  501    0  0.00000000000E+00 -0.00000000000E+00 -0.17983101614E+03  0.17983101614E+03  0.00000000000E+00 0. -1.
         23    2    1    2    0    0  0.36056763625E+02 -0.31385667675E+03  0.52146199746E+03  0.62239536519E+03  0.12508905657E+03 0.  0.
          5    1    3    3  502    0 -0.23000536276E+02 -0.13513483209E+03  0.31167756490E+03  0.34051552736E+03  0.41800000000E+01 0. -1.
         -5    1    3    3    0  502  0.59057299901E+02 -0.17872184466E+03  0.20978443255E+03  0.28187983782E+03  0.41800000000E+01 0. -1.
        -11    1    1    2    0    0  0.19577190935E+02  0.19319058017E+03  0.65106513817E+02  0.20480411327E+03  0.00000000000E+00 0.  1.
         11    1    1    2    0    0 -0.55633954560E+02  0.12066609658E+03  0.14647643883E+02  0.13367870898E+03  0.00000000000E+00 0. -1.
</event>
<event>
 7    1  0.9023516E-006  0.1330571E+03  0.7561462E-02  0.1222989E+00
          4   -1    0    0  501    0  0.00000000000E+00  0.00000000000E+00  0.14045421913E+04  0.14045421913E+04  0.00000000000E+00 0. -1.
         -4   -1    0    0    0  501 -0.00000000000E+00 -0.00000000000E+00 -0.16188595429E+02  0.16188595429E+02  0.00000000000E+00 0.  1.
         23    2    1    2    0    0  0.47947336194E+02  0.92094551049E+02  0.72660156304E+03  0.74456568691E+03  0.12509147584E+03 0.  0.
          5    1    3    3  502    0 -0.12162350382E+02  0.68370397400E+02  0.16258754711E+03  0.17684630865E+03  0.41800000000E+01 0. -1.
         -5    1    3    3    0  502  0.60109686576E+02  0.23724153649E+02  0.56401401593E+03  0.56771937826E+03  0.41800000000E+01 0. -1.
        -11    1    1    2    0    0 -0.28632943723E+02  0.80935213513E+01  0.76451958106E+02  0.82038115850E+02  0.00000000000E+00 0.  1.
         11    1    1    2    0    0 -0.19314392471E+02 -0.10018807240E+03  0.58530007471E+03  0.59412698396E+03  0.00000000000E+00 0. -1.
</event>
<event>
 7    1  0.8661710E-006  0.1159375E+03  0.7561462E-02  0.1249954E+00
         -2   -1    0    0    0  501 -0.00000000000E+00  0.00000000000E+00  0.71912545073E+02  0.71912545073E+02  0.00000000000E+00 0.  1.
          2   -1    0    0  501    0  0.00000000000E+00 -0.00000000000E+00 -0.20638417106E+03  0.20638417106E+03  0.00000000000E+00 0. -1.
         23    2    1    2    0    0  0.29924668327E+02  0.46304466531E+02 -0.57596471402E+02  0.14833907534E+03  0.12509012095E+03 0.  0.
          5    1    3    3  502    0  0.40086628077E+02  0.83041120819E+02 -0.59713265898E+02  0.10993594508E+03  0.41800000000E+01 0. -1.
         -5    1    3    3    0  502 -0.10161959750E+02 -0.36736654287E+02  0.21167944959E+01  0.38403130251E+02  0.41800000000E+01 0. -1.
        -11    1    1    2    0    0 -0.15575733855E+02 -0.70986488016E+02 -0.69299827209E+02  0.10041987362E+03  0.00000000000E+00 0.  1.
         11    1    1    2    0    0 -0.14348934473E+02  0.24682021485E+02 -0.75753273743E+01  0.29537767179E+02  0.00000000000E+00 0. -1.
</event>
<event>
 7    1  0.8661710E-006  0.9663945E+02  0.7561462E-02  0.1287526E+00
          4   -1    0    0  501    0  0.00000000000E+00  0.00000000000E+00  0.91651350138E+03  0.91651350138E+03  0.00000000000E+00 0. -1.
         -4   -1    0    0    0  501 -0.00000000000E+00 -0.00000000000E+00 -0.23274387758E+02  0.23274387758E+02  0.00000000000E+00 0.  1.
         23    2    1    2    0    0 -0.93847192145E+02 -0.21496100042E+02  0.43655734130E+03  0.46421761431E+03  0.12508518458E+03 0.  0.
          5    1    3    3  502    0 -0.33400995303E+02 -0.56419730330E+01  0.13749873066E+02  0.36796599792E+02  0.41800000000E+01 0.  1.
         -5    1    3    3    0  502 -0.60446196842E+02 -0.15854127009E+02  0.42280746824E+03  0.42742101452E+03  0.41800000000E+01 0.  1.
        -11    1    1    2    0    0  0.11621148675E+02  0.50092928451E+01  0.15183107555E+01  0.12745563106E+02  0.00000000000E+00 0.  1.
         11    1    1    2    0    0  0.82226043470E+02  0.16486807197E+02  0.45516346156E+03  0.46282471172E+03  0.00000000000E+00 0. -1.
</event>
<event>
 7    1  0.8661710E-006  0.8924766E+02  0.7561462E-02  0.1304684E+00
         -2   -1    0    0    0  501 -0.00000000000E+00  0.00000000000E+00  0.12911299866E+03  0.12911299866E+03  0.00000000000E+00 0.  1.
          2   -1    0    0  501    0  0.00000000000E+00 -0.00000000000E+00 -0.11750344197E+03  0.11750344197E+03  0.00000000000E+00 0. -1.
         23    2    1    2    0    0  0.35933724041E+02 -0.25003580697E+02  0.44378851572E+02  0.13976371970E+03  0.12509197938E+03 0.  0.
          5    1    3    3  502    0 -0.14400836336E+02 -0.25699270088E+02  0.75005497699E+02  0.80691595940E+02  0.41800000000E+01 0.  1.
         -5    1    3    3    0  502  0.50334560377E+02  0.69568939124E+00 -0.30626646127E+02  0.59072123756E+02  0.41800000000E+01 0.  1.
        -11    1    1    2    0    0  0.14858323562E+02  0.42093150649E+02 -0.11985500804E+01  0.44654670897E+02  0.00000000000E+00 0.  1.
         11    1    1    2    0    0 -0.50792047603E+02 -0.17089569952E+02 -0.31570744809E+02  0.62198050039E+02  0.00000000000E+00 0. -1.
</event>
<event>
 7    1  0.8661710E-006  0.1093577E+03  0.7561462E-02  0.1261764E+00
         -2   -1    0    0    0  501 -0.00000000000E+00  0.00000000000E+00  0.12431980842E+03  0.12431980842E+03  0.00000000000E+00 0.  1.
          2   -1    0    0  501    0  0.00000000000E+00 -0.00000000000E+00 -0.97847586024E+02  0.97847586024E+02  0.00000000000E+00 0. -1.
         23    2    1    2    0    0 -0.15171525408E+02 -0.33332674618E+01  0.10243035010E+01  0.12605365008E+03  0.12508871910E+03 0.  0.
          5    1    3    3  502    0 -0.22295649478E+02 -0.62401787021E+02  0.13053076228E+01  0.66409752575E+02  0.41800000000E+01 0.  1.
         -5    1    3    3    0  502  0.71241240697E+01  0.59068519559E+02 -0.28100412173E+00  0.59643897509E+02  0.41800000000E+01 0.  1.
        -11    1    1    2    0    0 -0.15511695659E+02 -0.38089094880E+02  0.11934632423E+02  0.42823209852E+02  0.00000000000E+00 0.  1.
         11    1    1    2    0    0  0.30683221068E+02  0.41422362342E+02  0.13513286475E+02  0.53290534510E+02  0.00000000000E+00 0. -1.
</event>
<event>
 7    1  0.8661710E-006  0.1140176E+03  0.7561462E-02  0.1253306E+00
          1   -1    0    0  501    0  0.00000000000E+00  0.00000000000E+00  0.19349882475E+03  0.19349882475E+03  0.00000000000E+00 0. -1.
         -1   -1    0    0    0  501 -0.00000000000E+00 -0.00000000000E+00 -0.11736893531E+03  0.11736893531E+03  0.00000000000E+00 0.  1.
         23    2    1    2    0    0  0.79415286950E+02 -0.35408024270E+02 -0.15652127619E+02  0.15315674983E+03  0.12510589489E+03 0.  0.
          5    1    3    3  502    0  0.87396314185E+02 -0.35405584860E+01 -0.53694695487E+02  0.10271924849E+03  0.41800000000E+01 0. -1.
         -5    1    3    3    0  502 -0.79810272353E+01 -0.31867465784E+02  0.38042567868E+02  0.50437501338E+02  0.41800000000E+01 0. -1.
        -11    1    1    2    0    0 -0.29745862891E+02 -0.17717684654E+02 -0.67201844029E+01  0.35268875613E+02  0.00000000000E+00 0.  1.
         11    1    1    2    0    0 -0.49669424059E+02  0.53125708924E+02  0.98502201459E+02  0.12244213461E+03  0.00000000000E+00 0. -1.
</event>
<event>
 7    1  0.8661710E-006  0.1711453E+03  0.7561462E-02  0.1176659E+00
          2   -1    0    0  501    0  0.00000000000E+00  0.00000000000E+00  0.49059871805E+03  0.49059871805E+03  0.00000000000E+00 0. -1.
         -2   -1    0    0    0  501 -0.00000000000E+00 -0.00000000000E+00 -0.90893001572E+02  0.90893001572E+02  0.00000000000E+00 0.  1.
         23    2    1    2    0    0 -0.72264771634E+02 -0.12685154040E+03  0.61651241525E+02  0.20190418569E+03  0.12510361344E+03 0.  0.
          5    1    3    3  502    0 -0.67479917612E+02 -0.44997166919E+01  0.82641391869E+01  0.68260934125E+02  0.41800000000E+01 0.  1.
         -5    1    3    3    0  502 -0.47848540225E+01 -0.12235182371E+03  0.53387102339E+02  0.13364325156E+03  0.41800000000E+01 0.  1.
        -11    1    1    2    0    0  0.35873360566E+02  0.10152940597E+03  0.30732744861E+03  0.32564594108E+03  0.00000000000E+00 0. -1.
         11    1    1    2    0    0  0.36391411068E+02  0.25322134429E+02  0.30727026346E+02  0.53941592854E+02  0.00000000000E+00 0.  1.
</event>
<event>
 7    1  0.8661710E-006  0.1287822E+03  0.7561462E-02  0.1229274E+00
         -2   -1    0    0    0  501 -0.00000000000E+00  0.00000000000E+00  0.60651263715E+02  0.60651263715E+02  0.00000000000E+00 0.  1.
          2   -1    0    0  501    0  0.00000000000E+00 -0.00000000000E+00 -0.29743643242E+03  0.29743643242E+03  0.00000000000E+00 0. -1.
         23    2    1    2    0    0  0.43546215733E+02 -0.65550363388E+02 -0.11786328187E+03  0.18902797314E+03  0.12508676338E+03 0.  0.
          5    1    3    3  502    0  0.27467279419E+02 -0.97621065546E+02 -0.52313886568E+02  0.11418642216E+03  0.41800000000E+01 0. -1.
         -5    1    3    3    0  502  0.16078936314E+02  0.32070702158E+02 -0.65549395299E+02  0.74841550986E+02  0.41800000000E+01 0. -1.
        -11    1    1    2    0    0 -0.23249222409E+01 -0.22556180655E+02 -0.18667135398E+02  0.29370878317E+02  0.00000000000E+00 0.  1.
         11    1    1    2    0    0 -0.41221293492E+02  0.88106544043E+02 -0.10025475144E+03  0.13968884468E+03  0.00000000000E+00 0. -1.
</event>
<event>
 7    1  0.8661710E-006  0.6611954E+02  0.7561462E-02  0.1373809E+00
          1   -1    0    0  501    0  0.00000000000E+00  0.00000000000E+00  0.26608023655E+03  0.26608023655E+03  0.00000000000E+00 0. -1.
         -1   -1    0    0    0  501 -0.00000000000E+00 -0.00000000000E+00 -0.46098750206E+02  0.46098750206E+02  0.00000000000E+00 0.  1.
         23    2    1    2    0    0 -0.89430988920E+01  0.24567771115E+02  0.11876083633E+03  0.17445603216E+03  0.12508883450E+03 0.  0.
          5    1    3    3  502    0 -0.30031104960E+02  0.99117985057E+01 -0.17053493587E+02  0.36171882150E+02  0.41800000000E+01 0. -1.
         -5    1    3    3    0  502  0.21088006068E+02  0.14655972609E+02  0.13581432992E+03  0.13828415001E+03  0.41800000000E+01 0. -1.
        -11    1    1    2    0    0  0.39096753701E+02 -0.79698407480E+01  0.94602071375E+02  0.10267242288E+03  0.00000000000E+00 0. -1.
         11    1    1    2    0    0 -0.30153654809E+02 -0.16597930367E+02  0.66185786447E+01  0.35050531723E+02  0.00000000000E+00 0.  1.
</event>
<event>
 7    1  0.8661710E-006  0.1638101E+03  0.7561462E-02  0.1184461E+00
         -2   -1    0    0    0  501 -0.00000000000E+00  0.00000000000E+00  0.38880291554E+02  0.38880291554E+02  0.00000000000E+00 0. -1.
          2   -1    0    0  501    0  0.00000000000E+00 -0.00000000000E+00 -0.74769647691E+03  0.74769647691E+03  0.00000000000E+00 0.  1.
         23    2    1    2    0    0 -0.52316921991E+02  0.11462599293E+03 -0.29811202403E+03  0.34698012239E+03  0.12509295694E+03 0.  0.
          5    1    3    3  502    0 -0.47023646425E+02 -0.12546016261E+02 -0.10282629658E+03  0.11383912120E+03  0.41800000000E+01 0. -1.
         -5    1    3    3    0  502 -0.52932755655E+01  0.12717200919E+03 -0.19528572746E+03  0.23314100119E+03  0.41800000000E+01 0. -1.
        -11    1    1    2    0    0  0.44338130256E+02 -0.86848958799E+01 -0.75785326864E+02  0.88231020503E+02  0.00000000000E+00 0. -1.
         11    1    1    2    0    0  0.79787917344E+01 -0.10594109705E+03 -0.33491883446E+03  0.35136562557E+03  0.00000000000E+00 0.  1.
</event>
<event>
 6    1  0.8661710E-006  0.1314479E+03  0.7561462E-02  0.1225323E+00
          2   -1    0    0  501    0  0.00000000000E+00  0.00000000000E+00  0.12414212482E+03  0.12414212482E+03  0.00000000000E+00 0. -1.
         -2   -1    0    0    0  501 -0.00000000000E+00 -0.00000000000E+00 -0.54168037208E+03  0.54168037208E+03  0.00000000000E+00 0.  1.
          5    1    1    2  502    0  0.68430855476E+01 -0.90393054907E+02 -0.22571882176E+03  0.24327801193E+03  0.41800000000E+01 0. -1.
         -5    1    1    2    0  502  0.32207200630E+02  0.63184566417E+02 -0.27918080661E+03  0.28807809425E+03  0.41800000000E+01 0.  1.
        -11    1    1    2    0    0  0.29102285796E+02  0.58538355960E+01  0.35087072039E+02  0.45959907028E+02  0.00000000000E+00 0.  1.
         11    1    1    2    0    0 -0.68152571974E+02  0.21354652893E+02  0.52274309072E+02  0.88506483693E+02  0.00000000000E+00 0. -1.
</event>
<event>
 7    1  0.8661710E-006  0.9500111E+02  0.7561462E-02  0.1291174E+00
          2   -1    0    0  501    0  0.00000000000E+00  0.00000000000E+00  0.10713211472E+03  0.10713211472E+03  0.00000000000E+00 0. -1.
         -2   -1    0    0    0  501 -0.00000000000E+00 -0.00000000000E+00 -0.11529956820E+03  0.11529956820E+03  0.00000000000E+00 0.  1.
         23    2    1    2    0    0 -0.34788919059E+01 -0.33287084260E+02 -0.28541112846E+02  0.13260143015E+03  0.12509361090E+03 0.  0.
          5    1    3    3  502    0 -0.60140494830E+02 -0.52316395854E+01 -0.33279180001E+02  0.69059578573E+02  0.41800000000E+01 0. -1.
         -5    1    3    3    0  502  0.56661602924E+02 -0.28055444675E+02  0.47380671554E+01  0.63541851580E+02  0.41800000000E+01 0. -1.
        -11    1    1    2    0    0 -0.12380205496E+02 -0.12545950739E+02 -0.20048246563E+02  0.26694616655E+02  0.00000000000E+00 0.  1.
         11    1    1    2    0    0  0.15859097402E+02  0.45833034999E+02  0.40421905933E+02  0.63135636109E+02  0.00000000000E+00 0. -1.
</event>
<event>
 7    1  0.8661710E-006  0.1613068E+03  0.7561462E-02  0.1187229E+00
         -2   -1    0    0    0  501 -0.00000000000E+00  0.00000000000E+00  0.10624602161E+03  0.10624602161E+03  0.00000000000E+00 0.  1.
          2   -1    0    0  501    0  0.00000000000E+00 -0.00000000000E+00 -0.32129623495E+03  0.32129623495E+03  0.00000000000E+00 0. -1.
         23    2    1    2    0    0 -0.48910655898E+02  0.13805434441E+03 -0.76309930588E+02  0.20717658072E+03  0.12509067040E+03 0.  0.
          5    1    3    3  502    0 -0.12222719689E+02  0.97372054814E+02 -0.10617580987E+03  0.14464261798E+03  0.41800000000E+01 0. -1.
         -5    1    3    3    0  502 -0.36687936209E+02  0.40682289600E+02  0.29865879283E+02  0.62533962739E+02  0.41800000000E+01 0. -1.
        -11    1    1    2    0    0 -0.22818706727E+02 -0.55944509087E+02 -0.34764902931E+02  0.69707101141E+02  0.00000000000E+00 0.  1.
         11    1    1    2    0    0  0.71729362625E+02 -0.82109835327E+02 -0.10397537983E+03  0.15065857470E+03  0.00000000000E+00 0. -1.
</event>
<event>
 7    1  0.8661710E-006  0.2270121E+03  0.7561462E-02  0.1128761E+00
          1   -1    0    0  501    0  0.00000000000E+00  0.00000000000E+00  0.62880088654E+02  0.62880088654E+02  0.00000000000E+00 0. -1.
         -1   -1    0    0    0  501 -0.00000000000E+00 -0.00000000000E+00 -0.96072279790E+03  0.96072279790E+03  0.00000000000E+00 0.  1.
         23    2    1    2    0    0  0.14726260282E+03  0.15227048643E+03 -0.59163660935E+03  0.64074524752E+03  0.12509204400E+03 0.  0.
          5    1    3    3  502    0  0.15876096495E+03  0.13743510717E+03 -0.58297743185E+03  0.61965604259E+03  0.41800000000E+01 0. -1.
         -5    1    3    3    0  502 -0.11498362130E+02  0.14835379265E+02 -0.86591774971E+01  0.21089204929E+02  0.41800000000E+01 0. -1.
        -11    1    1    2    0    0 -0.10260843555E+03 -0.14775206254E+03 -0.27336891088E+03  0.32724566378E+03  0.00000000000E+00 0. -1.
         11    1    1    2    0    0 -0.44654167264E+02 -0.45184238984E+01 -0.32837189022E+02  0.55611975252E+02  0.00000000000E+00 0.  1.
</event>
<event>
 7    1  0.8661710E-006  0.6010962E+02  0.7561462E-02  0.1397372E+00
          4   -1    0    0  501    0  0.00000000000E+00  0.00000000000E+00  0.26142020522E+03  0.26142020522E+03  0.00000000000E+00 0. -1.
         -4   -1    0    0    0  501 -0.00000000000E+00 -0.00000000000E+00 -0.43311216736E+02  0.43311216736E+02  0.00000000000E+00 0.  1.
         23    2    1    2    0    0  0.51745314713E+01  0.22642050021E+02  0.10969112423E+03  0.16798582356E+03  0.12509059108E+03 0.  0.
          5    1    3    3  502    0  0.18255864660E+02  0.95350846758E+01 -0.24602755654E+02  0.32356798668E+02  0.41800000000E+01 0.  1.
         -5    1    3    3    0  502 -0.13081333189E+02  0.13106965345E+02  0.13429387988E+03  0.13562902489E+03  0.41800000000E+01 0.  1.
        -11    1    1    2    0    0  0.35539020509E+02 -0.51613093097E+01  0.30522289828E+02  0.47130364616E+02  0.00000000000E+00 0.  1.
         11    1    1    2    0    0 -0.40713551980E+02 -0.17480740711E+02  0.77895574423E+02  0.89615233779E+02  0.00000000000E+00 0. -1.
</event>
<event>
 7    1  0.8661710E-006  0.1032035E+03  0.7561462E-02  0.1273700E+00
          2   -1    0    0  501    0  0.00000000000E+00  0.00000000000E+00  0.11782950672E+03  0.11782950672E+03  0.00000000000E+00 0. -1.
         -2   -1    0    0    0  501 -0.00000000000E+00 -0.00000000000E+00 -0.13185707817E+03  0.13185707817E+03  0.00000000000E+00 0.  1.
         23    2    1    2    0    0  0.27217485741E+02  0.52043162598E+02 -0.25329511005E+02  0.14049207758E+03  0.12508859833E+03 0.  0.
          5    1    3    3  502    0  0.52313744654E+02  0.16696525456E+02 -0.62452409411E+02  0.83266305810E+02  0.41800000000E+01 0. -1.
         -5    1    3    3    0  502 -0.25096258913E+02  0.35346637142E+02  0.37122898406E+02  0.57225771771E+02  0.41800000000E+01 0. -1.
        -11    1    1    2    0    0 -0.55535935223E+02 -0.56375808319E+02  0.14202237661E+02  0.80400095891E+02  0.00000000000E+00 0.  1.
         11    1    1    2    0    0  0.28318449482E+02  0.43326457209E+01 -0.29002981115E+01  0.28794411422E+02  0.00000000000E+00 0. -1.
</event>
<event>
 7    1  0.8661710E-006  0.2532219E+03  0.7561462E-02  0.1111285E+00
          2   -1    0    0  501    0  0.00000000000E+00  0.00000000000E+00  0.58113276149E+03  0.58113276149E+03  0.00000000000E+00 0. -1.
         -2   -1    0    0    0  501 -0.00000000000E+00 -0.00000000000E+00 -0.11194853805E+03  0.11194853805E+03  0.00000000000E+00 0.  1.
         23    2    1    2    0    0 -0.20095867722E+02 -0.22899398690E+03  0.26854055306E+03  0.37497058752E+03  0.12508726124E+03 0.  0.
          5    1    3    3  502    0  0.12980757428E+02 -0.22670179131E+03  0.22127296073E+03  0.31708263560E+03  0.41800000000E+01 0. -1.
         -5    1    3    3    0  502 -0.33076625150E+02 -0.22921955888E+01  0.47267592336E+02  0.57887951917E+02  0.41800000000E+01 0. -1.
        -11    1    1    2    0    0 -0.32834503260E+02  0.12478998662E+03  0.11909197917E+03  0.17559483155E+03  0.00000000000E+00 0.  1.
         11    1    1    2    0    0  0.52930370982E+02  0.10420400029E+03  0.81551691211E+02  0.14251588047E+03  0.00000000000E+00 0. -1.
</event>
<event>
 7    1  0.8661710E-006  0.1343118E+03  0.7561462E-02  0.1221195E+00
          2   -1    0    0  501    0  0.00000000000E+00  0.00000000000E+00  0.25329148614E+03  0.25329148614E+03  0.00000000000E+00 0. -1.
         -2   -1    0    0    0  501 -0.00000000000E+00 -0.00000000000E+00 -0.91149705463E+02  0.91149705463E+02  0.00000000000E+00 0.  1.
         23    2    1    2    0    0  0.81894602661E+02  0.65232872094E+02  0.69829081293E+02  0.17744290162E+03  0.12509128345E+03 0.  0.
          5    1    3    3  502    0  0.99792246103E+02  0.87645727537E+02  0.65458434667E+02  0.14813016238E+03  0.41800000000E+01 0. -1.
         -5    1    3    3    0  502 -0.17897643442E+02 -0.22412855442E+02  0.43706466257E+01  0.29312739240E+02  0.41800000000E+01 0. -1.
        -11    1    1    2    0    0 -0.36460688526E+02 -0.16163957903E+02 -0.13258595182E+02  0.42029105262E+02  0.00000000000E+00 0.  1.
         11    1    1    2    0    0 -0.45433914135E+02 -0.49068914191E+02  0.10557129457E+03  0.12496918472E+03  0.00000000000E+00 0. -1.
</event>
<event>
 7    1  0.8661710E-006  0.2003936E+03  0.7561462E-02  0.1149407E+00
          1   -1    0    0  501    0  0.00000000000E+00  0.00000000000E+00  0.79122429608E+03  0.79122429608E+03  0.00000000000E+00 0. -1.
         -1   -1    0    0    0  501 -0.00000000000E+00 -0.00000000000E+00 -0.55597472194E+02  0.55597472194E+02  0.00000000000E+00 0.  1.
         23    2    1    2    0    0 -0.17190222378E+03  0.53847009795E+02  0.37444993794E+03  0.43394797971E+03  0.12509283779E+03 0.  0.
          5    1    3    3  502    0 -0.10583169529E+02 -0.21790687227E+02  0.70020092906E+01  0.25560478501E+02  0.41800000000E+01 0.  1.
         -5    1    3    3    0  502 -0.16131905426E+03  0.75637697022E+02  0.36744792865E+03  0.40838750121E+03  0.41800000000E+01 0.  1.
        -11    1    1    2    0    0  0.94116927662E+02 -0.71530852181E+02  0.18597048068E+03  0.22036260702E+03  0.00000000000E+00 0.  1.
         11    1    1    2    0    0  0.77785296123E+02  0.17683842386E+02  0.17520640527E+03  0.19251118155E+03  0.00000000000E+00 0. -1.
</event>
<event>
 7    1  0.8661710E-006  0.1510942E+03  0.7561462E-02  0.1199135E+00
          2   -1    0    0  501    0  0.00000000000E+00  0.00000000000E+00  0.46320730432E+03  0.46320730432E+03  0.00000000000E+00 0.  1.
         -2   -1    0    0    0  501 -0.00000000000E+00 -0.00000000000E+00 -0.58626058273E+02  0.58626058273E+02  0.00000000000E+00 0. -1.
         23    2    1    2    0    0 -0.11115279728E+03 -0.46690802160E+02  0.18083054527E+03  0.25076379481E+03  0.12509124404E+03 0.  0.
          5    1    3    3  502    0 -0.34197781597E+02  0.42444314874E+02  0.43889801992E+02  0.70105600704E+02  0.41800000000E+01 0. -1.
         -5    1    3    3    0  502 -0.76955015683E+02 -0.89135117033E+02  0.13694074327E+03  0.18065819410E+03  0.41800000000E+01 0. -1.
        -11    1    1    2    0    0  0.92026393417E+02  0.56710104031E+02  0.10614432995E+03  0.15149756356E+03  0.00000000000E+00 0. -1.
         11    1    1    2    0    0  0.19126403863E+02 -0.10019301872E+02  0.11760637083E+03  0.11957200423E+03  0.00000000000E+00 0.  1.
</event>
<event>
 7    1  0.8661710E-006  0.1143221E+03  0.7561462E-02  0.1252769E+00
         -2   -1    0    0    0  501 -0.00000000000E+00  0.00000000000E+00  0.28260517908E+03  0.28260517908E+03  0.00000000000E+00 0.  1.
          2   -1    0    0  501    0  0.00000000000E+00 -0.00000000000E+00 -0.52044464240E+02  0.52044464240E+02  0.00000000000E+00 0. -1.
         23    2    1    2    0    0 -0.29275244412E+02 -0.36191966180E+02  0.10890639124E+03  0.17225439180E+03  0.12507627708E+03 0.  0.
          5    1    3    3  502    0  0.15773833172E+02  0.34158306973E+02  0.70918293560E+02  0.80389554730E+02  0.41800000000E+01 0.  1.
         -5    1    3    3    0  502 -0.45049077584E+02 -0.70350273153E+02  0.37988097683E+02  0.91864837068E+02  0.41800000000E+01 0.  1.
        -11    1    1    2    0    0  0.59533918711E+00  0.65871060124E+02  0.81738353512E+02  0.10497861413E+03  0.00000000000E+00 0. -1.
         11    1    1    2    0    0  0.28679905225E+02 -0.29679093944E+02  0.39915970081E+02  0.57416637384E+02  0.00000000000E+00 0.  1.
</event>
<event>
 7    1  0.8661710E-006  0.1009270E+03  0.7561462E-02  0.1278359E+00
          3   -1    0    0  501    0  0.00000000000E+00  0.00000000000E+00  0.34208621154E+02  0.34208621154E+02  0.00000000000E+00 0. -1.
         -3   -1    0    0    0  501 -0.00000000000E+00 -0.00000000000E+00 -0.45516305474E+03  0.45516305474E+03  0.00000000000E+00 0.  1.
         23    2    1    2    0    0 -0.52363745545E+02  0.13596827684E+01 -0.21739364235E+03  0.25622377286E+03  0.12508723139E+03 0.  0.
          5    1    3    3  502    0 -0.21401345650E+02 -0.42784729545E+02 -0.20809407301E+02  0.52335977206E+02  0.41800000000E+01 0.  1.
         -5    1    3    3    0  502 -0.30962399896E+02  0.44144412313E+02 -0.19658423505E+03  0.20388779565E+03  0.41800000000E+01 0.  1.
        -11    1    1    2    0    0  0.19751108172E+02 -0.42728627199E+02 -0.41547293123E+02  0.62785503281E+02  0.00000000000E+00 0. -1.
         11    1    1    2    0    0  0.32612637373E+02  0.41368944431E+02 -0.16201349812E+03  0.17036239976E+03  0.00000000000E+00 0.  1.
</event>
<event>
 7    1  0.8661710E-006  0.2277745E+03  0.7561462E-02  0.1128216E+00
          3   -1    0    0  501    0  0.00000000000E+00  0.00000000000E+00  0.43420955244E+03  0.43420955244E+03  0.00000000000E+00 0. -1.
         -3   -1    0    0    0  501 -0.00000000000E+00 -0.00000000000E+00 -0.14443949511E+03  0.14443949511E+03  0.00000000000E+00 0.  1.
         23    2    1    2    0    0 -0.16803059033E+03 -0.14223881997E+03  0.94196244063E+02  0.27015912330E+03  0.12508740270E+03 0.  0.
          5    1    3    3  502    0 -0.15171991104E+03 -0.98255646110E+02  0.11946916975E+03  0.21671054039E+03  0.41800000000E+01 0.  1.
         -5    1    3    3    0  502 -0.16310679289E+02 -0.43983173859E+02 -0.25272925685E+02  0.53448582902E+02  0.41800000000E+01 0.  1.
        -11    1    1    2    0    0  0.74373292720E+02  0.26937731836E+02  0.11476976320E+03  0.13938840200E+03  0.00000000000E+00 0. -1.
         11    1    1    2    0    0  0.93657297607E+02  0.11530108813E+03  0.80804050065E+02  0.16910152225E+03  0.00000000000E+00 0.  1.
</event>
<event>
 7    1  0.8661710E-006  0.8511850E+02  0.7561462E-02  0.1315123E+00
          3   -1    0    0  501    0  0.00000000000E+00  0.00000000000E+00  0.33141533125E+02  0.33141533125E+02  0.00000000000E+00 0. -1.
         -3   -1    0    0    0  501 -0.00000000000E+00 -0.00000000000E+00 -0.41811072561E+03  0.41811072561E+03  0.00000000000E+00 0.  1.
         23    2    1    2    0    0 -0.32843343364E+02 -0.10605083370E+02 -0.27864349656E+03  0.30737435065E+03  0.12508253382E+03 0.  0.
          5    1    3    3  502    0  0.14855623071E+02 -0.52212805096E+02 -0.19463449313E+03  0.20210622175E+03  0.41800000000E+01 0. -1.
         -5    1    3    3    0  502 -0.47698966435E+02  0.41607721727E+02 -0.84009003433E+02  0.10526812891E+03  0.41800000000E+01 0. -1.
        -11    1    1    2    0    0  0.25278212346E+02 -0.12388843506E+02 -0.11482289949E+03  0.11822338901E+03  0.00000000000E+00 0.  1.
         11    1    1    2    0    0  0.75651310181E+01  0.22993926876E+02  0.84972035601E+01  0.25654519072E+02  0.00000000000E+00 0. -1.
</event>
<event>
 7    1  0.8661710E-006  0.7371581E+02  0.7561462E-02  0.1347894E+00
          2   -1    0    0  501    0  0.00000000000E+00  0.00000000000E+00  0.59887492865E+03  0.59887492865E+03  0.00000000000E+00 0. -1.
         -2   -1    0    0    0  501 -0.00000000000E+00 -0.00000000000E+00 -0.19236654845E+02  0.19236654845E+02  0.00000000000E+00 0.  1.
         23    2    1    2    0    0 -0.11586314861E+01  0.13148274499E+01  0.26353317171E+03  0.29078222622E+03  0.12288815767E+03 0.  0.
          5    1    3    3  502    0  0.98739634444E+01  0.30023464507E+02  0.25711920648E+03  0.25908813619E+03  0.41800000000E+01 0. -1.
         -5    1    3    3    0  502 -0.11032594930E+02 -0.28708637058E+02  0.64139652313E+01  0.31694090026E+02  0.41800000000E+01 0.  1.
        -11    1    1    2    0    0 -0.23787987697E+02 -0.35169808459E+02  0.17599396077E+03  0.18104324901E+03  0.00000000000E+00 0.  1.
         11    1    1    2    0    0  0.24946619183E+02  0.33854981009E+02  0.14011114132E+03  0.14628610826E+03  0.00000000000E+00 0. -1.
</event>
<event>
 7    1  0.8661710E-006  0.8936735E+02  0.7561462E-02  0.1304391E+00
         -2   -1    0    0    0  501 -0.00000000000E+00  0.00000000000E+00  0.28349738104E+03  0.28349738104E+03  0.00000000000E+00 0.  1.
          2   -1    0    0  501    0  0.00000000000E+00 -0.00000000000E+00 -0.53778509099E+02  0.53778509099E+02  0.00000000000E+00 0. -1.
         23    2    1    2    0    0 -0.46988449145E+02 -0.95058399409E+01  0.17403351257E+03  0.22006322658E+03  0.12586454961E+03 0.  0.
          5    1    3    3  502    0 -0.19670194486E+02 -0.33761684979E+02  0.17872499397E+03  0.18299416328E+03  0.41800000000E+01 0. -1.
         -5    1    3    3    0  502 -0.27318254659E+02  0.24255845038E+02 -0.46914814019E+01  0.37069063300E+02  0.41800000000E+01 0. -1.
        -11    1    1    2    0    0  0.45428704245E+02 -0.35487450179E+02  0.25668083132E+02  0.63102906282E+02  0.00000000000E+00 0. -1.
         11    1    1    2    0    0  0.15597448997E+01  0.44993290120E+02  0.30017276241E+02  0.54109757280E+02  0.00000000000E+00 0.  1.
</event>
<event>
 7    1  0.8661710E-006  0.1639527E+03  0.7561462E-02  0.1184305E+00
          2   -1    0    0  501    0  0.00000000000E+00  0.00000000000E+00  0.68192631229E+03  0.68192631229E+03  0.00000000000E+00 0.  1.
         -2   -1    0    0    0  501 -0.00000000000E+00 -0.00000000000E+00 -0.42008318115E+02  0.42008318115E+02  0.00000000000E+00 0. -1.
         23    2    1    2    0    0 -0.13395046011E+03 -0.23190906292E+01  0.36207235950E+03  0.40582294030E+03  0.12509101253E+03 0.  0.
          5    1    3    3  502    0 -0.70026499556E+02 -0.57471450671E+02  0.12732367249E+03  0.15631848342E+03  0.41800000000E+01 0.  1.
         -5    1    3    3    0  502 -0.63923960553E+02  0.55152360041E+02  0.23474868701E+03  0.24950445688E+03  0.41800000000E+01 0.  1.
        -11    1    1    2    0    0  0.41734254069E+02 -0.33744552700E+02  0.12450677523E+03  0.13558163548E+03  0.00000000000E+00 0.  1.
         11    1    1    2    0    0  0.92216206040E+02  0.36063643330E+02  0.15333885944E+03  0.18253005463E+03  0.00000000000E+00 0. -1.
</event>
<event>
 7    1  0.8661710E-006  0.9246220E+02  0.7561462E-02  0.1296996E+00
         -1   -1    0    0    0  501 -0.00000000000E+00  0.00000000000E+00  0.56855670888E+03  0.56855670888E+03  0.00000000000E+00 0.  1.
          1   -1    0    0  501    0  0.00000000000E+00 -0.00000000000E+00 -0.41613462910E+02  0.41613462910E+02  0.00000000000E+00 0. -1.
         23    2    1    2    0    0 -0.50760312918E+02  0.60588099956E+02  0.43117399423E+03  0.45585763059E+03  0.12509052259E+03 0.  0.
          5    1    3    3  502    0 -0.45744101880E+02  0.32518089074E+01  0.36567802874E+03  0.36856612733E+03  0.41800000000E+01 0. -1.
         -5    1    3    3    0  502 -0.50162110377E+01  0.57336291049E+02  0.65495965493E+02  0.87291503253E+02  0.41800000000E+01 0. -1.
        -11    1    1    2    0    0  0.24852929828E+02 -0.43604655069E+02 -0.35099783709E+01  0.50312563172E+02  0.00000000000E+00 0. -1.
         11    1    1    2    0    0  0.25907383090E+02 -0.16983444887E+02  0.99279230114E+02  0.10399997803E+03  0.00000000000E+00 0.  1.
</event>
<event>
 7    1  0.8661710E-006  0.9583386E+02  0.7561462E-02  0.1289309E+00
          3   -1    0    0  501    0  0.00000000000E+00  0.00000000000E+00  0.63154315069E+02  0.63154315069E+02  0.00000000000E+00 0. -1.
         -3   -1    0    0    0  501 -0.00000000000E+00 -0.00000000000E+00 -0.22015749723E+03  0.22015749723E+03  0.00000000000E+00 0.  1.
         23    2    1    2    0    0 -0.14272768266E+02 -0.37160263519E+02 -0.11875532637E+03  0.17701884140E+03  0.12509294773E+03 0.  0.
          5    1    3    3  502    0 -0.27802267075E+02 -0.64861150780E+02 -0.12654154600E+03  0.14494885373E+03  0.41800000000E+01 0.  1.
         -5    1    3    3    0  502  0.13529498808E+02  0.27700887261E+02  0.77862196300E+01  0.32069987671E+02  0.41800000000E+01 0.  1.
        -11    1    1    2    0    0  0.47857612968E+02  0.17550177927E+02 -0.43547305056E+02  0.67042729971E+02  0.00000000000E+00 0.  1.
         11    1    1    2    0    0 -0.33584844702E+02  0.19610085592E+02  0.52994492575E+01  0.39250240929E+02  0.00000000000E+00 0. -1.
</event>
<event>
 7    1  0.8661710E-006  0.8124585E+02  0.7561462E-02  0.1325553E+00
         -1   -1    0    0    0  501 -0.00000000000E+00  0.00000000000E+00  0.33166735421E+03  0.33166735421E+03  0.00000000000E+00 0.  1.
          1   -1    0    0  501    0  0.00000000000E+00 -0.00000000000E+00 -0.42482695295E+02  0.42482695295E+02  0.00000000000E+00 0. -1.
         23    2    1    2    0    0  0.41995473929E+02 -0.31177041320E+02  0.15776996891E+03  0.20802366130E+03  0.12508738079E+03 0.  0.
          5    1    3    3  502    0 -0.61244003469E+01 -0.13866445332E+02 -0.18591725623E+02  0.24349768939E+02  0.41800000000E+01 0.  1.
         -5    1    3    3    0  502  0.48119874276E+02 -0.17310595987E+02  0.17636169454E+03  0.18367389236E+03  0.41800000000E+01 0.  1.
        -11    1    1    2    0    0 -0.23433477506E+02  0.58161993078E+02  0.56662810678E+02  0.84514019078E+02  0.00000000000E+00 0. -1.
         11    1    1    2    0    0 -0.18561996423E+02 -0.26984951758E+02  0.74751879329E+02  0.81612369135E+02  0.00000000000E+00 0.  1.
</event>
<event>
 7    1  0.8661710E-006  0.1169546E+03  0.7561462E-02  0.1248207E+00
          2   -1    0    0  501    0  0.00000000000E+00  0.00000000000E+00  0.47031074972E+02  0.47031074972E+02  0.00000000000E+00 0. -1.
         -2   -1    0    0    0  501 -0.00000000000E+00 -0.00000000000E+00 -0.32074592153E+03  0.32074592153E+03  0.00000000000E+00 0.  1.
         23    2    1    2    0    0  0.97787551356E+01  0.49284768085E+02 -0.17442076047E+03  0.22044379768E+03  0.12509298075E+03 0.  0.
          5    1    3    3  502    0  0.52301949065E+02 -0.16503103641E+02 -0.56828868281E+02  0.79087539954E+02  0.41800000000E+01 0. -1.
         -5    1    3    3    0  502 -0.42523193929E+02  0.65787871726E+02 -0.11759189219E+03  0.14135625772E+03  0.41800000000E+01 0. -1.
        -11    1    1    2    0    0  0.30143263837E+02 -0.52363620386E+02 -0.30371484360E+02  0.67623902260E+02  0.00000000000E+00 0. -1.
         11    1    1    2    0    0 -0.39922018973E+02  0.30788523009E+01 -0.68922601721E+02  0.79709296562E+02  0.00000000000E+00 0.  1.
</event>
<event>
 6    1  0.8661710E-006  0.2235844E+03  0.7561462E-02  0.1131239E+00
          2   -1    0    0  501    0  0.00000000000E+00  0.00000000000E+00  0.48748446197E+03  0.48748446197E+03  0.00000000000E+00 0. -1.
         -2   -1    0    0    0  501 -0.00000000000E+00 -0.00000000000E+00 -0.10828433197E+03  0.10828433197E+03  0.00000000000E+00 0.  1.
          5    1    1    2  502    0 -0.83728598329E+02  0.15302281228E+03  0.12928037479E+03  0.21715742438E+03  0.41800000000E+01 0. -1.
         -5    1    1    2    0  502  0.12353517366E+03 -0.13106556478E+03  0.13200780778E+03  0.22334425249E+03  0.41800000000E+01 0.  1.
        -11    1    1    2    0    0 -0.60845313074E+02  0.17021726116E+01  0.44750914510E+02  0.75549281030E+02  0.00000000000E+00 0.  1.
         11    1    1    2    0    0  0.21038737739E+02 -0.23659420116E+02  0.73161032923E+02  0.79717836048E+02  0.00000000000E+00 0. -1.
</event>
<event>
 7    1  0.8661710E-006  0.2095384E+03  0.7561462E-02  0.1141932E+00
         -1   -1    0    0    0  501 -0.00000000000E+00  0.00000000000E+00  0.14765135614E+03  0.14765135614E+03  0.00000000000E+00 0.  1.
          1   -1    0    0  501    0  0.00000000000E+00 -0.00000000000E+00 -0.35634775695E+03  0.35634775695E+03  0.00000000000E+00 0. -1.
         23    2    1    2    0    0 -0.16661121903E+03  0.10294482522E+03 -0.54754191854E+02  0.23875173360E+03  0.12508970151E+03 0.  0.
          5    1    3    3  502    0 -0.16704592251E+03  0.76221387477E+02 -0.69124741073E+01  0.18379144385E+03  0.41800000000E+01 0.  1.
         -5    1    3    3    0  502  0.43470347738E+00  0.26723437739E+02 -0.47841717747E+02  0.54960289743E+02  0.41800000000E+01 0.  1.
        -11    1    1    2    0    0  0.77413914354E+02 -0.89208551597E+02 -0.12122027385E+03  0.16924962217E+03  0.00000000000E+00 0.  1.
         11    1    1    2    0    0  0.89197304676E+02 -0.13736273619E+02 -0.32721935105E+02  0.95997757325E+02  0.00000000000E+00 0. -1.
</event>
<event>
 6    1  0.8661710E-006  0.5593472E+02  0.7561462E-02  0.1415730E+00
          2   -1    0    0  501    0  0.00000000000E+00  0.00000000000E+00  0.52678986415E+02  0.52678986415E+02  0.00000000000E+00 0. -1.
         -2   -1    0    0    0  501 -0.00000000000E+00 -0.00000000000E+00 -0.15251098380E+03  0.15251098380E+03  0.00000000000E+00 0.  1.
          5    1    1    2  502    0  0.14601344819E+02  0.32060446109E+02  0.25086027962E+02  0.43449426626E+02  0.41800000000E+01 0. -1.
         -5    1    1    2    0  502 -0.34080600638E+02 -0.24810014553E+02 -0.11942636133E+03  0.12671681949E+03  0.41800000000E+01 0.  1.
        -11    1    1    2    0    0  0.13651035783E+01 -0.14468440346E+02 -0.54596779773E+01  0.15524411662E+02  0.00000000000E+00 0. -1.
         11    1    1    2    0    0  0.18114152241E+02  0.72180087903E+01 -0.31986038429E-01  0.19499312434E+02  0.00000000000E+00 0.  1.
</event>
<event>
 7    1  0.8661710E-006  0.7317046E+02  0.7561462E-02  0.1349632E+00
         -1   -1    0    0    0  501 -0.00000000000E+00  0.00000000000E+00  0.32043909284E+02  0.32043909284E+02  0.00000000000E+00 0.  1.
          1   -1    0    0  501    0  0.00000000000E+00 -0.00000000000E+00 -0.44669141857E+03  0.44669141857E+03  0.00000000000E+00 0. -1.
         23    2    1    2    0    0 -0.36643097403E+02 -0.10920400548E+02 -0.17198821081E+03  0.21607178377E+03  0.12508037155E+03 0.  0.
          5    1    3    3  502    0 -0.51269649643E+02  0.42346026544E-01 -0.92597257330E+01  0.52266563770E+02  0.41800000000E+01 0. -1.
         -5    1    3    3    0  502  0.14626552240E+02 -0.10962746575E+02 -0.16272848508E+03  0.16380522000E+03  0.41800000000E+01 0. -1.
        -11    1    1    2    0    0  0.25524532507E+01  0.34567216666E+02 -0.29534147067E+02  0.45537603457E+02  0.00000000000E+00 0.  1.
         11    1    1    2    0    0  0.34090644152E+02 -0.23646816117E+02 -0.21312515141E+03  0.21712594063E+03  0.00000000000E+00 0. -1.
</event>
<event>
 7    1  0.8661710E-006  0.1132983E+03  0.7561462E-02  0.1254581E+00
          1   -1    0    0  501    0  0.00000000000E+00  0.00000000000E+00  0.34880521888E+03  0.34880521888E+03  0.00000000000E+00 0. -1.
         -1   -1    0    0    0  501 -0.00000000000E+00 -0.00000000000E+00 -0.40703425622E+02  0.40703425622E+02  0.00000000000E+00 0.  1.
         23    2    1    2    0    0  0.41726599043E+02 -0.21102542261E+02  0.15059017245E+03  0.20127643016E+03  0.12509346482E+03 0.  0.
          5    1    3    3  502    0 -0.23555745509E+02 -0.47414938125E+02  0.28459395806E+02  0.60253291309E+02  0.41800000000E+01 0. -1.
         -5    1    3    3    0  502  0.65282344553E+02  0.26312395864E+02  0.12213077665E+03  0.14102313885E+03  0.41800000000E+01 0. -1.
        -11    1    1    2    0    0 -0.19211673244E+00 -0.33986065150E+02  0.55558581175E+02  0.65129451674E+02  0.00000000000E+00 0. -1.
         11    1    1    2    0    0 -0.41534482311E+02  0.55088607411E+02  0.10195303963E+03  0.12310276267E+03  0.00000000000E+00 0.  1.
</event>
<event>
 7    1  0.8661710E-006  0.1071023E+03  0.7561462E-02  0.1266032E+00
         -1   -1    0    0    0  501 -0.00000000000E+00  0.00000000000E+00  0.15254540824E+03  0.15254540824E+03  0.00000000000E+00 0.  1.
          1   -1    0    0  501    0  0.00000000000E+00 -0.00000000000E+00 -0.11300453692E+03  0.11300453692E+03  0.00000000000E+00 0. -1.
         23    2    1    2    0    0 -0.30768781043E+02 -0.59106080774E+02  0.53833173743E+02  0.15161019592E+03  0.12508954489E+03 0.  0.
          5    1    3    3  502    0  0.14163277865E+02  0.12356169279E+02  0.63674059215E+02  0.66521662457E+02  0.41800000000E+01 0.  1.
         -5    1    3    3    0  502 -0.44932058907E+02 -0.71462250053E+02 -0.98408854723E+01  0.85088533465E+02  0.41800000000E+01 0.  1.
        -11    1    1    2    0    0 -0.31150146462E+02  0.16296703517E+02  0.67052210356E+01  0.35789302302E+02  0.00000000000E+00 0.  1.
         11    1    1    2    0    0  0.61918927505E+02  0.42809377257E+02 -0.20997523460E+02  0.78150446934E+02  0.00000000000E+00 0. -1.
</event>
<event>
 7    1  0.8661710E-006  0.1146645E+03  0.7561462E-02  0.1252168E+00
         -1   -1    0    0    0  501 -0.00000000000E+00  0.00000000000E+00  0.43760646954E+03  0.43760646954E+03  0.00000000000E+00 0.  1.
          1   -1    0    0  501    0  0.00000000000E+00 -0.00000000000E+00 -0.58177628960E+02  0.58177628960E+02  0.00000000000E+00 0. -1.
         23    2    1    2    0    0 -0.64886829269E+02 -0.21867786187E+02  0.34975157649E+03  0.37770745409E+03  0.12509298514E+03 0.  0.
          5    1    3    3  502    0 -0.84764587382E+02 -0.49909801455E+02  0.30860691384E+03  0.32393166444E+03  0.41800000000E+01 0.  1.
         -5    1    3    3    0  502  0.19877758114E+02  0.28042015268E+02  0.41144662643E+02  0.53775789645E+02  0.41800000000E+01 0.  1.
        -11    1    1    2    0    0  0.22518883277E+02 -0.24609339183E+02 -0.19144247136E+02  0.38460653628E+02  0.00000000000E+00 0. -1.
         11    1    1    2    0    0  0.42367945992E+02  0.46477125370E+02  0.48821511230E+02  0.79615990787E+02  0.00000000000E+00 0.  1.
</event>
<event>
 7    1  0.8661710E-006  0.7082292E+02  0.7561462E-02  0.1357317E+00
         -1   -1    0    0    0  501 -0.00000000000E+00  0.00000000000E+00  0.66788651827E+02  0.66788651827E+02  0.00000000000E+00 0.  1.
          1   -1    0    0  501    0  0.00000000000E+00 -0.00000000000E+00 -0.22286564513E+03  0.22286564513E+03  0.00000000000E+00 0. -1.
         23    2    1    2    0    0  0.10599820995E+02  0.87093911378E+01 -0.38991300621E+01  0.11114984521E+03  0.11023100824E+03 0.  0.
          5    1    3    3  502    0 -0.29136450033E+02  0.43931719731E+01 -0.44816109470E+02  0.53797664898E+02  0.41800000000E+01 0. -1.
         -5    1    3    3    0  502  0.39736271028E+02  0.43162191647E+01  0.40916979408E+02  0.57352180316E+02  0.41800000000E+01 0.  1.
        -11    1    1    2    0    0  0.27166917453E+02  0.10744359136E+02 -0.11238400347E+02  0.31301506346E+02  0.00000000000E+00 0.  1.
         11    1    1    2    0    0 -0.37766738449E+02 -0.19453750274E+02 -0.14093946289E+03  0.14720294540E+03  0.00000000000E+00 0. -1.
</event>
<event>
 7    1  0.8661710E-006  0.1151637E+03  0.7561462E-02  0.1251296E+00
          1   -1    0    0  501    0  0.00000000000E+00  0.00000000000E+00  0.40663412359E+03  0.40663412359E+03  0.00000000000E+00 0. -1.
         -1   -1    0    0    0  501 -0.00000000000E+00 -0.00000000000E+00 -0.52422966639E+02  0.52422966639E+02  0.00000000000E+00 0.  1.
         23    2    1    2    0    0 -0.30994453031E+02  0.43106741150E+02  0.63814159430E+02  0.15013015764E+03  0.12509184641E+03 0.  0.
          5    1    3    3  502    0  0.43993828425E+02  0.10278633115E+02 -0.13894129453E+01  0.45392842019E+02  0.41800000000E+01 0. -1.
         -5    1    3    3    0  502 -0.74988281456E+02  0.32828108035E+02  0.65203572376E+02  0.10473731562E+03  0.41800000000E+01 0. -1.
        -11    1    1    2    0    0  0.59104729290E+02 -0.10657147164E+02  0.20055023122E+03  0.20934980070E+03  0.00000000000E+00 0.  1.
         11    1    1    2    0    0 -0.28110276259E+02 -0.32449593986E+02  0.89846766300E+02  0.99577131892E+02  0.00000000000E+00 0. -1.
</event>
<event>
 7    1  0.8661710E-006  0.1088708E+03  0.7561462E-02  0.1262675E+00
          2   -1    0    0  501    0  0.00000000000E+00  0.00000000000E+00  0.83087061639E+02  0.83087061639E+02  0.00000000000E+00 0. -1.
         -2   -1    0    0    0  501 -0.00000000000E+00 -0.00000000000E+00 -0.14823086803E+03  0.14823086803E+03  0.00000000000E+00 0.  1.
         23    2    1    2    0    0  0.40679208367E+02  0.11910716286E+02 -0.44858516748E+02  0.13948300179E+03  0.12508620271E+03 0.  0.
          5    1    3    3  502    0  0.21589867232E+02 -0.55266970871E+02 -0.34487497926E+02  0.68756238623E+02  0.41800000000E+01 0.  1.
         -5    1    3    3    0  502  0.19089341135E+02  0.67177687157E+02 -0.10371018822E+02  0.70726763168E+02  0.41800000000E+01 0.  1.
        -11    1    1    2    0    0 -0.29249348549E+02  0.31748063602E+02 -0.17622305219E+02  0.46626275578E+02  0.00000000000E+00 0.  1.
         11    1    1    2    0    0 -0.11429859818E+02 -0.43658779888E+02 -0.26629844239E+01  0.45208652301E+02  0.00000000000E+00 0. -1.
</event>
<event>
 7    1  0.8661710E-006  0.2177447E+03  0.7561462E-02  0.1135576E+00
         -4   -1    0    0    0  501 -0.00000000000E+00  0.00000000000E+00  0.26480972370E+03  0.26480972370E+03  0.00000000000E+00 0.  1.
          4   -1    0    0  501    0  0.00000000000E+00 -0.00000000000E+00 -0.26320654963E+03  0.26320654963E+03  0.00000000000E+00 0. -1.
         23    2    1    2    0    0 -0.17230435057E+03 -0.11900127916E+03  0.12180564854E+03  0.27264191276E+03  0.12508758097E+03 0.  0.
          5    1    3    3  502    0 -0.11036627912E+03 -0.30516770867E+02  0.67571639758E+01  0.11478292790E+03  0.41800000000E+01 0.  1.
         -5    1    3    3    0  502 -0.61938071441E+02 -0.88484508292E+02  0.11504848457E+03  0.15785898487E+03  0.41800000000E+01 0.  1.
        -11    1    1    2    0    0  0.10493195193E+03  0.49504240445E+02 -0.23160546251E+02  0.11831227857E+03  0.00000000000E+00 0.  1.
         11    1    1    2    0    0  0.67372398636E+02  0.69497038715E+02 -0.97041928219E+02  0.13706208199E+03  0.00000000000E+00 0. -1.
</event>
<event>
 6    1  0.8661710E-006  0.2079014E+03  0.7561462E-02  0.1143239E+00
         -2   -1    0    0    0  501 -0.00000000000E+00  0.00000000000E+00  0.99663612124E+02  0.99663612124E+02  0.00000000000E+00 0.  1.
          2   -1    0    0  501    0  0.00000000000E+00 -0.00000000000E+00 -0.48819593920E+03  0.48819593920E+03  0.00000000000E+00 0. -1.
          5    1    1    2  502    0 -0.82616959350E+02  0.24951464226E+02 -0.77257207236E+02  0.11590636742E+03  0.41800000000E+01 0. -1.
         -5    1    1    2    0  502 -0.79911531103E+02 -0.10037155213E+03 -0.40340147528E+02  0.13455519753E+03  0.41800000000E+01 0.  1.
        -11    1    1    2    0    0  0.12150234122E+03  0.75623416282E+01 -0.16746441862E+03  0.20703704847E+03  0.00000000000E+00 0.  1.
         11    1    1    2    0    0  0.41026149230E+02  0.67857746276E+02 -0.10347055370E+03  0.13036093791E+03  0.00000000000E+00 0. -1.
</event>
<event>
 7    1  0.8661710E-006  0.2278229E+03  0.7561462E-02  0.1128182E+00
          1   -1    0    0  501    0  0.00000000000E+00  0.00000000000E+00  0.26358916922E+03  0.26358916922E+03  0.00000000000E+00 0. -1.
         -1   -1    0    0    0  501 -0.00000000000E+00 -0.00000000000E+00 -0.21449152104E+03  0.21449152104E+03  0.00000000000E+00 0.  1.
         23    2    1    2    0    0  0.30262429553E+01 -0.21093797728E+03  0.10214359477E+02  0.24547091369E+03  0.12509055888E+03 0.  0.
          5    1    3    3  502    0  0.63334018280E+02 -0.10372942414E+03 -0.33048663489E+01  0.12165272642E+03  0.41800000000E+01 0.  1.
         -5    1    3    3    0  502 -0.60307775324E+02 -0.10720855315E+03  0.13519225826E+02  0.12381818727E+03  0.41800000000E+01 0.  1.
        -11    1    1    2    0    0 -0.98159503067E+00  0.80495245092E+02 -0.28976221962E+02  0.85557404416E+02  0.00000000000E+00 0.  1.
         11    1    1    2    0    0 -0.20446479246E+01  0.13044273219E+03  0.67859510669E+02  0.14705237215E+03  0.00000000000E+00 0. -1.
</event>
<event>
 7    1  0.8661710E-006  0.1477907E+03  0.7561462E-02  0.1203214E+00
         -2   -1    0    0    0  501 -0.00000000000E+00  0.00000000000E+00  0.44254383276E+02  0.44254383276E+02  0.00000000000E+00 0.  1.
          2   -1    0    0  501    0  0.00000000000E+00 -0.00000000000E+00 -0.66685837186E+03  0.66685837186E+03  0.00000000000E+00 0. -1.
         23    2    1    2    0    0 -0.61381518036E+02  0.13024086290E+03 -0.29353332396E+03  0.35005866353E+03  0.12509549359E+03 0.  0.
          5    1    3    3  502    0 -0.48886837569E+02  0.56498908747E+02 -0.38304718967E+02  0.84064103351E+02  0.41800000000E+01 0.  1.
         -5    1    3    3    0  502 -0.12494680467E+02  0.73741954152E+02 -0.25522860499E+03  0.26599456018E+03  0.41800000000E+01 0.  1.
        -11    1    1    2    0    0 -0.66295045184E-02 -0.17262950628E+02 -0.66318954460E+02  0.68528922573E+02  0.00000000000E+00 0. -1.
         11    1    1    2    0    0  0.61388147540E+02 -0.11297791227E+03 -0.26275171017E+03  0.29252516903E+03  0.00000000000E+00 0.  1.
</event>
<event>
 7    1  0.8661710E-006  0.1231613E+03  0.7561462E-02  0.1237971E+00
          1   -1    0    0  501    0  0.00000000000E+00  0.00000000000E+00  0.76823599824E+02  0.76823599824E+02  0.00000000000E+00 0. -1.
         -1   -1    0    0    0  501 -0.00000000000E+00 -0.00000000000E+00 -0.24310654003E+03  0.24310654003E+03  0.00000000000E+00 0.  1.
         23    2    1    2    0    0  0.88806351855E+02  0.29321987903E+02 -0.93334737938E+02  0.17266036829E+03  0.11114802009E+03 0.  0.
          5    1    3    3  502    0  0.44557746592E+02  0.66558572308E+02 -0.79753535813E+02  0.11310851075E+03  0.41800000000E+01 0. -1.
         -5    1    3    3    0  502  0.44248605264E+02 -0.37236584406E+02 -0.13581202125E+02  0.59551857546E+02  0.41800000000E+01 0.  1.
        -11    1    1    2    0    0 -0.78708913510E+02 -0.17025402336E+01 -0.12051594178E+02  0.79644413686E+02  0.00000000000E+00 0. -1.
         11    1    1    2    0    0 -0.10097438346E+02 -0.27619447669E+02 -0.60896608085E+02  0.67625357869E+02  0.00000000000E+00 0.  1.
</event>
<event>
 7    1  0.8661710E-006  0.1782248E+03  0.7561462E-02  0.1169532E+00
          2   -1    0    0  501    0  0.00000000000E+00  0.00000000000E+00  0.10846715050E+04  0.10846715050E+04  0.00000000000E+00 0. -1.
         -2   -1    0    0    0  501 -0.00000000000E+00 -0.00000000000E+00 -0.37180154519E+02  0.37180154519E+02  0.00000000000E+00 0.  1.
         23    2    1    2    0    0  0.70015497678E+02 -0.14955352146E+03  0.45331913475E+03  0.49841105545E+03  0.12508763555E+03 0.  0.
          5    1    3    3  502    0 -0.75864024438E+01 -0.60864020282E+02  0.29308317047E+03  0.29946151620E+03  0.41800000000E+01 0. -1.
         -5    1    3    3    0  502  0.77601900122E+02 -0.88689501175E+02  0.16023596427E+03  0.19894953925E+03  0.41800000000E+01 0. -1.
        -11    1    1    2    0    0 -0.72339248897E+02  0.81561042787E+02  0.25200275200E+03  0.27457341030E+03  0.00000000000E+00 0.  1.
         11    1    1    2    0    0  0.23237512189E+01  0.67992478669E+02  0.34216946378E+03  0.34886719381E+03  0.00000000000E+00 0. -1.
</event>
<event>
 7    1  0.8661710E-006  0.2321285E+03  0.7561462E-02  0.1125151E+00
          1   -1    0    0  501    0  0.00000000000E+00  0.00000000000E+00  0.73259532170E+03  0.73259532170E+03  0.00000000000E+00 0. -1.
         -1   -1    0    0    0  501 -0.00000000000E+00 -0.00000000000E+00 -0.86849862487E+02  0.86849862487E+02  0.00000000000E+00 0.  1.
         23    2    1    2    0    0  0.18812910127E+03  0.10467397492E+03  0.43988037017E+03  0.50546173906E+03  0.12509048655E+03 0.  0.
          5    1    3    3  502    0  0.17704650726E+03  0.68968323339E+02  0.42396672181E+03  0.46461526983E+03  0.41800000000E+01 0.  1.
         -5    1    3    3    0  502  0.11082594007E+02  0.35705651578E+02  0.15913648363E+02  0.40846469232E+02  0.41800000000E+01 0.  1.
        -11    1    1    2    0    0 -0.16062083596E+03 -0.12404362336E+03  0.16922612039E+03  0.26424108928E+03  0.00000000000E+00 0. -1.
         11    1    1    2    0    0 -0.27508265309E+02  0.19369648445E+02  0.36638968650E+02  0.49742355844E+02  0.00000000000E+00 0.  1.
</event>
<event>
 7    1  0.8661710E-006  0.1274437E+03  0.7561462E-02  0.1231299E+00
         -2   -1    0    0    0  501 -0.00000000000E+00  0.00000000000E+00  0.53968985558E+02  0.53968985558E+02  0.00000000000E+00 0. -1.
          2   -1    0    0  501    0  0.00000000000E+00 -0.00000000000E+00 -0.37133915168E+03  0.37133915168E+03  0.00000000000E+00 0.  1.
         23    2    1    2    0    0 -0.77740392827E+02  0.47808350279E+02 -0.17228135897E+03  0.23164060642E+03  0.12508915564E+03 0.  0.
          5    1    3    3  502    0 -0.93224446712E+02  0.20882437057E+02 -0.55151653713E+02  0.11039044773E+03  0.41800000000E+01 0. -1.
         -5    1    3    3    0  502  0.15484053885E+02  0.26925913222E+02 -0.11712970526E+03  0.12125015869E+03  0.41800000000E+01 0. -1.
        -11    1    1    2    0    0  0.12190331340E+01 -0.51304998050E+02 -0.51164504073E+02  0.72467201849E+02  0.00000000000E+00 0. -1.
         11    1    1    2    0    0  0.76521359693E+02  0.34966477716E+01 -0.93924303077E+02  0.12120032897E+03  0.00000000000E+00 0.  1.
</event>
<event>
 7    1  0.8661710E-006  0.2128106E+03  0.7561462E-02  0.1139359E+00
         -2   -1    0    0    0  501 -0.00000000000E+00  0.00000000000E+00  0.20554478849E+03  0.20554478849E+03  0.00000000000E+00 0.  1.
          2   -1    0    0  501    0  0.00000000000E+00 -0.00000000000E+00 -0.26441250042E+03  0.26441250042E+03  0.00000000000E+00 0. -1.
         23    2    1    2    0    0  0.87055559965E+02 -0.89379654683E+01  0.66043630878E+02  0.16633630586E+03  0.12508975865E+03 0.  0.
          5    1    3    3  502    0 -0.14369962910E+02 -0.43026428738E+02  0.18314407336E+02  0.49098465557E+02  0.41800000000E+01 0. -1.
         -5    1    3    3    0  502  0.10142552288E+03  0.34088463269E+02  0.47729223542E+02  0.11723784030E+03  0.41800000000E+01 0. -1.
        -11    1    1    2    0    0  0.28861511493E+01 -0.11765648569E+03 -0.29402153301E+02  0.12130896551E+03  0.00000000000E+00 0.  1.
         11    1    1    2    0    0 -0.89941711115E+02  0.12659445116E+03 -0.95509189508E+02  0.18231201755E+03  0.00000000000E+00 0. -1.
</event>
<event>
 7    1  0.8661710E-006  0.1200085E+03  0.7561462E-02  0.1243083E+00
         -1   -1    0    0    0  501 -0.00000000000E+00  0.00000000000E+00  0.28595753660E+03  0.28595753660E+03  0.00000000000E+00 0.  1.
          1   -1    0    0  501    0  0.00000000000E+00 -0.00000000000E+00 -0.61500024908E+02  0.61500024908E+02  0.00000000000E+00 0. -1.
         23    2    1    2    0    0 -0.12310323981E+02  0.67353504483E+02  0.15435581622E+03  0.20926456443E+03  0.12360380773E+03 0.  0.
          5    1    3    3  502    0 -0.29727234808E+01  0.96980814073E+02  0.71265575630E+02  0.12045899739E+03  0.41800000000E+01 0. -1.
         -5    1    3    3    0  502 -0.93376005002E+01 -0.29627309589E+02  0.83090240585E+02  0.88805567039E+02  0.41800000000E+01 0. -1.
        -11    1    1    2    0    0  0.39320609389E+02 -0.35902661600E+00  0.49224065325E+02  0.63001966873E+02  0.00000000000E+00 0.  1.
         11    1    1    2    0    0 -0.27010285408E+02 -0.66994477867E+02  0.20877630155E+02  0.75191030206E+02  0.00000000000E+00 0. -1.
</event>
<event>
 7    1  0.8661710E-006  0.1638264E+03  0.7561462E-02  0.1184443E+00
         -2   -1    0    0    0  501 -0.00000000000E+00  0.00000000000E+00  0.95163178245E+02  0.95163178245E+02  0.00000000000E+00 0. -1.
          2   -1    0    0  501    0  0.00000000000E+00 -0.00000000000E+00 -0.32984542729E+03  0.32984542729E+03  0.00000000000E+00 0.  1.
         23    2    1    2    0    0 -0.17314942623E+02  0.13916440701E+03 -0.12534702772E+03  0.22589282143E+03  0.12509656271E+03 0.  0.
          5    1    3    3  502    0  0.47761926887E+02  0.47870297522E+02 -0.80124406628E+02  0.10492930945E+03  0.41800000000E+01 0.  1.
         -5    1    3    3    0  502 -0.65076869510E+02  0.91294109485E+02 -0.45222621089E+02  0.12096351198E+03  0.41800000000E+01 0.  1.
        -11    1    1    2    0    0  0.22146027745E+02 -0.24823418236E+02  0.90320626576E+01  0.34470665698E+02  0.00000000000E+00 0.  1.
         11    1    1    2    0    0 -0.48310851215E+01 -0.11434098877E+03 -0.11836728398E+03  0.16464511840E+03  0.00000000000E+00 0. -1.
</event>
<event>
 7    1  0.8661710E-006  0.1170278E+03  0.7561462E-02  0.1248082E+00
         -1   -1    0    0    0  501 -0.00000000000E+00  0.00000000000E+00  0.20102109512E+03  0.20102109512E+03  0.00000000000E+00 0.  1.
          1   -1    0    0  501    0  0.00000000000E+00 -0.00000000000E+00 -0.79247071251E+02  0.79247071251E+02  0.00000000000E+00 0. -1.
         23    2    1    2    0    0  0.48953010734E+02  0.63375666417E+01  0.11298803371E+03  0.17564210704E+03  0.12508913618E+03 0.  0.
          5    1    3    3  502    0 -0.42418584752E+02  0.54281307331E+01  0.34221034748E+02  0.54930433776E+02  0.41800000000E+01 0. -1.
         -5    1    3    3    0  502  0.91371595486E+02  0.90943590860E+00  0.78766998966E+02  0.12071167326E+03  0.41800000000E+01 0. -1.
        -11    1    1    2    0    0  0.18340163915E+02 -0.23845020045E+02 -0.11481878112E+02  0.32199070148E+02  0.00000000000E+00 0. -1.
         11    1    1    2    0    0 -0.67293174649E+02  0.17507453404E+02  0.20267868270E+02  0.72426989191E+02  0.00000000000E+00 0.  1.
</event>
<event>
 7    1  0.8661710E-006  0.1626247E+03  0.7561462E-02  0.1185765E+00
          2   -1    0    0  501    0  0.00000000000E+00  0.00000000000E+00  0.45000539452E+03  0.45000539452E+03  0.00000000000E+00 0. -1.
         -2   -1    0    0    0  501 -0.00000000000E+00 -0.00000000000E+00 -0.90835240914E+02  0.90835240914E+02  0.00000000000E+00 0.  1.
         23    2    1    2    0    0 -0.11301270226E+03  0.93576640134E+02  0.72792689368E+02  0.20608893644E+03  0.12508163593E+03 0.  0.
          5    1    3    3  502    0 -0.46736478702E+02  0.72618356211E+02 -0.21286704955E+02  0.89041115829E+02  0.41800000000E+01 0.  1.
         -5    1    3    3    0  502 -0.66276223553E+02  0.20958283924E+02  0.94079394323E+02  0.11704782061E+03  0.41800000000E+01 0.  1.
        -11    1    1    2    0    0  0.13524826269E+02 -0.63926127738E+02  0.76526545011E+02  0.10062694880E+03  0.00000000000E+00 0.  1.
         11    1    1    2    0    0  0.99487875987E+02 -0.29650512396E+02  0.20985091923E+03  0.23412475020E+03  0.00000000000E+00 0. -1.
</event>
<event>
 7    1  0.9384482E-006  0.3021589E+03  0.7561462E-02  0.1084166E+00
          2   -1    0    0  501    0  0.00000000000E+00  0.00000000000E+00  0.93180242237E+03  0.93180242237E+03  0.00000000000E+00 0. -1.
         -2   -1    0    0    0  501 -0.00000000000E+00 -0.00000000000E+00 -0.10064244736E+03  0.10064244736E+03  0.00000000000E+00 0.  1.
         23    2    1    2    0    0  0.16555244439E+03  0.23031725964E+03  0.35874978278E+03  0.47413392780E+03  0.12509165807E+03 0.  0.
          5    1    3    3  502    0 -0.19678954788E+02  0.19753129779E+02  0.21257908789E+02  0.35310316958E+02  0.41800000000E+01 0.  1.
         -5    1    3    3    0  502  0.18523139918E+03  0.21056412986E+03  0.33749187399E+03  0.43882361084E+03  0.41800000000E+01 0.  1.
        -11    1    1    2    0    0 -0.15477423691E+03 -0.15316650383E+03  0.31866244051E+03  0.38595439277E+03  0.00000000000E+00 0.  1.
         11    1    1    2    0    0 -0.10778207475E+02 -0.77150755807E+02  0.15374775172E+03  0.17235654916E+03  0.00000000000E+00 0. -1.
</event>
<event>
 7    1  0.8661710E-006  0.1068162E+03  0.7561462E-02  0.1266582E+00
         -2   -1    0    0    0  501 -0.00000000000E+00  0.00000000000E+00  0.61230569040E+02  0.61230569040E+02  0.00000000000E+00 0.  1.
          2   -1    0    0  501    0  0.00000000000E+00 -0.00000000000E+00 -0.22514939580E+03  0.22514939580E+03  0.00000000000E+00 0. -1.
         23    2    1    2    0    0  0.32631156214E+02 -0.30758926670E+02 -0.87220716306E+02  0.15895459072E+03  0.12509278410E+03 0.  0.
          5    1    3    3  502    0  0.51124118863E+02  0.25330432079E+02 -0.81357873593E+02  0.99457942439E+02  0.41800000000E+01 0. -1.
         -5    1    3    3    0  502 -0.18492962649E+02 -0.56089358749E+02 -0.58628427134E+01  0.59496648284E+02  0.41800000000E+01 0. -1.
        -11    1    1    2    0    0 -0.56165021464E+02 -0.27929767278E+01 -0.62447777604E+02  0.84035916623E+02  0.00000000000E+00 0. -1.
         11    1    1    2    0    0  0.23533865250E+02  0.33551903398E+02 -0.14250332850E+02  0.43389457493E+02  0.00000000000E+00 0.  1.
</event>
<event>
 7    1  0.8661710E-006  0.9051462E+02  0.7561462E-02  0.1301610E+00
         -1   -1    0    0    0  501 -0.00000000000E+00  0.00000000000E+00  0.92035220625E+02  0.92035220625E+02  0.00000000000E+00 0.  1.
          1   -1    0    0  501    0  0.00000000000E+00 -0.00000000000E+00 -0.18291368023E+03  0.18291368023E+03  0.00000000000E+00 0. -1.
         23    2    1    2    0    0  0.32119020771E+02  0.35199278988E+02  0.50973228759E+01  0.13395539163E+03  0.12508974182E+03 0.  0.
          5    1    3    3  502    0  0.44010286379E+02  0.44018342375E+02 -0.47974450288E+02  0.78699047345E+02  0.41800000000E+01 0.  1.
         -5    1    3    3    0  502 -0.11891265608E+02 -0.88190633878E+01  0.53071773164E+02  0.55256344283E+02  0.41800000000E+01 0.  1.
        -11    1    1    2    0    0  0.83125132426E+01 -0.56810256359E+02 -0.54909075769E+02  0.79445010578E+02  0.00000000000E+00 0. -1.
         11    1    1    2    0    0 -0.40431534013E+02  0.21610977371E+02 -0.41066706711E+02  0.61548498647E+02  0.00000000000E+00 0.  1.
</event>
<event>
 7    1  0.8661710E-006  0.1167744E+03  0.7561462E-02  0.1248515E+00
          1   -1    0    0  501    0  0.00000000000E+00  0.00000000000E+00  0.41073481705E+03  0.41073481705E+03  0.00000000000E+00 0. -1.
         -1   -1    0    0    0  501 -0.00000000000E+00 -0.00000000000E+00 -0.34463250907E+02  0.34463250907E+02  0.00000000000E+00 0.  1.
         23    2    1    2    0    0 -0.23264342640E+02 -0.43097365654E+02  0.20059647603E+03  0.24142207285E+03  0.12508820287E+03 0.  0.
          5    1    3    3  502    0 -0.58507329992E+02 -0.68713127114E+02  0.12852106946E+03  0.15709786502E+03  0.41800000000E+01 0. -1.
         -5    1    3    3    0  502  0.35242987351E+02  0.25615761460E+02  0.72075406572E+02  0.84324207824E+02  0.41800000000E+01 0. -1.
        -11    1    1    2    0    0  0.32835443270E+02 -0.18100574495E+02  0.94506919262E+02  0.10167278358E+03  0.00000000000E+00 0. -1.
         11    1    1    2    0    0 -0.95711006297E+01  0.61197940149E+02  0.81168170850E+02  0.10210321153E+03  0.00000000000E+00 0.  1.
</event>
<event>
 7    1  0.8661710E-006  0.1517184E+03  0.7561462E-02  0.1198377E+00
         -2   -1    0    0    0  501 -0.00000000000E+00  0.00000000000E+00  0.67246542636E+02  0.67246542636E+02  0.00000000000E+00 0.  1.
          2   -1    0    0  501    0  0.00000000000E+00 -0.00000000000E+00 -0.39849938113E+03  0.39849938113E+03  0.00000000000E+00 0. -1.
         23    2    1    2    0    0  0.50852814312E+02  0.92326456579E+02 -0.90235841064E+02  0.18681770952E+03  0.12509263076E+03 0.  0.
          5    1    3    3  502    0  0.10866385284E+02  0.11597352653E+03 -0.58601178109E+02  0.13045883512E+03  0.41800000000E+01 0. -1.
         -5    1    3    3    0  502  0.39986429028E+02 -0.23647069948E+02 -0.31634662956E+02  0.56358874402E+02  0.41800000000E+01 0. -1.
        -11    1    1    2    0    0 -0.60815717140E+02 -0.15489770145E+02 -0.10123959015E+03  0.11911313548E+03  0.00000000000E+00 0. -1.
         11    1    1    2    0    0  0.99629028278E+01 -0.76836686434E+02 -0.13977740728E+03  0.15981507877E+03  0.00000000000E+00 0.  1.
</event>
<event>
 7    1  0.8661710E-006  0.1014090E+03  0.7561462E-02  0.1277361E+00
         -1   -1    0    0    0  501 -0.00000000000E+00  0.00000000000E+00  0.65533591498E+02  0.65533591498E+02  0.00000000000E+00 0.  1.
          1   -1    0    0  501    0  0.00000000000E+00 -0.00000000000E+00 -0.33058916732E+03  0.33058916732E+03  0.00000000000E+00 0. -1.
         23    2    1    2    0    0 -0.71435284734E+02 -0.83621705380E+01 -0.53304162141E+02  0.15382777182E+03  0.12509485953E+03 0.  0.
          5    1    3    3  502    0  0.13118227856E+02  0.63062184552E+01  0.30345631357E+02  0.33914392752E+02  0.41800000000E+01 0.  1.
         -5    1    3    3    0  502 -0.84553512590E+02 -0.14668388993E+02 -0.83649793498E+02  0.11991337907E+03  0.41800000000E+01 0.  1.
        -11    1    1    2    0    0  0.63432553771E+02 -0.24450515454E+02 -0.19080163955E+03  0.20255069054E+03  0.00000000000E+00 0.  1.
         11    1    1    2    0    0  0.80027309622E+01  0.32812685992E+02 -0.20949774134E+02  0.39744296460E+02  0.00000000000E+00 0. -1.
</event>
<event>
 7    1  0.8661710E-006  0.1132701E+03  0.7561462E-02  0.1254631E+00
         -1   -1    0    0    0  501 -0.00000000000E+00  0.00000000000E+00  0.28135797712E+03  0.28135797712E+03  0.00000000000E+00 0.  1.
          1   -1    0    0  501    0  0.00000000000E+00 -0.00000000000E+00 -0.82746870067E+02  0.82746870067E+02  0.00000000000E+00 0. -1.
         23    2    1    2    0    0 -0.53128883352E+02 -0.77157644554E+02  0.16830675729E+03  0.22967560200E+03  0.12509091592E+03 0.  0.
          5    1    3    3  502    0 -0.37844552670E+02 -0.66036920514E+02  0.18750768222E+03  0.20240970414E+03  0.41800000000E+01 0.  1.
         -5    1    3    3    0  502 -0.15284330682E+02 -0.11120724040E+02 -0.19200924936E+02  0.27265897857E+02  0.41800000000E+01 0.  1.
        -11    1    1    2    0    0 -0.21414522720E+02 -0.28488051821E+01  0.42647635618E+01  0.22020119948E+02  0.00000000000E+00 0.  1.
         11    1    1    2    0    0  0.74543406072E+02  0.80006449736E+02  0.26039586206E+02  0.11240912524E+03  0.00000000000E+00 0. -1.
</event>
<event>
 7    1  0.8661710E-006  0.6641561E+02  0.7561462E-02  0.1372724E+00
         -1   -1    0    0    0  501 -0.00000000000E+00  0.00000000000E+00  0.47587079613E+03  0.47587079613E+03  0.00000000000E+00 0.  1.
          1   -1    0    0  501    0  0.00000000000E+00 -0.00000000000E+00 -0.37352891166E+02  0.37352891166E+02  0.00000000000E+00 0. -1.
         23    2    1    2    0    0  0.23429130705E+01 -0.99533672830E+01  0.39074186124E+03  0.41040380755E+03  0.12509006502E+03 0.  0.
          5    1    3    3  502    0  0.49903809750E+02 -0.51071627370E+01  0.70732259573E+02  0.86815887273E+02  0.41800000000E+01 0.  1.
         -5    1    3    3    0  502 -0.47560896679E+02 -0.48462045460E+01  0.32000960167E+03  0.32358792028E+03  0.41800000000E+01 0.  1.
        -11    1    1    2    0    0 -0.22951628279E+01 -0.12167686550E+02  0.70222026002E+02  0.71305352564E+02  0.00000000000E+00 0.  1.
         11    1    1    2    0    0 -0.47750242524E-01  0.22121053833E+02 -0.22445982279E+02  0.31514527178E+02  0.00000000000E+00 0. -1.
</event>
<event>
 7    1  0.8661710E-006  0.1454495E+03  0.7561462E-02  0.1206179E+00
          1   -1    0    0  501    0  0.00000000000E+00  0.00000000000E+00  0.73610164101E+03  0.73610164101E+03  0.00000000000E+00 0. -1.
         -1   -1    0    0    0  501 -0.00000000000E+00 -0.00000000000E+00 -0.38648554427E+02  0.38648554427E+02  0.00000000000E+00 0.  1.
         23    2    1    2    0    0 -0.51005109864E+02  0.99525884012E+02  0.22536038265E+03  0.28096498433E+03  0.12508835890E+03 0.  0.
          5    1    3    3  502    0 -0.30740609715E+02  0.12813165794E+03  0.18738063177E+03  0.22911062921E+03  0.41800000000E+01 0.  1.
         -5    1    3    3    0  502 -0.20264500149E+02 -0.28605773932E+02  0.37979750879E+02  0.51854355124E+02  0.41800000000E+01 0.  1.
        -11    1    1    2    0    0  0.34057234238E+02 -0.14420959840E+02  0.46392249378E+02  0.59330431391E+02  0.00000000000E+00 0.  1.
         11    1    1    2    0    0  0.16947875626E+02 -0.85104924172E+02  0.42570045456E+03  0.43445477971E+03  0.00000000000E+00 0. -1.
</event>
<event>
 7    1  0.8661710E-006  0.6972194E+02  0.7561462E-02  0.1361041E+00
         -3   -1    0    0    0  501 -0.00000000000E+00  0.00000000000E+00  0.73974604858E+03  0.73974604858E+03  0.00000000000E+00 0. -1.
          3   -1    0    0  501    0  0.00000000000E+00 -0.00000000000E+00 -0.17973380850E+02  0.17973380850E+02  0.00000000000E+00 0.  1.
         23    2    1    2    0    0  0.49805869184E+01 -0.31699561195E+02  0.49985922500E+03  0.51627173165E+03  0.12509031802E+03 0.  0.
          5    1    3    3  502    0  0.16619791008E+02 -0.11536628641E+02  0.55423762678E+01  0.21389286764E+02  0.41800000000E+01 0.  1.
         -5    1    3    3    0  502 -0.11639204090E+02 -0.20162932554E+02  0.49431684873E+03  0.49488244489E+03  0.41800000000E+01 0.  1.
        -11    1    1    2    0    0  0.42081584945E+02  0.20231736863E+02  0.11041114985E+03  0.11987829236E+03  0.00000000000E+00 0.  1.
         11    1    1    2    0    0 -0.47062171863E+02  0.11467824332E+02  0.11150229288E+03  0.12156940541E+03  0.00000000000E+00 0. -1.
</event>
<event>
 7    1  0.8661710E-006  0.1174536E+03  0.7561462E-02  0.1247358E+00
         -2   -1    0    0    0  501 -0.00000000000E+00  0.00000000000E+00  0.19976834765E+03  0.19976834765E+03  0.00000000000E+00 0.  1.
          2   -1    0    0  501    0  0.00000000000E+00 -0.00000000000E+00 -0.15314685627E+03  0.15314685627E+03  0.00000000000E+00 0. -1.
         23    2    1    2    0    0  0.57429077200E+02  0.89687112438E+02  0.11170874758E+03  0.19866623756E+03  0.12509017794E+03 0.  0.
          5    1    3    3  502    0  0.63214307821E+02  0.53963488700E+02  0.21914428262E+01  0.83248913792E+02  0.41800000000E+01 0.  1.
         -5    1    3    3    0  502 -0.57852306206E+01  0.35723623738E+02  0.10951730475E+03  0.11541732377E+03  0.41800000000E+01 0.  1.
        -11    1    1    2    0    0 -0.57543589027E+02 -0.51963126132E+02  0.16909909099E+01  0.77551857269E+02  0.00000000000E+00 0.  1.
         11    1    1    2    0    0  0.11451182727E+00 -0.37723986306E+02 -0.66778247103E+02  0.76697109084E+02  0.00000000000E+00 0. -1.
</event>
<event>
 7    1  0.8661710E-006  0.1042701E+03  0.7561462E-02  0.1271564E+00
         -2   -1    0    0    0  501 -0.00000000000E+00  0.00000000000E+00  0.54523814805E+03  0.54523814805E+03  0.00000000000E+00 0.  1.
          2   -1    0    0  501    0  0.00000000000E+00 -0.00000000000E+00 -0.46157349847E+02  0.46157349847E+02  0.00000000000E+00 0. -1.
         23    2    1    2    0    0  0.48551340413E+02  0.72405877767E+02  0.40757130160E+03  0.43515795021E+03  0.12509289328E+03 0.  0.
          5    1    3    3  502    0  0.61934914021E+02  0.36839453233E+02  0.90365810283E+02  0.11565695378E+03  0.41800000000E+01 0.  1.
         -5    1    3    3    0  502 -0.13383573608E+02  0.35566424534E+02  0.31720549132E+03  0.31950099643E+03  0.41800000000E+01 0.  1.
        -11    1    1    2    0    0  0.79932607157E+01 -0.17827931354E+02  0.72904996205E+02  0.75477584917E+02  0.00000000000E+00 0. -1.
         11    1    1    2    0    0 -0.56544601129E+02 -0.54577946413E+02  0.18604500393E+02  0.80759962768E+02  0.00000000000E+00 0.  1.
</event>
<event>
 6    1  0.8661710E-006  0.1133196E+03  0.7561462E-02  0.1254543E+00
          1   -1    0    0  501    0  0.00000000000E+00  0.00000000000E+00  0.31661483955E+03  0.31661483955E+03  0.00000000000E+00 0. -1.
         -1   -1    0    0    0  501 -0.00000000000E+00 -0.00000000000E+00 -0.76314969363E+02  0.76314969363E+02  0.00000000000E+00 0.  1.
          5    1    1    2  502    0 -0.44328244054E+02  0.58707623529E+02  0.42149660339E+02  0.84886068044E+02  0.41800000000E+01 0. -1.
         -5    1    1    2    0  502  0.34063585247E+02 -0.71473978379E+02 -0.10365297329E+02  0.79961048104E+02  0.41800000000E+01 0.  1.
        -11    1    1    2    0    0  0.29122636433E+02 -0.20373153337E+02  0.33088233793E+02  0.48559494903E+02  0.00000000000E+00 0.  1.
         11    1    1    2    0    0 -0.18857977627E+02  0.33139508187E+02  0.17542727339E+03  0.17952319786E+03  0.00000000000E+00 0. -1.
</event>
<event>
 7    1  0.8661710E-006  0.1369272E+03  0.7561462E-02  0.1217525E+00
          2   -1    0    0  501    0  0.00000000000E+00  0.00000000000E+00  0.89054459020E+03  0.89054459020E+03  0.00000000000E+00 0. -1.
         -2   -1    0    0    0  501 -0.00000000000E+00 -0.00000000000E+00 -0.26029425459E+02  0.26029425459E+02  0.00000000000E+00 0.  1.
         23    2    1    2    0    0 -0.40770471648E+02 -0.96508924361E+02  0.51052133943E+03  0.53596283915E+03  0.12509165879E+03 0.  0.
          5    1    3    3  502    0 -0.34546498287E+02  0.12034420360E+02  0.26325454605E+03  0.26581707288E+03  0.41800000000E+01 0.  1.
         -5    1    3    3    0  502 -0.62239733603E+01 -0.10854334472E+03  0.24726679338E+03  0.27014576627E+03  0.41800000000E+01 0.  1.
        -11    1    1    2    0    0 -0.21393002377E+02  0.17115298510E+02  0.15633914048E+03  0.15872151978E+03  0.00000000000E+00 0. -1.
         11    1    1    2    0    0  0.62163474024E+02  0.79393625851E+02  0.19765468482E+03  0.22188965672E+03  0.00000000000E+00 0.  1.
</event>
<event>
 7    1  0.8661710E-006  0.1470352E+03  0.7561462E-02  0.1204164E+00
          2   -1    0    0  501    0  0.00000000000E+00  0.00000000000E+00  0.90016803692E+02  0.90016803692E+02  0.00000000000E+00 0. -1.
         -2   -1    0    0    0  501 -0.00000000000E+00 -0.00000000000E+00 -0.34272112402E+03  0.34272112402E+03  0.00000000000E+00 0.  1.
         23    2    1    2    0    0  0.61619808402E+02  0.11579277390E+03 -0.18610732086E+03  0.25978752927E+03  0.12509459705E+03 0.  0.
          5    1    3    3  502    0  0.23950198451E+02  0.75489164955E+02 -0.15994692386E+02  0.80904441263E+02  0.41800000000E+01 0.  1.
         -5    1    3    3    0  502  0.37669609951E+02  0.40303608949E+02 -0.17011262848E+03  0.17888308801E+03  0.41800000000E+01 0.  1.
        -11    1    1    2    0    0 -0.53894471420E+01 -0.10120187628E+03 -0.38400610933E+02  0.10837653262E+03  0.00000000000E+00 0.  1.
         11    1    1    2    0    0 -0.56230361260E+02 -0.14590897627E+02 -0.28196388535E+02  0.64573865823E+02  0.00000000000E+00 0. -1.
</event>
<event>
 7    1  0.8661710E-006  0.1148006E+03  0.7561462E-02  0.1251929E+00
         -2   -1    0    0    0  501 -0.00000000000E+00  0.00000000000E+00  0.42785471271E+02  0.42785471271E+02  0.00000000000E+00 0.  1.
          2   -1    0    0  501    0  0.00000000000E+00 -0.00000000000E+00 -0.39173779876E+03  0.39173779876E+03  0.00000000000E+00 0. -1.
         23    2    1    2    0    0  0.28195294412E+02 -0.55246449705E+02 -0.13988727047E+03  0.19764665550E+03  0.12509439300E+03 0.  0.
          5    1    3    3  502    0 -0.41591029670E+02  0.46581446754E+01 -0.20235128275E+02  0.46673813613E+02  0.41800000000E+01 0. -1.
         -5    1    3    3    0  502  0.69786324082E+02 -0.59904594380E+02 -0.11965214219E+03  0.15097284189E+03  0.41800000000E+01 0. -1.
        -11    1    1    2    0    0  0.11575235577E+02  0.54481951830E+02 -0.56999420511E+02  0.79694435769E+02  0.00000000000E+00 0.  1.
         11    1    1    2    0    0 -0.39770529988E+02  0.76449787429E+00 -0.15206563651E+03  0.15718217876E+03  0.00000000000E+00 0. -1.
</event>
<event>
 6    1  0.8661710E-006  0.1223607E+03  0.7561462E-02  0.1239253E+00
          1   -1    0    0  501    0  0.00000000000E+00  0.00000000000E+00  0.28989379817E+03  0.28989379817E+03  0.00000000000E+00 0. -1.
         -1   -1    0    0    0  501 -0.00000000000E+00 -0.00000000000E+00 -0.15934529901E+03  0.15934529901E+03  0.00000000000E+00 0.  1.
          5    1    1    2  502    0  0.40735137960E+02  0.14719290892E+02  0.11841666054E+02  0.45096634508E+02  0.41800000000E+01 0. -1.
         -5    1    1    2    0  502  0.15440118714E+02 -0.94522980948E+02 -0.10540164770E+03  0.14247796647E+03  0.41800000000E+01 0.  1.
        -11    1    1    2    0    0  0.42576602731E+01  0.19526955458E+02 -0.18996373731E+01  0.20075813373E+02  0.00000000000E+00 0.  1.
         11    1    1    2    0    0 -0.60432916948E+02  0.60276734598E+02  0.22600811818E+03  0.24158868282E+03  0.00000000000E+00 0. -1.
</event>
<event>
 7    1  0.8661710E-006  0.1138637E+03  0.7561462E-02  0.1253578E+00
         -1   -1    0    0    0  501 -0.00000000000E+00  0.00000000000E+00  0.21008308807E+03  0.21008308807E+03  0.00000000000E+00 0.  1.
          1   -1    0    0  501    0  0.00000000000E+00 -0.00000000000E+00 -0.21666612743E+03  0.21666612743E+03  0.00000000000E+00 0. -1.
         23    2    1    2    0    0 -0.40443771748E+02  0.21244751072E+02  0.17395787369E+03  0.21904792436E+03  0.12503444815E+03 0.  0.
          5    1    3    3  502    0 -0.33706824262E+02 -0.50472084766E+02  0.74790106748E+02  0.96408577470E+02  0.41800000000E+01 0. -1.
         -5    1    3    3    0  502 -0.67369474866E+01  0.71716835837E+02  0.99167766946E+02  0.12263934689E+03  0.41800000000E+01 0. -1.
        -11    1    1    2    0    0  0.65658029966E+02 -0.22725471356E+02 -0.89973532783E+02  0.11367788065E+03  0.00000000000E+00 0.  1.
         11    1    1    2    0    0 -0.25214258218E+02  0.14807202842E+01 -0.90567380275E+02  0.94023410488E+02  0.00000000000E+00 0. -1.
</event>
<event>
 7    1  0.8661710E-006  0.1004420E+03  0.7561462E-02  0.1279369E+00
          1   -1    0    0  501    0  0.00000000000E+00  0.00000000000E+00  0.14513205560E+03  0.14513205560E+03  0.00000000000E+00 0. -1.
         -1   -1    0    0    0  501 -0.00000000000E+00 -0.00000000000E+00 -0.12475834735E+03  0.12475834735E+03  0.00000000000E+00 0.  1.
         23    2    1    2    0    0 -0.31278049888E+02 -0.65941680742E+02  0.24175367565E+02  0.14682866395E+03  0.12509031336E+03 0.  0.
          5    1    3    3  502    0  0.41972274024E+01  0.71558516048E+01 -0.41339849618E+02  0.42370726882E+02  0.41800000000E+01 0. -1.
         -5    1    3    3    0  502 -0.35475277291E+02 -0.73097532347E+02  0.65515217183E+02  0.10445793707E+03  0.41800000000E+01 0. -1.
        -11    1    1    2    0    0  0.10655351051E+02  0.82871787214E+02  0.21516018124E+02  0.86279827642E+02  0.00000000000E+00 0. -1.
         11    1    1    2    0    0  0.20622698837E+02 -0.16930106472E+02 -0.25317677435E+02  0.36781911358E+02  0.00000000000E+00 0.  1.
</event>
<event>
 6    1  0.8661710E-006  0.1117190E+03  0.7561462E-02  0.1257419E+00
          1   -1    0    0  501    0  0.00000000000E+00  0.00000000000E+00  0.31320378374E+02  0.31320378374E+02  0.00000000000E+00 0. -1.
         -1   -1    0    0    0  501 -0.00000000000E+00 -0.00000000000E+00 -0.45617549712E+03  0.45617549712E+03  0.00000000000E+00 0.  1.
          5    1    1    2  502    0 -0.57391029507E+02  0.23934870890E+02 -0.66789433367E+02  0.91350474120E+02  0.41800000000E+01 0. -1.
         -5    1    1    2    0  502  0.64129510830E+02 -0.29137396976E+02 -0.20358655135E+03  0.21546818408E+03  0.41800000000E+01 0.  1.
        -11    1    1    2    0    0 -0.42207760731E+02 -0.20331202822E+02 -0.10296129641E+03  0.11311888186E+03  0.00000000000E+00 0.  1.
         11    1    1    2    0    0  0.35469279408E+02  0.25533728908E+02 -0.51517837619E+02  0.67558335434E+02  0.00000000000E+00 0. -1.
</event>
<event>
 7    1  0.8661710E-006  0.1948667E+03  0.7561462E-02  0.1154144E+00
          2   -1    0    0  501    0  0.00000000000E+00  0.00000000000E+00  0.12704505159E+03  0.12704505159E+03  0.00000000000E+00 0. -1.
         -2   -1    0    0    0  501 -0.00000000000E+00 -0.00000000000E+00 -0.35540634633E+03  0.35540634633E+03  0.00000000000E+00 0.  1.
         23    2    1    2    0    0 -0.14770861365E+03 -0.10529657396E+03 -0.12538478306E+03  0.25352317058E+03  0.12508977240E+03 0.  0.
          5    1    3    3  502    0 -0.12446977615E+03 -0.11225031903E+03 -0.14529987389E+03  0.22186118419E+03  0.41800000000E+01 0.  1.
         -5    1    3    3    0  502 -0.23238837503E+02  0.69537450661E+01  0.19915090834E+02  0.31661986385E+02  0.41800000000E+01 0.  1.
        -11    1    1    2    0    0  0.90696489135E+02  0.16880577778E+02 -0.77979663989E+02  0.12079584034E+03  0.00000000000E+00 0.  1.
         11    1    1    2    0    0  0.57012124517E+02  0.88415996186E+02 -0.24996847691E+02  0.10813238700E+03  0.00000000000E+00 0. -1.
</event>
<event>
 7    1  0.8661710E-006  0.1916534E+03  0.7561462E-02  0.1156978E+00
         -1   -1    0    0    0  501 -0.00000000000E+00  0.00000000000E+00  0.73599359814E+02  0.73599359814E+02  0.00000000000E+00 0.  1.
          1   -1    0    0  501    0  0.00000000000E+00 -0.00000000000E+00 -0.66462953493E+03  0.66462953493E+03  0.00000000000E+00 0. -1.
         23    2    1    2    0    0 -0.14695993508E+02  0.16075377791E+03 -0.13130419759E+03  0.24278851536E+03  0.12509085318E+03 0.  0.
          5    1    3    3  502    0  0.30664462986E+02 -0.48168930633E+01 -0.30221703515E+02  0.43523964805E+02  0.41800000000E+01 0. -1.
         -5    1    3    3    0  502 -0.45360456494E+02  0.16557067098E+03 -0.10108249408E+03  0.19926455056E+03  0.41800000000E+01 0. -1.
        -11    1    1    2    0    0  0.48058093762E+02 -0.10014209902E+03 -0.33329376084E+03  0.35131574316E+03  0.00000000000E+00 0. -1.
         11    1    1    2    0    0 -0.33362100254E+02 -0.60611678889E+02 -0.12643221668E+03  0.14412463622E+03  0.00000000000E+00 0.  1.
</event>
<event>
 7    1  0.8661710E-006  0.1511455E+03  0.7561462E-02  0.1199072E+00
          2   -1    0    0  501    0  0.00000000000E+00  0.00000000000E+00  0.10475734387E+03  0.10475734387E+03  0.00000000000E+00 0. -1.
         -2   -1    0    0    0  501 -0.00000000000E+00 -0.00000000000E+00 -0.24049750873E+03  0.24049750873E+03  0.00000000000E+00 0.  1.
         23    2    1    2    0    0  0.43244416937E+01 -0.10700368946E+03 -0.11870349920E+03  0.20298673486E+03  0.12507838924E+03 0.  0.
          5    1    3    3  502    0 -0.59230468188E+02 -0.66328303232E+02 -0.61361569859E+02  0.10812218471E+03  0.41800000000E+01 0. -1.
         -5    1    3    3    0  502  0.63554909882E+02 -0.40675386232E+02 -0.57341929340E+02  0.94864550152E+02  0.41800000000E+01 0. -1.
        -11    1    1    2    0    0 -0.42638100482E+02  0.31449974857E+02  0.87883731556E+01  0.53706089356E+02  0.00000000000E+00 0.  1.
         11    1    1    2    0    0  0.38313658788E+02  0.75553714608E+02 -0.25825038811E+02  0.88562028378E+02  0.00000000000E+00 0. -1.
</event>
<event>
 7    1  0.8661710E-006  0.1388337E+03  0.7561462E-02  0.1214907E+00
         -1   -1    0    0    0  501 -0.00000000000E+00  0.00000000000E+00  0.97343763217E+02  0.97343763217E+02  0.00000000000E+00 0.  1.
          1   -1    0    0  501    0  0.00000000000E+00 -0.00000000000E+00 -0.24661549143E+03  0.24661549143E+03  0.00000000000E+00 0. -1.
         23    2    1    2    0    0  0.21116278630E+02  0.83096134895E+02 -0.20123717642E+02  0.15295703172E+03  0.12506008429E+03 0.  0.
          5    1    3    3  502    0 -0.49366297756E+02  0.14459222348E+02 -0.17350433211E+02  0.54448235946E+02  0.41800000000E+01 0. -1.
         -5    1    3    3    0  502  0.70482576386E+02  0.68636912547E+02 -0.27732844311E+01  0.98508795772E+02  0.41800000000E+01 0. -1.
        -11    1    1    2    0    0 -0.58953725565E+02 -0.52071198833E+02 -0.11631928085E+03  0.14041768622E+03  0.00000000000E+00 0. -1.
         11    1    1    2    0    0  0.37837446935E+02 -0.31024936062E+02 -0.12828729726E+02  0.50584536714E+02  0.00000000000E+00 0.  1.
</event>
<event>
 7    1  0.8661710E-006  0.1912556E+03  0.7561462E-02  0.1157334E+00
         -2   -1    0    0    0  501 -0.00000000000E+00  0.00000000000E+00  0.10316086873E+03  0.10316086873E+03  0.00000000000E+00 0.  1.
          2   -1    0    0  501    0  0.00000000000E+00 -0.00000000000E+00 -0.51161927459E+03  0.51161927459E+03  0.00000000000E+00 0. -1.
         23    2    1    2    0    0  0.17257730084E+03 -0.76463327869E+02 -0.11438303882E+03  0.25369395169E+03  0.12509027252E+03 0.  0.
          5    1    3    3  502    0  0.14281594341E+03 -0.48322942399E+02 -0.13951414715E+03  0.20545843888E+03  0.41800000000E+01 0. -1.
         -5    1    3    3    0  502  0.29761357426E+02 -0.28140385470E+02  0.25131108321E+02  0.48235512806E+02  0.41800000000E+01 0. -1.
        -11    1    1    2    0    0 -0.89234594522E+02  0.25436243111E+02 -0.68753029673E+02  0.11548503978E+03  0.00000000000E+00 0.  1.
         11    1    1    2    0    0 -0.83342706315E+02  0.51027084759E+02 -0.22532233737E+03  0.24560115185E+03  0.00000000000E+00 0. -1.
</event>
<event>
 7    1  0.8661710E-006  0.1291616E+03  0.7561462E-02  0.1228705E+00
          2   -1    0    0  501    0  0.00000000000E+00  0.00000000000E+00  0.32472269351E+03  0.32472269351E+03  0.00000000000E+00 0. -1.
         -2   -1    0    0    0  501 -0.00000000000E+00 -0.00000000000E+00 -0.86035316454E+02  0.86035316454E+02  0.00000000000E+00 0.  1.
         23    2    1    2    0    0  0.83421376390E+02  0.54950330163E+02  0.33027023836E+02  0.16349648317E+03  0.12514651765E+03 0.  0.
          5    1    3    3  502    0  0.10223466257E+03  0.24788043476E+01  0.33191436466E+02  0.10759746538E+03  0.41800000000E+01 0. -1.
         -5    1    3    3    0  502 -0.18813286177E+02  0.52471525815E+02 -0.16441263055E+00  0.55899017788E+02  0.41800000000E+01 0. -1.
        -11    1    1    2    0    0 -0.53598238877E+02 -0.31813183995E+02  0.19950818689E+03  0.20901762252E+03  0.00000000000E+00 0. -1.
         11    1    1    2    0    0 -0.29823137513E+02 -0.23137146168E+02  0.61521663274E+01  0.38243904278E+02  0.00000000000E+00 0.  1.
</event>
<event>
 6    1  0.8661710E-006  0.9821712E+02  0.7561462E-02  0.1284090E+00
          1   -1    0    0  501    0  0.00000000000E+00  0.00000000000E+00  0.29415988621E+03  0.29415988621E+03  0.00000000000E+00 0. -1.
         -1   -1    0    0    0  501 -0.00000000000E+00 -0.00000000000E+00 -0.18643221631E+03  0.18643221631E+03  0.00000000000E+00 0.  1.
          5    1    1    2  502    0  0.45306109523E+02 -0.63340040819E+02  0.20218644396E+03  0.21670587176E+03  0.41800000000E+01 0. -1.
         -5    1    1    2    0  502 -0.37053338314E+02  0.21095022723E+02 -0.14500486596E+03  0.15120130097E+03  0.41800000000E+01 0.  1.
        -11    1    1    2    0    0 -0.30972711549E+02  0.41505967044E+01  0.59709983749E+02  0.67393015017E+02  0.00000000000E+00 0. -1.
         11    1    1    2    0    0  0.22719940340E+02  0.38094421391E+02 -0.91638918529E+01  0.45291914776E+02  0.00000000000E+00 0.  1.
</event>
<event>
 7    1  0.8661710E-006  0.4412159E+03  0.7561462E-02  0.1030374E+00
         -2   -1    0    0    0  501 -0.00000000000E+00  0.00000000000E+00  0.37865927165E+03  0.37865927165E+03  0.00000000000E+00 0.  1.
          2   -1    0    0  501    0  0.00000000000E+00 -0.00000000000E+00 -0.59965079296E+03  0.59965079296E+03  0.00000000000E+00 0. -1.
         23    2    1    2    0    0 -0.38373177213E+03 -0.19454145111E+03  0.66776107865E+02  0.45299228750E+03  0.12508602965E+03 0.  0.
          5    1    3    3  502    0 -0.22821969158E+03 -0.49246991173E+02  0.15419576119E+02  0.23401865202E+03  0.41800000000E+01 0.  1.
         -5    1    3    3    0  502 -0.15551208055E+03 -0.14529445993E+03  0.51356531746E+02  0.21897363549E+03  0.41800000000E+01 0.  1.
        -11    1    1    2    0    0  0.17181976478E+03  0.47960416816E+02 -0.85911887708E+02  0.19799769090E+03  0.00000000000E+00 0. -1.
         11    1    1    2    0    0  0.21191200735E+03  0.14658103429E+03 -0.20185574147E+03  0.32732008621E+03  0.00000000000E+00 0.  1.
</event>
<event>
 7    1  0.8661710E-006  0.1718014E+03  0.7561462E-02  0.1175982E+00
          1   -1    0    0  501    0  0.00000000000E+00  0.00000000000E+00  0.70356596097E+03  0.70356596097E+03  0.00000000000E+00 0. -1.
         -1   -1    0    0    0  501 -0.00000000000E+00 -0.00000000000E+00 -0.68368318062E+02  0.68368318062E+02  0.00000000000E+00 0.  1.
         23    2    1    2    0    0 -0.12054747606E+03  0.63335886915E+02  0.96525690139E+02  0.20858499566E+03  0.12508942002E+03 0.  0.
          5    1    3    3  502    0 -0.13703444413E+02  0.75779518288E+02  0.36336949550E+02  0.85253540004E+02  0.41800000000E+01 0. -1.
         -5    1    3    3    0  502 -0.10684403165E+03 -0.12443631372E+02  0.60188740590E+02  0.12333145566E+03  0.41800000000E+01 0. -1.
        -11    1    1    2    0    0  0.27783695195E+02 -0.59872563133E+02  0.30188409834E+03  0.30901564097E+03  0.00000000000E+00 0. -1.
         11    1    1    2    0    0  0.92763780865E+02 -0.34633237816E+01  0.23678785442E+03  0.25433364240E+03  0.00000000000E+00 0.  1.
</event>
<event>
 7    1  0.8661710E-006  0.1841892E+03  0.7561462E-02  0.1163809E+00
          2   -1    0    0  501    0  0.00000000000E+00  0.00000000000E+00  0.54034120676E+03  0.54034120676E+03  0.00000000000E+00 0. -1.
         -2   -1    0    0    0  501 -0.00000000000E+00 -0.00000000000E+00 -0.95660739453E+02  0.95660739453E+02  0.00000000000E+00 0.  1.
         23    2    1    2    0    0 -0.11427072319E+03  0.10685889281E+03  0.56782740896E+02  0.20820244960E+03  0.12508940484E+03 0.  0.
          5    1    3    3  502    0  0.51080658664E+01 -0.20623062400E+02  0.20407666602E+02  0.29754802903E+02  0.41800000000E+01 0. -1.
         -5    1    3    3    0  502 -0.11937878906E+03  0.12748195521E+03  0.36375074294E+02  0.17844764669E+03  0.41800000000E+01 0. -1.
        -11    1    1    2    0    0  0.10839384897E+03 -0.58236338546E+02  0.21110396579E+03  0.24434725698E+03  0.00000000000E+00 0.  1.
         11    1    1    2    0    0  0.58768742208E+01 -0.48622554260E+02  0.17679376062E+03  0.18345223964E+03  0.00000000000E+00 0. -1.
</event>
<event>
 7    1  0.8661710E-006  0.1082541E+03  0.7561462E-02  0.1263838E+00
          2   -1    0    0  501    0  0.00000000000E+00  0.00000000000E+00  0.54623178512E+02  0.54623178512E+02  0.00000000000E+00 0. -1.
         -2   -1    0    0    0  501 -0.00000000000E+00 -0.00000000000E+00 -0.30418929824E+03  0.30418929824E+03  0.00000000000E+00 0.  1.
         23    2    1    2    0    0 -0.66696576720E+02  0.12525118747E+02 -0.15994477760E+03  0.21409164065E+03  0.12509031445E+03 0.  0.
          5    1    3    3  502    0 -0.99050874513E+02  0.58704224946E+01 -0.80121253366E+02  0.12760260672E+03  0.41800000000E+01 0.  1.
         -5    1    3    3    0  502  0.32354297793E+02  0.66546962521E+01 -0.79823524232E+02  0.86489033922E+02  0.41800000000E+01 0.  1.
        -11    1    1    2    0    0  0.11002892892E+02  0.17467718749E+02  0.12836139179E+02  0.24309490313E+02  0.00000000000E+00 0.  1.
         11    1    1    2    0    0  0.55693683828E+02 -0.29992837496E+02 -0.10245748131E+03  0.12041134579E+03  0.00000000000E+00 0. -1.
</event>
<event>
 7    1  0.8661710E-006  0.1063068E+03  0.7561462E-02  0.1267566E+00
         -1   -1    0    0    0  501 -0.00000000000E+00  0.00000000000E+00  0.26438736741E+03  0.26438736741E+03  0.00000000000E+00 0.  1.
          1   -1    0    0  501    0  0.00000000000E+00 -0.00000000000E+00 -0.57468884877E+02  0.57468884877E+02  0.00000000000E+00 0. -1.
         23    2    1    2    0    0 -0.29398263596E+02 -0.30881827816E+02  0.17289192544E+03  0.21761679985E+03  0.12509000161E+03 0.  0.
          5    1    3    3  502    0 -0.80855817029E+01  0.39883525143E+02  0.15609510285E+02  0.43785858683E+02  0.41800000000E+01 0.  1.
         -5    1    3    3    0  502 -0.21312681893E+02 -0.70765352959E+02  0.15728241516E+03  0.17383094117E+03  0.41800000000E+01 0.  1.
        -11    1    1    2    0    0  0.59500772687E+02  0.83578373085E+01  0.27506760338E+02  0.66081898119E+02  0.00000000000E+00 0. -1.
         11    1    1    2    0    0 -0.30102509090E+02  0.22523990508E+02  0.65197967534E+01  0.38157554319E+02  0.00000000000E+00 0.  1.
</event>
<event>
 7    1  0.8661710E-006  0.2724848E+03  0.7561462E-02  0.1099866E+00
         -2   -1    0    0    0  501 -0.00000000000E+00  0.00000000000E+00  0.10747618483E+03  0.10747618483E+03  0.00000000000E+00 0.  1.
          2   -1    0    0  501    0  0.00000000000E+00 -0.00000000000E+00 -0.77109812389E+03  0.77109812389E+03  0.00000000000E+00 0. -1.
         23    2    1    2    0    0 -0.14832191654E+03  0.21251704754E+03 -0.43219442726E+03  0.51923298056E+03  0.12509188115E+03 0.  0.
          5    1    3    3  502    0 -0.15527979034E+03  0.21241241746E+03 -0.43676752589E+03  0.50991586801E+03  0.41800000000E+01 0. -1.
         -5    1    3    3    0  502  0.69578737986E+01  0.10463007137E+00  0.45730986255E+01  0.93171125510E+01  0.41800000000E+01 0. -1.
        -11    1    1    2    0    0 -0.11408383641E+02 -0.69026144701E+01 -0.48413082449E+01  0.14185752336E+02  0.00000000000E+00 0.  1.
         11    1    1    2    0    0  0.15973030018E+03 -0.20561443307E+03 -0.22658620355E+03  0.34515557582E+03  0.00000000000E+00 0. -1.
</event>
<event>
 7    1  0.8661710E-006  0.1071172E+03  0.7561462E-02  0.1266003E+00
          2   -1    0    0  501    0  0.00000000000E+00  0.00000000000E+00  0.26142269472E+03  0.26142269472E+03  0.00000000000E+00 0. -1.
         -2   -1    0    0    0  501 -0.00000000000E+00 -0.00000000000E+00 -0.52749780425E+02  0.52749780425E+02  0.00000000000E+00 0.  1.
         23    2    1    2    0    0 -0.24165634215E+02  0.87376823430E+01  0.60107385208E+02  0.14114661215E+03  0.12509653631E+03 0.  0.
          5    1    3    3  502    0 -0.61757457245E+01  0.66103066390E+02  0.23065645577E+02  0.70407752608E+02  0.41800000000E+01 0. -1.
         -5    1    3    3    0  502 -0.17989888490E+02 -0.57365384047E+02  0.37041739630E+02  0.70738859544E+02  0.41800000000E+01 0. -1.
        -11    1    1    2    0    0  0.43688918954E+02 -0.34113586583E+02  0.79684617235E+02  0.97067485044E+02  0.00000000000E+00 0.  1.
         11    1    1    2    0    0 -0.19523284739E+02  0.25375904240E+02  0.68880911858E+02  0.75958377954E+02  0.00000000000E+00 0. -1.
</event>
<event>
 7    1  0.8661710E-006  0.1029963E+03  0.7561462E-02  0.1274118E+00
          2   -1    0    0  501    0  0.00000000000E+00  0.00000000000E+00  0.34041892512E+02  0.34041892512E+02  0.00000000000E+00 0. -1.
         -2   -1    0    0    0  501 -0.00000000000E+00 -0.00000000000E+00 -0.45021103858E+03  0.45021103858E+03  0.00000000000E+00 0.  1.
         23    2    1    2    0    0  0.70429922643E+01 -0.49578163850E+02 -0.29267657439E+03  0.32220316565E+03  0.12509078579E+03 0.  0.
          5    1    3    3  502    0 -0.11728318164E+02 -0.73731047516E+02 -0.27825528420E+03  0.28812722260E+03  0.41800000000E+01 0. -1.
         -5    1    3    3    0  502  0.18771310428E+02  0.24152883666E+02 -0.14421290185E+02  0.34075943056E+02  0.41800000000E+01 0. -1.
        -11    1    1    2    0    0 -0.43018790253E+02  0.47823882153E+02 -0.54868748799E+02  0.84547735711E+02  0.00000000000E+00 0.  1.
         11    1    1    2    0    0  0.35975797989E+02  0.17542816961E+01 -0.68623822878E+02  0.77502029725E+02  0.00000000000E+00 0. -1.
</event>
<event>
 7    1  0.8661710E-006  0.3615543E+03  0.7561462E-02  0.1057970E+00
          1   -1    0    0  501    0  0.00000000000E+00  0.00000000000E+00  0.67045483220E+03  0.67045483220E+03  0.00000000000E+00 0. -1.
         -1   -1    0    0    0  501 -0.00000000000E+00 -0.00000000000E+00 -0.21331447383E+03  0.21331447383E+03  0.00000000000E+00 0.  1.
         23    2    1    2    0    0 -0.14757254822E+03 -0.32669030823E+03  0.28111913721E+03  0.47241979021E+03  0.12509306295E+03 0.  0.
          5    1    3    3  502    0 -0.13475365352E+03 -0.31483223803E+03  0.29314435010E+03  0.45080923641E+03  0.41800000000E+01 0. -1.
         -5    1    3    3    0  502 -0.12818894700E+02 -0.11858070205E+02 -0.12025212895E+02  0.21610553798E+02  0.41800000000E+01 0. -1.
        -11    1    1    2    0    0 -0.20124789515E+01  0.33160308202E+02 -0.77495255829E+01  0.34113212372E+02  0.00000000000E+00 0.  1.
         11    1    1    2    0    0  0.14958502717E+03  0.29353000003E+03  0.18377074675E+03  0.37723630344E+03  0.00000000000E+00 0. -1.
</event>
<event>
 7    1  0.8661710E-006  0.8371086E+02  0.7561462E-02  0.1318839E+00
          1   -1    0    0  501    0  0.00000000000E+00  0.00000000000E+00  0.23120556979E+03  0.23120556979E+03  0.00000000000E+00 0.  1.
         -1   -1    0    0    0  501 -0.00000000000E+00 -0.00000000000E+00 -0.51983605203E+02  0.51983605203E+02  0.00000000000E+00 0. -1.
         23    2    1    2    0    0 -0.82544832476E+01 -0.62513080336E+01  0.83564763956E+02  0.15078825105E+03  0.12508721571E+03 0.  0.
          5    1    3    3  502    0  0.33790429222E+02  0.21244389794E+02 -0.12724555319E+02  0.42101115339E+02  0.41800000000E+01 0.  1.
         -5    1    3    3    0  502 -0.42044912470E+02 -0.27495697828E+02  0.96289319275E+02  0.10868713572E+03  0.41800000000E+01 0.  1.
        -11    1    1    2    0    0 -0.19969572001E+02 -0.26796340192E+02  0.79142798160E+02  0.85909313548E+02  0.00000000000E+00 0.  1.
         11    1    1    2    0    0  0.28224055249E+02  0.33047648225E+02  0.16514402473E+02  0.46491610393E+02  0.00000000000E+00 0. -1.
</event>
<event>
 7    1  0.8661710E-006  0.8706407E+02  0.7561462E-02  0.1310121E+00
         -1   -1    0    0    0  501 -0.00000000000E+00  0.00000000000E+00  0.40564967989E+02  0.40564967989E+02  0.00000000000E+00 0.  1.
          1   -1    0    0  501    0  0.00000000000E+00 -0.00000000000E+00 -0.40719349278E+03  0.40719349278E+03  0.00000000000E+00 0. -1.
         23    2    1    2    0    0 -0.50786593247E+02  0.13184118056E+02 -0.12975158738E+03  0.18771426191E+03  0.12509224867E+03 0.  0.
          5    1    3    3  502    0  0.40229633952E+01  0.41040560167E+02 -0.11788302075E+03  0.12495755598E+03  0.41800000000E+01 0.  1.
         -5    1    3    3    0  502 -0.54809556643E+02 -0.27856442111E+02 -0.11868566623E+02  0.62756705938E+02  0.41800000000E+01 0.  1.
        -11    1    1    2    0    0 -0.22344756213E+01  0.12106824580E+02  0.33338551907E+01  0.12754711802E+02  0.00000000000E+00 0.  1.
         11    1    1    2    0    0  0.53021068869E+02 -0.25290942636E+02 -0.24021079260E+03  0.24728948705E+03  0.00000000000E+00 0. -1.
</event>
<event>
 7    1  0.8661710E-006  0.1499591E+03  0.7561462E-02  0.1200523E+00
         -2   -1    0    0    0  501 -0.00000000000E+00  0.00000000000E+00  0.63523615295E+02  0.63523615295E+02  0.00000000000E+00 0. -1.
          2   -1    0    0  501    0  0.00000000000E+00 -0.00000000000E+00 -0.47525326365E+03  0.47525326365E+03  0.00000000000E+00 0.  1.
         23    2    1    2    0    0  0.11385849098E+03 -0.87546979994E+01 -0.10507844865E+03  0.19932252156E+03  0.12509031347E+03 0.  0.
          5    1    3    3  502    0  0.84149441495E+02  0.43378871758E+02 -0.10180324643E+03  0.13908353031E+03  0.41800000000E+01 0.  1.
         -5    1    3    3    0  502  0.29709049490E+02 -0.52133569758E+02 -0.32752022143E+01  0.60238991250E+02  0.41800000000E+01 0.  1.
        -11    1    1    2    0    0 -0.33796720067E+02 -0.39137916254E+02 -0.12419710049E+03  0.13453220635E+03  0.00000000000E+00 0. -1.
         11    1    1    2    0    0 -0.80061770918E+02  0.47892614253E+02 -0.18245409922E+03  0.20492215104E+03  0.00000000000E+00 0.  1.
</event>
<event>
 7    1  0.8661710E-006  0.1422401E+03  0.7561462E-02  0.1210346E+00
          2   -1    0    0  501    0  0.00000000000E+00  0.00000000000E+00  0.69057614165E+03  0.69057614165E+03  0.00000000000E+00 0. -1.
         -2   -1    0    0    0  501 -0.00000000000E+00 -0.00000000000E+00 -0.35244337193E+02  0.35244337193E+02  0.00000000000E+00 0.  1.
         23    2    1    2    0    0 -0.10578124040E+03  0.36133521565E+02  0.34201126814E+03  0.38093779238E+03  0.12508633788E+03 0.  0.
          5    1    3    3  502    0 -0.13347844950E+03  0.35094837813E+02  0.26198926369E+03  0.29614859582E+03  0.41800000000E+01 0. -1.
         -5    1    3    3    0  502  0.27697209094E+02  0.10386837513E+01  0.80022004450E+02  0.84789196551E+02  0.41800000000E+01 0. -1.
        -11    1    1    2    0    0  0.29584852070E+02 -0.29673467789E+02  0.30289684077E+02  0.51703415014E+02  0.00000000000E+00 0.  1.
         11    1    1    2    0    0  0.76196388331E+02 -0.64600537758E+01  0.28303085224E+03  0.29317927146E+03  0.00000000000E+00 0. -1.
</event>
<event>
 7    1  0.8661710E-006  0.9178935E+02  0.7561462E-02  0.1298575E+00
          1   -1    0    0  501    0  0.00000000000E+00  0.00000000000E+00  0.61132426961E+02  0.61132426961E+02  0.00000000000E+00 0. -1.
         -1   -1    0    0    0  501 -0.00000000000E+00 -0.00000000000E+00 -0.18230783187E+03  0.18230783187E+03  0.00000000000E+00 0.  1.
         23    2    1    2    0    0  0.11141361505E+02  0.18713168056E+02 -0.96815652561E+02  0.15804123476E+03  0.12300182401E+03 0.  0.
          5    1    3    3  502    0 -0.61843721578E+01  0.58304104932E+02 -0.81847455110E+01  0.59347094032E+02  0.41800000000E+01 0. -1.
         -5    1    3    3    0  502  0.17325733663E+02 -0.39590936876E+02 -0.88630907049E+02  0.98694140728E+02  0.41800000000E+01 0.  1.
        -11    1    1    2    0    0  0.28163445614E+02 -0.29335282905E+02 -0.76031439182E+01  0.41370838636E+02  0.00000000000E+00 0.  1.
         11    1    1    2    0    0 -0.39304807119E+02  0.10622114849E+02 -0.16756608427E+02  0.44028185433E+02  0.00000000000E+00 0. -1.
</event>
<event>
 7    1  0.8661710E-006  0.1092976E+03  0.7561462E-02  0.1261876E+00
          1   -1    0    0  501    0  0.00000000000E+00  0.00000000000E+00  0.40961448307E+02  0.40961448307E+02  0.00000000000E+00 0. -1.
         -1   -1    0    0    0  501 -0.00000000000E+00 -0.00000000000E+00 -0.50805816245E+03  0.50805816245E+03  0.00000000000E+00 0.  1.
         23    2    1    2    0    0  0.72913787963E+02 -0.20278548052E+02 -0.35618576936E+03  0.38502477584E+03  0.12509250866E+03 0.  0.
          5    1    3    3  502    0  0.87799074820E+02 -0.36852361390E+02 -0.15082138194E+03  0.17841338439E+03  0.41800000000E+01 0. -1.
         -5    1    3    3    0  502 -0.14885286856E+02  0.16573813337E+02 -0.20536438742E+03  0.20661139145E+03  0.41800000000E+01 0. -1.
        -11    1    1    2    0    0 -0.31588541348E+02 -0.24283337994E+02 -0.92142920280E+02  0.10038841669E+03  0.00000000000E+00 0.  1.
         11    1    1    2    0    0 -0.41325246615E+02  0.44561886046E+02 -0.18768024497E+02  0.63606418224E+02  0.00000000000E+00 0. -1.
</event>
<event>
 7    1  0.8661710E-006  0.1213179E+03  0.7561462E-02  0.1240939E+00
          1   -1    0    0  501    0  0.00000000000E+00  0.00000000000E+00  0.22394598859E+03  0.22394598859E+03  0.00000000000E+00 0. -1.
         -1   -1    0    0    0  501 -0.00000000000E+00 -0.00000000000E+00 -0.97664029204E+02  0.97664029204E+02  0.00000000000E+00 0.  1.
         23    2    1    2    0    0  0.93241755743E+02  0.36069760632E+02  0.56170118375E+02  0.16968997496E+03  0.12507818657E+03 0.  0.
          5    1    3    3  502    0 -0.22507246510E+01 -0.35311796329E+01  0.65537586704E+02  0.65804123443E+02  0.41800000000E+01 0. -1.
         -5    1    3    3    0  502  0.95492480394E+02  0.39600940265E+02 -0.93674683291E+01  0.10388585151E+03  0.41800000000E+01 0. -1.
        -11    1    1    2    0    0 -0.23579579671E+02  0.29379664562E+02  0.98981065135E+01  0.38950401536E+02  0.00000000000E+00 0.  1.
         11    1    1    2    0    0 -0.69662176072E+02 -0.65449425195E+02  0.60213734493E+02  0.11296964130E+03  0.00000000000E+00 0. -1.
</event>
<event>
 6    1  0.8661710E-006  0.1751792E+03  0.7561462E-02  0.1172552E+00
          1   -1    0    0  501    0  0.00000000000E+00  0.00000000000E+00  0.95190222196E+03  0.95190222196E+03  0.00000000000E+00 0. -1.
         -1   -1    0    0    0  501 -0.00000000000E+00 -0.00000000000E+00 -0.44051215629E+02  0.44051215629E+02  0.00000000000E+00 0.  1.
          5    1    1    2  502    0 -0.37937242103E+02 -0.87676183186E+02  0.28766652511E+03  0.30314328214E+03  0.41800000000E+01 0. -1.
         -5    1    1    2    0  502  0.82249601576E+02  0.13829207951E+03  0.19648407291E+03  0.25399440844E+03  0.41800000000E+01 0.  1.
        -11    1    1    2    0    0  0.14858949757E+02  0.14917270230E+01  0.10736431997E+02  0.18392515038E+02  0.00000000000E+00 0.  1.
         11    1    1    2    0    0 -0.59171309230E+02 -0.52107623343E+02  0.41296397632E+03  0.42042323197E+03  0.00000000000E+00 0. -1.
</event>
<event>
 7    1  0.8661710E-006  0.1003197E+03  0.7561462E-02  0.1279625E+00
          2   -1    0    0  501    0  0.00000000000E+00  0.00000000000E+00  0.70556322342E+03  0.70556322342E+03  0.00000000000E+00 0. -1.
         -2   -1    0    0    0  501 -0.00000000000E+00 -0.00000000000E+00 -0.25003950563E+02  0.25003950563E+02  0.00000000000E+00 0.  1.
         23    2    1    2    0    0  0.71662530606E+02 -0.25455916386E+02  0.35239186331E+03  0.38158903446E+03  0.12508654572E+03 0.  0.
          5    1    3    3  502    0  0.44986795957E+02 -0.33649286146E+02  0.34859517329E+03  0.35311776153E+03  0.41800000000E+01 0. -1.
         -5    1    3    3    0  502  0.26675734650E+02  0.81933697600E+01  0.37966900233E+01  0.28471272930E+02  0.41800000000E+01 0. -1.
        -11    1    1    2    0    0  0.88229329957E+01 -0.21266567528E+02  0.98851947333E+02  0.10149787452E+03  0.00000000000E+00 0. -1.
         11    1    1    2    0    0 -0.80485463602E+02  0.46722483915E+02  0.22931546221E+03  0.24748026500E+03  0.00000000000E+00 0.  1.
</event>
<event>
 7    1  0.8661710E-006  0.1164433E+03  0.7561462E-02  0.1249083E+00
         -2   -1    0    0    0  501 -0.00000000000E+00  0.00000000000E+00  0.12910874957E+03  0.12910874957E+03  0.00000000000E+00 0. -1.
          2   -1    0    0  501    0  0.00000000000E+00 -0.00000000000E+00 -0.11161057071E+03  0.11161057071E+03  0.00000000000E+00 0.  1.
         23    2    1    2    0    0  0.43574143727E+02  0.27269814978E+02 -0.18545831554E+00  0.13524745546E+03  0.12509792565E+03 0.  0.
          5    1    3    3  502    0 -0.29794846389E+02 -0.27832672283E+02 -0.11832877123E+02  0.42660050384E+02  0.41800000000E+01 0.  1.
         -5    1    3    3    0  502  0.73368990116E+02  0.55102487261E+02  0.11647418807E+02  0.92587405071E+02  0.41800000000E+01 0.  1.
        -11    1    1    2    0    0 -0.66516226824E+02 -0.29008277346E+01  0.25165293375E+02  0.71176648018E+02  0.00000000000E+00 0. -1.
         11    1    1    2    0    0  0.22942083097E+02 -0.24368987244E+02 -0.74816562053E+01  0.34295216805E+02  0.00000000000E+00 0.  1.
</event>
<event>
 7    1  0.8661710E-006  0.1208326E+03  0.7561462E-02  0.1241730E+00
         -1   -1    0    0    0  501 -0.00000000000E+00  0.00000000000E+00  0.54667380658E+02  0.54667380658E+02  0.00000000000E+00 0.  1.
          1   -1    0    0  501    0  0.00000000000E+00 -0.00000000000E+00 -0.29406970804E+03  0.29406970804E+03  0.00000000000E+00 0. -1.
         23    2    1    2    0    0  0.14883905927E+02  0.66215229495E+02 -0.10334699248E+03  0.17587314424E+03  0.12507907394E+03 0.  0.
          5    1    3    3  502    0  0.36795542418E+02  0.95933135750E+02 -0.89144769653E+02  0.13609313294E+03  0.41800000000E+01 0.  1.
         -5    1    3    3    0  502 -0.21911636491E+02 -0.29717906255E+02 -0.14202222826E+02  0.39780011301E+02  0.41800000000E+01 0.  1.
        -11    1    1    2    0    0 -0.45053818920E+02 -0.50430039040E+02 -0.11317950510E+03  0.13184322436E+03  0.00000000000E+00 0. -1.
         11    1    1    2    0    0  0.30169912993E+02 -0.15785190456E+02 -0.22875829804E+02  0.41020720093E+02  0.00000000000E+00 0.  1.
</event>
<event>
 7    1  0.8661710E-006  0.9975174E+02  0.7561462E-02  0.1280819E+00
         -3   -1    0    0    0  501 -0.00000000000E+00  0.00000000000E+00  0.10022890153E+03  0.10022890153E+03  0.00000000000E+00 0.  1.
          3   -1    0    0  501    0  0.00000000000E+00 -0.00000000000E+00 -0.11915633426E+03  0.11915633426E+03  0.00000000000E+00 0. -1.
         23    2    1    2    0    0  0.16447244309E+02 -0.49163467995E+01 -0.19372209609E+02  0.12773891376E+03  0.12508902938E+03 0.  0.
          5    1    3    3  502    0 -0.38638265258E+02  0.35770554696E+02  0.88414108984E+01  0.53554561637E+02  0.41800000000E+01 0. -1.
         -5    1    3    3    0  502  0.55085509568E+02 -0.40686901496E+02 -0.28213620507E+02  0.74184352122E+02  0.41800000000E+01 0. -1.
        -11    1    1    2    0    0 -0.47036155010E+01 -0.35590057251E+02  0.24149786188E+02  0.43266480638E+02  0.00000000000E+00 0.  1.
         11    1    1    2    0    0 -0.11743628808E+02  0.40506404050E+02 -0.23705009304E+02  0.48379841388E+02  0.00000000000E+00 0. -1.
</event>
<event>
 6    1  0.8661710E-006  0.1549939E+03  0.7561462E-02  0.1194467E+00
          1   -1    0    0  501    0  0.00000000000E+00  0.00000000000E+00  0.37323206493E+03  0.37323206493E+03  0.00000000000E+00 0. -1.
         -1   -1    0    0    0  501 -0.00000000000E+00 -0.00000000000E+00 -0.68677783699E+02  0.68677783699E+02  0.00000000000E+00 0.  1.
          5    1    1    2  502    0 -0.88923499312E+01  0.78257847914E+02  0.10841695262E+03  0.13407114776E+03  0.41800000000E+01 0. -1.
         -5    1    1    2    0  502  0.66534735334E+02 -0.45359412975E+02  0.38120780662E+02  0.89190883333E+02  0.41800000000E+01 0.  1.
        -11    1    1    2    0    0 -0.30696697961E+01 -0.78989692263E+02  0.72939058930E+02  0.10755882425E+03  0.00000000000E+00 0.  1.
         11    1    1    2    0    0 -0.54572715607E+02  0.46091257324E+02  0.85077489021E+02  0.11108899328E+03  0.00000000000E+00 0. -1.
</event>
<event>
 7    1  0.8661710E-006  0.4654047E+02  0.7561462E-02  0.1464948E+00
         -1   -1    0    0    0  501 -0.00000000000E+00  0.00000000000E+00  0.25337312043E+03  0.25337312043E+03  0.00000000000E+00 0.  1.
          1   -1    0    0  501    0  0.00000000000E+00 -0.00000000000E+00 -0.46286024883E+02  0.46286024883E+02  0.00000000000E+00 0. -1.
         23    2    1    2    0    0 -0.34720679231E+01  0.40655799237E+01  0.12196373959E+03  0.17478969847E+03  0.12509076992E+03 0.  0.
          5    1    3    3  502    0 -0.83852183981E+01  0.79137925250E+01  0.14758315268E+03  0.14809186120E+03  0.41800000000E+01 0.  1.
         -5    1    3    3    0  502  0.49131504750E+01 -0.38482126012E+01 -0.25619413086E+02  0.26697837266E+02  0.41800000000E+01 0.  1.
        -11    1    1    2    0    0  0.31896772490E+01 -0.38619130144E+02  0.69085480177E+01  0.39361647447E+02  0.00000000000E+00 0. -1.
         11    1    1    2    0    0  0.28239067411E+00  0.34553550220E+02  0.78214807935E+02  0.85507799396E+02  0.00000000000E+00 0.  1.
</event>
<event>
 7    1  0.8661710E-006  0.1196334E+03  0.7561462E-02  0.1243703E+00
          1   -1    0    0  501    0  0.00000000000E+00  0.00000000000E+00  0.62032674134E+03  0.62032674134E+03  0.00000000000E+00 0. -1.
         -1   -1    0    0    0  501 -0.00000000000E+00 -0.00000000000E+00 -0.24595426677E+02  0.24595426677E+02  0.00000000000E+00 0.  1.
         23    2    1    2    0    0  0.17300231373E+02  0.58195671237E+02  0.32122864248E+03  0.35002799148E+03  0.12508285221E+03 0.  0.
          5    1    3    3  502    0  0.22823534576E+02  0.93122180410E+02  0.27755854248E+03  0.29368158117E+03  0.41800000000E+01 0.  1.
         -5    1    3    3    0  502 -0.55233032029E+01 -0.34926509173E+02  0.43670099995E+02  0.56346410310E+02  0.41800000000E+01 0.  1.
        -11    1    1    2    0    0 -0.51637998132E+02 -0.17679064634E+02  0.14416924576E+03  0.15415512837E+03  0.00000000000E+00 0.  1.
         11    1    1    2    0    0  0.34337766759E+02 -0.40516606603E+02  0.13033342642E+03  0.14073904816E+03  0.00000000000E+00 0. -1.
</event>
<event>
 7    1  0.8661710E-006  0.8638721E+02  0.7561462E-02  0.1311844E+00
          2   -1    0    0  501    0  0.00000000000E+00  0.00000000000E+00  0.32486208557E+03  0.32486208557E+03  0.00000000000E+00 0. -1.
         -2   -1    0    0    0  501 -0.00000000000E+00 -0.00000000000E+00 -0.48784004342E+02  0.48784004342E+02  0.00000000000E+00 0.  1.
         23    2    1    2    0    0  0.15028592455E+02  0.58030111858E+02  0.12923664406E+03  0.18958531535E+03  0.12508848530E+03 0.  0.
          5    1    3    3  502    0 -0.50905922434E+01  0.54654161647E+02  0.15024033537E+03  0.16000819444E+03  0.41800000000E+01 0. -1.
         -5    1    3    3    0  502  0.20119184699E+02  0.33759502116E+01 -0.21003691310E+02  0.29577120911E+02  0.41800000000E+01 0. -1.
        -11    1    1    2    0    0  0.19265396254E+02  0.92600797026E+01  0.29833990025E+01  0.21582521598E+02  0.00000000000E+00 0.  1.
         11    1    1    2    0    0 -0.34293988709E+02 -0.67290191561E+02  0.14385803816E+03  0.16247825296E+03  0.00000000000E+00 0. -1.
</event>
<event>
 7    1  0.8661710E-006  0.6599463E+02  0.7561462E-02  0.1374269E+00
         -2   -1    0    0    0  501 -0.00000000000E+00  0.00000000000E+00  0.79270737709E+02  0.79270737709E+02  0.00000000000E+00 0.  1.
          2   -1    0    0  501    0  0.00000000000E+00 -0.00000000000E+00 -0.16726301446E+03  0.16726301446E+03  0.00000000000E+00 0. -1.
         23    2    1    2    0    0 -0.25917127159E+02  0.29317586502E+02 -0.68626716579E+02  0.14794616490E+03  0.12508886091E+03 0.  0.
          5    1    3    3  502    0 -0.29024282834E+02  0.18675310087E+02  0.31624373833E+02  0.46997336320E+02  0.41800000000E+01 0.  1.
         -5    1    3    3    0  502  0.31071556746E+01  0.10642276416E+02 -0.10025109041E+03  0.10094882858E+03  0.41800000000E+01 0.  1.
        -11    1    1    2    0    0  0.19385453383E+02 -0.55292177921E+02  0.93352633146E+01  0.59331002716E+02  0.00000000000E+00 0.  1.
         11    1    1    2    0    0  0.65316737760E+01  0.25974591419E+02 -0.28700823489E+02  0.39256584551E+02  0.00000000000E+00 0. -1.
</event>
<event>
 7    1  0.8661710E-006  0.1065190E+03  0.7561462E-02  0.1267155E+00
          1   -1    0    0  501    0  0.00000000000E+00  0.00000000000E+00  0.99748306551E+02  0.99748306551E+02  0.00000000000E+00 0.  1.
         -1   -1    0    0    0  501 -0.00000000000E+00 -0.00000000000E+00 -0.14186542658E+03  0.14186542658E+03  0.00000000000E+00 0. -1.
         23    2    1    2    0    0 -0.38787261016E+02  0.22853457780E+02 -0.43500775086E+02  0.13988762522E+03  0.12509795404E+03 0.  0.
          5    1    3    3  502    0 -0.84685790268E+02  0.12809740166E+02 -0.26620752879E+02  0.89788136189E+02  0.41800000000E+01 0. -1.
         -5    1    3    3    0  502  0.45898529252E+02  0.10043717614E+02 -0.16880022207E+02  0.50099489027E+02  0.41800000000E+01 0. -1.
        -11    1    1    2    0    0 -0.98229594630E+01 -0.29464861855E+02 -0.30248153706E+02  0.43354577836E+02  0.00000000000E+00 0. -1.
         11    1    1    2    0    0  0.48610220479E+02  0.66114040750E+01  0.31631808759E+02  0.58371530083E+02  0.00000000000E+00 0.  1.
</event>
<event>
 7    1  0.8661710E-006  0.3871431E+03  0.7561462E-02  0.1048325E+00
         -1   -1    0    0    0  501 -0.00000000000E+00  0.00000000000E+00  0.89037964647E+02  0.89037964647E+02  0.00000000000E+00 0.  1.
          1   -1    0    0  501    0  0.00000000000E+00 -0.00000000000E+00 -0.17841345355E+04  0.17841345355E+04  0.00000000000E+00 0. -1.
         23    2    1    2    0    0  0.21184902267E+03 -0.31152788817E+03 -0.69105895115E+03  0.79695707570E+03  0.12509385683E+03 0.  0.
          5    1    3    3  502    0  0.15287361699E+03 -0.14740287172E+03 -0.46666529187E+03  0.51272986689E+03  0.41800000000E+01 0.  1.
         -5    1    3    3    0  502  0.58975405685E+02 -0.16412501645E+03 -0.22439365929E+03  0.28422720881E+03  0.41800000000E+01 0.  1.
        -11    1    1    2    0    0 -0.18811026664E+03  0.20472964259E+03 -0.71217526264E+03  0.76452161755E+03  0.00000000000E+00 0.  1.
         11    1    1    2    0    0 -0.23738756029E+02  0.10679824558E+03 -0.29186235706E+03  0.31169380691E+03  0.00000000000E+00 0. -1.
</event>
<event>
 7    1  0.8661710E-006  0.1062832E+03  0.7561462E-02  0.1267612E+00
          3   -1    0    0  501    0  0.00000000000E+00  0.00000000000E+00  0.30503457617E+02  0.30503457617E+02  0.00000000000E+00 0. -1.
         -3   -1    0    0    0  501 -0.00000000000E+00 -0.00000000000E+00 -0.43237841981E+03  0.43237841981E+03  0.00000000000E+00 0.  1.
         23    2    1    2    0    0  0.28883788504E+02 -0.21243090347E+02 -0.21276441968E+03  0.24940257433E+03  0.12508958260E+03 0.  0.
          5    1    3    3  502    0 -0.15593919546E+02  0.39839438142E+02 -0.32473523020E+02  0.53873493071E+02  0.41800000000E+01 0. -1.
         -5    1    3    3    0  502  0.44477708050E+02 -0.61082528489E+02 -0.18029089666E+03  0.19552908126E+03  0.41800000000E+01 0. -1.
        -11    1    1    2    0    0 -0.40854195136E+02  0.48928368698E+02 -0.93005827428E+02  0.11275253638E+03  0.00000000000E+00 0. -1.
         11    1    1    2    0    0  0.11970406632E+02 -0.27685278351E+02 -0.96104715090E+02  0.10072676672E+03  0.00000000000E+00 0.  1.
</event>
<event>
 7    1  0.8661710E-006  0.1130858E+03  0.7561462E-02  0.1254960E+00
          1   -1    0    0  501    0  0.00000000000E+00  0.00000000000E+00  0.85491326835E+02  0.85491326835E+02  0.00000000000E+00 0.  1.
         -1   -1    0    0    0  501 -0.00000000000E+00 -0.00000000000E+00 -0.16778197724E+03  0.16778197724E+03  0.00000000000E+00 0. -1.
         23    2    1    2    0    0  0.19048281903E+02 -0.45348014038E+02 -0.60700094171E+02  0.14743686324E+03  0.12503538615E+03 0.  0.
          5    1    3    3  502    0  0.39330356304E+02 -0.82479138258E+02 -0.36256324399E+02  0.98395521411E+02  0.41800000000E+01 0.  1.
         -5    1    3    3    0  502 -0.20282074400E+02  0.37131124220E+02 -0.24443769772E+02  0.49041341830E+02  0.41800000000E+01 0.  1.
        -11    1    1    2    0    0  0.25873520030E+02  0.39019826679E+02 -0.35085759009E+02  0.58506379123E+02  0.00000000000E+00 0. -1.
         11    1    1    2    0    0 -0.44921801933E+02  0.63281873589E+01  0.13495202771E+02  0.47330061716E+02  0.00000000000E+00 0.  1.
</event>
<event>
 7    1  0.8661710E-006  0.1358212E+03  0.7561462E-02  0.1219065E+00
         -1   -1    0    0    0  501 -0.00000000000E+00  0.00000000000E+00  0.30763563162E+02  0.30763563162E+02  0.00000000000E+00 0.  1.
          1   -1    0    0  501    0  0.00000000000E+00 -0.00000000000E+00 -0.64403736482E+03  0.64403736482E+03  0.00000000000E+00 0. -1.
         23    2    1    2    0    0  0.17586755640E+01  0.91502961841E+02 -0.32146295717E+03  0.35687869178E+03  0.12509229733E+03 0.  0.
          5    1    3    3  502    0 -0.39813216670E+02  0.10376880230E+03 -0.23953373141E+03  0.26409645480E+03  0.41800000000E+01 0.  1.
         -5    1    3    3    0  502  0.41571892234E+02 -0.12265840464E+02 -0.81929225762E+02  0.92782236986E+02  0.41800000000E+01 0.  1.
        -11    1    1    2    0    0  0.21986015288E+02 -0.90474835190E+02 -0.27022566680E+03  0.28581636004E+03  0.00000000000E+00 0. -1.
         11    1    1    2    0    0 -0.23744690852E+02 -0.10281266509E+01 -0.21585177689E+02  0.32105876158E+02  0.00000000000E+00 0.  1.
</event>
<event>
 7    1  0.8661710E-006  0.9045195E+02  0.7561462E-02  0.1301761E+00
          3   -1    0    0  501    0  0.00000000000E+00  0.00000000000E+00  0.46706064288E+02  0.46706064288E+02  0.00000000000E+00 0. -1.
         -3   -1    0    0    0  501 -0.00000000000E+00 -0.00000000000E+00 -0.29279410808E+03  0.29279410808E+03  0.00000000000E+00 0.  1.
         23    2    1    2    0    0  0.13659740788E+02  0.74434930414E+01 -0.20262860236E+03  0.23863929794E+03  0.12509344475E+03 0.  0.
          5    1    3    3  502    0 -0.25116706788E+01  0.50438210356E+02 -0.27737896361E+02  0.57768372386E+02  0.41800000000E+01 0. -1.
         -5    1    3    3    0  502  0.16171411467E+02 -0.42994717315E+02 -0.17489070600E+03  0.18087092556E+03  0.41800000000E+01 0. -1.
        -11    1    1    2    0    0  0.32912762446E+02 -0.16252773938E+02 -0.22716034241E+00  0.36707685766E+02  0.00000000000E+00 0. -1.
         11    1    1    2    0    0 -0.46572503234E+02  0.88092808967E+01 -0.43232281087E+02  0.64153188661E+02  0.00000000000E+00 0.  1.
</event>
<event>
 7    1  0.8661710E-006  0.2490368E+03  0.7561462E-02  0.1113915E+00
         -4   -1    0    0    0  501 -0.00000000000E+00  0.00000000000E+00  0.38221915614E+03  0.38221915614E+03  0.00000000000E+00 0.  1.
          4   -1    0    0  501    0  0.00000000000E+00 -0.00000000000E+00 -0.19974255314E+03  0.19974255314E+03  0.00000000000E+00 0. -1.
         23    2    1    2    0    0  0.12320881674E+03  0.21476222311E+03  0.14996063768E+03  0.31533813483E+03  0.12508685554E+03 0.  0.
          5    1    3    3  502    0  0.12324837667E+03  0.19908373883E+03  0.86198693796E+02  0.24954395331E+03  0.41800000000E+01 0.  1.
         -5    1    3    3    0  502 -0.39559936357E-01  0.15678484273E+02  0.63761943889E+02  0.65794181526E+02  0.41800000000E+01 0.  1.
        -11    1    1    2    0    0 -0.99917423586E+02 -0.17860864610E+03 -0.11636221015E+02  0.20498766216E+03  0.00000000000E+00 0. -1.
         11    1    1    2    0    0 -0.23291393150E+02 -0.36153577003E+02  0.44152186333E+02  0.61635912283E+02  0.00000000000E+00 0.  1.
</event>
<event>
 7    1  0.8661710E-006  0.1150099E+03  0.7561462E-02  0.1251564E+00
         -1   -1    0    0    0  501 -0.00000000000E+00  0.00000000000E+00  0.15738391725E+03  0.15738391725E+03  0.00000000000E+00 0.  1.
          1   -1    0    0  501    0  0.00000000000E+00 -0.00000000000E+00 -0.94479441524E+02  0.94479441524E+02  0.00000000000E+00 0. -1.
         23    2    1    2    0    0  0.40478093243E+02  0.31325304985E+02  0.57807149437E+02  0.14700175190E+03  0.12509235696E+03 0.  0.
          5    1    3    3  502    0  0.75673089650E+02  0.53328424231E+02  0.47000320292E+02  0.10390784299E+03  0.41800000000E+01 0.  1.
         -5    1    3    3    0  502 -0.35194996407E+02 -0.22003119246E+02  0.10806829145E+02  0.43093908906E+02  0.41800000000E+01 0.  1.
        -11    1    1    2    0    0  0.24898015848E+02 -0.10477704265E+02 -0.17998060566E+02  0.32459569682E+02  0.00000000000E+00 0. -1.
         11    1    1    2    0    0 -0.65376109091E+02 -0.20847600720E+02  0.23095386857E+02  0.72402037193E+02  0.00000000000E+00 0.  1.
</event>
<event>
 7    1  0.8661710E-006  0.1135003E+03  0.7561462E-02  0.1254222E+00
          1   -1    0    0  501    0  0.00000000000E+00  0.00000000000E+00  0.29649607564E+03  0.29649607564E+03  0.00000000000E+00 0. -1.
         -1   -1    0    0    0  501 -0.00000000000E+00 -0.00000000000E+00 -0.10229734499E+03  0.10229734499E+03  0.00000000000E+00 0.  1.
         23    2    1    2    0    0 -0.14360736522E+02 -0.68760199464E+02 -0.29892308467E+02  0.14654615540E+03  0.12509208518E+03 0.  0.
          5    1    3    3  502    0 -0.11511574091E+02  0.23515978398E+02 -0.45656199935E+02  0.52796577262E+02  0.41800000000E+01 0.  1.
         -5    1    3    3    0  502 -0.28491624305E+01 -0.92276177863E+02  0.15763891468E+02  0.93749578141E+02  0.41800000000E+01 0.  1.
        -11    1    1    2    0    0  0.44661446743E+02  0.16402132414E+02  0.14543009501E+03  0.15301499047E+03  0.00000000000E+00 0. -1.
         11    1    1    2    0    0 -0.30300710221E+02  0.52358067051E+02  0.78660944112E+02  0.99232274758E+02  0.00000000000E+00 0.  1.
</event>
<event>
 6    1  0.8661710E-006  0.1848316E+03  0.7561462E-02  0.1163207E+00
          4   -1    0    0  501    0  0.00000000000E+00  0.00000000000E+00  0.16001362999E+03  0.16001362999E+03  0.00000000000E+00 0. -1.
         -4   -1    0    0    0  501 -0.00000000000E+00 -0.00000000000E+00 -0.30449771600E+03  0.30449771600E+03  0.00000000000E+00 0.  1.
          5    1    1    2  502    0  0.79012943667E+02 -0.98822489194E+02  0.39417161821E+02  0.13259002483E+03  0.41800000000E+01 0. -1.
         -5    1    1    2    0  502 -0.12123397027E+03  0.64827852335E+02 -0.17952664562E+03  0.22615838449E+03  0.41800000000E+01 0.  1.
        -11    1    1    2    0    0  0.55083352102E+02 -0.13172425291E+02 -0.51243939534E+01  0.56867810581E+02  0.00000000000E+00 0. -1.
         11    1    1    2    0    0 -0.12862325495E+02  0.47167062150E+02  0.74979173908E+00  0.48895126103E+02  0.00000000000E+00 0.  1.
</event>
<event>
 7    1  0.8661710E-006  0.1694489E+03  0.7561462E-02  0.1178424E+00
          1   -1    0    0  501    0  0.00000000000E+00  0.00000000000E+00  0.42779208188E+03  0.42779208188E+03  0.00000000000E+00 0. -1.
         -1   -1    0    0    0  501 -0.00000000000E+00 -0.00000000000E+00 -0.16684896412E+03  0.16684896412E+03  0.00000000000E+00 0.  1.
         23    2    1    2    0    0  0.36552657955E+02 -0.13329315284E+03 -0.90782418836E+02  0.20734467104E+03  0.12508878303E+03 0.  0.
          5    1    3    3  502    0  0.17757051805E+02  0.18159513011E+02 -0.37818244347E+02  0.45746833848E+02  0.41800000000E+01 0. -1.
         -5    1    3    3    0  502  0.18795606150E+02 -0.15145266585E+03 -0.52964174489E+02  0.16159783719E+03  0.41800000000E+01 0. -1.
        -11    1    1    2    0    0 -0.55763139165E+02  0.49645037771E+02  0.13639536273E+03  0.15549229061E+03  0.00000000000E+00 0. -1.
         11    1    1    2    0    0  0.19210481211E+02  0.83648115072E+02  0.21533017387E+03  0.23180408435E+03  0.00000000000E+00 0.  1.
</event>
<event>
 6    1  0.8661710E-006  0.1049227E+03  0.7561462E-02  0.1270272E+00
         -2   -1    0    0    0  501 -0.00000000000E+00  0.00000000000E+00  0.68922336145E+02  0.68922336145E+02  0.00000000000E+00 0.  1.
          2   -1    0    0  501    0  0.00000000000E+00 -0.00000000000E+00 -0.19513389634E+03  0.19513389634E+03  0.00000000000E+00 0. -1.
          5    1    1    2  502    0 -0.55331620383E+02  0.17190392454E+02 -0.74921114693E+02  0.94803711076E+02  0.41800000000E+01 0. -1.
         -5    1    1    2    0  502  0.35042549407E+02 -0.43602784852E+02  0.76610714059E+01  0.56615788706E+02  0.41800000000E+01 0.  1.
        -11    1    1    2    0    0 -0.27807191809E+02 -0.15524558171E+02 -0.24015360585E+02  0.39887208059E+02  0.00000000000E+00 0. -1.
         11    1    1    2    0    0  0.48096262785E+02  0.41936950569E+02 -0.34936156319E+02  0.72749524639E+02  0.00000000000E+00 0.  1.
</event>
<event>
 7    1  0.8661710E-006  0.1436381E+03  0.7561462E-02  0.1208516E+00
          2   -1    0    0  501    0  0.00000000000E+00  0.00000000000E+00  0.97131395747E+02  0.97131395747E+02  0.00000000000E+00 0.  1.
         -2   -1    0    0    0  501 -0.00000000000E+00 -0.00000000000E+00 -0.46321296852E+03  0.46321296852E+03  0.00000000000E+00 0. -1.
         23    2    1    2    0    0  0.13741486604E+03 -0.34390722544E+01 -0.34902061869E+03  0.39542124874E+03  0.12509156269E+03 0.  0.
          5    1    3    3  502    0  0.50782217041E+02 -0.29974315942E+02 -0.35304039886E+02  0.68855942489E+02  0.41800000000E+01 0. -1.
         -5    1    3    3    0  502  0.86632649003E+02  0.26535243688E+02 -0.31371657880E+03  0.32656530625E+03  0.41800000000E+01 0. -1.
        -11    1    1    2    0    0 -0.10772897755E+03  0.26375252989E+01  0.27646750755E+02  0.11125121110E+03  0.00000000000E+00 0.  1.
         11    1    1    2    0    0 -0.29685888497E+02  0.80154695544E+00 -0.44707704845E+02  0.53671904437E+02  0.00000000000E+00 0. -1.
</event>
<event>
 7    1  0.8661710E-006  0.1376113E+03  0.7561462E-02  0.1216580E+00
          2   -1    0    0  501    0  0.00000000000E+00  0.00000000000E+00  0.38691011022E+03  0.38691011022E+03  0.00000000000E+00 0. -1.
         -2   -1    0    0    0  501 -0.00000000000E+00 -0.00000000000E+00 -0.66815209306E+02  0.66815209306E+02  0.00000000000E+00 0.  1.
         23    2    1    2    0    0 -0.51092437313E+02 -0.10487331842E+03  0.14688167681E+03  0.22545696836E+03  0.12509103699E+03 0.  0.
          5    1    3    3  502    0 -0.29963994107E+00  0.13213930673E+02 -0.13853589195E+02  0.19598267309E+02  0.41800000000E+01 0.  1.
         -5    1    3    3    0  502 -0.50792797372E+02 -0.11808724909E+03  0.16073526600E+03  0.20585870105E+03  0.41800000000E+01 0.  1.
        -11    1    1    2    0    0  0.31913889534E+02  0.10861299709E+03  0.95408337867E+02  0.14804739247E+03  0.00000000000E+00 0.  1.
         11    1    1    2    0    0  0.19178547779E+02 -0.37396786731E+01  0.77804886244E+02  0.80220958702E+02  0.00000000000E+00 0. -1.
</event>
<event>
 7    1  0.8661710E-006  0.9910949E+02  0.7561462E-02  0.1282180E+00
          2   -1    0    0  501    0  0.00000000000E+00  0.00000000000E+00  0.83053801347E+02  0.83053801347E+02  0.00000000000E+00 0. -1.
         -2   -1    0    0    0  501 -0.00000000000E+00 -0.00000000000E+00 -0.21869872343E+03  0.21869872343E+03  0.00000000000E+00 0.  1.
         23    2    1    2    0    0  0.71669110232E+02 -0.20512424675E+02 -0.10782007281E+03  0.18119390217E+03  0.12509532827E+03 0.  0.
          5    1    3    3  502    0  0.34268286758E+02 -0.35088398337E+02  0.15365128370E+02  0.51566178306E+02  0.41800000000E+01 0. -1.
         -5    1    3    3    0  502  0.37400823474E+02  0.14575973662E+02 -0.12318520118E+03  0.12962772387E+03  0.41800000000E+01 0. -1.
        -11    1    1    2    0    0  0.92554690033E+01 -0.17065320590E+02  0.12029368121E+02  0.22838445015E+02  0.00000000000E+00 0. -1.
         11    1    1    2    0    0 -0.80924579235E+02  0.37577745265E+02 -0.39854217386E+02  0.97720177584E+02  0.00000000000E+00 0.  1.
</event>
<event>
 7    1  0.8661710E-006  0.9984507E+02  0.7561462E-02  0.1280622E+00
          1   -1    0    0  501    0  0.00000000000E+00  0.00000000000E+00  0.24294689543E+03  0.24294689543E+03  0.00000000000E+00 0. -1.
         -1   -1    0    0    0  501 -0.00000000000E+00 -0.00000000000E+00 -0.63986567641E+02  0.63986567641E+02  0.00000000000E+00 0.  1.
         23    2    1    2    0    0  0.45113412115E+02 -0.32385794644E+02  0.67720032892E+02  0.15270844371E+03  0.12509918576E+03 0.  0.
          5    1    3    3  502    0  0.64336215683E+02 -0.39054176064E+02  0.93179200099E+02  0.11985079494E+03  0.41800000000E+01 0.  1.
         -5    1    3    3    0  502 -0.19222803568E+02  0.66683814201E+01 -0.25459167207E+02  0.32857648770E+02  0.41800000000E+01 0.  1.
        -11    1    1    2    0    0 -0.38692750960E+02 -0.24824205171E+02  0.30912689014E+02  0.55398235362E+02  0.00000000000E+00 0.  1.
         11    1    1    2    0    0 -0.64206611552E+01  0.57209999816E+02  0.80327605885E+02  0.98826784000E+02  0.00000000000E+00 0. -1.
</event>
<event>
 7    1  0.8661710E-006  0.1716631E+03  0.7561462E-02  0.1176125E+00
          1   -1    0    0  501    0  0.00000000000E+00  0.00000000000E+00  0.12285774874E+03  0.12285774874E+03  0.00000000000E+00 0. -1.
         -1   -1    0    0    0  501 -0.00000000000E+00 -0.00000000000E+00 -0.41703082324E+03  0.41703082324E+03  0.00000000000E+00 0.  1.
         23    2    1    2    0    0 -0.16256858116E+03 -0.81602213473E+01 -0.28542886120E+03  0.35158491713E+03  0.12508871395E+03 0.  0.
          5    1    3    3  502    0  0.68906765145E+01  0.60270077106E+01 -0.97840053470E+02  0.98356264202E+02  0.41800000000E+01 0.  1.
         -5    1    3    3    0  502 -0.16945925767E+03 -0.14187229058E+02 -0.18758880773E+03  0.25322865293E+03  0.41800000000E+01 0.  1.
        -11    1    1    2    0    0  0.14123972822E+03  0.10876122639E+02 -0.42840563494E+02  0.14799413756E+03  0.00000000000E+00 0.  1.
         11    1    1    2    0    0  0.21328852942E+02 -0.27159012922E+01  0.34096350195E+02  0.40309517292E+02  0.00000000000E+00 0. -1.
</event>
<event>
 7    1  0.8661710E-006  0.7037128E+02  0.7561462E-02  0.1358835E+00
          2   -1    0    0  501    0  0.00000000000E+00  0.00000000000E+00  0.48098161769E+02  0.48098161769E+02  0.00000000000E+00 0. -1.
         -2   -1    0    0    0  501 -0.00000000000E+00 -0.00000000000E+00 -0.31749833765E+03  0.31749833765E+03  0.00000000000E+00 0.  1.
         23    2    1    2    0    0  0.38400833739E+02  0.16898505403E+02 -0.20960831530E+03  0.24767571067E+03  0.12508968102E+03 0.  0.
          5    1    3    3  502    0 -0.17004049821E+02  0.13199121815E+02  0.77812159746E+01  0.23267450420E+02  0.41800000000E+01 0. -1.
         -5    1    3    3    0  502  0.55404883559E+02  0.36993835878E+01 -0.21738953127E+03  0.22440826025E+03  0.41800000000E+01 0. -1.
        -11    1    1    2    0    0  0.35655100882E+01  0.11774892454E+02 -0.65618023732E+02  0.66761410957E+02  0.00000000000E+00 0.  1.
         11    1    1    2    0    0 -0.41966343827E+02 -0.28673397856E+02  0.58261631513E+01  0.51159377790E+02  0.00000000000E+00 0. -1.
</event>
<event>
 7    1  0.8661710E-006  0.1753449E+03  0.7561462E-02  0.1172386E+00
         -2   -1    0    0    0  501 -0.00000000000E+00  0.00000000000E+00  0.16143095921E+03  0.16143095921E+03  0.00000000000E+00 0. -1.
          2   -1    0    0  501    0  0.00000000000E+00 -0.00000000000E+00 -0.33315912121E+03  0.33315912121E+03  0.00000000000E+00 0.  1.
         23    2    1    2    0    0 -0.10790580957E+03  0.11261787645E+03  0.52789752664E+02  0.20680059301E+03  0.12511305866E+03 0.  0.
          5    1    3    3  502    0 -0.65206233194E-01  0.49485522317E+02  0.64295071239E+02  0.81241305729E+02  0.41800000000E+01 0. -1.
         -5    1    3    3    0  502 -0.10784060333E+03  0.63132354133E+02 -0.11505318575E+02  0.12555928728E+03  0.41800000000E+01 0. -1.
        -11    1    1    2    0    0  0.79826197817E+02 -0.24481913775E+02 -0.13705690691E+03  0.16048732564E+03  0.00000000000E+00 0.  1.
         11    1    1    2    0    0  0.28079611751E+02 -0.88135962675E+02 -0.87461007764E+02  0.12730216177E+03  0.00000000000E+00 0. -1.
</event>
<event>
 7    1  0.8661710E-006  0.1088994E+03  0.7561462E-02  0.1262622E+00
         -2   -1    0    0    0  501 -0.00000000000E+00  0.00000000000E+00  0.77542220935E+02  0.77542220935E+02  0.00000000000E+00 0.  1.
          2   -1    0    0  501    0  0.00000000000E+00 -0.00000000000E+00 -0.17503418245E+03  0.17503418245E+03  0.00000000000E+00 0. -1.
         23    2    1    2    0    0  0.22190841510E+02 -0.32558072154E+02 -0.40504325147E+02  0.13727312868E+03  0.12510335724E+03 0.  0.
          5    1    3    3  502    0  0.36543012730E+02 -0.69999042321E+02  0.14513778622E+01  0.79087524951E+02  0.41800000000E+01 0.  1.
         -5    1    3    3    0  502 -0.14352171221E+02  0.37440970166E+02 -0.41955703010E+02  0.58185603725E+02  0.41800000000E+01 0.  1.
        -11    1    1    2    0    0 -0.15557847047E+02 -0.30905528423E+02 -0.98628210796E+01  0.35978792802E+02  0.00000000000E+00 0.  1.
         11    1    1    2    0    0 -0.66329944621E+01  0.63463600577E+02 -0.47124815286E+02  0.79324481905E+02  0.00000000000E+00 0. -1.
</event>
<event>
 7    1  0.1457066E-005  0.2651029E+03  0.7561462E-02  0.1104115E+00
         -2   -1    0    0    0  501 -0.00000000000E+00  0.00000000000E+00  0.55502997613E+02  0.55502997613E+02  0.00000000000E+00 0.  1.
          2   -1    0    0  501    0  0.00000000000E+00 -0.00000000000E+00 -0.14685774998E+04  0.14685774998E+04  0.00000000000E+00 0. -1.
         23    2    1    2    0    0 -0.39850758996E+02  0.25188208985E+03 -0.54485661438E+03  0.61445055003E+03  0.12509227805E+03 0.  0.
          5    1    3    3  502    0 -0.47635882083E+02  0.24403160108E+03 -0.41315045647E+03  0.48221506786E+03  0.41800000000E+01 0. -1.
         -5    1    3    3    0  502  0.77851230869E+01  0.78504887639E+01 -0.13170615791E+03  0.13223548218E+03  0.41800000000E+01 0. -1.
        -11    1    1    2    0    0  0.65647639305E+02 -0.13627545147E+03 -0.43695868934E+03  0.46239972687E+03  0.00000000000E+00 0.  1.
         11    1    1    2    0    0 -0.25796880309E+02 -0.11560663838E+03 -0.43125919844E+03  0.44723022048E+03  0.00000000000E+00 0. -1.
</event>
<event>
 7    1  0.8661710E-006  0.2112690E+03  0.7561462E-02  0.1140565E+00
         -2   -1    0    0    0  501 -0.00000000000E+00  0.00000000000E+00  0.38691321554E+02  0.38691321554E+02  0.00000000000E+00 0.  1.
          2   -1    0    0  501    0  0.00000000000E+00 -0.00000000000E+00 -0.14428365956E+04  0.14428365956E+04  0.00000000000E+00 0. -1.
         23    2    1    2    0    0 -0.98599617448E+02  0.16890424570E+03 -0.49244558183E+03  0.54442767027E+03  0.12509319853E+03 0.  0.
          5    1    3    3  502    0 -0.63673795148E+02  0.10539777177E+02 -0.92817498116E+02  0.11312824337E+03  0.41800000000E+01 0. -1.
         -5    1    3    3    0  502 -0.34925822299E+02  0.15836446852E+03 -0.39962808372E+03  0.43129942690E+03  0.41800000000E+01 0. -1.
        -11    1    1    2    0    0  0.72698497577E+02 -0.12870796597E+03 -0.82453382239E+03  0.83767943530E+03  0.00000000000E+00 0.  1.
         11    1    1    2    0    0  0.25901119870E+02 -0.40196279722E+02 -0.87165869839E+02  0.99420811598E+02  0.00000000000E+00 0. -1.
</event>
<event>
 7    1  0.8661710E-006  0.1153173E+03  0.7561462E-02  0.1251028E+00
          1   -1    0    0  501    0  0.00000000000E+00  0.00000000000E+00  0.35125588338E+03  0.35125588338E+03  0.00000000000E+00 0. -1.
         -1   -1    0    0    0  501 -0.00000000000E+00 -0.00000000000E+00 -0.39707248717E+02  0.39707248717E+02  0.00000000000E+00 0.  1.
         23    2    1    2    0    0  0.22990179830E+01  0.41953865603E+02  0.14643182944E+03  0.19711778891E+03  0.12509088579E+03 0.  0.
          5    1    3    3  502    0  0.14706646145E+02 -0.42776606552E+02  0.61277998409E+02  0.76279676179E+02  0.41800000000E+01 0.  1.
         -5    1    3    3    0  502 -0.12407628162E+02  0.84730472155E+02  0.85153831031E+02  0.12083811273E+03  0.41800000000E+01 0.  1.
        -11    1    1    2    0    0 -0.89874029744E+01 -0.70032778236E+02  0.13358522431E+03  0.15109723887E+03  0.00000000000E+00 0. -1.
         11    1    1    2    0    0  0.66883849913E+01  0.28078912633E+02  0.31531580916E+02  0.42748104326E+02  0.00000000000E+00 0.  1.
</event>
<event>
 7    1  0.8661710E-006  0.1627834E+03  0.7561462E-02  0.1185590E+00
          4   -1    0    0  501    0  0.00000000000E+00  0.00000000000E+00  0.33690706010E+03  0.33690706010E+03  0.00000000000E+00 0. -1.
         -4   -1    0    0    0  501 -0.00000000000E+00 -0.00000000000E+00 -0.24735170931E+03  0.24735170931E+03  0.00000000000E+00 0.  1.
         23    2    1    2    0    0 -0.68318999122E+02 -0.12806735728E+03 -0.18165937912E+03  0.26403824013E+03  0.12508928246E+03 0.  0.
          5    1    3    3  502    0  0.13005469977E+02 -0.89034614504E+02 -0.46188146287E+02  0.10122806966E+03  0.41800000000E+01 0.  1.
         -5    1    3    3    0  502 -0.81324469099E+02 -0.39032742775E+02 -0.13547123284E+03  0.16281017047E+03  0.41800000000E+01 0.  1.
        -11    1    1    2    0    0  0.28730966588E+02  0.57281177388E+02  0.20723983686E+03  0.21692153352E+03  0.00000000000E+00 0. -1.
         11    1    1    2    0    0  0.39588032534E+02  0.70786179891E+02  0.63974893055E+02  0.10329899576E+03  0.00000000000E+00 0.  1.
</event>
<event>
 7    1  0.8661710E-006  0.1009793E+03  0.7561462E-02  0.1278250E+00
         -2   -1    0    0    0  501 -0.00000000000E+00  0.00000000000E+00  0.22196905549E+03  0.22196905549E+03  0.00000000000E+00 0. -1.
          2   -1    0    0  501    0  0.00000000000E+00 -0.00000000000E+00 -0.67436735274E+02  0.67436735274E+02  0.00000000000E+00 0.  1.
         23    2    1    2    0    0 -0.10127748414E+02  0.53325831314E+02  0.78750527937E+02  0.15746410738E+03  0.12508830436E+03 0.  0.
          5    1    3    3  502    0 -0.45826067298E+02  0.12202729782E+02 -0.14178907432E+02  0.49673422210E+02  0.41800000000E+01 0. -1.
         -5    1    3    3    0  502  0.35698318884E+02  0.41123101533E+02  0.92929435369E+02  0.10779068517E+03  0.41800000000E+01 0. -1.
        -11    1    1    2    0    0  0.78074633607E+01 -0.76272849862E+02  0.77238789567E+02  0.10883168070E+03  0.00000000000E+00 0. -1.
         11    1    1    2    0    0  0.23202850530E+01  0.22947018548E+02 -0.14569972906E+01  0.23110002684E+02  0.00000000000E+00 0.  1.
</event>
<event>
 7    1  0.8661710E-006  0.5664853E+02  0.7561462E-02  0.1412460E+00
          2   -1    0    0  501    0  0.00000000000E+00  0.00000000000E+00  0.57703366686E+02  0.57703366686E+02  0.00000000000E+00 0. -1.
         -2   -1    0    0    0  501 -0.00000000000E+00 -0.00000000000E+00 -0.21258466470E+03  0.21258466470E+03  0.00000000000E+00 0.  1.
         23    2    1    2    0    0 -0.13399895459E+02  0.10285175103E+02 -0.10964035203E+03  0.16719405949E+03  0.12508998645E+03 0.  0.
          5    1    3    3  502    0 -0.20732856415E+02  0.15452461290E+01 -0.13627697337E+03  0.13791709463E+03  0.41800000000E+01 0.  1.
         -5    1    3    3    0  502  0.73329609552E+01  0.87399289739E+01  0.26636621341E+02  0.29276964858E+02  0.41800000000E+01 0.  1.
        -11    1    1    2    0    0  0.29993136796E+02 -0.37528551912E+02 -0.37354630586E+00  0.48042897501E+02  0.00000000000E+00 0. -1.
         11    1    1    2    0    0 -0.16593241337E+02  0.27243376809E+02 -0.44867399673E+02  0.55051074390E+02  0.00000000000E+00 0.  1.
</event>
<event>
 7    1  0.8661710E-006  0.5033517E+02  0.7561462E-02  0.1443542E+00
          1   -1    0    0  501    0  0.00000000000E+00  0.00000000000E+00  0.42139090495E+02  0.42139090495E+02  0.00000000000E+00 0.  1.
         -1   -1    0    0    0  501 -0.00000000000E+00 -0.00000000000E+00 -0.28386179643E+03  0.28386179643E+03  0.00000000000E+00 0. -1.
         23    2    1    2    0    0 -0.19967074221E+02  0.33347681691E+02 -0.17411751815E+03  0.21803825244E+03  0.12535157547E+03 0.  0.
          5    1    3    3  502    0  0.58301651071E+01  0.45704504305E+01 -0.17869453456E+03  0.17889686673E+03  0.41800000000E+01 0. -1.
         -5    1    3    3    0  502 -0.25797239329E+02  0.28777231261E+02  0.45770164143E+01  0.39141385710E+02  0.41800000000E+01 0. -1.
        -11    1    1    2    0    0  0.12549329944E+02  0.55290881839E+01 -0.66990559876E+02  0.68379760241E+02  0.00000000000E+00 0. -1.
         11    1    1    2    0    0  0.74177442779E+01 -0.38876769875E+02 -0.61462790965E+00  0.39582874246E+02  0.00000000000E+00 0.  1.
</event>
<event>
 7    1  0.8661710E-006  0.1513317E+03  0.7561462E-02  0.1198846E+00
          1   -1    0    0  501    0  0.00000000000E+00  0.00000000000E+00  0.96734450829E+03  0.96734450829E+03  0.00000000000E+00 0. -1.
         -1   -1    0    0    0  501 -0.00000000000E+00 -0.00000000000E+00 -0.28430698834E+02  0.28430698834E+02  0.00000000000E+00 0.  1.
         23    2    1    2    0    0 -0.85192834237E+02 -0.90045658680E+02  0.46354911847E+03  0.49587362610E+03  0.12508728226E+03 0.  0.
          5    1    3    3  502    0 -0.14174295241E+02  0.31145414669E+02  0.11517831455E+03  0.12022671934E+03  0.41800000000E+01 0. -1.
         -5    1    3    3    0  502 -0.71018538996E+02 -0.12119107335E+03  0.34837080392E+03  0.37564690677E+03  0.41800000000E+01 0. -1.
        -11    1    1    2    0    0  0.24481435509E+02  0.47778474546E+02  0.72011189818E+02  0.89820569880E+02  0.00000000000E+00 0.  1.
         11    1    1    2    0    0  0.60711398728E+02  0.42267184135E+02  0.40335350117E+03  0.41008101114E+03  0.00000000000E+00 0. -1.
</event>
<event>
 7    1  0.8661710E-006  0.8957610E+02  0.7561462E-02  0.1303881E+00
          3   -1    0    0  501    0  0.00000000000E+00  0.00000000000E+00  0.50210935086E+02  0.50210935086E+02  0.00000000000E+00 0. -1.
         -3   -1    0    0    0  501 -0.00000000000E+00 -0.00000000000E+00 -0.27433405389E+03  0.27433405389E+03  0.00000000000E+00 0.  1.
         23    2    1    2    0    0  0.33349990366E+02  0.37787925309E+02 -0.14819606301E+03  0.20037433562E+03  0.12509057569E+03 0.  0.
          5    1    3    3  502    0  0.68745356749E+02  0.16740530310E+02 -0.14175123397E+03  0.15848360849E+03  0.41800000000E+01 0.  1.
         -5    1    3    3    0  502 -0.35395366383E+02  0.21047394999E+02 -0.64448290392E+01  0.41890727124E+02  0.41800000000E+01 0.  1.
        -11    1    1    2    0    0 -0.29786201478E+02 -0.47763188957E+02 -0.90244446703E+02  0.10636070787E+03  0.00000000000E+00 0.  1.
         11    1    1    2    0    0 -0.35637888887E+01  0.99752636483E+01  0.14317390904E+02  0.17809945491E+02  0.00000000000E+00 0. -1.
</event>
<event>
 7    1  0.8661710E-006  0.1765019E+03  0.7561462E-02  0.1171232E+00
         -1   -1    0    0    0  501 -0.00000000000E+00  0.00000000000E+00  0.13605798500E+03  0.13605798500E+03  0.00000000000E+00 0.  1.
          1   -1    0    0  501    0  0.00000000000E+00 -0.00000000000E+00 -0.28004898172E+03  0.28004898172E+03  0.00000000000E+00 0. -1.
         23    2    1    2    0    0  0.94241694547E+02 -0.12169999477E+03 -0.76476963769E+01  0.19849054886E+03  0.12509046730E+03 0.  0.
          5    1    3    3  502    0  0.15063540298E+02  0.17393084449E+02 -0.28684661063E+02  0.37009617848E+02  0.41800000000E+01 0. -1.
         -5    1    3    3    0  502  0.79178154249E+02 -0.13909307922E+03  0.21036964686E+02  0.16148093101E+03  0.41800000000E+01 0. -1.
        -11    1    1    2    0    0 -0.10461751031E+03  0.96771947194E+02 -0.11188542747E+03  0.18118493897E+03  0.00000000000E+00 0.  1.
         11    1    1    2    0    0  0.10375815768E+02  0.24928047581E+02 -0.24457872870E+02  0.36431478893E+02  0.00000000000E+00 0. -1.
</event>
<event>
 7    1  0.8661710E-006  0.1099749E+03  0.7561462E-02  0.1260616E+00
          3   -1    0    0  501    0  0.00000000000E+00  0.00000000000E+00  0.58495617186E+03  0.58495617186E+03  0.00000000000E+00 0. -1.
         -3   -1    0    0    0  501 -0.00000000000E+00 -0.00000000000E+00 -0.25540581591E+02  0.25540581591E+02  0.00000000000E+00 0.  1.
         23    2    1    2    0    0  0.23400721012E+02  0.14700016289E+02  0.18854732930E+03  0.22790979036E+03  0.12501637066E+03 0.  0.
          5    1    3    3  502    0  0.70063331255E+02  0.30690645995E+02  0.94681124258E+02  0.12178987572E+03  0.41800000000E+01 0.  1.
         -5    1    3    3    0  502 -0.46662610243E+02 -0.15990629706E+02  0.93866205047E+02  0.10611991464E+03  0.41800000000E+01 0.  1.
        -11    1    1    2    0    0  0.56902912967E+01 -0.48736338860E+02  0.18409730258E+03  0.19052408498E+03  0.00000000000E+00 0. -1.
         11    1    1    2    0    0 -0.29091012309E+02  0.34036322571E+02  0.18677095838E+03  0.19206287810E+03  0.00000000000E+00 0.  1.
</event>
<event>
 7    1  0.8661710E-006  0.7214267E+02  0.7561462E-02  0.1352955E+00
         -1   -1    0    0    0  501 -0.00000000000E+00  0.00000000000E+00  0.15098679843E+03  0.15098679843E+03  0.00000000000E+00 0.  1.
          1   -1    0    0  501    0  0.00000000000E+00 -0.00000000000E+00 -0.79259217851E+02  0.79259217851E+02  0.00000000000E+00 0. -1.
         23    2    1    2    0    0  0.52950515290E+02  0.14593963387E+02  0.59002026519E+02  0.14881270036E+03  0.12508892764E+03 0.  0.
          5    1    3    3  502    0  0.31996575962E+02  0.40055502292E+02 -0.25933969681E+02  0.57604403656E+02  0.41800000000E+01 0. -1.
         -5    1    3    3    0  502  0.20953939329E+02 -0.25461538905E+02  0.84935996199E+02  0.91208296701E+02  0.41800000000E+01 0. -1.
        -11    1    1    2    0    0 -0.15417933421E+02 -0.15775909797E+02  0.32278893356E+02  0.39096278048E+02  0.00000000000E+00 0.  1.
         11    1    1    2    0    0 -0.37532581869E+02  0.11819464095E+01 -0.19553339291E+02  0.42337037881E+02  0.00000000000E+00 0. -1.
</event>
<event>
 7    1  0.8661710E-006  0.1352003E+03  0.7561462E-02  0.1219937E+00
          1   -1    0    0  501    0  0.00000000000E+00  0.00000000000E+00  0.50644232586E+02  0.50644232586E+02  0.00000000000E+00 0. -1.
         -1   -1    0    0    0  501 -0.00000000000E+00 -0.00000000000E+00 -0.47855711107E+03  0.47855711107E+03  0.00000000000E+00 0.  1.
         23    2    1    2    0    0  0.86924623077E+02 -0.59830961639E+02 -0.31801744258E+03  0.35766009856E+03  0.12510003296E+03 0.  0.
          5    1    3    3  502    0  0.56448581412E+02  0.22919898919E+02 -0.20699596719E+03  0.21581604886E+03  0.41800000000E+01 0.  1.
         -5    1    3    3    0  502  0.30476041666E+02 -0.82750860558E+02 -0.11102147539E+03  0.14184404970E+03  0.41800000000E+01 0.  1.
        -11    1    1    2    0    0  0.73000282979E+01  0.15046097889E+02  0.38879793472E+01  0.17169503727E+02  0.00000000000E+00 0.  1.
         11    1    1    2    0    0 -0.94224651375E+02  0.44784863751E+02 -0.11378341525E+03  0.15437174137E+03  0.00000000000E+00 0. -1.
</event>
<event>
 7    1  0.8661710E-006  0.7962207E+02  0.7561462E-02  0.1330127E+00
          1   -1    0    0  501    0  0.00000000000E+00  0.00000000000E+00  0.43711201805E+02  0.43711201805E+02  0.00000000000E+00 0.  1.
         -1   -1    0    0    0  501 -0.00000000000E+00 -0.00000000000E+00 -0.31649250501E+03  0.31649250501E+03  0.00000000000E+00 0. -1.
         23    2    1    2    0    0 -0.41108959419E+02  0.15522646484E+02 -0.17121268931E+03  0.21655043215E+03  0.12509758426E+03 0.  0.
          5    1    3    3  502    0 -0.15434799148E+02 -0.22757407934E+02 -0.16785860358E+03  0.17014733567E+03  0.41800000000E+01 0.  1.
         -5    1    3    3    0  502 -0.25674160271E+02  0.38280054418E+02 -0.33540857236E+01  0.46403096479E+02  0.41800000000E+01 0.  1.
        -11    1    1    2    0    0  0.31431818429E+02 -0.44566199380E+02 -0.22735504169E+02  0.59084756805E+02  0.00000000000E+00 0.  1.
         11    1    1    2    0    0  0.96771409896E+01  0.29043552896E+02 -0.78833109730E+02  0.84568517855E+02  0.00000000000E+00 0. -1.
</event>
<event>
 7    1  0.8661710E-006  0.7816457E+02  0.7561462E-02  0.1334342E+00
         -2   -1    0    0    0  501 -0.00000000000E+00  0.00000000000E+00  0.40851881233E+03  0.40851881233E+03  0.00000000000E+00 0.  1.
          2   -1    0    0  501    0  0.00000000000E+00 -0.00000000000E+00 -0.36442291097E+02  0.36442291097E+02  0.00000000000E+00 0. -1.
         23    2    1    2    0    0 -0.83437654428E+01  0.30473753566E+02  0.27992870510E+03  0.30823132494E+03  0.12509277220E+03 0.  0.
          5    1    3    3  502    0 -0.33708731103E+02 -0.32060637503E+01  0.10797946763E+02  0.35785827525E+02  0.41800000000E+01 0.  1.
         -5    1    3    3    0  502  0.25364965660E+02  0.33679817316E+02  0.26913075834E+03  0.27244549742E+03  0.41800000000E+01 0.  1.
        -11    1    1    2    0    0 -0.32243064189E+02 -0.19938109629E+02  0.27775200873E+01  0.38011288083E+02  0.00000000000E+00 0. -1.
         11    1    1    2    0    0  0.40586829632E+02 -0.10535643937E+02  0.89370296043E+02  0.98718490404E+02  0.00000000000E+00 0.  1.
</event>
<event>
 7    1  0.8661710E-006  0.1083086E+03  0.7561462E-02  0.1263735E+00
          2   -1    0    0  501    0  0.00000000000E+00  0.00000000000E+00  0.68330803185E+03  0.68330803185E+03  0.00000000000E+00 0. -1.
         -2   -1    0    0    0  501 -0.00000000000E+00 -0.00000000000E+00 -0.21096846277E+02  0.21096846277E+02  0.00000000000E+00 0.  1.
         23    2    1    2    0    0  0.38935035467E+02 -0.25949903540E+02  0.29917643238E+03  0.32763326069E+03  0.12509069245E+03 0.  0.
          5    1    3    3  502    0 -0.33033213670E+02  0.19110838186E+02  0.16003828517E+03  0.16457868167E+03  0.41800000000E+01 0. -1.
         -5    1    3    3    0  502  0.71968249136E+02 -0.45060741726E+02  0.13913814721E+03  0.16305457902E+03  0.41800000000E+01 0. -1.
        -11    1    1    2    0    0 -0.55966697895E+02  0.41872222621E+02  0.32270046577E+03  0.33018350187E+03  0.00000000000E+00 0.  1.
         11    1    1    2    0    0  0.17031662429E+02 -0.15922319081E+02  0.40334287419E+02  0.46588115562E+02  0.00000000000E+00 0. -1.
</event>
<event>
 7    1  0.8661710E-006  0.9826623E+02  0.7561462E-02  0.1283985E+00
          2   -1    0    0  501    0  0.00000000000E+00  0.00000000000E+00  0.12555482576E+03  0.12555482576E+03  0.00000000000E+00 0. -1.
         -2   -1    0    0    0  501 -0.00000000000E+00 -0.00000000000E+00 -0.95213932281E+02  0.95213932281E+02  0.00000000000E+00 0.  1.
         23    2    1    2    0    0  0.30752679214E+02  0.40886752565E+01 -0.24926134110E+01  0.12890206699E+03  0.12508830964E+03 0.  0.
          5    1    3    3  502    0 -0.24855110358E+02  0.39009349905E+02  0.30232853296E+02  0.55416637477E+02  0.41800000000E+01 0. -1.
         -5    1    3    3    0  502  0.55607789572E+02 -0.34920674649E+02 -0.32725466707E+02  0.73485429509E+02  0.41800000000E+01 0. -1.
        -11    1    1    2    0    0 -0.23040067582E+02  0.36398425336E+02  0.25333295109E+02  0.49974652798E+02  0.00000000000E+00 0.  1.
         11    1    1    2    0    0 -0.77126116318E+01 -0.40487100593E+02  0.75002117832E+01  0.41892038258E+02  0.00000000000E+00 0. -1.
</event>
<event>
 7    1  0.8661710E-006  0.1003330E+03  0.7561462E-02  0.1279597E+00
         -4   -1    0    0    0  501 -0.00000000000E+00  0.00000000000E+00  0.10778940994E+03  0.10778940994E+03  0.00000000000E+00 0. -1.
          4   -1    0    0  501    0  0.00000000000E+00 -0.00000000000E+00 -0.19669334404E+03  0.19669334404E+03  0.00000000000E+00 0.  1.
         23    2    1    2    0    0  0.43828461402E+02 -0.50346602986E+02  0.24720810422E+02  0.14392519187E+03  0.12509047895E+03 0.  0.
          5    1    3    3  502    0  0.63144271304E+02 -0.13521103421E+02  0.60740389055E+02  0.88751825326E+02  0.41800000000E+01 0. -1.
         -5    1    3    3    0  502 -0.19315809902E+02 -0.36825499565E+02 -0.36019578634E+02  0.55173366540E+02  0.41800000000E+01 0. -1.
        -11    1    1    2    0    0 -0.44419331493E+02  0.61192269745E+00 -0.98843154780E+01  0.45509901693E+02  0.00000000000E+00 0. -1.
         11    1    1    2    0    0  0.59087009092E+00  0.49734680289E+02 -0.10374042904E+03  0.11504766042E+03  0.00000000000E+00 0.  1.
</event>
<event>
 7    1  0.8661710E-006  0.8972900E+02  0.7561462E-02  0.1303509E+00
         -1   -1    0    0    0  501 -0.00000000000E+00  0.00000000000E+00  0.10250510664E+03  0.10250510664E+03  0.00000000000E+00 0.  1.
          1   -1    0    0  501    0  0.00000000000E+00 -0.00000000000E+00 -0.20289503825E+03  0.20289503825E+03  0.00000000000E+00 0. -1.
         23    2    1    2    0    0 -0.37412071060E+02 -0.19260064566E+02  0.43402634567E+02  0.12992336046E+03  0.11500294674E+03 0.  0.
          5    1    3    3  502    0  0.27318151751E+02  0.27522268449E+02  0.15443201555E+00  0.39003242492E+02  0.41800000000E+01 0. -1.
         -5    1    3    3    0  502 -0.64730222812E+02 -0.46782333015E+02  0.43248202551E+02  0.90920117969E+02  0.41800000000E+01 0.  1.
        -11    1    1    2    0    0 -0.99572264360E+01  0.30601628115E+01  0.95726886897E+01  0.14147343336E+02  0.00000000000E+00 0.  1.
         11    1    1    2    0    0  0.47369297496E+02  0.16199901755E+02 -0.15336525486E+03  0.16132944109E+03  0.00000000000E+00 0. -1.
</event>
<event>
 7    1  0.8661710E-006  0.1071757E+03  0.7561462E-02  0.1265891E+00
         -2   -1    0    0    0  501 -0.00000000000E+00  0.00000000000E+00  0.32594970348E+02  0.32594970348E+02  0.00000000000E+00 0.  1.
          2   -1    0    0  501    0  0.00000000000E+00 -0.00000000000E+00 -0.40559266201E+03  0.40559266201E+03  0.00000000000E+00 0. -1.
         23    2    1    2    0    0 -0.28111367441E+02 -0.26649538486E+02 -0.18205790283E+03  0.22422056979E+03  0.12501734700E+03 0.  0.
          5    1    3    3  502    0 -0.75063625947E+02 -0.34761491404E+02 -0.10903127595E+03  0.13692406932E+03  0.41800000000E+01 0.  1.
         -5    1    3    3    0  502  0.46952258506E+02  0.81119529180E+01 -0.73026626884E+02  0.87296500462E+02  0.41800000000E+01 0.  1.
        -11    1    1    2    0    0  0.51756907326E+02  0.56419758920E+01 -0.60830884663E+02  0.80068757183E+02  0.00000000000E+00 0. -1.
         11    1    1    2    0    0 -0.23645539885E+02  0.21007562594E+02 -0.13010890417E+03  0.13389830539E+03  0.00000000000E+00 0.  1.
</event>
<event>
 7    1  0.8661710E-006  0.7517669E+02  0.7561462E-02  0.1343325E+00
         -1   -1    0    0    0  501 -0.00000000000E+00  0.00000000000E+00  0.55757981107E+03  0.55757981107E+03  0.00000000000E+00 0.  1.
          1   -1    0    0  501    0  0.00000000000E+00 -0.00000000000E+00 -0.29839051035E+02  0.29839051035E+02  0.00000000000E+00 0. -1.
         23    2    1    2    0    0 -0.51893108031E+02  0.46058333932E+02  0.29901714769E+03  0.33146835245E+03  0.12508296956E+03 0.  0.
          5    1    3    3  502    0 -0.20398815203E+02  0.47081618175E+01 -0.58806776644E+01  0.22143468996E+02  0.41800000000E+01 0. -1.
         -5    1    3    3    0  502 -0.31494292829E+02  0.41350172115E+02  0.30489782536E+03  0.30932488345E+03  0.41800000000E+01 0. -1.
        -11    1    1    2    0    0  0.37688497046E+02 -0.49527883046E+02  0.23263331174E+03  0.24081464187E+03  0.00000000000E+00 0.  1.
         11    1    1    2    0    0  0.14204610986E+02  0.34695491137E+01 -0.39096993958E+01  0.15135867787E+02  0.00000000000E+00 0. -1.
</event>
<event>
 7    1  0.1083712E-005  0.1430177E+03  0.7561462E-02  0.1209325E+00
         -2   -1    0    0    0  501 -0.00000000000E+00  0.00000000000E+00  0.38781457252E+02  0.38781457252E+02  0.00000000000E+00 0. -1.
          2   -1    0    0  501    0  0.00000000000E+00 -0.00000000000E+00 -0.55796072882E+03  0.55796072882E+03  0.00000000000E+00 0.  1.
         23    2    1    2    0    0 -0.95251631612E+02 -0.18788005879E+02 -0.23824983009E+03  0.28607069580E+03  0.12509036321E+03 0.  0.
          5    1    3    3  502    0  0.94374643144E+01 -0.44426579672E+02 -0.10610562086E+03  0.11549312487E+03  0.41800000000E+01 0. -1.
         -5    1    3    3    0  502 -0.10468909593E+03  0.25638573792E+02 -0.13214420923E+03  0.17057757093E+03  0.41800000000E+01 0. -1.
        -11    1    1    2    0    0  0.20117720497E+02  0.47924760819E+02 -0.11565080705E+03  0.12679359033E+03  0.00000000000E+00 0.  1.
         11    1    1    2    0    0  0.75133911114E+02 -0.29136754940E+02 -0.16527863443E+03  0.18387789994E+03  0.00000000000E+00 0. -1.
</event>
<event>
 7    1  0.8661710E-006  0.1704533E+03  0.7561462E-02  0.1177376E+00
          1   -1    0    0  501    0  0.00000000000E+00  0.00000000000E+00  0.50685097808E+03  0.50685097808E+03  0.00000000000E+00 0. -1.
         -1   -1    0    0    0  501 -0.00000000000E+00 -0.00000000000E+00 -0.74524356449E+02  0.74524356449E+02  0.00000000000E+00 0.  1.
         23    2    1    2    0    0 -0.15586696126E+03  0.12017980636E+02  0.28599189793E+03  0.34911034405E+03  0.12509086766E+03 0.  0.
          5    1    3    3  502    0 -0.14710029932E+03 -0.11829319542E+02  0.14912804817E+03  0.20984536691E+03  0.41800000000E+01 0.  1.
         -5    1    3    3    0  502 -0.87666619340E+01  0.23847300179E+02  0.13686384976E+03  0.13926497715E+03  0.41800000000E+01 0.  1.
        -11    1    1    2    0    0  0.60864539187E+02 -0.34408957480E+02  0.10526890798E+03  0.12637251075E+03  0.00000000000E+00 0.  1.
         11    1    1    2    0    0  0.95002422068E+02  0.22390976843E+02  0.41065815718E+02  0.10589247973E+03  0.00000000000E+00 0. -1.
</event>
<event>
 7    1  0.8661710E-006  0.1366351E+03  0.7561462E-02  0.1217930E+00
          1   -1    0    0  501    0  0.00000000000E+00  0.00000000000E+00  0.27104972201E+03  0.27104972201E+03  0.00000000000E+00 0. -1.
         -1   -1    0    0    0  501 -0.00000000000E+00 -0.00000000000E+00 -0.87448469016E+02  0.87448469016E+02  0.00000000000E+00 0.  1.
         23    2    1    2    0    0 -0.52118841324E+02  0.70715037593E+02  0.24429829568E+02  0.15483235202E+03  0.12513692699E+03 0.  0.
          5    1    3    3  502    0 -0.14295665275E+02 -0.34931676502E+02  0.18868068612E+02  0.42403590438E+02  0.41800000000E+01 0.  1.
         -5    1    3    3    0  502 -0.37823176049E+02  0.10564671410E+03  0.55617609563E+01  0.11242876158E+03  0.41800000000E+01 0.  1.
        -11    1    1    2    0    0 -0.13364574153E+02 -0.53712040785E+02  0.46721930605E+02  0.72432961882E+02  0.00000000000E+00 0.  1.
         11    1    1    2    0    0  0.65483415477E+02 -0.17002996808E+02  0.11244949282E+03  0.13123287713E+03  0.00000000000E+00 0. -1.
</event>
<event>
 7    1  0.8661710E-006  0.1743019E+03  0.7561462E-02  0.1173434E+00
         -4   -1    0    0    0  501 -0.00000000000E+00  0.00000000000E+00  0.30350191028E+03  0.30350191028E+03  0.00000000000E+00 0.  1.
          4   -1    0    0  501    0  0.00000000000E+00 -0.00000000000E+00 -0.15817669960E+03  0.15817669960E+03  0.00000000000E+00 0. -1.
         23    2    1    2    0    0 -0.39785608384E+02  0.14339607989E+03  0.19909262069E+03  0.27826317116E+03  0.12508873029E+03 0.  0.
          5    1    3    3  502    0 -0.67441663814E+02  0.51421675073E+02  0.43596447707E+02  0.95449931053E+02  0.41800000000E+01 0.  1.
         -5    1    3    3    0  502  0.27656055430E+02  0.91974404819E+02  0.15549617299E+03  0.18281324010E+03  0.41800000000E+01 0.  1.
        -11    1    1    2    0    0 -0.69159229199E+01 -0.10982584887E+03 -0.87748683516E+01  0.11039268719E+03  0.00000000000E+00 0. -1.
         11    1    1    2    0    0  0.46701531304E+02 -0.33570231021E+02 -0.44992541666E+02  0.73022751540E+02  0.00000000000E+00 0.  1.
</event>
<event>
 7    1  0.8661710E-006  0.1845688E+03  0.7561462E-02  0.1163453E+00
          2   -1    0    0  501    0  0.00000000000E+00  0.00000000000E+00  0.37943451544E+03  0.37943451544E+03  0.00000000000E+00 0. -1.
         -2   -1    0    0    0  501 -0.00000000000E+00 -0.00000000000E+00 -0.16582616446E+03  0.16582616446E+03  0.00000000000E+00 0.  1.
         23    2    1    2    0    0 -0.16425771111E+02  0.16537869792E+03 -0.68877844125E+02  0.21525741307E+03  0.11820184765E+03 0.  0.
          5    1    3    3  502    0  0.39083672223E+02  0.14265924158E+02 -0.23408087239E+02  0.47921404140E+02  0.41800000000E+01 0. -1.
         -5    1    3    3    0  502 -0.55509443335E+02  0.15111277376E+03 -0.45469756886E+02  0.16733600893E+03  0.41800000000E+01 0.  1.
        -11    1    1    2    0    0  0.11378624657E+02 -0.86949589655E+02  0.18541307054E+03  0.20510414664E+03  0.00000000000E+00 0.  1.
         11    1    1    2    0    0  0.50471464544E+01 -0.78429108268E+02  0.97073124567E+02  0.12489912019E+03  0.00000000000E+00 0. -1.
</event>
<event>
 7    1  0.8661710E-006  0.1134441E+03  0.7561462E-02  0.1254322E+00
          2   -1    0    0  501    0  0.00000000000E+00  0.00000000000E+00  0.75887317961E+03  0.75887317961E+03  0.00000000000E+00 0. -1.
         -2   -1    0    0    0  501 -0.00000000000E+00 -0.00000000000E+00 -0.33303582074E+02  0.33303582074E+02  0.00000000000E+00 0.  1.
         23    2    1    2    0    0 -0.10423931790E+03 -0.30983549254E+01  0.51000213960E+03  0.53537432238E+03  0.12509215593E+03 0.  0.
          5    1    3    3  502    0 -0.99686315414E+02  0.48000534628E+01  0.18522871054E+03  0.21044607291E+03  0.41800000000E+01 0. -1.
         -5    1    3    3    0  502 -0.45530024896E+01 -0.78984083882E+01  0.32477342905E+03  0.32492824947E+03  0.41800000000E+01 0. -1.
        -11    1    1    2    0    0  0.55079843052E+02 -0.24844098128E+02  0.18031053375E+03  0.19016547243E+03  0.00000000000E+00 0. -1.
         11    1    1    2    0    0  0.49159474852E+02  0.27942453053E+02  0.35256924184E+02  0.66636966867E+02  0.00000000000E+00 0.  1.
</event>
<event>
 7    1  0.8661710E-006  0.1065668E+03  0.7561462E-02  0.1267063E+00
          3   -1    0    0  501    0  0.00000000000E+00  0.00000000000E+00  0.85857578593E+03  0.85857578593E+03  0.00000000000E+00 0. -1.
         -3   -1    0    0    0  501 -0.00000000000E+00 -0.00000000000E+00 -0.17240627291E+02  0.17240627291E+02  0.00000000000E+00 0.  1.
         23    2    1    2    0    0  0.47343788690E+01  0.53912933822E+02  0.49378409849E+03  0.51224856318E+03  0.12508731265E+03 0.  0.
          5    1    3    3  502    0  0.43440354286E+02  0.34160893159E+01  0.62667231230E+02  0.76442058560E+02  0.41800000000E+01 0.  1.
         -5    1    3    3    0  502 -0.38705975417E+02  0.50496844506E+02  0.43111686726E+03  0.43580650462E+03  0.41800000000E+01 0.  1.
        -11    1    1    2    0    0 -0.34852712590E+02  0.88701638026E+01  0.94539343551E+02  0.10114879564E+03  0.00000000000E+00 0.  1.
         11    1    1    2    0    0  0.30118333721E+02 -0.62783097625E+02  0.25301171660E+03  0.26241905440E+03  0.00000000000E+00 0. -1.
</event>
<event>
 7    1  0.8661710E-006  0.1132375E+03  0.7561462E-02  0.1254689E+00
          2   -1    0    0  501    0  0.00000000000E+00  0.00000000000E+00  0.49424993755E+02  0.49424993755E+02  0.00000000000E+00 0. -1.
         -2   -1    0    0    0  501 -0.00000000000E+00 -0.00000000000E+00 -0.42496993640E+03  0.42496993640E+03  0.00000000000E+00 0.  1.
         23    2    1    2    0    0 -0.38850654973E+02 -0.41457734840E+02 -0.32904919879E+03  0.35657937193E+03  0.12508939241E+03 0.  0.
          5    1    3    3  502    0 -0.23025541184E+02 -0.76460051957E+02 -0.12141372748E+03  0.14537909311E+03  0.41800000000E+01 0. -1.
         -5    1    3    3    0  502 -0.15825113790E+02  0.35002317117E+02 -0.20763547131E+03  0.21120027883E+03  0.41800000000E+01 0. -1.
        -11    1    1    2    0    0 -0.26799747997E+02 -0.52423074528E+01 -0.16138895891E+02  0.31720218170E+02  0.00000000000E+00 0. -1.
         11    1    1    2    0    0  0.65650402971E+02  0.46700042293E+02 -0.30356847962E+02  0.86095340051E+02  0.00000000000E+00 0.  1.
</event>
<event>
 7    1  0.8661710E-006  0.1107061E+03  0.7561462E-02  0.1259268E+00
          2   -1    0    0  501    0  0.00000000000E+00  0.00000000000E+00  0.46208734517E+02  0.46208734517E+02  0.00000000000E+00 0. -1.
         -2   -1    0    0    0  501 -0.00000000000E+00 -0.00000000000E+00 -0.40474932986E+03  0.40474932986E+03  0.00000000000E+00 0.  1.
         23    2    1    2    0    0 -0.26518527603E+02 -0.56763166391E+02 -0.28298538143E+03  0.31568023837E+03  0.12509195590E+03 0.  0.
          5    1    3    3  502    0  0.43320707652E+02 -0.22951771845E+02 -0.50303606554E+02  0.70366133719E+02  0.41800000000E+01 0.  1.
         -5    1    3    3    0  502 -0.69839235255E+02 -0.33811394545E+02 -0.23268177488E+03  0.24531410465E+03  0.41800000000E+01 0.  1.
        -11    1    1    2    0    0 -0.17490497856E+02 -0.54301665371E+01 -0.52612921087E+02  0.55709278304E+02  0.00000000000E+00 0.  1.
         11    1    1    2    0    0  0.44009025459E+02  0.62193332928E+02 -0.22942292821E+02  0.79568547696E+02  0.00000000000E+00 0. -1.
</event>
<event>
 7    1  0.8661710E-006  0.1271305E+03  0.7561462E-02  0.1231777E+00
         -2   -1    0    0    0  501 -0.00000000000E+00  0.00000000000E+00  0.50173098271E+02  0.50173098271E+02  0.00000000000E+00 0.  1.
          2   -1    0    0  501    0  0.00000000000E+00 -0.00000000000E+00 -0.48071918794E+03  0.48071918794E+03  0.00000000000E+00 0. -1.
         23    2    1    2    0    0  0.18575314981E+02  0.89305440936E+02 -0.98248719642E+02  0.17423765256E+03  0.11128991217E+03 0.  0.
          5    1    3    3  502    0  0.56064115209E+02  0.57917476374E+02 -0.95566481388E+02  0.12509214143E+03  0.41800000000E+01 0. -1.
         -5    1    3    3    0  502 -0.37488800228E+02  0.31387964562E+02 -0.26822382539E+01  0.49145511127E+02  0.41800000000E+01 0.  1.
        -11    1    1    2    0    0 -0.37614271994E+02 -0.48828265457E+01 -0.60452258202E+02  0.71366315405E+02  0.00000000000E+00 0.  1.
         11    1    1    2    0    0  0.19038957013E+02 -0.84422614390E+02 -0.27184511183E+03  0.28528831825E+03  0.00000000000E+00 0. -1.
</event>
<event>
 7    1  0.8661710E-006  0.1111367E+03  0.7561462E-02  0.1258479E+00
         -2   -1    0    0    0  501 -0.00000000000E+00  0.00000000000E+00  0.18279076082E+03  0.18279076082E+03  0.00000000000E+00 0.  1.
          2   -1    0    0  501    0  0.00000000000E+00 -0.00000000000E+00 -0.10982957200E+03  0.10982957200E+03  0.00000000000E+00 0. -1.
         23    2    1    2    0    0  0.21004552007E+02 -0.79550570346E+02  0.79872030647E+02  0.16970063289E+03  0.12509707861E+03 0.  0.
          5    1    3    3  502    0  0.45526156891E+02 -0.15026323177E+00 -0.10447761760E+02  0.46896499508E+02  0.41800000000E+01 0.  1.
         -5    1    3    3    0  502 -0.24521604884E+02 -0.79400307115E+02  0.90319792407E+02  0.12280413338E+03  0.41800000000E+01 0.  1.
        -11    1    1    2    0    0  0.13462662090E+02  0.14870679964E+02  0.33634301392E+02  0.39161800562E+02  0.00000000000E+00 0.  1.
         11    1    1    2    0    0 -0.34467214098E+02  0.64679890383E+02 -0.40545143225E+02  0.83757899369E+02  0.00000000000E+00 0. -1.
</event>
<event>
 7    1  0.8661710E-006  0.2456963E+03  0.7561462E-02  0.1116055E+00
         -1   -1    0    0    0  501 -0.00000000000E+00  0.00000000000E+00  0.70332937428E+02  0.70332937428E+02  0.00000000000E+00 0.  1.
          1   -1    0    0  501    0  0.00000000000E+00 -0.00000000000E+00 -0.91228217736E+03  0.91228217736E+03  0.00000000000E+00 0. -1.
         23    2    1    2    0    0  0.22592661842E+03 -0.13672118837E+02 -0.49570935897E+03  0.55910941730E+03  0.12508320510E+03 0.  0.
          5    1    3    3  502    0  0.41311804330E+02  0.48158944460E+02 -0.13342708575E+03  0.14780463024E+03  0.41800000000E+01 0.  1.
         -5    1    3    3    0  502  0.18461481409E+03 -0.61831063297E+02 -0.36228227322E+03  0.41130478706E+03  0.41800000000E+01 0.  1.
        -11    1    1    2    0    0 -0.21917523449E+03  0.24254636744E+02 -0.34676676828E+03  0.41094192096E+03  0.00000000000E+00 0.  1.
         11    1    1    2    0    0 -0.67513839324E+01 -0.10582517908E+02  0.52688732957E+00  0.12563776523E+02  0.00000000000E+00 0. -1.
</event>
<event>
 7    1  0.8661710E-006  0.1280790E+03  0.7561462E-02  0.1230334E+00
          1   -1    0    0  501    0  0.00000000000E+00  0.00000000000E+00  0.16844631216E+03  0.16844631216E+03  0.00000000000E+00 0. -1.
         -1   -1    0    0    0  501 -0.00000000000E+00 -0.00000000000E+00 -0.12918953003E+03  0.12918953003E+03  0.00000000000E+00 0.  1.
         23    2    1    2    0    0  0.79961870361E+02  0.46033918014E+02 -0.21338400545E+02  0.15689837445E+03  0.12509496491E+03 0.  0.
          5    1    3    3  502    0 -0.31779586444E+02  0.20350222519E+02  0.72620934398E+01  0.38655970719E+02  0.41800000000E+01 0. -1.
         -5    1    3    3    0  502  0.11174145680E+03  0.25683695495E+02 -0.28600493985E+02  0.11824240373E+03  0.41800000000E+01 0. -1.
        -11    1    1    2    0    0 -0.10534599551E+02  0.97830212969E+01  0.48804757699E+02  0.50878184593E+02  0.00000000000E+00 0. -1.
         11    1    1    2    0    0 -0.69427270810E+02 -0.55816939311E+02  0.11790424976E+02  0.89859283145E+02  0.00000000000E+00 0.  1.
</event>
<event>
 7    1  0.8661710E-006  0.1541642E+03  0.7561462E-02  0.1195447E+00
          1   -1    0    0  501    0  0.00000000000E+00  0.00000000000E+00  0.96658385660E+02  0.96658385660E+02  0.00000000000E+00 0. -1.
         -1   -1    0    0    0  501 -0.00000000000E+00 -0.00000000000E+00 -0.32275991205E+03  0.32275991205E+03  0.00000000000E+00 0.  1.
         23    2    1    2    0    0  0.69236154174E+02 -0.11170788649E+03 -0.18201935181E+03  0.25700279880E+03  0.12508835760E+03 0.  0.
          5    1    3    3  502    0  0.80289370077E+02 -0.12960723581E+03 -0.12881427575E+03  0.19963719232E+03  0.41800000000E+01 0. -1.
         -5    1    3    3    0  502 -0.11053215902E+02  0.17899349317E+02 -0.53205076058E+02  0.57365606473E+02  0.41800000000E+01 0. -1.
        -11    1    1    2    0    0 -0.13405727012E+02  0.47111436254E+02  0.22732708693E+02  0.53999786917E+02  0.00000000000E+00 0. -1.
         11    1    1    2    0    0 -0.55830427163E+02  0.64596450239E+02 -0.66814883272E+02  0.10841571199E+03  0.00000000000E+00 0.  1.
</event>
<event>
 7    1  0.8661710E-006  0.1061432E+03  0.7561462E-02  0.1267884E+00
         -2   -1    0    0    0  501 -0.00000000000E+00  0.00000000000E+00  0.26099310642E+03  0.26099310642E+03  0.00000000000E+00 0.  1.
          2   -1    0    0  501    0  0.00000000000E+00 -0.00000000000E+00 -0.56433312488E+02  0.56433312488E+02  0.00000000000E+00 0. -1.
         23    2    1    2    0    0  0.18183874548E+02  0.50199411188E+02  0.15872991626E+03  0.20903016671E+03  0.12509112719E+03 0.  0.
          5    1    3    3  502    0 -0.43364508769E+02  0.14691962130E+02  0.11886740330E+03  0.12744907351E+03  0.41800000000E+01 0.  1.
         -5    1    3    3    0  502  0.61548383317E+02  0.35507449059E+02  0.39862512962E+02  0.81581093197E+02  0.41800000000E+01 0.  1.
        -11    1    1    2    0    0  0.15052737113E+02  0.15435844685E+02 -0.29451246806E+00  0.21562396279E+02  0.00000000000E+00 0. -1.
         11    1    1    2    0    0 -0.33236611661E+02 -0.65635255873E+02  0.46124390139E+02  0.86833855920E+02  0.00000000000E+00 0.  1.
</event>
<event>
 7    1  0.8661710E-006  0.9115868E+02  0.7561462E-02  0.1300070E+00
         -4   -1    0    0    0  501 -0.00000000000E+00  0.00000000000E+00  0.90356251368E+02  0.90356251368E+02  0.00000000000E+00 0.  1.
          4   -1    0    0  501    0  0.00000000000E+00 -0.00000000000E+00 -0.19725571610E+03  0.19725571610E+03  0.00000000000E+00 0. -1.
         23    2    1    2    0    0 -0.21616619065E+02  0.23613213943E+02  0.17097337283E+02  0.13024747816E+03  0.12508886654E+03 0.  0.
          5    1    3    3  502    0 -0.57369348690E+02  0.46086653030E+02 -0.17197259897E+02  0.75686457867E+02  0.41800000000E+01 0.  1.
         -5    1    3    3    0  502  0.35752729625E+02 -0.22473439087E+02  0.34294597179E+02  0.54561020296E+02  0.41800000000E+01 0.  1.
        -11    1    1    2    0    0 -0.35150547899E+01 -0.37362844734E+02 -0.12311099564E+03  0.12870374907E+03  0.00000000000E+00 0. -1.
         11    1    1    2    0    0  0.25131673855E+02  0.13749630791E+02 -0.88580636881E+00  0.28660740231E+02  0.00000000000E+00 0.  1.
</event>
<event>
 7    1  0.8661710E-006  0.6300643E+02  0.7561462E-02  0.1385631E+00
         -2   -1    0    0    0  501 -0.00000000000E+00  0.00000000000E+00  0.50172890052E+02  0.50172890052E+02  0.00000000000E+00 0.  1.
          2   -1    0    0  501    0  0.00000000000E+00 -0.00000000000E+00 -0.24275037305E+03  0.24275037305E+03  0.00000000000E+00 0. -1.
         23    2    1    2    0    0 -0.22892284833E+01  0.15060521614E+02 -0.90975380755E+02  0.15542294149E+03  0.12509081086E+03 0.  0.
          5    1    3    3  502    0  0.89800149416E+01  0.31787092375E+02 -0.11733671356E+03  0.12196899876E+03  0.41800000000E+01 0.  1.
         -5    1    3    3    0  502 -0.11269243425E+02 -0.16726570762E+02  0.26361332806E+02  0.33453942729E+02  0.41800000000E+01 0.  1.
        -11    1    1    2    0    0  0.34714018963E+02 -0.18805740596E+02 -0.10684054420E+02  0.40900709173E+02  0.00000000000E+00 0.  1.
         11    1    1    2    0    0 -0.32424790480E+02  0.37452189829E+01 -0.90918047819E+02  0.96599612433E+02  0.00000000000E+00 0. -1.
</event>
<event>
 7    1  0.8661710E-006  0.1227480E+03  0.7561462E-02  0.1238631E+00
          1   -1    0    0  501    0  0.00000000000E+00  0.00000000000E+00  0.35571940539E+03  0.35571940539E+03  0.00000000000E+00 0. -1.
         -1   -1    0    0    0  501 -0.00000000000E+00 -0.00000000000E+00 -0.94141655735E+02  0.94141655735E+02  0.00000000000E+00 0.  1.
         23    2    1    2    0    0 -0.41735707561E+02  0.10103178501E+03  0.17419504568E+02  0.16703303735E+03  0.12508919042E+03 0.  0.
          5    1    3    3  502    0 -0.10299898503E+02  0.43336319510E+02 -0.53848805733E+02  0.70009219227E+02  0.41800000000E+01 0.  1.
         -5    1    3    3    0  502 -0.31435809058E+02  0.57695465501E+02  0.71268310301E+02  0.97023818126E+02  0.41800000000E+01 0.  1.
        -11    1    1    2    0    0  0.43227841028E+02 -0.10642552570E+02  0.41246279729E+02  0.60689090920E+02  0.00000000000E+00 0.  1.
         11    1    1    2    0    0 -0.14921334672E+01 -0.90389232440E+02  0.20291196535E+03  0.22213893285E+03  0.00000000000E+00 0. -1.
</event>
<event>
 7    1  0.8661710E-006  0.1647646E+03  0.7561462E-02  0.1183420E+00
         -1   -1    0    0    0  501 -0.00000000000E+00  0.00000000000E+00  0.66768376497E+03  0.66768376497E+03  0.00000000000E+00 0.  1.
          1   -1    0    0  501    0  0.00000000000E+00 -0.00000000000E+00 -0.46205925753E+02  0.46205925753E+02  0.00000000000E+00 0. -1.
         23    2    1    2    0    0  0.11367812315E+03 -0.73712620125E+02  0.27879067179E+03  0.33425783572E+03  0.12509115083E+03 0.  0.
          5    1    3    3  502    0  0.99525083669E+02  0.89095907187E+01  0.13974741542E+03  0.17184712859E+03  0.41800000000E+01 0.  1.
         -5    1    3    3    0  502  0.14153039479E+02 -0.82622210844E+02  0.13904325637E+03  0.16241070713E+03  0.41800000000E+01 0.  1.
        -11    1    1    2    0    0 -0.46263848219E+02  0.77783141336E+00  0.20318168594E+03  0.20838365141E+03  0.00000000000E+00 0.  1.
         11    1    1    2    0    0 -0.67414274929E+02  0.72934788712E+02  0.13950548150E+03  0.17124820360E+03  0.00000000000E+00 0. -1.
</event>
<event>
 7    1  0.8661710E-006  0.1301634E+03  0.7561462E-02  0.1227214E+00
          2   -1    0    0  501    0  0.00000000000E+00  0.00000000000E+00  0.30243228509E+03  0.30243228509E+03  0.00000000000E+00 0. -1.
         -2   -1    0    0    0  501 -0.00000000000E+00 -0.00000000000E+00 -0.11966483442E+03  0.11966483442E+03  0.00000000000E+00 0.  1.
         23    2    1    2    0    0 -0.32055794303E+02 -0.10785258817E+03 -0.22598508961E+02  0.16975998758E+03  0.12509199037E+03 0.  0.
          5    1    3    3  502    0 -0.23892172792E+02 -0.10178213544E+03  0.35606599265E+02  0.11052484484E+03  0.41800000000E+01 0. -1.
         -5    1    3    3    0  502 -0.81636215102E+01 -0.60704527293E+01 -0.58205108225E+02  0.59235142745E+02  0.41800000000E+01 0. -1.
        -11    1    1    2    0    0  0.16789023507E+02 -0.14018636724E+02  0.18122296328E+02  0.28404420608E+02  0.00000000000E+00 0.  1.
         11    1    1    2    0    0  0.15266770796E+02  0.12187122489E+03  0.18724366330E+03  0.22393271131E+03  0.00000000000E+00 0. -1.
</event>
<event>
 7    1  0.8661710E-006  0.1013704E+03  0.7561462E-02  0.1277440E+00
          1   -1    0    0  501    0  0.00000000000E+00  0.00000000000E+00  0.37717663210E+03  0.37717663210E+03  0.00000000000E+00 0. -1.
         -1   -1    0    0    0  501 -0.00000000000E+00 -0.00000000000E+00 -0.31717804316E+02  0.31717804316E+02  0.00000000000E+00 0.  1.
         23    2    1    2    0    0 -0.49323100907E+01  0.12240403230E+02  0.19485123363E+03  0.23192197776E+03  0.12508655151E+03 0.  0.
          5    1    3    3  502    0  0.34918669897E+02  0.56157687061E+02  0.98831515165E+02  0.11898798306E+03  0.41800000000E+01 0.  1.
         -5    1    3    3    0  502 -0.39850979988E+02 -0.43917283831E+02  0.96019718466E+02  0.11293399470E+03  0.41800000000E+01 0.  1.
        -11    1    1    2    0    0  0.33489441572E+02  0.15780871843E+02  0.23820687988E+02  0.44022764442E+02  0.00000000000E+00 0. -1.
         11    1    1    2    0    0 -0.28557131481E+02 -0.28021275073E+02  0.12678690616E+03  0.13294969421E+03  0.00000000000E+00 0.  1.
</event>
<event>
 7    1  0.8661710E-006  0.9728094E+02  0.7561462E-02  0.1286120E+00
         -1   -1    0    0    0  501 -0.00000000000E+00  0.00000000000E+00  0.12967032411E+03  0.12967032411E+03  0.00000000000E+00 0.  1.
          1   -1    0    0  501    0  0.00000000000E+00 -0.00000000000E+00 -0.11342448627E+03  0.11342448627E+03  0.00000000000E+00 0. -1.
         23    2    1    2    0    0  0.27173867102E+02 -0.57627480474E+01  0.69515175485E+02  0.13370698046E+03  0.11078613940E+03 0.  0.
          5    1    3    3  502    0  0.71758404400E+01  0.50193918817E+02  0.15214872379E+02  0.53102607410E+02  0.41800000000E+01 0. -1.
         -5    1    3    3    0  502  0.19998026662E+02 -0.55956666865E+02  0.54300303106E+02  0.80604373047E+02  0.41800000000E+01 0.  1.
        -11    1    1    2    0    0 -0.35617155361E+02 -0.30494792134E+02 -0.32029373535E+01  0.46997584097E+02  0.00000000000E+00 0. -1.
         11    1    1    2    0    0  0.84432882590E+01  0.36257540182E+02 -0.50066400283E+02  0.62390245824E+02  0.00000000000E+00 0.  1.
</event>
<event>
 6    1  0.8661710E-006  0.3454403E+03  0.7561462E-02  0.1064502E+00
         -1   -1    0    0    0  501 -0.00000000000E+00  0.00000000000E+00  0.59685846978E+02  0.59685846978E+02  0.00000000000E+00 0.  1.
          1   -1    0    0  501    0  0.00000000000E+00 -0.00000000000E+00 -0.22587039918E+04  0.22587039918E+04  0.00000000000E+00 0. -1.
          5    1    1    2  502    0  0.38730822291E+02  0.25248518005E+03 -0.93731329667E+03  0.97150529142E+03  0.41800000000E+01 0. -1.
         -5    1    1    2    0  502  0.14367125510E+03 -0.16197790632E+03 -0.37000677695E+03  0.42871990748E+03  0.41800000000E+01 0.  1.
        -11    1    1    2    0    0 -0.16305778995E+03 -0.10564509736E+03 -0.79422162234E+03  0.81764094495E+03  0.00000000000E+00 0. -1.
         11    1    1    2    0    0 -0.19344287444E+02  0.15137823633E+02 -0.97476448822E+02  0.10052369490E+03  0.00000000000E+00 0.  1.
</event>
<event>
 7    1  0.8661710E-006  0.1016270E+03  0.7561462E-02  0.1276911E+00
          1   -1    0    0  501    0  0.00000000000E+00  0.00000000000E+00  0.42710010368E+03  0.42710010368E+03  0.00000000000E+00 0.  1.
         -1   -1    0    0    0  501 -0.00000000000E+00 -0.00000000000E+00 -0.38558650528E+02  0.38558650528E+02  0.00000000000E+00 0. -1.
         23    2    1    2    0    0  0.34075601268E+01  0.65060626744E+02  0.18481568203E+03  0.23248355382E+03  0.12508904769E+03 0.  0.
          5    1    3    3  502    0  0.14619024385E+01 -0.31955577846E+02  0.12339010738E+02  0.34540117258E+02  0.41800000000E+01 0.  1.
         -5    1    3    3    0  502  0.19456576883E+01  0.97016204589E+02  0.17247667130E+03  0.19794343656E+03  0.41800000000E+01 0.  1.
        -11    1    1    2    0    0 -0.19183894458E+02 -0.36885607702E+02  0.19111724821E+02  0.45758364129E+02  0.00000000000E+00 0. -1.
         11    1    1    2    0    0  0.15776334331E+02 -0.28175019041E+02  0.18461404630E+03  0.18741683626E+03  0.00000000000E+00 0.  1.
</event>
<event>
 7    1  0.8661710E-006  0.1429372E+03  0.7561462E-02  0.1209431E+00
         -1   -1    0    0    0  501 -0.00000000000E+00  0.00000000000E+00  0.77600597608E+02  0.77600597608E+02  0.00000000000E+00 0.  1.
          1   -1    0    0  501    0  0.00000000000E+00 -0.00000000000E+00 -0.34291201411E+03  0.34291201411E+03  0.00000000000E+00 0. -1.
         23    2    1    2    0    0  0.10995533675E+03  0.80074428683E+01 -0.72946077304E+02  0.18199609665E+03  0.12508858373E+03 0.  0.
          5    1    3    3  502    0  0.10296229397E+03  0.42300682768E+02 -0.89653838671E+02  0.14298903780E+03  0.41800000000E+01 0. -1.
         -5    1    3    3    0  502  0.69930427780E+01 -0.34293239899E+02  0.16707761367E+02  0.39007058848E+02  0.41800000000E+01 0. -1.
        -11    1    1    2    0    0  0.13649836345E+02 -0.76130313498E+01 -0.11311604017E+02  0.19293228449E+02  0.00000000000E+00 0.  1.
         11    1    1    2    0    0 -0.12360517309E+03 -0.39441151859E+00 -0.18105373518E+03  0.21922328662E+03  0.00000000000E+00 0. -1.
</event>
<event>
 7    1  0.8661710E-006  0.5844055E+02  0.7561462E-02  0.1404495E+00
          1   -1    0    0  501    0  0.00000000000E+00  0.00000000000E+00  0.40998456487E+03  0.40998456487E+03  0.00000000000E+00 0. -1.
         -1   -1    0    0    0  501 -0.00000000000E+00 -0.00000000000E+00 -0.35209808861E+02  0.35209808861E+02  0.00000000000E+00 0.  1.
         23    2    1    2    0    0  0.18164037820E+02  0.42445883669E+02  0.16553393966E+03  0.21255687674E+03  0.12508938947E+03 0.  0.
          5    1    3    3  502    0  0.21076985517E+02  0.45232750704E+02  0.32642988603E+01  0.50183354828E+02  0.41800000000E+01 0. -1.
         -5    1    3    3    0  502 -0.29129476965E+01 -0.27868670350E+01  0.16226964080E+03  0.16237352191E+03  0.41800000000E+01 0. -1.
        -11    1    1    2    0    0  0.10532742944E+02 -0.25692207187E+02  0.83195488055E+01  0.28986946655E+02  0.00000000000E+00 0.  1.
         11    1    1    2    0    0 -0.28696780764E+02 -0.16753676482E+02  0.20092126754E+03  0.20365055033E+03  0.00000000000E+00 0. -1.
</event>
<event>
 7    1  0.8661710E-006  0.2577910E+03  0.7561462E-02  0.1108478E+00
         -1   -1    0    0    0  501 -0.00000000000E+00  0.00000000000E+00  0.36205257355E+03  0.36205257355E+03  0.00000000000E+00 0.  1.
          1   -1    0    0  501    0  0.00000000000E+00 -0.00000000000E+00 -0.21158794510E+03  0.21158794510E+03  0.00000000000E+00 0. -1.
         23    2    1    2    0    0  0.12571710904E+03  0.22054362349E+03  0.11995978804E+03  0.30204206237E+03  0.11133182531E+03 0.  0.
          5    1    3    3  502    0  0.38889233558E+02  0.60952235174E+02 -0.17108519993E+02  0.74415867366E+02  0.41800000000E+01 0. -1.
         -5    1    3    3    0  502  0.86827875484E+02  0.15959138832E+03  0.13706830803E+03  0.22762619500E+03  0.41800000000E+01 0.  1.
        -11    1    1    2    0    0  0.71007711044E+01 -0.16533617826E+02  0.21445932724E+02  0.27994812003E+02  0.00000000000E+00 0.  1.
         11    1    1    2    0    0 -0.13281788015E+03 -0.20401000566E+03  0.90589076880E+01  0.24360364428E+03  0.00000000000E+00 0. -1.
</event>
<event>
 7    1  0.8661710E-006  0.8355402E+02  0.7561462E-02  0.1319258E+00
         -2   -1    0    0    0  501 -0.00000000000E+00  0.00000000000E+00  0.42908077200E+02  0.42908077200E+02  0.00000000000E+00 0.  1.
          2   -1    0    0  501    0  0.00000000000E+00 -0.00000000000E+00 -0.27172274585E+03  0.27172274585E+03  0.00000000000E+00 0. -1.
         23    2    1    2    0    0  0.15992987508E+02 -0.68483989961E+01 -0.12819668362E+03  0.17995364657E+03  0.12508496714E+03 0.  0.
          5    1    3    3  502    0  0.31091226391E+02 -0.38469811139E+02 -0.28356335917E+01  0.49720256893E+02  0.41800000000E+01 0.  1.
         -5    1    3    3    0  502 -0.15098238883E+02  0.31621412143E+02 -0.12536105003E+03  0.13023338968E+03  0.41800000000E+01 0.  1.
        -11    1    1    2    0    0 -0.46371205861E+02  0.18108169649E+02 -0.85475229607E+02  0.98915162728E+02  0.00000000000E+00 0. -1.
         11    1    1    2    0    0  0.30378218353E+02 -0.11259770653E+02 -0.15142755417E+02  0.35762013745E+02  0.00000000000E+00 0.  1.
</event>
<event>
 7    1  0.8661710E-006  0.1091571E+03  0.7561462E-02  0.1262139E+00
          3   -1    0    0  501    0  0.00000000000E+00  0.00000000000E+00  0.33739124320E+03  0.33739124320E+03  0.00000000000E+00 0. -1.
         -3   -1    0    0    0  501 -0.00000000000E+00 -0.00000000000E+00 -0.52914356432E+02  0.52914356432E+02  0.00000000000E+00 0.  1.
         23    2    1    2    0    0  0.15527325573E+01 -0.73623960026E+02  0.80175879376E+02  0.15483213343E+03  0.11009958874E+03 0.  0.
          5    1    3    3  502    0  0.32166413623E+02 -0.94288087078E+01  0.76346337818E+02  0.83485425658E+02  0.41800000000E+01 0. -1.
         -5    1    3    3    0  502 -0.30613681066E+02 -0.64195151318E+02  0.38295415581E+01  0.71346707770E+02  0.41800000000E+01 0.  1.
        -11    1    1    2    0    0  0.28696671760E+02 -0.49271786566E+01  0.29435284879E+02  0.41403044037E+02  0.00000000000E+00 0.  1.
         11    1    1    2    0    0 -0.30249404317E+02  0.78551138682E+02  0.17486572251E+03  0.19407042217E+03  0.00000000000E+00 0. -1.
</event>
<event>
 7    1  0.8661710E-006  0.1124031E+03  0.7561462E-02  0.1256183E+00
         -2   -1    0    0    0  501 -0.00000000000E+00  0.00000000000E+00  0.34099583622E+03  0.34099583622E+03  0.00000000000E+00 0.  1.
          2   -1    0    0  501    0  0.00000000000E+00 -0.00000000000E+00 -0.51306475954E+02  0.51306475954E+02  0.00000000000E+00 0. -1.
         23    2    1    2    0    0  0.28582236228E+01 -0.74868504831E+02  0.16594515033E+03  0.22091503965E+03  0.12510875016E+03 0.  0.
          5    1    3    3  502    0 -0.26466242852E+02 -0.77525714723E+02  0.39539298121E+02  0.91057822014E+02  0.41800000000E+01 0. -1.
         -5    1    3    3    0  502  0.29324466475E+02  0.26572098924E+01  0.12640585221E+03  0.12985721763E+03  0.41800000000E+01 0. -1.
        -11    1    1    2    0    0 -0.38814959287E+02  0.65079506363E+02  0.10550684258E+03  0.12989856444E+03  0.00000000000E+00 0.  1.
         11    1    1    2    0    0  0.35956735664E+02  0.97889984680E+01  0.18237367358E+02  0.41488708088E+02  0.00000000000E+00 0. -1.
</event>
<event>
 7    1  0.8661710E-006  0.3541916E+03  0.7561462E-02  0.1060908E+00
          2   -1    0    0  501    0  0.00000000000E+00  0.00000000000E+00  0.13194942435E+04  0.13194942435E+04  0.00000000000E+00 0. -1.
         -2   -1    0    0    0  501 -0.00000000000E+00 -0.00000000000E+00 -0.15050572481E+03  0.15050572481E+03  0.00000000000E+00 0.  1.
         23    2    1    2    0    0 -0.27072851175E+03  0.20975358909E+03  0.15589400427E+03  0.39653578423E+03  0.12508873811E+03 0.  0.
          5    1    3    3  502    0 -0.14273223083E+03  0.54728703563E+02  0.20898291650E+02  0.15434355090E+03  0.41800000000E+01 0.  1.
         -5    1    3    3    0  502 -0.12799628092E+03  0.15502488553E+03  0.13499571262E+03  0.24219223333E+03  0.41800000000E+01 0.  1.
        -11    1    1    2    0    0  0.52386151725E+02 -0.93108287521E+02  0.27898684688E+03  0.29874256949E+03  0.00000000000E+00 0. -1.
         11    1    1    2    0    0  0.21834236002E+03 -0.11664530157E+03  0.73410766759E+03  0.77472161462E+03  0.00000000000E+00 0.  1.
</event>
<event>
 7    1  0.8661710E-006  0.9498389E+02  0.7561462E-02  0.1291212E+00
         -2   -1    0    0    0  501 -0.00000000000E+00  0.00000000000E+00  0.48623612075E+02  0.48623612075E+02  0.00000000000E+00 0. -1.
          2   -1    0    0  501    0  0.00000000000E+00 -0.00000000000E+00 -0.32223968997E+03  0.32223968997E+03  0.00000000000E+00 0.  1.
         23    2    1    2    0    0  0.55094618429E+02  0.14895925963E+02 -0.12085225843E+03  0.18305881591E+03  0.12509179080E+03 0.  0.
          5    1    3    3  502    0  0.83326627517E+02  0.24101643605E+02 -0.37715758764E+02  0.94679284624E+02  0.41800000000E+01 0.  1.
         -5    1    3    3    0  502 -0.28232009088E+02 -0.92057176416E+01 -0.83136499665E+02  0.88379531290E+02  0.41800000000E+01 0.  1.
        -11    1    1    2    0    0 -0.20012235005E+02 -0.29076032224E+02 -0.54588511598E+01  0.35717002334E+02  0.00000000000E+00 0. -1.
         11    1    1    2    0    0 -0.35082383424E+02  0.14180106261E+02 -0.14730496831E+03  0.15208748380E+03  0.00000000000E+00 0.  1.
</event>
<event>
 7    1  0.8661710E-006  0.1017496E+03  0.7561462E-02  0.1276659E+00
         -1   -1    0    0    0  501 -0.00000000000E+00  0.00000000000E+00  0.98962316947E+02  0.98962316947E+02  0.00000000000E+00 0.  1.
          1   -1    0    0  501    0  0.00000000000E+00 -0.00000000000E+00 -0.13980228560E+03  0.13980228560E+03  0.00000000000E+00 0. -1.
         23    2    1    2    0    0  0.44432922930E+01 -0.31949503627E+02  0.22187612199E+01  0.12919892749E+03  0.12508767459E+03 0.  0.
          5    1    3    3  502    0  0.42462309668E+02 -0.47828385644E+02  0.37962914403E+02  0.74493338532E+02  0.41800000000E+01 0. -1.
         -5    1    3    3    0  502 -0.38019017375E+02  0.15878882018E+02 -0.35744153183E+02  0.54705588956E+02  0.41800000000E+01 0. -1.
        -11    1    1    2    0    0 -0.42560488922E+02 -0.74096134103E+01 -0.31767105577E+02  0.53623190738E+02  0.00000000000E+00 0. -1.
         11    1    1    2    0    0  0.38117196629E+02  0.39359117037E+02 -0.11291624295E+02  0.55942484321E+02  0.00000000000E+00 0.  1.
</event>
<event>
 7    1  0.8661710E-006  0.9581513E+02  0.7561462E-02  0.1289351E+00
         -1   -1    0    0    0  501 -0.00000000000E+00  0.00000000000E+00  0.11149565187E+02  0.11149565187E+02  0.00000000000E+00 0.  1.
          1   -1    0    0  501    0  0.00000000000E+00 -0.00000000000E+00 -0.93041318820E+03  0.93041318820E+03  0.00000000000E+00 0. -1.
         23    2    1    2    0    0  0.30338453037E+02 -0.20540967613E+02 -0.68081665373E+03  0.69318151302E+03  0.12508773288E+03 0.  0.
          5    1    3    3  502    0  0.34775681357E+02  0.47020228216E+02 -0.40076233355E+03  0.40502860426E+03  0.41800000000E+01 0.  1.
         -5    1    3    3    0  502 -0.44372283208E+01 -0.67561195829E+02 -0.28005432018E+03  0.28815290876E+03  0.41800000000E+01 0.  1.
        -11    1    1    2    0    0 -0.22248359362E+02  0.39060890600E+02 -0.19951299612E+03  0.20451449408E+03  0.00000000000E+00 0. -1.
         11    1    1    2    0    0 -0.80900936747E+01 -0.18519922988E+02 -0.38933973162E+02  0.43866746282E+02  0.00000000000E+00 0.  1.
</event>
<event>
 7    1  0.8661710E-006  0.8102274E+02  0.7561462E-02  0.1326174E+00
         -2   -1    0    0    0  501 -0.00000000000E+00  0.00000000000E+00  0.48288690482E+03  0.48288690482E+03  0.00000000000E+00 0.  1.
          2   -1    0    0  501    0  0.00000000000E+00 -0.00000000000E+00 -0.43709690600E+02  0.43709690600E+02  0.00000000000E+00 0. -1.
         23    2    1    2    0    0 -0.54550135645E+02  0.39842241281E+02  0.36961506487E+03  0.39601296571E+03  0.12509137197E+03 0.  0.
          5    1    3    3  502    0 -0.29692233095E+02  0.47213282967E+02  0.36510729246E+03  0.36936639019E+03  0.41800000000E+01 0.  1.
         -5    1    3    3    0  502 -0.24857902551E+02 -0.73710416859E+01  0.45077724094E+01  0.26646575518E+02  0.41800000000E+01 0.  1.
        -11    1    1    2    0    0  0.35583052595E+01 -0.27046958036E+02  0.72967989017E+02  0.77900750295E+02  0.00000000000E+00 0.  1.
         11    1    1    2    0    0  0.50991830386E+02 -0.12795283245E+02 -0.34058396704E+01  0.52682879413E+02  0.00000000000E+00 0. -1.
</event>
<event>
 7    1  0.8661710E-006  0.2100189E+03  0.7561462E-02  0.1141551E+00
          1   -1    0    0  501    0  0.00000000000E+00  0.00000000000E+00  0.50508718867E+03  0.50508718867E+03  0.00000000000E+00 0. -1.
         -1   -1    0    0    0  501 -0.00000000000E+00 -0.00000000000E+00 -0.11334145013E+03  0.11334145013E+03  0.00000000000E+00 0.  1.
         23    2    1    2    0    0  0.20808257674E+03  0.21487996740E+02  0.24966833431E+03  0.34891422578E+03  0.12508703791E+03 0.  0.
          5    1    3    3  502    0  0.14776174954E+03  0.26449424631E+02  0.24590155370E+03  0.28812870944E+03  0.41800000000E+01 0. -1.
         -5    1    3    3    0  502  0.60320827203E+02 -0.49614278912E+01  0.37667806037E+01  0.60785516345E+02  0.41800000000E+01 0. -1.
        -11    1    1    2    0    0 -0.14179531019E+03 -0.13618316950E+02  0.14424508239E+03  0.20272644707E+03  0.00000000000E+00 0. -1.
         11    1    1    2    0    0 -0.66287266550E+02 -0.78696797898E+01 -0.21676781599E+01  0.66787965947E+02  0.00000000000E+00 0.  1.
</event>
<event>
 7    1  0.8661710E-006  0.1201708E+03  0.7561462E-02  0.1242815E+00
          1   -1    0    0  501    0  0.00000000000E+00  0.00000000000E+00  0.21157178370E+02  0.21157178370E+02  0.00000000000E+00 0. -1.
         -1   -1    0    0    0  501 -0.00000000000E+00 -0.00000000000E+00 -0.11038295224E+04  0.11038295224E+04  0.00000000000E+00 0.  1.
         23    2    1    2    0    0  0.70810463081E+02  0.10087347645E+02 -0.84400350605E+03  0.85621644022E+03  0.12509515585E+03 0.  0.
          5    1    3    3  502    0  0.19711269619E+02  0.48671048570E+02 -0.64447314310E+03  0.64662238570E+03  0.41800000000E+01 0. -1.
         -5    1    3    3    0  502  0.51099193462E+02 -0.38583700925E+02 -0.19953036295E+03  0.20959405452E+03  0.41800000000E+01 0. -1.
        -11    1    1    2    0    0 -0.96644630233E+02 -0.12940517346E+02 -0.18410251111E+03  0.20832996937E+03  0.00000000000E+00 0.  1.
         11    1    1    2    0    0  0.25834167152E+02  0.28531697014E+01 -0.54566326914E+02  0.60440291219E+02  0.00000000000E+00 0. -1.
</event>
<event>
 7    1  0.8661710E-006  0.1230688E+03  0.7561462E-02  0.1238119E+00
          2   -1    0    0  501    0  0.00000000000E+00  0.00000000000E+00  0.39997091886E+03  0.39997091886E+03  0.00000000000E+00 0. -1.
         -2   -1    0    0    0  501 -0.00000000000E+00 -0.00000000000E+00 -0.47487179047E+02  0.47487179047E+02  0.00000000000E+00 0.  1.
         23    2    1    2    0    0  0.49916713268E+02  0.43757691145E+02  0.10445927819E+03  0.17597140154E+03  0.12509108506E+03 0.  0.
          5    1    3    3  502    0 -0.30984835980E+02 -0.19285859893E+02  0.42059445616E+02  0.55843296984E+02  0.41800000000E+01 0.  1.
         -5    1    3    3    0  502  0.80901549248E+02  0.63043551038E+02  0.62399832576E+02  0.12012810455E+03  0.41800000000E+01 0.  1.
        -11    1    1    2    0    0  0.23326883355E+02 -0.16623739466E+02  0.39337633537E+02  0.48661500318E+02  0.00000000000E+00 0.  1.
         11    1    1    2    0    0 -0.73243596623E+02 -0.27133951679E+02  0.20868682808E+03  0.22282519605E+03  0.00000000000E+00 0. -1.
</event>
<event>
 7    1  0.8661710E-006  0.1078435E+03  0.7561462E-02  0.1264616E+00
          1   -1    0    0  501    0  0.00000000000E+00  0.00000000000E+00  0.42038165823E+03  0.42038165823E+03  0.00000000000E+00 0. -1.
         -1   -1    0    0    0  501 -0.00000000000E+00 -0.00000000000E+00 -0.32144239074E+02  0.32144239074E+02  0.00000000000E+00 0.  1.
         23    2    1    2    0    0  0.77542740929E+01  0.11572170437E+02  0.15773188293E+03  0.20179461306E+03  0.12509066740E+03 0.  0.
          5    1    3    3  502    0 -0.55463957919E+02 -0.55704442620E+01  0.46817361500E+02  0.72915143935E+02  0.41800000000E+01 0.  1.
         -5    1    3    3    0  502  0.63218232012E+02  0.17142614699E+02  0.11091452143E+03  0.12887946912E+03  0.41800000000E+01 0.  1.
        -11    1    1    2    0    0 -0.11363610664E+02 -0.52170955895E+02  0.92198104282E+02  0.10654309325E+03  0.00000000000E+00 0.  1.
         11    1    1    2    0    0  0.36093365713E+01  0.40598785458E+02  0.13830743194E+03  0.14418819099E+03  0.00000000000E+00 0. -1.
</event>
<event>
 7    1  0.8661710E-006  0.9220804E+02  0.7561462E-02  0.1297591E+00
         -3   -1    0    0    0  501 -0.00000000000E+00  0.00000000000E+00  0.13051809641E+03  0.13051809641E+03  0.00000000000E+00 0. -1.
          3   -1    0    0  501    0  0.00000000000E+00 -0.00000000000E+00 -0.97560616427E+02  0.97560616427E+02  0.00000000000E+00 0.  1.
         23    2    1    2    0    0 -0.20567089694E+02  0.73734806141E+01  0.44132144009E+02  0.13444071206E+03  0.12509710440E+03 0.  0.
          5    1    3    3  502    0  0.18014781464E+02 -0.52418933314E+02  0.22276057047E+02  0.59882986220E+02  0.41800000000E+01 0.  1.
         -5    1    3    3    0  502 -0.38581871158E+02  0.59792413928E+02  0.21856086962E+02  0.74557725842E+02  0.41800000000E+01 0.  1.
        -11    1    1    2    0    0  0.47399804359E+00  0.21975216525E+02 -0.41458003113E+02  0.46924416220E+02  0.00000000000E+00 0.  1.
         11    1    1    2    0    0  0.20093091650E+02 -0.29348697139E+02  0.30283339092E+02  0.46713584559E+02  0.00000000000E+00 0. -1.
</event>
<event>
 7    1  0.8661710E-006  0.9250460E+02  0.7561462E-02  0.1296897E+00
          2   -1    0    0  501    0  0.00000000000E+00  0.00000000000E+00  0.16161005250E+03  0.16161005250E+03  0.00000000000E+00 0. -1.
         -2   -1    0    0    0  501 -0.00000000000E+00 -0.00000000000E+00 -0.94904724985E+02  0.94904724985E+02  0.00000000000E+00 0.  1.
         23    2    1    2    0    0  0.65087335853E+00 -0.53499191319E+02  0.14469016583E+02  0.13681864142E+03  0.12508957227E+03 0.  0.
          5    1    3    3  502    0  0.26784906417E+02 -0.72531756063E+02 -0.28825359834E+02  0.82623608121E+02  0.41800000000E+01 0. -1.
         -5    1    3    3    0  502 -0.26134033058E+02  0.19032564744E+02  0.43294376417E+02  0.54195033296E+02  0.41800000000E+01 0. -1.
        -11    1    1    2    0    0 -0.26515369852E+02  0.24237772583E+02 -0.17354180332E+02  0.39896140580E+02  0.00000000000E+00 0.  1.
         11    1    1    2    0    0  0.25864496494E+02  0.29261418737E+02  0.69590491262E+02  0.79799995485E+02  0.00000000000E+00 0. -1.
</event>
<event>
 7    1  0.8661710E-006  0.1766053E+03  0.7561462E-02  0.1171129E+00
          1   -1    0    0  501    0  0.00000000000E+00  0.00000000000E+00  0.36337625499E+03  0.36337625499E+03  0.00000000000E+00 0. -1.
         -1   -1    0    0    0  501 -0.00000000000E+00 -0.00000000000E+00 -0.12350440012E+03  0.12350440012E+03  0.00000000000E+00 0.  1.
         23    2    1    2    0    0  0.10343402837E+03  0.11567958274E+03  0.16035214150E+02  0.19996260470E+03  0.12509017187E+03 0.  0.
          5    1    3    3  502    0  0.12019896633E+02  0.10108096613E+03 -0.13346318681E+02  0.10274938564E+03  0.41800000000E+01 0. -1.
         -5    1    3    3    0  502  0.91414131732E+02  0.14598616617E+02  0.29381532831E+02  0.97213219055E+02  0.41800000000E+01 0. -1.
        -11    1    1    2    0    0 -0.68855846939E+02 -0.98158738449E+02  0.21647344805E+03  0.24746114706E+03  0.00000000000E+00 0. -1.
         11    1    1    2    0    0 -0.34578181426E+02 -0.17520844293E+02  0.73631926645E+01  0.39456903347E+02  0.00000000000E+00 0.  1.
</event>
<event>
 7    1  0.8661710E-006  0.1510670E+03  0.7561462E-02  0.1199168E+00
         -1   -1    0    0    0  501 -0.00000000000E+00  0.00000000000E+00  0.44576914380E+02  0.44576914380E+02  0.00000000000E+00 0.  1.
          1   -1    0    0  501    0  0.00000000000E+00 -0.00000000000E+00 -0.61889608084E+03  0.61889608084E+03  0.00000000000E+00 0. -1.
         23    2    1    2    0    0 -0.31425289247E+02  0.11225742648E+03 -0.20976827494E+03  0.27062787784E+03  0.12508972975E+03 0.  0.
          5    1    3    3  502    0 -0.14662998903E+02  0.13258371605E+03 -0.12917270221E+03  0.18573234693E+03  0.41800000000E+01 0. -1.
         -5    1    3    3    0  502 -0.16762290344E+02 -0.20326289569E+02 -0.80595572728E+02  0.84895530911E+02  0.41800000000E+01 0. -1.
        -11    1    1    2    0    0  0.14197341521E+02 -0.12158393707E+03 -0.27248120147E+03  0.29871428391E+03  0.00000000000E+00 0. -1.
         11    1    1    2    0    0  0.17227947726E+02  0.93265105916E+01 -0.92069690051E+02  0.94130833464E+02  0.00000000000E+00 0.  1.
</event>
<event>
 7    1  0.8661710E-006  0.2365848E+03  0.7561462E-02  0.1122089E+00
         -1   -1    0    0    0  501 -0.00000000000E+00  0.00000000000E+00  0.43464237500E+02  0.43464237500E+02  0.00000000000E+00 0.  1.
          1   -1    0    0  501    0  0.00000000000E+00 -0.00000000000E+00 -0.14988980876E+04  0.14988980876E+04  0.00000000000E+00 0. -1.
         23    2    1    2    0    0 -0.21019256457E+03  0.65932453847E+01 -0.46030271343E+03  0.52129720562E+03  0.12509118075E+03 0.  0.
          5    1    3    3  502    0 -0.51317922499E+02  0.57919058712E+02 -0.15532216178E+03  0.17358166052E+03  0.41800000000E+01 0.  1.
         -5    1    3    3    0  502 -0.15887464207E+03 -0.51325813328E+02 -0.30498055166E+03  0.34771554509E+03  0.41800000000E+01 0.  1.
        -11    1    1    2    0    0  0.18886627702E+03 -0.36069472123E+02 -0.83896389358E+03  0.86071591838E+03  0.00000000000E+00 0. -1.
         11    1    1    2    0    0  0.21326287556E+02  0.29476226739E+02 -0.15616724311E+03  0.16034920114E+03  0.00000000000E+00 0.  1.
</event>
<event>
 7    1  0.8661710E-006  0.2062602E+03  0.7561462E-02  0.1144562E+00
          2   -1    0    0  501    0  0.00000000000E+00  0.00000000000E+00  0.96919210231E+02  0.96919210231E+02  0.00000000000E+00 0. -1.
         -2   -1    0    0    0  501 -0.00000000000E+00 -0.00000000000E+00 -0.47290052164E+03  0.47290052164E+03  0.00000000000E+00 0.  1.
         23    2    1    2    0    0  0.13505226653E+03 -0.11672226707E+03 -0.25173959674E+03  0.33299206275E+03  0.12509071494E+03 0.  0.
          5    1    3    3  502    0  0.18512556509E+02 -0.98043698481E+02 -0.11648127251E+03  0.15342959560E+03  0.41800000000E+01 0.  1.
         -5    1    3    3    0  502  0.11653971002E+03 -0.18678568584E+02 -0.13525832423E+03  0.17956246715E+03  0.41800000000E+01 0.  1.
        -11    1    1    2    0    0 -0.12355802828E+03  0.61252249335E+02 -0.57841080727E+02  0.14954602977E+03  0.00000000000E+00 0. -1.
         11    1    1    2    0    0 -0.11494238254E+02  0.55470017731E+02 -0.66400633937E+02  0.87281639348E+02  0.00000000000E+00 0.  1.
</event>
<event>
 7    1  0.8661710E-006  0.1152899E+03  0.7561462E-02  0.1251076E+00
          1   -1    0    0  501    0  0.00000000000E+00  0.00000000000E+00  0.20804842429E+03  0.20804842429E+03  0.00000000000E+00 0. -1.
         -1   -1    0    0    0  501 -0.00000000000E+00 -0.00000000000E+00 -0.12713463347E+03  0.12713463347E+03  0.00000000000E+00 0.  1.
         23    2    1    2    0    0 -0.10127141283E+03 -0.54636088344E+02  0.13934633896E+02  0.17053569388E+03  0.12508895898E+03 0.  0.
          5    1    3    3  502    0 -0.63260795437E+02 -0.34947188322E+02  0.69442416908E+02  0.10031428551E+03  0.41800000000E+01 0.  1.
         -5    1    3    3    0  502 -0.38010617397E+02 -0.19688900022E+02 -0.55507783011E+02  0.70221408373E+02  0.41800000000E+01 0.  1.
        -11    1    1    2    0    0  0.44556583347E+02  0.26841596814E+02  0.84388875000E+02  0.99132450100E+02  0.00000000000E+00 0. -1.
         11    1    1    2    0    0  0.56714829487E+02  0.27794491530E+02 -0.17409718081E+02  0.65514913774E+02  0.00000000000E+00 0.  1.
</event>
<event>
 7    1  0.8661710E-006  0.1248250E+03  0.7561462E-02  0.1235343E+00
         -2   -1    0    0    0  501 -0.00000000000E+00  0.00000000000E+00  0.71238921434E+02  0.71238921434E+02  0.00000000000E+00 0.  1.
          2   -1    0    0  501    0  0.00000000000E+00 -0.00000000000E+00 -0.29194319962E+03  0.29194319962E+03  0.00000000000E+00 0. -1.
         23    2    1    2    0    0  0.89268909963E+01 -0.90158934552E+02 -0.83055553167E+02  0.17536858409E+03  0.12509033741E+03 0.  0.
          5    1    3    3  502    0  0.28929771253E+02  0.21834353658E+02 -0.38587726720E+01  0.36688324995E+02  0.41800000000E+01 0. -1.
         -5    1    3    3    0  502 -0.20002880256E+02 -0.11199328821E+03 -0.79196780495E+02  0.13868025910E+03  0.41800000000E+01 0. -1.
        -11    1    1    2    0    0 -0.23375899054E+02  0.74198187080E+02 -0.39339638801E+02  0.87174599532E+02  0.00000000000E+00 0.  1.
         11    1    1    2    0    0  0.14449008058E+02  0.15960747472E+02 -0.98309086219E+02  0.10063893743E+03  0.00000000000E+00 0. -1.
</event>
<event>
 7    1  0.8661710E-006  0.1390660E+03  0.7561462E-02  0.1214591E+00
          1   -1    0    0  501    0  0.00000000000E+00  0.00000000000E+00  0.78048412357E+02  0.78048412357E+02  0.00000000000E+00 0. -1.
         -1   -1    0    0    0  501 -0.00000000000E+00 -0.00000000000E+00 -0.54733483260E+03  0.54733483260E+03  0.00000000000E+00 0.  1.
         23    2    1    2    0    0 -0.14296454811E+02  0.12985507253E+03 -0.42176904412E+03  0.45891546064E+03  0.12509014731E+03 0.  0.
          5    1    3    3  502    0  0.27441978470E+02  0.47929220760E+02 -0.45879046337E+02  0.71921009989E+02  0.41800000000E+01 0. -1.
         -5    1    3    3    0  502 -0.41738433281E+02  0.81925851766E+02 -0.37588999778E+03  0.38699445065E+03  0.41800000000E+01 0. -1.
        -11    1    1    2    0    0  0.50930238971E+01 -0.65059680143E+02  0.23993629585E+02  0.69529814708E+02  0.00000000000E+00 0. -1.
         11    1    1    2    0    0  0.92034309143E+01 -0.64795392383E+02 -0.71511005705E+02  0.96937969608E+02  0.00000000000E+00 0.  1.
</event>
<event>
 7    1  0.8661710E-006  0.1692773E+03  0.7561462E-02  0.1178604E+00
         -1   -1    0    0    0  501 -0.00000000000E+00  0.00000000000E+00  0.17066380954E+03  0.17066380954E+03  0.00000000000E+00 0.  1.
          1   -1    0    0  501    0  0.00000000000E+00 -0.00000000000E+00 -0.18328995898E+03  0.18328995898E+03  0.00000000000E+00 0. -1.
         23    2    1    2    0    0 -0.53234078398E+02  0.12548587234E+03  0.22559396235E+02  0.18637838537E+03  0.12508958756E+03 0.  0.
          5    1    3    3  502    0 -0.18326750034E+02 -0.24542910226E+02  0.35683942184E+01  0.31119608713E+02  0.41800000000E+01 0. -1.
         -5    1    3    3    0  502 -0.34907328364E+02  0.15002878256E+03  0.18991002017E+02  0.15525877666E+03  0.41800000000E+01 0. -1.
        -11    1    1    2    0    0  0.70250277138E+02 -0.11012227953E+03 -0.64032852906E+01  0.13077851486E+03  0.00000000000E+00 0.  1.
         11    1    1    2    0    0 -0.17016198740E+02 -0.15363592806E+02 -0.28782260383E+02  0.36796868293E+02  0.00000000000E+00 0. -1.
</event>
<event>
 7    1  0.8661710E-006  0.1303002E+03  0.7561462E-02  0.1227011E+00
          2   -1    0    0  501    0  0.00000000000E+00  0.00000000000E+00  0.78200455236E+02  0.78200455236E+02  0.00000000000E+00 0. -1.
         -2   -1    0    0    0  501 -0.00000000000E+00 -0.00000000000E+00 -0.25324988771E+03  0.25324988771E+03  0.00000000000E+00 0.  1.
         23    2    1    2    0    0 -0.39162834934E+02  0.79414406181E+02 -0.10986500800E+03  0.18857057062E+03  0.12509262397E+03 0.  0.
          5    1    3    3  502    0  0.15757160226E+02 -0.28059185238E+02 -0.25118253632E+02  0.41036630467E+02  0.41800000000E+01 0. -1.
         -5    1    3    3    0  502 -0.54919995160E+02  0.10747359142E+03 -0.84746754373E+02  0.14753394015E+03  0.41800000000E+01 0. -1.
        -11    1    1    2    0    0  0.19664751667E+02 -0.84884935018E+02 -0.79602934045E+02  0.11802025995E+03  0.00000000000E+00 0.  1.
         11    1    1    2    0    0  0.19498083267E+02  0.54705288372E+01  0.14418509576E+02  0.24859512369E+02  0.00000000000E+00 0. -1.
</event>
<event>
 7    1  0.8661710E-006  0.1216530E+03  0.7561462E-02  0.1240395E+00
         -2   -1    0    0    0  501 -0.00000000000E+00  0.00000000000E+00  0.62335146539E+02  0.62335146539E+02  0.00000000000E+00 0.  1.
          2   -1    0    0  501    0  0.00000000000E+00 -0.00000000000E+00 -0.35059573360E+03  0.35059573360E+03  0.00000000000E+00 0. -1.
         23    2    1    2    0    0  0.10303429903E+02 -0.69199771700E+02 -0.53719354149E+02  0.15305227639E+03  0.12507782068E+03 0.  0.
          5    1    3    3  502    0  0.17020013288E+01  0.31679831080E+02 -0.39330752116E+02  0.50703934441E+02  0.41800000000E+01 0.  1.
         -5    1    3    3    0  502  0.86014285739E+01 -0.10087960278E+03 -0.14388602033E+02  0.10234834195E+03  0.41800000000E+01 0.  1.
        -11    1    1    2    0    0  0.37558764235E+02  0.32350645736E+02 -0.82075385525E+02  0.95883230856E+02  0.00000000000E+00 0.  1.
         11    1    1    2    0    0 -0.47862194138E+02  0.36849125964E+02 -0.15246584738E+03  0.16399537289E+03  0.00000000000E+00 0. -1.
</event>
<event>
 7    1  0.8661710E-006  0.1162395E+03  0.7561462E-02  0.1249433E+00
          2   -1    0    0  501    0  0.00000000000E+00  0.00000000000E+00  0.54323944613E+03  0.54323944613E+03  0.00000000000E+00 0. -1.
         -2   -1    0    0    0  501 -0.00000000000E+00 -0.00000000000E+00 -0.26309324069E+02  0.26309324069E+02  0.00000000000E+00 0.  1.
         23    2    1    2    0    0 -0.25127395084E+02  0.42642931492E+02  0.26915246912E+03  0.30089955336E+03  0.12509070305E+03 0.  0.
          5    1    3    3  502    0  0.47857308329E+02 -0.28383402257E+01  0.10640531093E+03  0.11678159414E+03  0.41800000000E+01 0. -1.
         -5    1    3    3    0  502 -0.72984703413E+02  0.45481271718E+02  0.16274715819E+03  0.18411795922E+03  0.41800000000E+01 0. -1.
        -11    1    1    2    0    0  0.95761834439E+00  0.25725494465E+02  0.32341489813E+02  0.41336304402E+02  0.00000000000E+00 0.  1.
         11    1    1    2    0    0  0.24169776739E+02 -0.68368425957E+02  0.21543616313E+03  0.22731291243E+03  0.00000000000E+00 0. -1.
</event>
<event>
 7    1  0.8661710E-006  0.1167976E+03  0.7561462E-02  0.1248476E+00
          1   -1    0    0  501    0  0.00000000000E+00  0.00000000000E+00  0.16492735586E+03  0.16492735586E+03  0.00000000000E+00 0. -1.
         -1   -1    0    0    0  501 -0.00000000000E+00 -0.00000000000E+00 -0.91538692770E+02  0.91538692770E+02  0.00000000000E+00 0.  1.
         23    2    1    2    0    0  0.21663209102E+02  0.37486536196E+02  0.19489925300E+01  0.13238361449E+03  0.12508831995E+03 0.  0.
          5    1    3    3  502    0  0.29190166900E+02  0.81824298147E+02 -0.24003954426E+01  0.87008711685E+02  0.41800000000E+01 0. -1.
         -5    1    3    3    0  502 -0.75269577981E+01 -0.44337761950E+02  0.43493879726E+01  0.45374902801E+02  0.41800000000E+01 0. -1.
        -11    1    1    2    0    0  0.36207321055E+02 -0.17628065897E+02  0.28337771283E+02  0.49241731149E+02  0.00000000000E+00 0.  1.
         11    1    1    2    0    0 -0.57870530158E+02 -0.19858470299E+02  0.43101899278E+02  0.74840702994E+02  0.00000000000E+00 0. -1.
</event>
<event>
 7    1  0.8661710E-006  0.1233417E+03  0.7561462E-02  0.1237684E+00
         -2   -1    0    0    0  501 -0.00000000000E+00  0.00000000000E+00  0.87896999463E+03  0.87896999463E+03  0.00000000000E+00 0.  1.
          2   -1    0    0  501    0  0.00000000000E+00 -0.00000000000E+00 -0.23269318973E+02  0.23269318973E+02  0.00000000000E+00 0. -1.
         23    2    1    2    0    0  0.91541336612E+02 -0.70256748656E+01  0.50711978035E+03  0.53032721365E+03  0.12508919018E+03 0.  0.
          5    1    3    3  502    0  0.47789432221E+00  0.23263569860E+02  0.13045608442E+02  0.27001525239E+02  0.41800000000E+01 0.  1.
         -5    1    3    3    0  502  0.91063442290E+02 -0.30289244726E+02  0.49407417190E+03  0.50332568841E+03  0.41800000000E+01 0.  1.
        -11    1    1    2    0    0 -0.82721164562E+02 -0.30704175618E+02  0.20474217916E+03  0.22294595173E+03  0.00000000000E+00 0. -1.
         11    1    1    2    0    0 -0.88201720503E+01  0.37729850483E+02  0.14383871615E+03  0.14896614822E+03  0.00000000000E+00 0.  1.
</event>
<event>
 7    1  0.8661710E-006  0.6658441E+02  0.7561462E-02  0.1372109E+00
          2   -1    0    0  501    0  0.00000000000E+00  0.00000000000E+00  0.44201096860E+03  0.44201096860E+03  0.00000000000E+00 0.  1.
         -2   -1    0    0    0  501 -0.00000000000E+00 -0.00000000000E+00 -0.33071174555E+02  0.33071174555E+02  0.00000000000E+00 0. -1.
         23    2    1    2    0    0 -0.35980482718E+02  0.13981630328E+02  0.16012091711E+03  0.20682274886E+03  0.12508741035E+03 0.  0.
          5    1    3    3  502    0 -0.25187996265E+01  0.22185970735E+01  0.16974867099E+03  0.16983330129E+03  0.41800000000E+01 0.  1.
         -5    1    3    3    0  502 -0.33461683092E+02  0.11763033255E+02 -0.96277538811E+01  0.36989447569E+02  0.41800000000E+01 0.  1.
        -11    1    1    2    0    0 -0.26844915672E+02  0.30038003820E+01  0.13007513394E+03  0.13285033980E+03  0.00000000000E+00 0.  1.
         11    1    1    2    0    0  0.62825398391E+02 -0.16985430710E+02  0.11874374299E+03  0.13540905449E+03  0.00000000000E+00 0. -1.
</event>
<event>
 7    1  0.8661710E-006  0.1279699E+03  0.7561462E-02  0.1230500E+00
         -1   -1    0    0    0  501 -0.00000000000E+00  0.00000000000E+00  0.45525784562E+03  0.45525784562E+03  0.00000000000E+00 0.  1.
          1   -1    0    0  501    0  0.00000000000E+00 -0.00000000000E+00 -0.43084321875E+02  0.43084321875E+02  0.00000000000E+00 0. -1.
         23    2    1    2    0    0  0.33152042741E+02 -0.78481709293E+02  0.23076162881E+03  0.27596562130E+03  0.12509059988E+03 0.  0.
          5    1    3    3  502    0  0.95368162220E+01 -0.10865524056E+03  0.19455785098E+03  0.22308550366E+03  0.41800000000E+01 0.  1.
         -5    1    3    3    0  502  0.23615226519E+02  0.30173531268E+02  0.36203777829E+02  0.52880117642E+02  0.41800000000E+01 0.  1.
        -11    1    1    2    0    0  0.15297785095E+02  0.49447870489E+02  0.14791026052E+03  0.15670532631E+03  0.00000000000E+00 0.  1.
         11    1    1    2    0    0 -0.48449827836E+02  0.29033838804E+02  0.33501634411E+02  0.65671219885E+02  0.00000000000E+00 0. -1.
</event>
<event>
 7    1  0.8661710E-006  0.1974531E+03  0.7561462E-02  0.1151906E+00
         -1   -1    0    0    0  501 -0.00000000000E+00  0.00000000000E+00  0.10492756303E+03  0.10492756303E+03  0.00000000000E+00 0.  1.
          1   -1    0    0  501    0  0.00000000000E+00 -0.00000000000E+00 -0.61006506707E+03  0.61006506707E+03  0.00000000000E+00 0. -1.
         23    2    1    2    0    0 -0.11204669344E+03  0.98173068509E+02 -0.44902341863E+02  0.19964126267E+03  0.12509196843E+03 0.  0.
          5    1    3    3  502    0 -0.69437553747E+02  0.98577232291E+02 -0.79590138030E+02  0.14453756283E+03  0.41800000000E+01 0. -1.
         -5    1    3    3    0  502 -0.42609139688E+02 -0.40416378236E+00  0.34687796167E+02  0.55103699841E+02  0.41800000000E+01 0. -1.
        -11    1    1    2    0    0 -0.31723039156E+02 -0.80578050118E+02 -0.18786832656E+03  0.20686633728E+03  0.00000000000E+00 0. -1.
         11    1    1    2    0    0  0.14376973259E+03 -0.17595018391E+02 -0.27236683562E+03  0.30848503015E+03  0.00000000000E+00 0.  1.
</event>
<event>
 7    1  0.8661710E-006  0.1074369E+03  0.7561462E-02  0.1265391E+00
         -2   -1    0    0    0  501 -0.00000000000E+00  0.00000000000E+00  0.13691956927E+03  0.13691956927E+03  0.00000000000E+00 0.  1.
          2   -1    0    0  501    0  0.00000000000E+00 -0.00000000000E+00 -0.93555231657E+02  0.93555231657E+02  0.00000000000E+00 0. -1.
         23    2    1    2    0    0  0.25188351686E+02 -0.21070357365E+02  0.30873474002E+02  0.13296117873E+03  0.12508833132E+03 0.  0.
          5    1    3    3  502    0  0.50786487217E+02  0.37155746187E+02  0.22990026477E+01  0.63107642736E+02  0.41800000000E+01 0.  1.
         -5    1    3    3    0  502 -0.25598135530E+02 -0.58226103552E+02  0.28574471354E+02  0.69853535993E+02  0.41800000000E+01 0.  1.
        -11    1    1    2    0    0 -0.55333508076E+02  0.14748762764E+02  0.27181269416E+02  0.63388835974E+02  0.00000000000E+00 0.  1.
         11    1    1    2    0    0  0.30145156390E+02  0.63215946009E+01 -0.14690405806E+02  0.34124786223E+02  0.00000000000E+00 0. -1.
</event>
<event>
 7    1  0.8661710E-006  0.1471987E+03  0.7561462E-02  0.1203958E+00
         -3   -1    0    0    0  501 -0.00000000000E+00  0.00000000000E+00  0.51934717718E+03  0.51934717718E+03  0.00000000000E+00 0.  1.
          3   -1    0    0  501    0  0.00000000000E+00 -0.00000000000E+00 -0.45717872891E+02  0.45717872891E+02  0.00000000000E+00 0. -1.
         23    2    1    2    0    0  0.10386544438E+03 -0.30413829896E+02  0.23579697484E+03  0.28802860382E+03  0.12508889514E+03 0.  0.
          5    1    3    3  502    0  0.92638195142E+02  0.24920164560E+02  0.89926919902E+02  0.13155672968E+03  0.41800000000E+01 0. -1.
         -5    1    3    3    0  502  0.11227249234E+02 -0.55333994456E+02  0.14587005494E+03  0.15647187414E+03  0.41800000000E+01 0. -1.
        -11    1    1    2    0    0 -0.59577586236E+02  0.63049579339E+02  0.13643214968E+03  0.16167396111E+03  0.00000000000E+00 0. -1.
         11    1    1    2    0    0 -0.44287858140E+02 -0.32635749443E+02  0.10140017977E+03  0.11536248514E+03  0.00000000000E+00 0.  1.
</event>
<event>
 7    1  0.8661710E-006  0.1240048E+03  0.7561462E-02  0.1236633E+00
         -1   -1    0    0    0  501 -0.00000000000E+00  0.00000000000E+00  0.20139705905E+03  0.20139705905E+03  0.00000000000E+00 0.  1.
          1   -1    0    0  501    0  0.00000000000E+00 -0.00000000000E+00 -0.13356735695E+03  0.13356735695E+03  0.00000000000E+00 0. -1.
         23    2    1    2    0    0 -0.64213528786E+02  0.42551911284E+02  0.13612555547E+03  0.19677008062E+03  0.11939118620E+03 0.  0.
          5    1    3    3  502    0 -0.83092724099E+02 -0.38354343493E+01  0.50253263793E+02  0.97272680012E+02  0.41800000000E+01 0. -1.
         -5    1    3    3    0  502  0.18879195313E+02  0.46387345633E+02  0.85872291678E+02  0.99497400612E+02  0.41800000000E+01 0.  1.
        -11    1    1    2    0    0 -0.15017050241E+02  0.11191706097E+02 -0.29394960248E+02  0.34854408204E+02  0.00000000000E+00 0.  1.
         11    1    1    2    0    0  0.79230579026E+02 -0.53743617380E+02 -0.38900893121E+02  0.10333992717E+03  0.00000000000E+00 0. -1.
</event>
<event>
 7    1  0.8661710E-006  0.1144361E+03  0.7561462E-02  0.1252569E+00
         -1   -1    0    0    0  501 -0.00000000000E+00  0.00000000000E+00  0.51189445898E+02  0.51189445898E+02  0.00000000000E+00 0.  1.
          1   -1    0    0  501    0  0.00000000000E+00 -0.00000000000E+00 -0.29500991095E+03  0.29500991095E+03  0.00000000000E+00 0. -1.
         23    2    1    2    0    0 -0.12936405348E+02 -0.42538538633E+02 -0.84995468048E+02  0.15763539851E+03  0.12509121241E+03 0.  0.
          5    1    3    3  502    0 -0.13015250114E+02  0.42684736978E+02 -0.14970519366E+02  0.47254336907E+02  0.41800000000E+01 0.  1.
         -5    1    3    3    0  502  0.78844765956E-01 -0.85223275611E+02 -0.70024948682E+02  0.11038106160E+03  0.41800000000E+01 0.  1.
        -11    1    1    2    0    0  0.45155363240E+02  0.48162581551E+02 -0.12587462910E+03  0.14213748043E+03  0.00000000000E+00 0. -1.
         11    1    1    2    0    0 -0.32218957892E+02 -0.56240429180E+01 -0.32950367907E+02  0.46426477915E+02  0.00000000000E+00 0.  1.
</event>
<event>
 7    1  0.8661710E-006  0.1056923E+03  0.7561462E-02  0.1268762E+00
          2   -1    0    0  501    0  0.00000000000E+00  0.00000000000E+00  0.17082890154E+03  0.17082890154E+03  0.00000000000E+00 0. -1.
         -2   -1    0    0    0  501 -0.00000000000E+00 -0.00000000000E+00 -0.10516862577E+03  0.10516862577E+03  0.00000000000E+00 0.  1.
         23    2    1    2    0    0  0.49267658806E+02 -0.66485445674E+02  0.19738649175E+02  0.15127776131E+03  0.12509088738E+03 0.  0.
          5    1    3    3  502    0  0.60951611081E+02 -0.49094796317E+02  0.64613804124E+02  0.10157664103E+03  0.41800000000E+01 0. -1.
         -5    1    3    3    0  502 -0.11683952274E+02 -0.17390649357E+02 -0.44875154950E+02  0.49701120285E+02  0.41800000000E+01 0. -1.
        -11    1    1    2    0    0  0.30352314334E+00  0.61856590914E+02  0.42021129117E+02  0.74780380168E+02  0.00000000000E+00 0. -1.
         11    1    1    2    0    0 -0.49571181950E+02  0.46288547593E+01  0.39004974727E+01  0.49939385827E+02  0.00000000000E+00 0.  1.
</event>
<event>
 7    1  0.8661710E-006  0.1987072E+03  0.7561462E-02  0.1150834E+00
          3   -1    0    0  501    0  0.00000000000E+00  0.00000000000E+00  0.18468219703E+03  0.18468219703E+03  0.00000000000E+00 0. -1.
         -3   -1    0    0    0  501 -0.00000000000E+00 -0.00000000000E+00 -0.26841724320E+03  0.26841724320E+03  0.00000000000E+00 0.  1.
         23    2    1    2    0    0  0.10795236409E+03 -0.14863807642E+03 -0.10140073199E+03  0.24428721274E+03  0.12508854140E+03 0.  0.
          5    1    3    3  502    0  0.10674588597E+03 -0.11464873142E+03 -0.12684333049E+03  0.20160783387E+03  0.41800000000E+01 0.  1.
         -5    1    3    3    0  502  0.12064781179E+01 -0.33989344995E+02  0.25442598501E+02  0.42679378875E+02  0.41800000000E+01 0.  1.
        -11    1    1    2    0    0 -0.23770701616E+02  0.11223914073E+03  0.22729980988E+02  0.11695863800E+03  0.00000000000E+00 0.  1.
         11    1    1    2    0    0 -0.84181662470E+02  0.36398935686E+02 -0.50642951736E+01  0.91853589482E+02  0.00000000000E+00 0. -1.
</event>
<event>
 6    1  0.8661710E-006  0.1082100E+03  0.7561462E-02  0.1263921E+00
         -2   -1    0    0    0  501 -0.00000000000E+00  0.00000000000E+00  0.89204845862E+03  0.89204845862E+03  0.00000000000E+00 0.  1.
          2   -1    0    0  501    0  0.00000000000E+00 -0.00000000000E+00 -0.11073616335E+03  0.11073616335E+03  0.00000000000E+00 0. -1.
          5    1    1    2  502    0 -0.19705174070E+02 -0.63443253877E+02  0.38960643747E+03  0.39525180438E+03  0.41800000000E+01 0. -1.
         -5    1    1    2    0  502 -0.35384186942E+02  0.79427233287E+02  0.46768107518E+03  0.47571397557E+03  0.41800000000E+01 0.  1.
        -11    1    1    2    0    0  0.44403638808E+02 -0.23012750201E+02 -0.95891030145E+02  0.10814970861E+03  0.00000000000E+00 0. -1.
         11    1    1    2    0    0  0.10685722204E+02  0.70287707914E+01  0.19915812766E+02  0.23669133402E+02  0.00000000000E+00 0.  1.
</event>
<event>
 6    1  0.8661710E-006  0.1016923E+03  0.7561462E-02  0.1276777E+00
         -2   -1    0    0    0  501 -0.00000000000E+00  0.00000000000E+00  0.82791042445E+02  0.82791042445E+02  0.00000000000E+00 0.  1.
          2   -1    0    0  501    0  0.00000000000E+00 -0.00000000000E+00 -0.20997442461E+03  0.20997442461E+03  0.00000000000E+00 0. -1.
          5    1    1    2  502    0 -0.39575641947E+02 -0.27996327450E+02  0.37889387460E+02  0.61669310587E+02  0.41800000000E+01 0. -1.
         -5    1    1    2    0  502 -0.17769545487E+02  0.77091300978E+02 -0.53510249336E+02  0.95601488573E+02  0.41800000000E+01 0.  1.
        -11    1    1    2    0    0  0.18240313255E+02 -0.16522462185E+02 -0.25013147646E+02  0.35090715858E+02  0.00000000000E+00 0.  1.
         11    1    1    2    0    0  0.39104874179E+02 -0.32572511343E+02 -0.86549372648E+02  0.10040395204E+03  0.00000000000E+00 0. -1.
</event>
<event>
 7    1  0.8661710E-006  0.8059207E+02  0.7561462E-02  0.1327380E+00
         -2   -1    0    0    0  501 -0.00000000000E+00  0.00000000000E+00  0.53518282322E+02  0.53518282322E+02  0.00000000000E+00 0.  1.
          2   -1    0    0  501    0  0.00000000000E+00 -0.00000000000E+00 -0.25458957917E+03  0.25458957917E+03  0.00000000000E+00 0. -1.
         23    2    1    2    0    0 -0.21264121094E+02 -0.38612862012E+02 -0.12718986466E+03  0.18377288772E+03  0.12510833956E+03 0.  0.
          5    1    3    3  502    0  0.35092945224E+02 -0.10841328430E+02  0.50473475559E+01  0.37309480350E+02  0.41800000000E+01 0. -1.
         -5    1    3    3    0  502 -0.56357066318E+02 -0.27771533582E+02 -0.13223721222E+03  0.14646340737E+03  0.41800000000E+01 0. -1.
        -11    1    1    2    0    0 -0.12253876555E+02  0.18408418649E+02  0.15335787056E+02  0.26911219452E+02  0.00000000000E+00 0.  1.
         11    1    1    2    0    0  0.33517997649E+02  0.20204443363E+02 -0.89217219243E+02  0.97423754329E+02  0.00000000000E+00 0. -1.
</event>
<event>
 7    1  0.8661710E-006  0.1277043E+03  0.7561462E-02  0.1230902E+00
          2   -1    0    0  501    0  0.00000000000E+00  0.00000000000E+00  0.28573385596E+03  0.28573385596E+03  0.00000000000E+00 0. -1.
         -2   -1    0    0    0  501 -0.00000000000E+00 -0.00000000000E+00 -0.90855439010E+02  0.90855439010E+02  0.00000000000E+00 0.  1.
         23    2    1    2    0    0 -0.81000040061E+02 -0.11755953332E+02  0.45534986347E+01  0.14955103072E+03  0.12508224299E+03 0.  0.
          5    1    3    3  502    0 -0.36829328009E+02  0.53949384682E+02 -0.16535366701E+02  0.67511674999E+02  0.41800000000E+01 0. -1.
         -5    1    3    3    0  502 -0.44170712053E+02 -0.65705338014E+02  0.21088865336E+02  0.82039355726E+02  0.41800000000E+01 0. -1.
        -11    1    1    2    0    0  0.90585625545E+02 -0.56907581890E+01  0.10216808433E+03  0.13666183718E+03  0.00000000000E+00 0.  1.
         11    1    1    2    0    0 -0.95855854836E+01  0.17446711521E+02  0.88156833982E+02  0.90376427068E+02  0.00000000000E+00 0. -1.
</event>
<event>
 7    1  0.8661710E-006  0.2275747E+03  0.7561462E-02  0.1128359E+00
          2   -1    0    0  501    0  0.00000000000E+00  0.00000000000E+00  0.24780774400E+03  0.24780774400E+03  0.00000000000E+00 0.  1.
         -2   -1    0    0    0  501 -0.00000000000E+00 -0.00000000000E+00 -0.78017787083E+03  0.78017787083E+03  0.00000000000E+00 0. -1.
         23    2    1    2    0    0 -0.11226894579E+03 -0.17974092414E+03 -0.70068477955E+03  0.74264245652E+03  0.12509013524E+03 0.  0.
          5    1    3    3  502    0  0.17943519854E+01  0.96083345741E+01 -0.13299807671E+03  0.13342226426E+03  0.41800000000E+01 0.  1.
         -5    1    3    3    0  502 -0.11406329777E+03 -0.18934925871E+03 -0.56768670284E+03  0.60922019226E+03  0.41800000000E+01 0.  1.
        -11    1    1    2    0    0  0.78216954166E+02  0.58990969361E+02  0.10903871609E+03  0.14658536077E+03  0.00000000000E+00 0.  1.
         11    1    1    2    0    0  0.34051991623E+02  0.12074995477E+03  0.59275936632E+02  0.13875779753E+03  0.00000000000E+00 0. -1.
</event>
<event>
 7    1  0.8661710E-006  0.1246172E+03  0.7561462E-02  0.1235669E+00
          1   -1    0    0  501    0  0.00000000000E+00  0.00000000000E+00  0.21874076014E+03  0.21874076014E+03  0.00000000000E+00 0. -1.
         -1   -1    0    0    0  501 -0.00000000000E+00 -0.00000000000E+00 -0.10056244665E+03  0.10056244665E+03  0.00000000000E+00 0.  1.
         23    2    1    2    0    0  0.42982436084E+02  0.84013452068E+02  0.35790336939E+02  0.16072954138E+03  0.12508911749E+03 0.  0.
          5    1    3    3  502    0  0.79575817708E+02  0.26300373340E+02  0.38252265417E+02  0.92221085503E+02  0.41800000000E+01 0. -1.
         -5    1    3    3    0  502 -0.36593381624E+02  0.57713078728E+02 -0.24619284781E+01  0.68508455878E+02  0.41800000000E+01 0. -1.
        -11    1    1    2    0    0 -0.17422318270E+02 -0.14086307428E+02  0.81070992578E+02  0.84109851198E+02  0.00000000000E+00 0. -1.
         11    1    1    2    0    0 -0.25560117814E+02 -0.69927144640E+02  0.13169839817E+01  0.74463814212E+02  0.00000000000E+00 0.  1.
</event>
<event>
 7    1  0.8661710E-006  0.1437197E+03  0.7561462E-02  0.1208410E+00
          1   -1    0    0  501    0  0.00000000000E+00  0.00000000000E+00  0.11485814883E+04  0.11485814883E+04  0.00000000000E+00 0. -1.
         -1   -1    0    0    0  501 -0.00000000000E+00 -0.00000000000E+00 -0.20031577872E+02  0.20031577872E+02  0.00000000000E+00 0.  1.
         23    2    1    2    0    0  0.71804537087E+02 -0.71321310474E+02  0.48937882248E+03  0.51515250367E+03  0.12509136368E+03 0.  0.
          5    1    3    3  502    0 -0.21215296367E+02  0.15173904203E+02  0.38401252895E+02  0.46609707064E+02  0.41800000000E+01 0. -1.
         -5    1    3    3    0  502  0.93019833453E+02 -0.86495214676E+02  0.45097756959E+03  0.46854279660E+03  0.41800000000E+01 0. -1.
        -11    1    1    2    0    0 -0.57417534100E+02 -0.37089716896E+01  0.22093607791E+03  0.22830523475E+03  0.00000000000E+00 0. -1.
         11    1    1    2    0    0 -0.14387002987E+02  0.75030282163E+02  0.41823501003E+03  0.42515532775E+03  0.00000000000E+00 0.  1.
</event>
<event>
 7    1  0.1871033E-005  0.3021332E+03  0.7561462E-02  0.1084179E+00
          2   -1    0    0  501    0  0.00000000000E+00  0.00000000000E+00  0.88012683723E+03  0.88012683723E+03  0.00000000000E+00 0. -1.
         -2   -1    0    0    0  501 -0.00000000000E+00 -0.00000000000E+00 -0.10976175721E+03  0.10976175721E+03  0.00000000000E+00 0.  1.
         23    2    1    2    0    0  0.99179247021E+02 -0.27037032935E+03  0.33249320768E+03  0.45731367455E+03  0.12508967082E+03 0.  0.
          5    1    3    3  502    0  0.45335805807E+02 -0.13889846419E+02  0.81683097949E+02  0.94540277196E+02  0.41800000000E+01 0.  1.
         -5    1    3    3    0  502  0.53843441213E+02 -0.25648048293E+03  0.25081010973E+03  0.36277339735E+03  0.41800000000E+01 0.  1.
        -11    1    1    2    0    0 -0.10292125663E+03  0.20791317459E+03  0.28561284974E+03  0.36796110280E+03  0.00000000000E+00 0.  1.
         11    1    1    2    0    0  0.37420096087E+01  0.62457154756E+02  0.15225902260E+03  0.16461381709E+03  0.00000000000E+00 0. -1.
</event>
<event>
 7    1  0.8661710E-006  0.1091107E+03  0.7561462E-02  0.1262226E+00
          2   -1    0    0  501    0  0.00000000000E+00  0.00000000000E+00  0.47290084223E+03  0.47290084223E+03  0.00000000000E+00 0. -1.
         -2   -1    0    0    0  501 -0.00000000000E+00 -0.00000000000E+00 -0.39113848190E+02  0.39113848190E+02  0.00000000000E+00 0.  1.
         23    2    1    2    0    0  0.63793744707E+02 -0.56154619836E+01  0.14279032500E+03  0.20034588469E+03  0.12509285080E+03 0.  0.
          5    1    3    3  502    0  0.61068055147E+02  0.31746197875E+02  0.14704855687E+03  0.16241268090E+03  0.41800000000E+01 0.  1.
         -5    1    3    3    0  502  0.27256895593E+01 -0.37361659859E+02 -0.42582318711E+01  0.37933203788E+02  0.41800000000E+01 0.  1.
        -11    1    1    2    0    0  0.92502143130E+01 -0.29219695766E+02  0.76130079983E+02  0.82067936270E+02  0.00000000000E+00 0.  1.
         11    1    1    2    0    0 -0.73043959020E+02  0.34835157749E+02  0.21486658906E+03  0.22960086946E+03  0.00000000000E+00 0. -1.
</event>
<event>
 7    1  0.8661710E-006  0.9553526E+02  0.7561462E-02  0.1289975E+00
         -2   -1    0    0    0  501 -0.00000000000E+00  0.00000000000E+00  0.67041859523E+02  0.67041859523E+02  0.00000000000E+00 0.  1.
          2   -1    0    0  501    0  0.00000000000E+00 -0.00000000000E+00 -0.18718487609E+03  0.18718487609E+03  0.00000000000E+00 0. -1.
         23    2    1    2    0    0  0.43538607466E+02 -0.41515251884E+01 -0.50975138810E+02  0.14198435716E+03  0.12509295504E+03 0.  0.
          5    1    3    3  502    0  0.78907622748E+02 -0.18282383991E+02 -0.37799968189E+01  0.81193714462E+02  0.41800000000E+01 0.  1.
         -5    1    3    3    0  502 -0.35369015282E+02  0.14130858802E+02 -0.47195141991E+02  0.60790642702E+02  0.41800000000E+01 0.  1.
        -11    1    1    2    0    0 -0.56009969380E+02 -0.49221829004E+01 -0.18363612852E+02  0.59148684106E+02  0.00000000000E+00 0.  1.
         11    1    1    2    0    0  0.12471361915E+02  0.90737080888E+01 -0.50804264907E+02  0.53093694346E+02  0.00000000000E+00 0. -1.
</event>
<event>
 7    1  0.8661710E-006  0.1217011E+03  0.7561462E-02  0.1240317E+00
          1   -1    0    0  501    0  0.00000000000E+00  0.00000000000E+00  0.26310570595E+03  0.26310570595E+03  0.00000000000E+00 0. -1.
         -1   -1    0    0    0  501 -0.00000000000E+00 -0.00000000000E+00 -0.63792656487E+02  0.63792656487E+02  0.00000000000E+00 0.  1.
         23    2    1    2    0    0 -0.71468675677E+02  0.18827831057E+02  0.11281747153E+03  0.18395320862E+03  0.12509493297E+03 0.  0.
          5    1    3    3  502    0  0.33541200511E+02  0.17173436258E+02  0.16350197268E+02  0.41288501975E+02  0.41800000000E+01 0. -1.
         -5    1    3    3    0  502 -0.10500987619E+03  0.16543947987E+01  0.96467274263E+02  0.14266470665E+03  0.41800000000E+01 0. -1.
        -11    1    1    2    0    0  0.40255887836E+02  0.24393238819E+02  0.74778662601E+02  0.88359577783E+02  0.00000000000E+00 0. -1.
         11    1    1    2    0    0  0.31212787840E+02 -0.43221069876E+02  0.11716915334E+02  0.54585576034E+02  0.00000000000E+00 0.  1.
</event>
<event>
 7    1  0.8661710E-006  0.1192228E+03  0.7561462E-02  0.1244385E+00
         -2   -1    0    0    0  501 -0.00000000000E+00  0.00000000000E+00  0.23367941401E+02  0.23367941401E+02  0.00000000000E+00 0.  1.
          2   -1    0    0  501    0  0.00000000000E+00 -0.00000000000E+00 -0.78863667368E+03  0.78863667368E+03  0.00000000000E+00 0. -1.
         23    2    1    2    0    0 -0.57968207847E+02 -0.56543679884E+02 -0.40546158466E+03  0.43197704068E+03  0.12509023219E+03 0.  0.
          5    1    3    3  502    0 -0.16691177816E+02  0.23271611298E+02 -0.25528692690E+03  0.25692226598E+03  0.41800000000E+01 0.  1.
         -5    1    3    3    0  502 -0.41277030031E+02 -0.79815291182E+02 -0.15017465776E+03  0.17505477471E+03  0.41800000000E+01 0.  1.
        -11    1    1    2    0    0  0.98244513480E+01 -0.23877204889E+02 -0.48882996597E+02  0.55282801249E+02  0.00000000000E+00 0.  1.
         11    1    1    2    0    0  0.48143756499E+02  0.80420884773E+02 -0.31092415102E+03  0.32474477315E+03  0.00000000000E+00 0. -1.
</event>
<event>
 7    1  0.8661710E-006  0.9940022E+02  0.7561462E-02  0.1281562E+00
          4   -1    0    0  501    0  0.00000000000E+00  0.00000000000E+00  0.10753255279E+03  0.10753255279E+03  0.00000000000E+00 0. -1.
         -4   -1    0    0    0  501 -0.00000000000E+00 -0.00000000000E+00 -0.15740097661E+03  0.15740097661E+03  0.00000000000E+00 0.  1.
         23    2    1    2    0    0 -0.47379303214E+02  0.52883735104E+02 -0.10376666673E+02  0.14420643677E+03  0.12508530442E+03 0.  0.
          5    1    3    3  502    0 -0.81256056933E+02  0.38838811865E+02 -0.38267718298E+02  0.97943303800E+02  0.41800000000E+01 0.  1.
         -5    1    3    3    0  502  0.33876753719E+02  0.14044923239E+02  0.27891051625E+02  0.46263132969E+02  0.41800000000E+01 0.  1.
        -11    1    1    2    0    0  0.32010184497E+02 -0.28229137407E+02 -0.67831469217E+02  0.80141402074E+02  0.00000000000E+00 0.  1.
         11    1    1    2    0    0  0.15369118718E+02 -0.24654597697E+02  0.28339712065E+02  0.40585690553E+02  0.00000000000E+00 0. -1.
</event>
<event>
 7    1  0.8661710E-006  0.9143686E+02  0.7561462E-02  0.1299409E+00
          2   -1    0    0  501    0  0.00000000000E+00  0.00000000000E+00  0.49040365255E+03  0.49040365255E+03  0.00000000000E+00 0. -1.
         -2   -1    0    0    0  501 -0.00000000000E+00 -0.00000000000E+00 -0.29833618424E+02  0.29833618424E+02  0.00000000000E+00 0.  1.
         23    2    1    2    0    0 -0.44933143388E+01 -0.82316339590E+01  0.14349577478E+03  0.19059336829E+03  0.12508734943E+03 0.  0.
          5    1    3    3  502    0  0.46805822263E+02  0.77098070121E+01  0.12477343985E+03  0.13355189933E+03  0.41800000000E+01 0.  1.
         -5    1    3    3    0  502 -0.51299136602E+02 -0.15941440971E+02  0.18722334922E+02  0.57041468962E+02  0.41800000000E+01 0.  1.
        -11    1    1    2    0    0 -0.21455223328E+02 -0.28948343842E+02  0.21436869186E+03  0.21737587094E+03  0.00000000000E+00 0. -1.
         11    1    1    2    0    0  0.25948537667E+02  0.37179977801E+02  0.10270556749E+03  0.11226803174E+03  0.00000000000E+00 0.  1.
</event>
<event>
 7    1  0.8661710E-006  0.1273031E+03  0.7561462E-02  0.1231513E+00
         -2   -1    0    0    0  501 -0.00000000000E+00  0.00000000000E+00  0.19082948989E+03  0.19082948989E+03  0.00000000000E+00 0.  1.
          2   -1    0    0  501    0  0.00000000000E+00 -0.00000000000E+00 -0.10425265670E+03  0.10425265670E+03  0.00000000000E+00 0. -1.
         23    2    1    2    0    0  0.20363322056E+02  0.85407788739E+02  0.25827351019E+02  0.15500764250E+03  0.12510460388E+03 0.  0.
          5    1    3    3  502    0  0.69066249826E+02  0.22380197594E+02  0.70307855758E+01  0.73061100835E+02  0.41800000000E+01 0.  1.
         -5    1    3    3    0  502 -0.48702927770E+02  0.63027591144E+02  0.18796565443E+02  0.81946541667E+02  0.41800000000E+01 0.  1.
        -11    1    1    2    0    0 -0.22170327955E+02 -0.63743925295E+01 -0.17413835588E+02  0.28903252267E+02  0.00000000000E+00 0. -1.
         11    1    1    2    0    0  0.18070058990E+01 -0.79033396209E+02  0.78163317768E+02  0.11117125182E+03  0.00000000000E+00 0.  1.
</event>
<event>
 7    1  0.8661710E-006  0.9046874E+02  0.7561462E-02  0.1301721E+00
         -1   -1    0    0    0  501 -0.00000000000E+00  0.00000000000E+00  0.52290773428E+03  0.52290773428E+03  0.00000000000E+00 0.  1.
          1   -1    0    0  501    0  0.00000000000E+00 -0.00000000000E+00 -0.28234106521E+02  0.28234106521E+02  0.00000000000E+00 0. -1.
         23    2    1    2    0    0  0.13940271202E+02  0.42817802970E+02  0.35174963430E+03  0.37603554154E+03  0.12508887985E+03 0.  0.
          5    1    3    3  502    0  0.41925894245E+02  0.37994109526E+02  0.34051817195E+03  0.34521215331E+03  0.41800000000E+01 0.  1.
         -5    1    3    3    0  502 -0.27985623043E+02  0.48236934438E+01  0.11231462352E+02  0.30823388232E+02  0.41800000000E+01 0.  1.
        -11    1    1    2    0    0  0.39120963194E+01  0.25033891111E+02  0.67480670768E+02  0.72080795841E+02  0.00000000000E+00 0.  1.
         11    1    1    2    0    0 -0.17852367521E+02 -0.67851694081E+02  0.75443322690E+02  0.10302550342E+03  0.00000000000E+00 0. -1.
</event>
<event>
 7    1  0.1765795E-005  0.2597549E+03  0.7561462E-02  0.1107291E+00
          2   -1    0    0  501    0  0.00000000000E+00  0.00000000000E+00  0.11292236691E+04  0.11292236691E+04  0.00000000000E+00 0. -1.
         -2   -1    0    0    0  501 -0.00000000000E+00 -0.00000000000E+00 -0.63247743989E+02  0.63247743989E+02  0.00000000000E+00 0.  1.
         23    2    1    2    0    0 -0.33330319941E+01  0.24021934648E+03  0.45523480704E+03  0.52971933305E+03  0.12508956287E+03 0.  0.
          5    1    3    3  502    0 -0.58964630626E+02  0.17046090439E+03  0.32646617189E+03  0.37300319218E+03  0.41800000000E+01 0. -1.
         -5    1    3    3    0  502  0.55631598632E+02  0.69758442095E+02  0.12876863515E+03  0.15671614087E+03  0.41800000000E+01 0. -1.
        -11    1    1    2    0    0  0.34234154906E+02 -0.87616091831E+02  0.15681102348E+03  0.18286129715E+03  0.00000000000E+00 0.  1.
         11    1    1    2    0    0 -0.30901122912E+02 -0.15260325465E+03  0.45393009462E+03  0.47989078291E+03  0.00000000000E+00 0. -1.
</event>
<event>
 7    1  0.3161333E-005  0.3015546E+03  0.7561462E-02  0.1084466E+00
         -1   -1    0    0    0  501 -0.00000000000E+00  0.00000000000E+00  0.13395971984E+03  0.13395971984E+03  0.00000000000E+00 0.  1.
          1   -1    0    0  501    0  0.00000000000E+00 -0.00000000000E+00 -0.71860894196E+03  0.71860894196E+03  0.00000000000E+00 0. -1.
         23    2    1    2    0    0 -0.11051379353E+03  0.26006195547E+03 -0.20521690926E+03  0.37095478108E+03  0.12509176838E+03 0.  0.
          5    1    3    3  502    0 -0.90810236141E+00  0.16073453090E+03 -0.99362857041E+02  0.18901551215E+03  0.41800000000E+01 0. -1.
         -5    1    3    3    0  502 -0.10960569116E+03  0.99327424564E+02 -0.10585405222E+03  0.18193926893E+03  0.41800000000E+01 0. -1.
        -11    1    1    2    0    0  0.32960288439E+02 -0.17956176358E+03 -0.26356215435E+03  0.32061474819E+03  0.00000000000E+00 0. -1.
         11    1    1    2    0    0  0.77553505087E+02 -0.80500191885E+02 -0.11587015850E+03  0.16099913253E+03  0.00000000000E+00 0.  1.
</event>
<event>
 7    1  0.8661710E-006  0.9665696E+02  0.7561462E-02  0.1287487E+00
          1   -1    0    0  501    0  0.00000000000E+00  0.00000000000E+00  0.48018807359E+03  0.48018807359E+03  0.00000000000E+00 0. -1.
         -1   -1    0    0    0  501 -0.00000000000E+00 -0.00000000000E+00 -0.28394056392E+02  0.28394056392E+02  0.00000000000E+00 0.  1.
         23    2    1    2    0    0 -0.49974441284E+02 -0.70704137550E+01  0.25666217409E+03  0.28987759141E+03  0.12492442058E+03 0.  0.
          5    1    3    3  502    0 -0.78590187294E+02 -0.15481296964E+02  0.90165436612E+02  0.12067877383E+03  0.41800000000E+01 0.  1.
         -5    1    3    3    0  502  0.28615746010E+02  0.84108832091E+01  0.16649673748E+03  0.16919881757E+03  0.41800000000E+01 0.  1.
        -11    1    1    2    0    0  0.53692547335E+02  0.28808542841E+02  0.75325354231E+02  0.96885142153E+02  0.00000000000E+00 0.  1.
         11    1    1    2    0    0 -0.37181060509E+01 -0.21738129086E+02  0.11980648888E+03  0.12181939643E+03  0.00000000000E+00 0. -1.
</event>
<event>
 7    1  0.8661710E-006  0.8131207E+02  0.7561462E-02  0.1325369E+00
         -1   -1    0    0    0  501 -0.00000000000E+00  0.00000000000E+00  0.10442078763E+03  0.10442078763E+03  0.00000000000E+00 0.  1.
          1   -1    0    0  501    0  0.00000000000E+00 -0.00000000000E+00 -0.18941541732E+03  0.18941541732E+03  0.00000000000E+00 0. -1.
         23    2    1    2    0    0  0.45247933524E+02 -0.51562217661E+02  0.15170628399E+02  0.14347609263E+03  0.12509677618E+03 0.  0.
          5    1    3    3  502    0  0.40645987770E+01 -0.42091909403E+01  0.63656374189E+02  0.64061256829E+02  0.41800000000E+01 0.  1.
         -5    1    3    3    0  502  0.41183334747E+02 -0.47353026721E+02 -0.48485745790E+02  0.79414835801E+02  0.41800000000E+01 0.  1.
        -11    1    1    2    0    0 -0.54603134841E+02  0.17689985398E+02 -0.99904557944E+02  0.11521874247E+03  0.00000000000E+00 0. -1.
         11    1    1    2    0    0  0.93552013172E+01  0.33872232263E+02 -0.26070014628E+00  0.35141369847E+02  0.00000000000E+00 0.  1.
</event>
<event>
 7    1  0.8661710E-006  0.9929466E+02  0.7561462E-02  0.1281786E+00
         -1   -1    0    0    0  501 -0.00000000000E+00  0.00000000000E+00  0.34143576530E+02  0.34143576530E+02  0.00000000000E+00 0. -1.
          1   -1    0    0  501    0  0.00000000000E+00 -0.00000000000E+00 -0.40086382776E+03  0.40086382776E+03  0.00000000000E+00 0.  1.
         23    2    1    2    0    0  0.35773803710E+02  0.26264140021E+02 -0.20961776138E+03  0.24810596446E+03  0.12508954246E+03 0.  0.
          5    1    3    3  502    0 -0.33264802174E+02 -0.25116295639E+02 -0.10185403217E+03  0.11013215534E+03  0.41800000000E+01 0.  1.
         -5    1    3    3    0  502  0.69038605884E+02  0.51380435660E+02 -0.10776372921E+03  0.13797380913E+03  0.41800000000E+01 0.  1.
        -11    1    1    2    0    0 -0.16437373893E+02  0.16693792113E+02 -0.13093106701E+03  0.13301057952E+03  0.00000000000E+00 0.  1.
         11    1    1    2    0    0 -0.19336429817E+02 -0.42957932135E+02 -0.26171422840E+02  0.53890860309E+02  0.00000000000E+00 0. -1.
</event>
<event>
 7    1  0.8661710E-006  0.1145060E+03  0.7561462E-02  0.1252446E+00
          1   -1    0    0  501    0  0.00000000000E+00  0.00000000000E+00  0.57049581945E+03  0.57049581945E+03  0.00000000000E+00 0. -1.
         -1   -1    0    0    0  501 -0.00000000000E+00 -0.00000000000E+00 -0.25496995683E+02  0.25496995683E+02  0.00000000000E+00 0.  1.
         23    2    1    2    0    0 -0.44325107987E+02 -0.56628886895E+01  0.23208257088E+03  0.26740905944E+03  0.12509397211E+03 0.  0.
          5    1    3    3  502    0 -0.37092073680E+02 -0.62039117442E+02  0.15918648900E+03  0.17487848553E+03  0.41800000000E+01 0.  1.
         -5    1    3    3    0  502 -0.72330343065E+01  0.56376228753E+02  0.72896081879E+02  0.92530573904E+02  0.41800000000E+01 0.  1.
        -11    1    1    2    0    0  0.35269298772E+02 -0.39847960492E+02  0.14859249794E+03  0.15783381714E+03  0.00000000000E+00 0.  1.
         11    1    1    2    0    0  0.90558092150E+01  0.45510849182E+02  0.16432375496E+03  0.17074993855E+03  0.00000000000E+00 0. -1.
</event>
<event>
 7    1  0.8661710E-006  0.1161595E+03  0.7561462E-02  0.1249571E+00
         -1   -1    0    0    0  501 -0.00000000000E+00  0.00000000000E+00  0.12802043613E+03  0.12802043613E+03  0.00000000000E+00 0.  1.
          1   -1    0    0  501    0  0.00000000000E+00 -0.00000000000E+00 -0.11797724809E+03  0.11797724809E+03  0.00000000000E+00 0. -1.
         23    2    1    2    0    0 -0.66534503637E+01  0.46399896868E+02  0.42376017781E+02  0.14014750744E+03  0.12509347756E+03 0.  0.
          5    1    3    3  502    0 -0.64664952003E+02  0.14803983679E+02  0.12986616762E+02  0.67726202944E+02  0.41800000000E+01 0. -1.
         -5    1    3    3    0  502  0.58011501640E+02  0.31595913189E+02  0.29389401019E+02  0.72421304497E+02  0.41800000000E+01 0. -1.
        -11    1    1    2    0    0  0.24959076869E+02  0.19240663521E+02 -0.29899220130E+01  0.31655936008E+02  0.00000000000E+00 0. -1.
         11    1    1    2    0    0 -0.18305626505E+02 -0.65640560389E+02 -0.29342907729E+02  0.74194240773E+02  0.00000000000E+00 0.  1.
</event>
<event>
 7    1  0.8661710E-006  0.1723039E+03  0.7561462E-02  0.1175466E+00
          2   -1    0    0  501    0  0.00000000000E+00  0.00000000000E+00  0.50392763410E+03  0.50392763410E+03  0.00000000000E+00 0. -1.
         -2   -1    0    0    0  501 -0.00000000000E+00 -0.00000000000E+00 -0.70678579257E+02  0.70678579257E+02  0.00000000000E+00 0.  1.
         23    2    1    2    0    0  0.10257075724E+02 -0.15278212862E+03  0.24632460734E+03  0.31586367125E+03  0.12508581137E+03 0.  0.
          5    1    3    3  502    0  0.45692567242E+02 -0.68283972003E+02  0.19291439039E+03  0.20972349881E+03  0.41800000000E+01 0. -1.
         -5    1    3    3    0  502 -0.35435491517E+02 -0.84498156616E+02  0.53410216942E+02  0.10614017243E+03  0.41800000000E+01 0. -1.
        -11    1    1    2    0    0 -0.42019233740E+02  0.10645294295E+03  0.85698199242E+02  0.14297561477E+03  0.00000000000E+00 0. -1.
         11    1    1    2    0    0  0.31762158015E+02  0.46329185668E+02  0.10122624826E+03  0.11576692733E+03  0.00000000000E+00 0.  1.
</event>
<event>
 7    1  0.8661710E-006  0.1192138E+03  0.7561462E-02  0.1244400E+00
         -4   -1    0    0    0  501 -0.00000000000E+00  0.00000000000E+00  0.97674820911E+02  0.97674820911E+02  0.00000000000E+00 0. -1.
          4   -1    0    0  501    0  0.00000000000E+00 -0.00000000000E+00 -0.34499947473E+03  0.34499947473E+03  0.00000000000E+00 0.  1.
         23    2    1    2    0    0 -0.56307111942E+02 -0.58600902853E+02  0.17147200999E+02  0.15015189205E+03  0.12508799907E+03 0.  0.
          5    1    3    3  502    0  0.10127838084E+01  0.28897777250E+02  0.33220014948E+02  0.44239677374E+02  0.41800000000E+01 0.  1.
         -5    1    3    3    0  502 -0.57319895750E+02 -0.87498680103E+02 -0.16072813949E+02  0.10591221467E+03  0.41800000000E+01 0.  1.
        -11    1    1    2    0    0  0.14307820853E+02  0.60808075553E+02 -0.22942230456E+03  0.23777495583E+03  0.00000000000E+00 0.  1.
         11    1    1    2    0    0  0.41999291089E+02 -0.22071727002E+01 -0.35049550254E+02  0.54747447761E+02  0.00000000000E+00 0. -1.
</event>
<event>
 7    1  0.8661710E-006  0.1127440E+03  0.7561462E-02  0.1255571E+00
         -2   -1    0    0    0  501 -0.00000000000E+00  0.00000000000E+00  0.36505877781E+02  0.36505877781E+02  0.00000000000E+00 0.  1.
          2   -1    0    0  501    0  0.00000000000E+00 -0.00000000000E+00 -0.45713023427E+03  0.45713023427E+03  0.00000000000E+00 0. -1.
         23    2    1    2    0    0  0.46567151710E+02 -0.30299751610E+02 -0.13250339615E+03  0.18579750503E+03  0.11780062954E+03 0.  0.
          5    1    3    3  502    0  0.67403591779E+02 -0.57643298805E+02 -0.11934626486E+03  0.14875146190E+03  0.41800000000E+01 0. -1.
         -5    1    3    3    0  502 -0.20836440069E+02  0.27343547195E+02 -0.13157131290E+02  0.37046043132E+02  0.41800000000E+01 0.  1.
        -11    1    1    2    0    0 -0.63494560449E+01  0.54673673855E+02 -0.20578725342E+03  0.21302093764E+03  0.00000000000E+00 0. -1.
         11    1    1    2    0    0 -0.40217695665E+02 -0.24373922245E+02 -0.82333706917E+02  0.94817669371E+02  0.00000000000E+00 0.  1.
</event>
<event>
 7    1  0.8661710E-006  0.1169564E+03  0.7561462E-02  0.1248204E+00
          2   -1    0    0  501    0  0.00000000000E+00  0.00000000000E+00  0.26061534792E+03  0.26061534792E+03  0.00000000000E+00 0.  1.
         -2   -1    0    0    0  501 -0.00000000000E+00 -0.00000000000E+00 -0.68424195764E+02  0.68424195764E+02  0.00000000000E+00 0. -1.
         23    2    1    2    0    0  0.18363159842E+02  0.49320866803E+02  0.33649686264E+02  0.13982160473E+03  0.12509207098E+03 0.  0.
          5    1    3    3  502    0  0.70691748365E+02  0.42971553243E+02  0.20276633757E+02  0.85278906838E+02  0.41800000000E+01 0.  1.
         -5    1    3    3    0  502 -0.52328588523E+02  0.63493135596E+01  0.13373052508E+02  0.54542697888E+02  0.41800000000E+01 0.  1.
        -11    1    1    2    0    0  0.32419948037E+02 -0.29020715285E+02  0.41967807306E+02  0.60452889067E+02  0.00000000000E+00 0. -1.
         11    1    1    2    0    0 -0.50783107879E+02 -0.20300151518E+02  0.11657365859E+03  0.12876504989E+03  0.00000000000E+00 0.  1.
</event>
<event>
 7    1  0.8661710E-006  0.1796555E+03  0.7561462E-02  0.1168137E+00
          2   -1    0    0  501    0  0.00000000000E+00  0.00000000000E+00  0.32367351051E+03  0.32367351051E+03  0.00000000000E+00 0. -1.
         -2   -1    0    0    0  501 -0.00000000000E+00 -0.00000000000E+00 -0.12340201429E+03  0.12340201429E+03  0.00000000000E+00 0.  1.
         23    2    1    2    0    0 -0.11162708962E+03  0.11809949131E+03  0.15075593529E+03  0.25452409285E+03  0.12508822818E+03 0.  0.
          5    1    3    3  502    0 -0.82091699475E+02  0.12200454193E+03  0.16515315679E+03  0.22117231511E+03  0.41800000000E+01 0. -1.
         -5    1    3    3    0  502 -0.29535390143E+02 -0.39050506247E+01 -0.14397221497E+02  0.33351777735E+02  0.41800000000E+01 0. -1.
        -11    1    1    2    0    0  0.50118105032E+02 -0.10895704316E+03  0.13496029295E+02  0.12068804627E+03  0.00000000000E+00 0. -1.
         11    1    1    2    0    0  0.61508984585E+02 -0.91424481498E+01  0.36019531637E+02  0.71863385686E+02  0.00000000000E+00 0.  1.
</event>
<event>
 7    1  0.8661710E-006  0.2366467E+03  0.7561462E-02  0.1122047E+00
          1   -1    0    0  501    0  0.00000000000E+00  0.00000000000E+00  0.34138466041E+03  0.34138466041E+03  0.00000000000E+00 0. -1.
         -1   -1    0    0    0  501 -0.00000000000E+00 -0.00000000000E+00 -0.20751546626E+03  0.20751546626E+03  0.00000000000E+00 0.  1.
         23    2    1    2    0    0 -0.20285061312E+03  0.11713274265E+03  0.27880310266E+01  0.26556153330E+03  0.12508678670E+03 0.  0.
          5    1    3    3  502    0 -0.11443126646E+03  0.92013551798E+02  0.58364997088E+02  0.15806629540E+03  0.41800000000E+01 0.  1.
         -5    1    3    3    0  502 -0.88419346663E+02  0.25119190851E+02 -0.55576966061E+02  0.10749523789E+03  0.41800000000E+01 0.  1.
        -11    1    1    2    0    0  0.78369423044E+02 -0.40659149526E+02  0.10105412179E+03  0.13418967337E+03  0.00000000000E+00 0. -1.
         11    1    1    2    0    0  0.12448119008E+03 -0.76473593122E+02  0.30027041330E+02  0.14914892001E+03  0.00000000000E+00 0.  1.
</event>
<event>
 7    1  0.8661710E-006  0.1744383E+03  0.7561462E-02  0.1173297E+00
          1   -1    0    0  501    0  0.00000000000E+00  0.00000000000E+00  0.27905743926E+03  0.27905743926E+03  0.00000000000E+00 0. -1.
         -1   -1    0    0    0  501 -0.00000000000E+00 -0.00000000000E+00 -0.13269395401E+03  0.13269395401E+03  0.00000000000E+00 0.  1.
         23    2    1    2    0    0  0.98951152305E+02 -0.10950625867E+03  0.16676337514E+02  0.19418599630E+03  0.12508856740E+03 0.  0.
          5    1    3    3  502    0  0.10548413870E+03 -0.54326492721E+02 -0.28907455013E+02  0.12219404520E+03  0.41800000000E+01 0.  1.
         -5    1    3    3    0  502 -0.65329863910E+01 -0.55179765944E+02  0.45583792527E+02  0.71991951092E+02  0.41800000000E+01 0.  1.
        -11    1    1    2    0    0  0.18213711339E+02  0.10426034653E+02  0.11886808425E+02  0.24119239081E+02  0.00000000000E+00 0.  1.
         11    1    1    2    0    0 -0.11716486364E+03  0.99080224012E+02  0.11780033931E+03  0.19344615790E+03  0.00000000000E+00 0. -1.
</event>
<event>
 7    1  0.8661710E-006  0.1886561E+03  0.7561462E-02  0.1159679E+00
          1   -1    0    0  501    0  0.00000000000E+00  0.00000000000E+00  0.39731969442E+03  0.39731969442E+03  0.00000000000E+00 0. -1.
         -1   -1    0    0    0  501 -0.00000000000E+00 -0.00000000000E+00 -0.95958755871E+02  0.95958755871E+02  0.00000000000E+00 0.  1.
         23    2    1    2    0    0 -0.11463568158E+03 -0.11192541726E+03  0.13245669118E+03  0.24260999502E+03  0.12508475576E+03 0.  0.
          5    1    3    3  502    0  0.32735286198E+01 -0.71374399441E+02  0.19175831391E+02  0.74095922929E+02  0.41800000000E+01 0. -1.
         -5    1    3    3    0  502 -0.11790921020E+03 -0.40551017820E+02  0.11328085979E+03  0.16851407209E+03  0.41800000000E+01 0. -1.
        -11    1    1    2    0    0  0.17212872151E+02  0.74753445995E+02  0.45817379014E+02  0.89350953412E+02  0.00000000000E+00 0. -1.
         11    1    1    2    0    0  0.97422809433E+02  0.37171971266E+02  0.12308686835E+03  0.16131750186E+03  0.00000000000E+00 0.  1.
</event>
<event>
 6    1  0.8661710E-006  0.1183916E+03  0.7561462E-02  0.1245774E+00
         -2   -1    0    0    0  501 -0.00000000000E+00  0.00000000000E+00  0.21998959937E+02  0.21998959937E+02  0.00000000000E+00 0.  1.
          2   -1    0    0  501    0  0.00000000000E+00 -0.00000000000E+00 -0.10286862211E+04  0.10286862211E+04  0.00000000000E+00 0. -1.
          5    1    1    2  502    0 -0.56080090137E+02  0.29488908567E+02 -0.47222298321E+03  0.47647307427E+03  0.41800000000E+01 0. -1.
         -5    1    1    2    0  502  0.75546171631E+02 -0.27691795732E+02 -0.92802762310E+02  0.12289786284E+03  0.41800000000E+01 0.  1.
        -11    1    1    2    0    0  0.34859013460E+02 -0.13076766314E+02 -0.18905575832E+03  0.19268687654E+03  0.00000000000E+00 0.  1.
         11    1    1    2    0    0 -0.54325094955E+02  0.11279653479E+02 -0.25260575730E+03  0.25862736736E+03  0.00000000000E+00 0. -1.
</event>
<event>
 7    1  0.8661710E-006  0.1068846E+03  0.7561462E-02  0.1266450E+00
         -2   -1    0    0    0  501 -0.00000000000E+00  0.00000000000E+00  0.16894336893E+02  0.16894336893E+02  0.00000000000E+00 0.  1.
          2   -1    0    0  501    0  0.00000000000E+00 -0.00000000000E+00 -0.82151242487E+03  0.82151242487E+03  0.00000000000E+00 0. -1.
         23    2    1    2    0    0  0.51616980609E+01 -0.44057428798E+01 -0.28657656526E+03  0.31276008068E+03  0.12508671636E+03 0.  0.
          5    1    3    3  502    0  0.10356902736E+02 -0.63870667826E+02 -0.16417187694E+03  0.17651233731E+03  0.41800000000E+01 0. -1.
         -5    1    3    3    0  502 -0.51952046753E+01  0.59464924946E+02 -0.12240468832E+03  0.13624774337E+03  0.41800000000E+01 0. -1.
        -11    1    1    2    0    0  0.40523049320E+02 -0.89403554051E+01 -0.24057462133E+03  0.24412741737E+03  0.00000000000E+00 0.  1.
         11    1    1    2    0    0 -0.45684747380E+02  0.13346098285E+02 -0.27746690138E+03  0.28151926372E+03  0.00000000000E+00 0. -1.
</event>
<event>
 7    1  0.8661710E-006  0.1075184E+03  0.7561462E-02  0.1265236E+00
         -3   -1    0    0    0  501 -0.00000000000E+00  0.00000000000E+00  0.10391545387E+03  0.10391545387E+03  0.00000000000E+00 0.  1.
          3   -1    0    0  501    0  0.00000000000E+00 -0.00000000000E+00 -0.15301063262E+03  0.15301063262E+03  0.00000000000E+00 0. -1.
         23    2    1    2    0    0  0.45214629795E+02  0.40881294229E+02 -0.12630064697E+02  0.13972171977E+03  0.12508795896E+03 0.  0.
          5    1    3    3  502    0 -0.52164228481E+00 -0.41414703141E+02  0.99705855538E+01  0.42805779087E+02  0.41800000000E+01 0. -1.
         -5    1    3    3    0  502  0.45736272079E+02  0.82295997370E+02 -0.22600650251E+02  0.96915940683E+02  0.41800000000E+01 0. -1.
        -11    1    1    2    0    0 -0.33039011404E+02 -0.52697295862E+02  0.14179148284E+02  0.63793647895E+02  0.00000000000E+00 0.  1.
         11    1    1    2    0    0 -0.12175618390E+02  0.11816001633E+02 -0.50644262340E+02  0.53410718828E+02  0.00000000000E+00 0. -1.
</event>
<event>
 7    1  0.8661710E-006  0.8205985E+02  0.7561462E-02  0.1323305E+00
         -2   -1    0    0    0  501 -0.00000000000E+00  0.00000000000E+00  0.37988709415E+02  0.37988709415E+02  0.00000000000E+00 0.  1.
          2   -1    0    0  501    0  0.00000000000E+00 -0.00000000000E+00 -0.36572681006E+03  0.36572681006E+03  0.00000000000E+00 0. -1.
         23    2    1    2    0    0  0.42657657242E+02  0.19625180047E+02 -0.17925578385E+03  0.22357293549E+03  0.12508956002E+03 0.  0.
          5    1    3    3  502    0  0.31198848931E+02  0.34874203783E+02 -0.19367987245E+03  0.19929612053E+03  0.41800000000E+01 0. -1.
         -5    1    3    3    0  502  0.11458808311E+02 -0.15249023736E+02  0.14424088599E+02  0.24276814963E+02  0.41800000000E+01 0. -1.
        -11    1    1    2    0    0 -0.50448467621E+02 -0.47122761611E+02 -0.78425904327E+02  0.10448073993E+03  0.00000000000E+00 0.  1.
         11    1    1    2    0    0  0.77908103792E+01  0.27497581564E+02 -0.70056412464E+02  0.75661844054E+02  0.00000000000E+00 0. -1.
</event>
<event>
 7    1  0.8661710E-006  0.7839511E+02  0.7561462E-02  0.1333669E+00
          1   -1    0    0  501    0  0.00000000000E+00  0.00000000000E+00  0.21005289689E+03  0.21005289689E+03  0.00000000000E+00 0. -1.
         -1   -1    0    0    0  501 -0.00000000000E+00 -0.00000000000E+00 -0.79106161918E+02  0.79106161918E+02  0.00000000000E+00 0.  1.
         23    2    1    2    0    0 -0.13287199913E+01  0.51998052218E+02  0.21454362787E+02  0.13716228494E+03  0.12509052641E+03 0.  0.
          5    1    3    3  502    0  0.63653662243E+01  0.40008568029E+02  0.72961195257E+02  0.83558433544E+02  0.41800000000E+01 0. -1.
         -5    1    3    3    0  502 -0.76940862155E+01  0.11989484189E+02 -0.51506832471E+02  0.53603851400E+02  0.41800000000E+01 0. -1.
        -11    1    1    2    0    0 -0.14946905502E+02  0.21362618835E+02  0.11466258861E+02  0.28482390346E+02  0.00000000000E+00 0.  1.
         11    1    1    2    0    0  0.16275625493E+02 -0.73360671052E+02  0.98026113326E+02  0.12351438352E+03  0.00000000000E+00 0. -1.
</event>
<event>
 7    1  0.8661710E-006  0.1217791E+03  0.7561462E-02  0.1240191E+00
          2   -1    0    0  501    0  0.00000000000E+00  0.00000000000E+00  0.48219050834E+03  0.48219050834E+03  0.00000000000E+00 0.  1.
         -2   -1    0    0    0  501 -0.00000000000E+00 -0.00000000000E+00 -0.63147847316E+02  0.63147847316E+02  0.00000000000E+00 0. -1.
         23    2    1    2    0    0 -0.60958419601E+02  0.82541440840E+02  0.82618115906E+02  0.18166673843E+03  0.12509209568E+03 0.  0.
          5    1    3    3  502    0 -0.44811283779E+02  0.39201401808E+02 -0.24806184948E+02  0.64634512989E+02  0.41800000000E+01 0.  1.
         -5    1    3    3    0  502 -0.16147135821E+02  0.43340039032E+02  0.10742430085E+03  0.11703222544E+03  0.41800000000E+01 0.  1.
        -11    1    1    2    0    0 -0.23786989732E+02 -0.27608413468E+02  0.74052775735E+02  0.82533986750E+02  0.00000000000E+00 0.  1.
         11    1    1    2    0    0  0.84745409333E+02 -0.54933027373E+02  0.26237176939E+03  0.28113763048E+03  0.00000000000E+00 0. -1.
</event>
<event>
 7    1  0.8661710E-006  0.1149878E+03  0.7561462E-02  0.1251602E+00
         -1   -1    0    0    0  501 -0.00000000000E+00  0.00000000000E+00  0.60772521378E+02  0.60772521378E+02  0.00000000000E+00 0.  1.
          1   -1    0    0  501    0  0.00000000000E+00 -0.00000000000E+00 -0.28480817410E+03  0.28480817410E+03  0.00000000000E+00 0. -1.
         23    2    1    2    0    0 -0.52227820672E+02  0.49155842933E+02 -0.88032149317E+02  0.16894220771E+03  0.12509103920E+03 0.  0.
          5    1    3    3  502    0  0.31674935132E+02  0.20297404205E+02 -0.68092873553E+02  0.77906340960E+02  0.41800000000E+01 0.  1.
         -5    1    3    3    0  502 -0.83902755805E+02  0.28858438728E+02 -0.19939275764E+02  0.91035866753E+02  0.41800000000E+01 0.  1.
        -11    1    1    2    0    0  0.27456247540E+02 -0.67238971047E+02 -0.58405465458E+02  0.93199373130E+02  0.00000000000E+00 0.  1.
         11    1    1    2    0    0  0.24771573132E+02  0.18083128114E+02 -0.77598037947E+02  0.83439114635E+02  0.00000000000E+00 0. -1.
</event>
<event>
 7    1  0.8661710E-006  0.9687027E+02  0.7561462E-02  0.1287018E+00
         -2   -1    0    0    0  501 -0.00000000000E+00  0.00000000000E+00  0.90102208612E+02  0.90102208612E+02  0.00000000000E+00 0.  1.
          2   -1    0    0  501    0  0.00000000000E+00 -0.00000000000E+00 -0.18032985533E+03  0.18032985533E+03  0.00000000000E+00 0. -1.
         23    2    1    2    0    0 -0.33335885988E+02  0.25536162283E+02  0.62481740058E+01  0.13209711043E+03  0.12508888851E+03 0.  0.
          5    1    3    3  502    0 -0.43262316053E+02 -0.30037613211E+02 -0.33831474985E+02  0.62736969144E+02  0.41800000000E+01 0.  1.
         -5    1    3    3    0  502  0.99264300657E+01  0.55573775494E+02  0.40079648991E+02  0.69360141290E+02  0.41800000000E+01 0.  1.
        -11    1    1    2    0    0 -0.21375780629E+02 -0.20060057594E+02 -0.72779138895E+02  0.78461028329E+02  0.00000000000E+00 0. -1.
         11    1    1    2    0    0  0.54711666616E+02 -0.54761046895E+01 -0.23696681827E+02  0.59873925177E+02  0.00000000000E+00 0.  1.
</event>
<event>
 7    1  0.8661710E-006  0.4142691E+03  0.7561462E-02  0.1038948E+00
         -1   -1    0    0    0  501 -0.00000000000E+00  0.00000000000E+00  0.48756352497E+03  0.48756352497E+03  0.00000000000E+00 0.  1.
          1   -1    0    0  501    0  0.00000000000E+00 -0.00000000000E+00 -0.43964657207E+03  0.43964657207E+03  0.00000000000E+00 0. -1.
         23    2    1    2    0    0  0.23653869269E+03 -0.33485154014E+03  0.21007176152E+03  0.47733983851E+03  0.12508824632E+03 0.  0.
          5    1    3    3  502    0  0.21495477530E+03 -0.32787362579E+03  0.22283711854E+03  0.45097729844E+03  0.41800000000E+01 0.  1.
         -5    1    3    3    0  502  0.21583917389E+02 -0.69779143494E+01 -0.12765357026E+02  0.26362540062E+02  0.41800000000E+01 0.  1.
        -11    1    1    2    0    0 -0.12551403779E+03  0.13199325401E+03 -0.33367380443E+02  0.18517390439E+03  0.00000000000E+00 0.  1.
         11    1    1    2    0    0 -0.11102465490E+03  0.20285828612E+03 -0.12878742818E+03  0.26469635415E+03  0.00000000000E+00 0. -1.
</event>
<event>
 7    1  0.8661710E-006  0.2511556E+03  0.7561462E-02  0.1112577E+00
          1   -1    0    0  501    0  0.00000000000E+00  0.00000000000E+00  0.10366498442E+04  0.10366498442E+04  0.00000000000E+00 0. -1.
         -1   -1    0    0    0  501 -0.00000000000E+00 -0.00000000000E+00 -0.76960414013E+02  0.76960414013E+02  0.00000000000E+00 0.  1.
         23    2    1    2    0    0  0.16854458226E+03 -0.15401521540E+03  0.24097262806E+03  0.35474423362E+03  0.12509077116E+03 0.  0.
          5    1    3    3  502    0 -0.19643941876E+02 -0.90150975497E+01  0.28348854540E+02  0.35892706640E+02  0.41800000000E+01 0.  1.
         -5    1    3    3    0  502  0.18818852414E+03 -0.14500011785E+03  0.21262377352E+03  0.31885152698E+03  0.41800000000E+01 0.  1.
        -11    1    1    2    0    0 -0.12759930218E+03  0.61768546668E+02  0.38770583686E+03  0.41281079347E+03  0.00000000000E+00 0. -1.
         11    1    1    2    0    0 -0.40945280079E+02  0.92246668735E+02  0.33101096524E+03  0.34605523109E+03  0.00000000000E+00 0.  1.
</event>
<event>
 7    1  0.8661710E-006  0.1147646E+03  0.7561462E-02  0.1251993E+00
          2   -1    0    0  501    0  0.00000000000E+00  0.00000000000E+00  0.36876947171E+03  0.36876947171E+03  0.00000000000E+00 0. -1.
         -2   -1    0    0    0  501 -0.00000000000E+00 -0.00000000000E+00 -0.37821041700E+02  0.37821041700E+02  0.00000000000E+00 0.  1.
         23    2    1    2    0    0 -0.11679282635E+02 -0.39837194817E+02  0.15014509044E+03  0.19978388707E+03  0.12508655250E+03 0.  0.
          5    1    3    3  502    0 -0.53267997337E+02 -0.64106584817E+02  0.96143910622E+02  0.12731165582E+03  0.41800000000E+01 0. -1.
         -5    1    3    3    0  502  0.41588714702E+02  0.24269390000E+02  0.54001179820E+02  0.72472231258E+02  0.41800000000E+01 0. -1.
        -11    1    1    2    0    0 -0.19897216357E+02  0.57997433219E+02  0.89343933317E+02  0.10836023209E+03  0.00000000000E+00 0. -1.
         11    1    1    2    0    0  0.31576498992E+02 -0.18160238401E+02  0.91459406247E+02  0.98446394238E+02  0.00000000000E+00 0.  1.
</event>
<event>
 7    1  0.8661710E-006  0.1125377E+03  0.7561462E-02  0.1255941E+00
         -2   -1    0    0    0  501 -0.00000000000E+00  0.00000000000E+00  0.12087504186E+03  0.12087504186E+03  0.00000000000E+00 0.  1.
          2   -1    0    0  501    0  0.00000000000E+00 -0.00000000000E+00 -0.19956377067E+03  0.19956377067E+03  0.00000000000E+00 0. -1.
         23    2    1    2    0    0  0.62901214246E+02 -0.34546893354E+01  0.49021268076E+02  0.14838868153E+03  0.12509044108E+03 0.  0.
          5    1    3    3  502    0  0.85134812539E+02  0.72866006458E+01 -0.81868633390E+01  0.85939094633E+02  0.41800000000E+01 0.  1.
         -5    1    3    3    0  502 -0.22233598293E+02 -0.10741289981E+02  0.57208131415E+02  0.62449586896E+02  0.41800000000E+01 0.  1.
        -11    1    1    2    0    0 -0.60480862200E+02 -0.38996802955E+02 -0.70238000784E+02  0.10055874943E+03  0.00000000000E+00 0.  1.
         11    1    1    2    0    0 -0.24203520457E+01  0.42451492290E+02 -0.57471996105E+02  0.71491381564E+02  0.00000000000E+00 0. -1.
</event>
<event>
 7    1  0.8661710E-006  0.1528948E+03  0.7561462E-02  0.1196960E+00
         -1   -1    0    0    0  501 -0.00000000000E+00  0.00000000000E+00  0.19940127020E+03  0.19940127020E+03  0.00000000000E+00 0.  1.
          1   -1    0    0  501    0  0.00000000000E+00 -0.00000000000E+00 -0.13664681721E+03  0.13664681721E+03  0.00000000000E+00 0. -1.
         23    2    1    2    0    0 -0.47353484970E+02  0.10352846526E+03  0.84268468866E+02  0.18898450965E+03  0.12511384569E+03 0.  0.
          5    1    3    3  502    0 -0.36004928425E+02 -0.22188166892E+02  0.15946887928E+02  0.45392127682E+02  0.41800000000E+01 0. -1.
         -5    1    3    3    0  502 -0.11348556545E+02  0.12571663216E+03  0.68321580938E+02  0.14359238196E+03  0.41800000000E+01 0. -1.
        -11    1    1    2    0    0  0.40982433452E+02 -0.86294159816E+01  0.15981777863E+02  0.44826821162E+02  0.00000000000E+00 0.  1.
         11    1    1    2    0    0  0.63710515181E+01 -0.94899049283E+02 -0.37495793740E+02  0.10223675660E+03  0.00000000000E+00 0. -1.
</event>
<event>
 7    1  0.8661710E-006  0.1272045E+03  0.7561462E-02  0.1231664E+00
          2   -1    0    0  501    0  0.00000000000E+00  0.00000000000E+00  0.53463527497E+02  0.53463527497E+02  0.00000000000E+00 0.  1.
         -2   -1    0    0    0  501 -0.00000000000E+00 -0.00000000000E+00 -0.47994362650E+03  0.47994362650E+03  0.00000000000E+00 0. -1.
         23    2    1    2    0    0  0.49704675991E+02  0.10553322986E+03 -0.20295231164E+03  0.26541444989E+03  0.12508945596E+03 0.  0.
          5    1    3    3  502    0  0.60921206488E+02  0.94977969443E+02 -0.72935835743E+02  0.13442215820E+03  0.41800000000E+01 0.  1.
         -5    1    3    3    0  502 -0.11216530497E+02  0.10555260414E+02 -0.13001647590E+03  0.13099229170E+03  0.41800000000E+01 0.  1.
        -11    1    1    2    0    0 -0.50094984303E+02 -0.52735426767E+02 -0.19468566842E+03  0.20782935831E+03  0.00000000000E+00 0.  1.
         11    1    1    2    0    0  0.39030831244E+00 -0.52797803090E+02 -0.28842118948E+02  0.60163345794E+02  0.00000000000E+00 0. -1.
</event>
<event>
 7    1  0.8661710E-006  0.1017984E+03  0.7561462E-02  0.1276559E+00
          2   -1    0    0  501    0  0.00000000000E+00  0.00000000000E+00  0.17141499104E+03  0.17141499104E+03  0.00000000000E+00 0. -1.
         -2   -1    0    0    0  501 -0.00000000000E+00 -0.00000000000E+00 -0.73143685632E+02  0.73143685632E+02  0.00000000000E+00 0.  1.
         23    2    1    2    0    0  0.27215605343E+02  0.74225593123E+01  0.47487588980E+02  0.13674228550E+03  0.12509035924E+03 0.  0.
          5    1    3    3  502    0 -0.47756791091E+02  0.19064786569E+02  0.26023202251E+02  0.57782840339E+02  0.41800000000E+01 0. -1.
         -5    1    3    3    0  502  0.74972396433E+02 -0.11642227257E+02  0.21464386728E+02  0.78959445161E+02  0.41800000000E+01 0. -1.
        -11    1    1    2    0    0 -0.20016554588E+02  0.31015251770E+02 -0.74622615444E+01  0.37660239608E+02  0.00000000000E+00 0.  1.
         11    1    1    2    0    0 -0.71990507545E+01 -0.38437811082E+02  0.58245977973E+02  0.70156151566E+02  0.00000000000E+00 0. -1.
</event>
<event>
 7    1  0.8661710E-006  0.1174106E+03  0.7561462E-02  0.1247431E+00
         -2   -1    0    0    0  501 -0.00000000000E+00  0.00000000000E+00  0.22300830645E+02  0.22300830645E+02  0.00000000000E+00 0.  1.
          2   -1    0    0  501    0  0.00000000000E+00 -0.00000000000E+00 -0.96131337846E+03  0.96131337846E+03  0.00000000000E+00 0. -1.
         23    2    1    2    0    0  0.60717757336E+01  0.99373962858E+02 -0.51386774762E+03  0.53816360995E+03  0.12509179856E+03 0.  0.
          5    1    3    3  502    0  0.88746646214E+01  0.19434496357E+02 -0.39029941013E+03  0.39090607729E+03  0.41800000000E+01 0. -1.
         -5    1    3    3    0  502 -0.28028888877E+01  0.79939466501E+02 -0.12356833750E+03  0.14725753265E+03  0.41800000000E+01 0. -1.
        -11    1    1    2    0    0 -0.46941910140E+02 -0.60225260033E+02 -0.24213533554E+03  0.25389002657E+03  0.00000000000E+00 0.  1.
         11    1    1    2    0    0  0.40870134406E+02 -0.39148702825E+02 -0.18300946465E+03  0.19156057259E+03  0.00000000000E+00 0. -1.
</event>
<event>
 7    1  0.8661710E-006  0.1191220E+03  0.7561462E-02  0.1244552E+00
          2   -1    0    0  501    0  0.00000000000E+00  0.00000000000E+00  0.20928049786E+03  0.20928049786E+03  0.00000000000E+00 0.  1.
         -2   -1    0    0    0  501 -0.00000000000E+00 -0.00000000000E+00 -0.83667374792E+02  0.83667374792E+02  0.00000000000E+00 0. -1.
         23    2    1    2    0    0 -0.15980295958E+02  0.65210797059E+02  0.36784160656E+02  0.14665438263E+03  0.12508643234E+03 0.  0.
          5    1    3    3  502    0  0.81993942644E+01 -0.36303693180E+02  0.76022741273E+01  0.38215902145E+02  0.41800000000E+01 0. -1.
         -5    1    3    3    0  502 -0.24179690222E+02  0.10151449024E+03  0.29181886529E+02  0.10843848048E+03  0.41800000000E+01 0. -1.
        -11    1    1    2    0    0 -0.27405584420E+02 -0.28247819854E+02  0.79267613579E+02  0.88500621164E+02  0.00000000000E+00 0.  1.
         11    1    1    2    0    0  0.43385880379E+02 -0.36962977205E+02  0.95613488348E+01  0.57792868865E+02  0.00000000000E+00 0. -1.
</event>
<event>
 7    1  0.8661710E-006  0.9736981E+02  0.7561462E-02  0.1285926E+00
         -2   -1    0    0    0  501 -0.00000000000E+00  0.00000000000E+00  0.74022094717E+02  0.74022094717E+02  0.00000000000E+00 0.  1.
          2   -1    0    0  501    0  0.00000000000E+00 -0.00000000000E+00 -0.18404927223E+03  0.18404927223E+03  0.00000000000E+00 0. -1.
         23    2    1    2    0    0 -0.37642949688E+02 -0.12066290795E+02 -0.34128698074E+02  0.13555408423E+03  0.12509018620E+03 0.  0.
          5    1    3    3  502    0 -0.83425791514E+02 -0.65685804060E+01 -0.13512814149E+02  0.84870946056E+02  0.41800000000E+01 0. -1.
         -5    1    3    3    0  502  0.45782841825E+02 -0.54977103886E+01 -0.20615883925E+02  0.50683138174E+02  0.41800000000E+01 0. -1.
        -11    1    1    2    0    0  0.42692642148E+02  0.25892644689E+02 -0.89493426066E+02  0.10248006661E+03  0.00000000000E+00 0. -1.
         11    1    1    2    0    0 -0.50496924594E+01 -0.13826353894E+02  0.13594946624E+02  0.20037216115E+02  0.00000000000E+00 0.  1.
</event>
<event>
 7    1  0.8661710E-006  0.8275716E+02  0.7561462E-02  0.1321404E+00
          1   -1    0    0  501    0  0.00000000000E+00  0.00000000000E+00  0.52746330324E+02  0.52746330324E+02  0.00000000000E+00 0. -1.
         -1   -1    0    0    0  501 -0.00000000000E+00 -0.00000000000E+00 -0.28908376502E+03  0.28908376502E+03  0.00000000000E+00 0.  1.
         23    2    1    2    0    0  0.16303557911E+02 -0.10613671906E+02 -0.22244764492E+03  0.25595219374E+03  0.12510041855E+03 0.  0.
          5    1    3    3  502    0 -0.15257330432E+02  0.33510284898E+02 -0.12561091650E+02  0.39127723538E+02  0.41800000000E+01 0. -1.
         -5    1    3    3    0  502  0.31560888343E+02 -0.44123956804E+02 -0.20988655327E+03  0.21682447021E+03  0.41800000000E+01 0. -1.
        -11    1    1    2    0    0 -0.22281805754E+02  0.39066006629E+02 -0.28597466810E+02  0.53295842705E+02  0.00000000000E+00 0.  1.
         11    1    1    2    0    0  0.59782478437E+01 -0.28452334723E+02  0.14707677029E+02  0.32582058899E+02  0.00000000000E+00 0. -1.
</event>
<event>
 7    1  0.8661710E-006  0.8689083E+02  0.7561462E-02  0.1310561E+00
          2   -1    0    0  501    0  0.00000000000E+00  0.00000000000E+00  0.33361589689E+03  0.33361589689E+03  0.00000000000E+00 0. -1.
         -2   -1    0    0    0  501 -0.00000000000E+00 -0.00000000000E+00 -0.41572384885E+02  0.41572384885E+02  0.00000000000E+00 0.  1.
         23    2    1    2    0    0 -0.50032540166E+01  0.18455625657E+02  0.10373263390E+03  0.16579382417E+03  0.12791204059E+03 0.  0.
          5    1    3    3  502    0  0.39143836996E+02  0.13465162362E+02  0.11282556899E+03  0.12025236792E+03  0.41800000000E+01 0. -1.
         -5    1    3    3    0  502 -0.44147091013E+02  0.49904632953E+01 -0.90929350917E+01  0.45541456250E+02  0.41800000000E+01 0.  1.
        -11    1    1    2    0    0  0.35540663765E+01  0.34446647594E+02  0.46115507770E+02  0.57670122032E+02  0.00000000000E+00 0. -1.
         11    1    1    2    0    0  0.14491876402E+01 -0.52902273251E+02  0.14219537034E+03  0.15172433557E+03  0.00000000000E+00 0.  1.
</event>
<event>
 7    1  0.8661710E-006  0.2809738E+03  0.7561462E-02  0.1095158E+00
          2   -1    0    0  501    0  0.00000000000E+00  0.00000000000E+00  0.30577422341E+03  0.30577422341E+03  0.00000000000E+00 0. -1.
         -2   -1    0    0    0  501 -0.00000000000E+00 -0.00000000000E+00 -0.28660732716E+03  0.28660732716E+03  0.00000000000E+00 0.  1.
         23    2    1    2    0    0 -0.25113650624E+03 -0.10014547375E+03  0.60879896366E+02  0.30406246474E+03  0.12509580330E+03 0.  0.
          5    1    3    3  502    0 -0.16726994072E+03 -0.14485200961E+02 -0.33785387151E+01  0.16798196641E+03  0.41800000000E+01 0.  1.
         -5    1    3    3    0  502 -0.83866565523E+02 -0.85660272792E+02  0.64258435081E+02  0.13608049833E+03  0.41800000000E+01 0.  1.
        -11    1    1    2    0    0  0.18888245098E+03  0.53675035220E+02 -0.65624593830E+02  0.20703665619E+03  0.00000000000E+00 0.  1.
         11    1    1    2    0    0  0.62254055263E+02  0.46470438532E+02  0.23911593708E+02  0.81282429637E+02  0.00000000000E+00 0. -1.
</event>
<event>
 7    1  0.8661710E-006  0.3618596E+03  0.7561462E-02  0.1057850E+00
          1   -1    0    0  501    0  0.00000000000E+00  0.00000000000E+00  0.22712348549E+04  0.22712348549E+04  0.00000000000E+00 0. -1.
         -1   -1    0    0    0  501 -0.00000000000E+00 -0.00000000000E+00 -0.62987020824E+02  0.62987020824E+02  0.00000000000E+00 0.  1.
         23    2    1    2    0    0  0.35976321247E+03  0.22012752231E+02  0.10110818542E+04  0.10806695260E+04  0.12508388439E+03 0.  0.
          5    1    3    3  502    0  0.97349988930E+02 -0.13470946635E+02  0.14669602282E+03  0.17662299470E+03  0.41800000000E+01 0.  1.
         -5    1    3    3    0  502  0.26241322354E+03  0.35483698866E+02  0.86438583143E+03  0.90404653130E+03  0.41800000000E+01 0.  1.
        -11    1    1    2    0    0 -0.20155086829E+03 -0.16162924391E+02  0.51536448941E+03  0.55361046737E+03  0.00000000000E+00 0.  1.
         11    1    1    2    0    0 -0.15821234419E+03 -0.58498278398E+01  0.68180149046E+03  0.69994188240E+03  0.00000000000E+00 0. -1.
</event>
<event>
 7    1  0.8661710E-006  0.1169093E+03  0.7561462E-02  0.1248285E+00
          1   -1    0    0  501    0  0.00000000000E+00  0.00000000000E+00  0.27149638329E+02  0.27149638329E+02  0.00000000000E+00 0. -1.
         -1   -1    0    0    0  501 -0.00000000000E+00 -0.00000000000E+00 -0.59786852258E+03  0.59786852258E+03  0.00000000000E+00 0.  1.
         23    2    1    2    0    0  0.34978346123E+02  0.55103850345E+02 -0.37025549057E+03  0.39622719536E+03  0.12508774130E+03 0.  0.
          5    1    3    3  502    0 -0.14953469126E+02  0.74362242161E+02 -0.28918032856E+03  0.29899177935E+03  0.41800000000E+01 0.  1.
         -5    1    3    3    0  502  0.49931815249E+02 -0.19258391816E+02 -0.81075162019E+02  0.97235416006E+02  0.41800000000E+01 0.  1.
        -11    1    1    2    0    0  0.47468506293E+00 -0.66829313090E+02 -0.16170317143E+03  0.17496942037E+03  0.00000000000E+00 0.  1.
         11    1    1    2    0    0 -0.35453031186E+02  0.11725462745E+02 -0.38760222250E+02  0.53821545181E+02  0.00000000000E+00 0. -1.
</event>
<event>
 7    1  0.8661710E-006  0.1223670E+03  0.7561462E-02  0.1239243E+00
          2   -1    0    0  501    0  0.00000000000E+00  0.00000000000E+00  0.16852909299E+03  0.16852909299E+03  0.00000000000E+00 0. -1.
         -2   -1    0    0    0  501 -0.00000000000E+00 -0.00000000000E+00 -0.15255503444E+03  0.15255503444E+03  0.00000000000E+00 0.  1.
         23    2    1    2    0    0 -0.78809850999E+02 -0.41991595238E+02 -0.68204262284E+02  0.16814724158E+03  0.12508951503E+03 0.  0.
          5    1    3    3  502    0 -0.10225921421E+03 -0.42674270232E+02 -0.17680102977E+02  0.11228579016E+03  0.41800000000E+01 0.  1.
         -5    1    3    3    0  502  0.23449363215E+02  0.68267499416E+00 -0.50524159307E+02  0.55861451413E+02  0.41800000000E+01 0.  1.
        -11    1    1    2    0    0 -0.10523517631E+02  0.11591125884E+02 -0.10824446209E+02  0.19033319687E+02  0.00000000000E+00 0.  1.
         11    1    1    2    0    0  0.89333368630E+02  0.30400469354E+02  0.95002767038E+02  0.13390356617E+03  0.00000000000E+00 0. -1.
</event>
<event>
 7    1  0.8661710E-006  0.1829759E+03  0.7561462E-02  0.1164954E+00
          2   -1    0    0  501    0  0.00000000000E+00  0.00000000000E+00  0.61165153893E+03  0.61165153893E+03  0.00000000000E+00 0. -1.
         -2   -1    0    0    0  501 -0.00000000000E+00 -0.00000000000E+00 -0.87346013584E+02  0.87346013584E+02  0.00000000000E+00 0.  1.
         23    2    1    2    0    0  0.62217675024E+02 -0.16356445012E+03  0.11253038073E+03  0.24276325499E+03  0.12508614214E+03 0.  0.
          5    1    3    3  502    0  0.16882170922E+02 -0.38911549696E+01 -0.22533314162E+02  0.28729278257E+02  0.41800000000E+01 0. -1.
         -5    1    3    3    0  502  0.45335504102E+02 -0.15967329515E+03  0.13506369489E+03  0.21403397673E+03  0.41800000000E+01 0. -1.
        -11    1    1    2    0    0 -0.50939526978E+02  0.63557147157E+02  0.27242958536E+03  0.28434525729E+03  0.00000000000E+00 0. -1.
         11    1    1    2    0    0 -0.11278148046E+02  0.10000730297E+03  0.13934555926E+03  0.17188904024E+03  0.00000000000E+00 0.  1.
</event>
<event>
 7    1  0.8661710E-006  0.1719279E+03  0.7561462E-02  0.1175852E+00
         -2   -1    0    0    0  501 -0.00000000000E+00  0.00000000000E+00  0.14226145067E+03  0.14226145067E+03  0.00000000000E+00 0.  1.
          2   -1    0    0  501    0  0.00000000000E+00 -0.00000000000E+00 -0.24798368925E+03  0.24798368925E+03  0.00000000000E+00 0. -1.
         23    2    1    2    0    0  0.13928959451E+03  0.58786171674E+02 -0.29161125343E+02  0.19837705591E+03  0.12508269250E+03 0.  0.
          5    1    3    3  502    0 -0.62260595453E+01  0.35147481583E+02  0.22158735261E+02  0.42220744042E+02  0.41800000000E+01 0.  1.
         -5    1    3    3    0  502  0.14551565406E+03  0.23638690091E+02 -0.51319860603E+02  0.15615631187E+03  0.41800000000E+01 0.  1.
        -11    1    1    2    0    0 -0.51624087986E+02 -0.50765904508E+02 -0.74392489467E+02  0.10380975874E+03  0.00000000000E+00 0. -1.
         11    1    1    2    0    0 -0.87665506525E+02 -0.80202671660E+01 -0.21686237646E+01  0.88058325266E+02  0.00000000000E+00 0.  1.
</event>
<event>
 7    1  0.8661710E-006  0.1154424E+03  0.7561462E-02  0.1250811E+00
          2   -1    0    0  501    0  0.00000000000E+00  0.00000000000E+00  0.40551834970E+03  0.40551834970E+03  0.00000000000E+00 0. -1.
         -2   -1    0    0    0  501 -0.00000000000E+00 -0.00000000000E+00 -0.61863529682E+02  0.61863529682E+02  0.00000000000E+00 0.  1.
         23    2    1    2    0    0  0.38904084605E+02  0.71316791295E+01  0.59360298527E+02  0.14399769367E+03  0.12508917657E+03 0.  0.
          5    1    3    3  502    0  0.60682621132E+02  0.14982396733E+02  0.87314382145E+02  0.10746220940E+03  0.41800000000E+01 0. -1.
         -5    1    3    3    0  502 -0.21778536527E+02 -0.78507176037E+01 -0.27954083618E+02  0.36535484273E+02  0.41800000000E+01 0. -1.
        -11    1    1    2    0    0 -0.58600169539E+02 -0.62663492897E+02  0.11064598032E+03  0.14001152157E+03  0.00000000000E+00 0.  1.
         11    1    1    2    0    0  0.19696084935E+02  0.55531813768E+02  0.17364854117E+03  0.18337266414E+03  0.00000000000E+00 0. -1.
</event>
<event>
 7    1  0.8661710E-006  0.8500318E+02  0.7561462E-02  0.1315424E+00
          1   -1    0    0  501    0  0.00000000000E+00  0.00000000000E+00  0.30238221957E+03  0.30238221957E+03  0.00000000000E+00 0. -1.
         -1   -1    0    0    0  501 -0.00000000000E+00 -0.00000000000E+00 -0.93990028116E+02  0.93990028116E+02  0.00000000000E+00 0.  1.
         23    2    1    2    0    0 -0.28425388602E+02  0.63758559235E+00 -0.33308936478E+02  0.13253506354E+03  0.12509056153E+03 0.  0.
          5    1    3    3  502    0  0.11374903475E+02 -0.24365761669E+02  0.38174519967E+02  0.46881181144E+02  0.41800000000E+01 0. -1.
         -5    1    3    3    0  502 -0.39800292077E+02  0.25003347261E+02 -0.71483456445E+02  0.85653882393E+02  0.41800000000E+01 0. -1.
        -11    1    1    2    0    0  0.55483977401E+02  0.22627093311E+02  0.90909447165E+02  0.10888059829E+03  0.00000000000E+00 0.  1.
         11    1    1    2    0    0 -0.27058588799E+02 -0.23264678903E+02  0.15079168077E+03  0.15495658586E+03  0.00000000000E+00 0. -1.
</event>
<event>
 7    1  0.8661710E-006  0.1840527E+03  0.7561462E-02  0.1163938E+00
          3   -1    0    0  501    0  0.00000000000E+00  0.00000000000E+00  0.45250525818E+02  0.45250525818E+02  0.00000000000E+00 0. -1.
         -3   -1    0    0    0  501 -0.00000000000E+00 -0.00000000000E+00 -0.76613398570E+03  0.76613398570E+03  0.00000000000E+00 0.  1.
         23    2    1    2    0    0  0.14195989103E+03 -0.52716397572E+02 -0.34039942247E+03  0.39300394231E+03  0.12509477455E+03 0.  0.
          5    1    3    3  502    0  0.13975067781E+03 -0.84196162670E+02 -0.26596361299E+03  0.31204705029E+03  0.41800000000E+01 0.  1.
         -5    1    3    3    0  502  0.22092132197E+01  0.31479765098E+02 -0.74435809479E+02  0.80956892026E+02  0.41800000000E+01 0.  1.
        -11    1    1    2    0    0 -0.10843927153E+03 -0.25023374499E+01 -0.21705257358E+03  0.24264615596E+03  0.00000000000E+00 0.  1.
         11    1    1    2    0    0 -0.33520619498E+02  0.55218735022E+02 -0.16343146383E+03  0.17573441324E+03  0.00000000000E+00 0. -1.
</event>
<event>
 7    1  0.8661710E-006  0.7212001E+02  0.7561462E-02  0.1353029E+00
         -3   -1    0    0    0  501 -0.00000000000E+00  0.00000000000E+00  0.75980956969E+03  0.75980956969E+03  0.00000000000E+00 0.  1.
          3   -1    0    0  501    0  0.00000000000E+00 -0.00000000000E+00 -0.21374856104E+02  0.21374856104E+02  0.00000000000E+00 0. -1.
         23    2    1    2    0    0 -0.12289432250E+02  0.54857794936E+02  0.53141849502E+03  0.54882829179E+03  0.12508584736E+03 0.  0.
          5    1    3    3  502    0 -0.12948925995E+02  0.27651794001E+02  0.51668048290E+03  0.51759877338E+03  0.41800000000E+01 0. -1.
         -5    1    3    3    0  502  0.65949374493E+00  0.27206000934E+02  0.14738012119E+02  0.31229518409E+02  0.41800000000E+01 0. -1.
        -11    1    1    2    0    0 -0.22636819526E+02 -0.43714268471E+02  0.46536726074E+02  0.67742377725E+02  0.00000000000E+00 0. -1.
         11    1    1    2    0    0  0.34926251776E+02 -0.11143526465E+02  0.16047949249E+03  0.16461375627E+03  0.00000000000E+00 0.  1.
</event>
<event>
 7    1  0.8661710E-006  0.9153844E+02  0.7561462E-02  0.1299168E+00
          2   -1    0    0  501    0  0.00000000000E+00  0.00000000000E+00  0.16630823391E+03  0.16630823391E+03  0.00000000000E+00 0. -1.
         -2   -1    0    0    0  501 -0.00000000000E+00 -0.00000000000E+00 -0.71855115662E+02  0.71855115662E+02  0.00000000000E+00 0.  1.
         23    2    1    2    0    0  0.11521784252E+02  0.24153310306E+01  0.61388885799E+02  0.13983118225E+03  0.12508228849E+03 0.  0.
          5    1    3    3  502    0  0.60597208728E+02 -0.26264593421E+02  0.19152211839E+02  0.68892163498E+02  0.41800000000E+01 0.  1.
         -5    1    3    3    0  502 -0.49075424475E+02  0.28679924452E+02  0.42236673960E+02  0.70939018750E+02  0.41800000000E+01 0.  1.
        -11    1    1    2    0    0 -0.35647375751E+02  0.11632317105E+00 -0.19361475492E+02  0.40566188658E+02  0.00000000000E+00 0.  1.
         11    1    1    2    0    0  0.24125591498E+02 -0.25316542016E+01  0.52425707944E+02  0.57765978669E+02  0.00000000000E+00 0. -1.
</event>
<event>
 7    1  0.8661710E-006  0.9792492E+02  0.7561462E-02  0.1284721E+00
          1   -1    0    0  501    0  0.00000000000E+00  0.00000000000E+00  0.18215710254E+02  0.18215710254E+02  0.00000000000E+00 0. -1.
         -1   -1    0    0    0  501 -0.00000000000E+00 -0.00000000000E+00 -0.86797111374E+03  0.86797111374E+03  0.00000000000E+00 0.  1.
         23    2    1    2    0    0 -0.31587126001E+01 -0.98637709839E+01 -0.69601817529E+03  0.70724166399E+03  0.12506877911E+03 0.  0.
          5    1    3    3  502    0  0.41704872690E+02  0.39780509653E+02 -0.28615041970E+03  0.29192690943E+03  0.41800000000E+01 0.  1.
         -5    1    3    3    0  502 -0.44863585290E+02 -0.49644280637E+02 -0.40986775559E+03  0.41531475456E+03  0.41800000000E+01 0.  1.
        -11    1    1    2    0    0  0.19856646456E+02  0.35353631352E+02 -0.27286215241E+02  0.48874361381E+02  0.00000000000E+00 0. -1.
         11    1    1    2    0    0 -0.16697933856E+02 -0.25489860368E+02 -0.12645101295E+03  0.13007079862E+03  0.00000000000E+00 0.  1.
</event>
<event>
 7    1  0.8661710E-006  0.8631557E+02  0.7561462E-02  0.1312028E+00
         -2   -1    0    0    0  501 -0.00000000000E+00  0.00000000000E+00  0.86815460043E+03  0.86815460043E+03  0.00000000000E+00 0.  1.
          2   -1    0    0  501    0  0.00000000000E+00 -0.00000000000E+00 -0.27857596235E+02  0.27857596235E+02  0.00000000000E+00 0. -1.
         23    2    1    2    0    0 -0.26610673523E+02  0.55323195538E+02  0.47575279388E+03  0.49412565703E+03  0.11853548048E+03 0.  0.
          5    1    3    3  502    0 -0.22906920357E+02  0.55567283808E+02  0.89836857515E+02  0.10816923499E+03  0.41800000000E+01 0. -1.
         -5    1    3    3    0  502 -0.37037531666E+01 -0.24408827053E+00  0.38591593637E+03  0.38595642204E+03  0.41800000000E+01 0.  1.
        -11    1    1    2    0    0  0.33129865882E+02 -0.77176643530E+02  0.36918184317E+03  0.37861465324E+03  0.00000000000E+00 0.  1.
         11    1    1    2    0    0 -0.65191923585E+01  0.21853447993E+02 -0.46376328587E+01  0.23271886402E+02  0.00000000000E+00 0. -1.
</event>
<event>
 7    1  0.8661710E-006  0.8564464E+02  0.7561462E-02  0.1313755E+00
          1   -1    0    0  501    0  0.00000000000E+00  0.00000000000E+00  0.55940357395E+02  0.55940357395E+02  0.00000000000E+00 0. -1.
         -1   -1    0    0    0  501 -0.00000000000E+00 -0.00000000000E+00 -0.25453805727E+03  0.25453805727E+03  0.00000000000E+00 0.  1.
         23    2    1    2    0    0  0.19421917275E+02 -0.16226997722E+02 -0.16620494449E+03  0.20955212273E+03  0.12508989665E+03 0.  0.
          5    1    3    3  502    0 -0.18914677065E+02 -0.41942411643E+02 -0.15517507766E+03  0.16190647927E+03  0.41800000000E+01 0.  1.
         -5    1    3    3    0  502  0.38336594340E+02  0.25715413921E+02 -0.11029866829E+02  0.47645643462E+02  0.41800000000E+01 0.  1.
        -11    1    1    2    0    0  0.12292520049E+02 -0.24326766530E+02 -0.40492073525E+02  0.48810917194E+02  0.00000000000E+00 0.  1.
         11    1    1    2    0    0 -0.31714437324E+02  0.40553764253E+02  0.80993181386E+01  0.52115374738E+02  0.00000000000E+00 0. -1.
</event>
<event>
 7    1  0.8661710E-006  0.2349143E+03  0.7561462E-02  0.1123228E+00
         -2   -1    0    0    0  501 -0.00000000000E+00  0.00000000000E+00  0.80650518145E+02  0.80650518145E+02  0.00000000000E+00 0.  1.
          2   -1    0    0  501    0  0.00000000000E+00 -0.00000000000E+00 -0.69310899307E+03  0.69310899307E+03  0.00000000000E+00 0. -1.
         23    2    1    2    0    0 -0.65630628295E+02  0.19859135635E+03 -0.33978933230E+03  0.41814786353E+03  0.12507973153E+03 0.  0.
          5    1    3    3  502    0 -0.98997207543E+02  0.17942519182E+03 -0.28818158442E+03  0.35363815485E+03  0.41800000000E+01 0. -1.
         -5    1    3    3    0  502  0.33366579247E+02  0.19166164528E+02 -0.51607747874E+02  0.64509708680E+02  0.41800000000E+01 0. -1.
        -11    1    1    2    0    0  0.59970177218E+02 -0.51767051354E+02 -0.73169844530E+02  0.10784282966E+03  0.00000000000E+00 0.  1.
         11    1    1    2    0    0  0.56604510777E+01 -0.14682430500E+03 -0.19949929810E+03  0.24776881803E+03  0.00000000000E+00 0. -1.
</event>
<event>
 7    1  0.8661710E-006  0.1310887E+03  0.7561462E-02  0.1225849E+00
          1   -1    0    0  501    0  0.00000000000E+00  0.00000000000E+00  0.11210314187E+04  0.11210314187E+04  0.00000000000E+00 0. -1.
         -1   -1    0    0    0  501 -0.00000000000E+00 -0.00000000000E+00 -0.17727400081E+02  0.17727400081E+02  0.00000000000E+00 0.  1.
         23    2    1    2    0    0 -0.85417464536E+02 -0.17968483635E+02  0.54740748183E+03  0.56825806766E+03  0.12507306121E+03 0.  0.
          5    1    3    3  502    0 -0.96812582663E+02 -0.45474052411E+02  0.29043313932E+03  0.30953101043E+03  0.41800000000E+01 0.  1.
         -5    1    3    3    0  502  0.11395118128E+02  0.27505568776E+02  0.25697434251E+03  0.25872705722E+03  0.41800000000E+01 0.  1.
        -11    1    1    2    0    0  0.21671994542E+02 -0.35685388326E+02  0.24988868753E+03  0.25335247866E+03  0.00000000000E+00 0. -1.
         11    1    1    2    0    0  0.63745469994E+02  0.53653871962E+02  0.30600784931E+03  0.31714827251E+03  0.00000000000E+00 0.  1.
</event>
<event>
 7    1  0.8661710E-006  0.1625012E+03  0.7561462E-02  0.1185901E+00
         -2   -1    0    0    0  501 -0.00000000000E+00  0.00000000000E+00  0.31652830302E+02  0.31652830302E+02  0.00000000000E+00 0.  1.
          2   -1    0    0  501    0  0.00000000000E+00 -0.00000000000E+00 -0.10329477135E+04  0.10329477135E+04  0.00000000000E+00 0. -1.
         23    2    1    2    0    0 -0.80557850396E+01 -0.12655588217E+03 -0.32971767263E+03  0.37475592784E+03  0.12508786843E+03 0.  0.
          5    1    3    3  502    0 -0.60875393016E+02 -0.63263963181E+02 -0.11517417138E+03  0.14488169196E+03  0.41800000000E+01 0.  1.
         -5    1    3    3    0  502  0.52819607977E+02 -0.63291918984E+02 -0.21454350124E+03  0.22987423588E+03  0.41800000000E+01 0.  1.
        -11    1    1    2    0    0 -0.39118607742E+02  0.75621213466E+02 -0.30047658576E+03  0.31230595894E+03  0.00000000000E+00 0.  1.
         11    1    1    2    0    0  0.47174392782E+02  0.50934668699E+02 -0.37110062477E+03  0.37753865698E+03  0.00000000000E+00 0. -1.
</event>
<event>
 7    1  0.8661710E-006  0.1364493E+03  0.7561462E-02  0.1218188E+00
          2   -1    0    0  501    0  0.00000000000E+00  0.00000000000E+00  0.14408605653E+03  0.14408605653E+03  0.00000000000E+00 0. -1.
         -2   -1    0    0    0  501 -0.00000000000E+00 -0.00000000000E+00 -0.15442001640E+03  0.15442001640E+03  0.00000000000E+00 0.  1.
         23    2    1    2    0    0 -0.88754587377E+00 -0.10114106124E+03 -0.16239744936E+02  0.16168313742E+03  0.12508959031E+03 0.  0.
          5    1    3    3  502    0  0.46467899451E+02 -0.47659104088E+02  0.33404266607E+02  0.74592045886E+02  0.41800000000E+01 0. -1.
         -5    1    3    3    0  502 -0.47355445325E+02 -0.53481957156E+02 -0.49644011544E+02  0.87091091538E+02  0.41800000000E+01 0. -1.
        -11    1    1    2    0    0 -0.17363204846E+02 -0.11312287502E+02  0.95990371920E+01  0.22838350336E+02  0.00000000000E+00 0. -1.
         11    1    1    2    0    0  0.18250750720E+02  0.11245334875E+03 -0.36932521248E+01  0.11398458517E+03  0.00000000000E+00 0.  1.
</event>
<event>
 7    1  0.8661710E-006  0.1612012E+03  0.7561462E-02  0.1187347E+00
          1   -1    0    0  501    0  0.00000000000E+00  0.00000000000E+00  0.78084119139E+03  0.78084119139E+03  0.00000000000E+00 0. -1.
         -1   -1    0    0    0  501 -0.00000000000E+00 -0.00000000000E+00 -0.38523638490E+02  0.38523638490E+02  0.00000000000E+00 0.  1.
         23    2    1    2    0    0 -0.88461797758E+02  0.10220679657E+03  0.36987425677E+03  0.41319011539E+03  0.12508951478E+03 0.  0.
          5    1    3    3  502    0  0.25312039077E+02  0.39755598681E+02  0.54763300440E+02  0.72371945005E+02  0.41800000000E+01 0. -1.
         -5    1    3    3    0  502 -0.11377383684E+03  0.62451197888E+02  0.31511095633E+03  0.34081817039E+03  0.41800000000E+01 0. -1.
        -11    1    1    2    0    0  0.92432580623E+02 -0.78712440954E+02  0.35865328281E+03  0.37864443426E+03  0.00000000000E+00 0. -1.
         11    1    1    2    0    0 -0.39707828647E+01 -0.23494355615E+02  0.13790013317E+02  0.27530280232E+02  0.00000000000E+00 0.  1.
</event>
<event>
 7    1  0.8661710E-006  0.1122048E+03  0.7561462E-02  0.1256541E+00
          1   -1    0    0  501    0  0.00000000000E+00  0.00000000000E+00  0.32218371649E+03  0.32218371649E+03  0.00000000000E+00 0. -1.
         -1   -1    0    0    0  501 -0.00000000000E+00 -0.00000000000E+00 -0.41398524523E+02  0.41398524523E+02  0.00000000000E+00 0.  1.
         23    2    1    2    0    0  0.14114950850E+02  0.14248358295E+02  0.13279643020E+03  0.18352636083E+03  0.12507911775E+03 0.  0.
          5    1    3    3  502    0  0.11850592642E+02  0.67482514460E+02  0.49778394481E+02  0.84792023569E+02  0.41800000000E+01 0.  1.
         -5    1    3    3    0  502  0.22643582080E+01 -0.53234156165E+02  0.83018035718E+02  0.98734337265E+02  0.41800000000E+01 0.  1.
        -11    1    1    2    0    0  0.43592670612E+02 -0.50322055821E+01  0.57383100873E+02  0.72238938876E+02  0.00000000000E+00 0.  1.
         11    1    1    2    0    0 -0.57707621462E+02 -0.92161527132E+01  0.90605660900E+02  0.10781694131E+03  0.00000000000E+00 0. -1.
</event>
<event>
 7    1  0.8661710E-006  0.7702328E+02  0.7561462E-02  0.1337718E+00
         -2   -1    0    0    0  501 -0.00000000000E+00  0.00000000000E+00  0.24067723351E+03  0.24067723351E+03  0.00000000000E+00 0. -1.
          2   -1    0    0  501    0  0.00000000000E+00 -0.00000000000E+00 -0.76503594990E+02  0.76503594990E+02  0.00000000000E+00 0.  1.
         23    2    1    2    0    0 -0.69404281518E+02  0.10878184355E+01  0.44098704598E+02  0.14970283553E+03  0.12509238816E+03 0.  0.
          5    1    3    3  502    0 -0.22087981902E+02 -0.37642513594E-01 -0.44111838427E+02  0.49509666236E+02  0.41800000000E+01 0. -1.
         -5    1    3    3    0  502 -0.47316299616E+02  0.11254609491E+01  0.88210543024E+02  0.10019316929E+03  0.41800000000E+01 0. -1.
        -11    1    1    2    0    0  0.42374401951E+02  0.22677393725E+02  0.12231321029E+03  0.13141680082E+03  0.00000000000E+00 0. -1.
         11    1    1    2    0    0  0.27029879567E+02 -0.23765212161E+02 -0.22382763645E+01  0.36061192154E+02  0.00000000000E+00 0.  1.
</event>
<event>
 7    1  0.8661710E-006  0.7209407E+02  0.7561462E-02  0.1353113E+00
          2   -1    0    0  501    0  0.00000000000E+00  0.00000000000E+00  0.23043281813E+02  0.23043281813E+02  0.00000000000E+00 0.  1.
         -2   -1    0    0    0  501 -0.00000000000E+00 -0.00000000000E+00 -0.57131340998E+03  0.57131340998E+03  0.00000000000E+00 0. -1.
         23    2    1    2    0    0 -0.28578123809E+02 -0.16701710794E+02 -0.35214716576E+03  0.37517138200E+03  0.12510109199E+03 0.  0.
          5    1    3    3  502    0 -0.34543772224E+02  0.21546551377E+02 -0.32532951461E+03  0.32789371990E+03  0.41800000000E+01 0.  1.
         -5    1    3    3    0  502  0.59656484143E+01 -0.38248262171E+02 -0.26817651145E+02  0.47277662094E+02  0.41800000000E+01 0.  1.
        -11    1    1    2    0    0  0.38804544806E+02  0.28917526549E+02 -0.19735934595E+03  0.20320612066E+03  0.00000000000E+00 0. -1.
         11    1    1    2    0    0 -0.10226420996E+02 -0.12215815755E+02  0.12363835460E+01  0.15979189129E+02  0.00000000000E+00 0.  1.
</event>
<event>
 7    1  0.8661710E-006  0.1289350E+03  0.7561462E-02  0.1229045E+00
          1   -1    0    0  501    0  0.00000000000E+00  0.00000000000E+00  0.61995107092E+02  0.61995107092E+02  0.00000000000E+00 0. -1.
         -1   -1    0    0    0  501 -0.00000000000E+00 -0.00000000000E+00 -0.40858252012E+03  0.40858252012E+03  0.00000000000E+00 0.  1.
         23    2    1    2    0    0 -0.11281364704E+03 -0.30235171773E+02 -0.16371189641E+03  0.23683245262E+03  0.12508773328E+03 0.  0.
          5    1    3    3  502    0 -0.89690968708E+02 -0.79520651598E+01 -0.17945787905E+03  0.20082407216E+03  0.41800000000E+01 0. -1.
         -5    1    3    3    0  502 -0.23122678330E+02 -0.22283106613E+02  0.15745982639E+02  0.36008380452E+02  0.41800000000E+01 0. -1.
        -11    1    1    2    0    0  0.88797637799E+02  0.52028114892E+02 -0.17025919804E+03  0.19894758037E+03  0.00000000000E+00 0.  1.
         11    1    1    2    0    0  0.24016009239E+02 -0.21792943118E+02 -0.12616318581E+02  0.34797594228E+02  0.00000000000E+00 0. -1.
</event>
<event>
 7    1  0.8661710E-006  0.1430754E+03  0.7561462E-02  0.1209250E+00
          3   -1    0    0  501    0  0.00000000000E+00  0.00000000000E+00  0.20531538947E+03  0.20531538947E+03  0.00000000000E+00 0. -1.
         -3   -1    0    0    0  501 -0.00000000000E+00 -0.00000000000E+00 -0.12639085826E+03  0.12639085826E+03  0.00000000000E+00 0.  1.
         23    2    1    2    0    0  0.66685860484E+01  0.96969227401E+02 -0.29202604751E+02  0.16110333606E+03  0.12511591290E+03 0.  0.
          5    1    3    3  502    0 -0.55718245741E+02  0.57991003424E+02  0.32439650845E+01  0.80594510334E+02  0.41800000000E+01 0.  1.
         -5    1    3    3    0  502  0.62386831790E+02  0.38978223978E+02 -0.32446569836E+02  0.80508825723E+02  0.41800000000E+01 0.  1.
        -11    1    1    2    0    0  0.41401397593E+02 -0.44589169934E+02  0.51386697453E+02  0.79642089834E+02  0.00000000000E+00 0. -1.
         11    1    1    2    0    0 -0.48069983641E+02 -0.52380057467E+02  0.56740438511E+02  0.90960821840E+02  0.00000000000E+00 0.  1.
</event>
<event>
 7    1  0.1308819E-005  0.1322788E+03  0.7561462E-02  0.1224113E+00
         -1   -1    0    0    0  501 -0.00000000000E+00  0.00000000000E+00  0.14444301555E+03  0.14444301555E+03  0.00000000000E+00 0.  1.
          1   -1    0    0  501    0  0.00000000000E+00 -0.00000000000E+00 -0.20485016834E+03  0.20485016834E+03  0.00000000000E+00 0. -1.
         23    2    1    2    0    0 -0.30893458235E+02  0.12329207876E+03  0.87856303059E+01  0.17854960749E+03  0.12508969817E+03 0.  0.
          5    1    3    3  502    0  0.10310442011E+02  0.19666865169E+02  0.53696204833E+02  0.58256721616E+02  0.41800000000E+01 0.  1.
         -5    1    3    3    0  502 -0.41203900246E+02  0.10362521359E+03 -0.44910574527E+02  0.12029288587E+03  0.41800000000E+01 0.  1.
        -11    1    1    2    0    0 -0.11790253303E+01 -0.53995552351E+02 -0.76928339690E+02  0.93994038225E+02  0.00000000000E+00 0. -1.
         11    1    1    2    0    0  0.32072483565E+02 -0.69296526411E+02  0.77355565978E+01  0.76749538178E+02  0.00000000000E+00 0.  1.
</event>
<event>
 6    1  0.8661710E-006  0.1581333E+03  0.7561462E-02  0.1190821E+00
         -2   -1    0    0    0  501 -0.00000000000E+00  0.00000000000E+00  0.29841076921E+02  0.29841076921E+02  0.00000000000E+00 0.  1.
          2   -1    0    0  501    0  0.00000000000E+00 -0.00000000000E+00 -0.12526755236E+04  0.12526755236E+04  0.00000000000E+00 0. -1.
          5    1    1    2  502    0 -0.23622497583E+02  0.22530079203E+01 -0.12955783813E+03  0.13177937721E+03  0.41800000000E+01 0. -1.
         -5    1    1    2    0  502  0.91169570616E+02 -0.10061268935E+03 -0.18756775319E+03  0.23159002203E+03  0.41800000000E+01 0.  1.
        -11    1    1    2    0    0 -0.17573642069E+02 -0.20733500913E+02 -0.13814485088E+03  0.14079314891E+03  0.00000000000E+00 0.  1.
         11    1    1    2    0    0 -0.49973430964E+02  0.11909318234E+03 -0.76756400447E+03  0.77835405237E+03  0.00000000000E+00 0. -1.
</event>
<event>
 7    1  0.8661710E-006  0.1032384E+03  0.7561462E-02  0.1273630E+00
          1   -1    0    0  501    0  0.00000000000E+00  0.00000000000E+00  0.92021081837E+02  0.92021081837E+02  0.00000000000E+00 0. -1.
         -1   -1    0    0    0  501 -0.00000000000E+00 -0.00000000000E+00 -0.24546561360E+03  0.24546561360E+03  0.00000000000E+00 0.  1.
         23    2    1    2    0    0 -0.35047643201E+02  0.45741337152E+02 -0.18329216376E+03  0.22926782397E+03  0.12508841111E+03 0.  0.
          5    1    3    3  502    0 -0.68884865340E+02  0.44827158464E+02 -0.61346663161E+02  0.10264250723E+03  0.41800000000E+01 0.  1.
         -5    1    3    3    0  502  0.33837222138E+02  0.91417868718E+00 -0.12194550060E+03  0.12662531674E+03  0.41800000000E+01 0.  1.
        -11    1    1    2    0    0  0.23971416946E+02 -0.64211911250E+02 -0.33778832054E+01  0.68623672823E+02  0.00000000000E+00 0.  1.
         11    1    1    2    0    0  0.11076226255E+02  0.18470574098E+02  0.33225515198E+02  0.39595198645E+02  0.00000000000E+00 0. -1.
</event>
<event>
 7    1  0.8661710E-006  0.1246491E+03  0.7561462E-02  0.1235619E+00
          1   -1    0    0  501    0  0.00000000000E+00  0.00000000000E+00  0.86308667105E+02  0.86308667105E+02  0.00000000000E+00 0. -1.
         -1   -1    0    0    0  501 -0.00000000000E+00 -0.00000000000E+00 -0.35365580272E+03  0.35365580272E+03  0.00000000000E+00 0.  1.
         23    2    1    2    0    0 -0.61607601164E+02  0.82051642365E+02 -0.25653130497E+03  0.30335777076E+03  0.12525836545E+03 0.  0.
          5    1    3    3  502    0 -0.17349747573E+02 -0.29000530702E+01 -0.17938670069E+03  0.18029554856E+03  0.41800000000E+01 0. -1.
         -5    1    3    3    0  502 -0.44257853590E+02  0.84951695435E+02 -0.77144604288E+02  0.12306222220E+03  0.41800000000E+01 0. -1.
        -11    1    1    2    0    0  0.27307511075E+02  0.15868880104E+02 -0.89836216129E+01  0.32836366641E+02  0.00000000000E+00 0.  1.
         11    1    1    2    0    0  0.34300090088E+02 -0.97920522469E+02 -0.18322090262E+01  0.10377033242E+03  0.00000000000E+00 0. -1.
</event>
<event>
 7    1  0.8661710E-006  0.2760286E+03  0.7561462E-02  0.1097878E+00
         -3   -1    0    0    0  501 -0.00000000000E+00  0.00000000000E+00  0.57142633746E+03  0.57142633746E+03  0.00000000000E+00 0.  1.
          3   -1    0    0  501    0  0.00000000000E+00 -0.00000000000E+00 -0.20321475483E+03  0.20321475483E+03  0.00000000000E+00 0. -1.
         23    2    1    2    0    0 -0.23817801187E+03 -0.99612601539E+02  0.40691453180E+03  0.49787439893E+03  0.12509214681E+03 0.  0.
          5    1    3    3  502    0 -0.14660692049E+03 -0.53735205524E+01  0.15340953594E+03  0.21230737617E+03  0.41800000000E+01 0. -1.
         -5    1    3    3    0  502 -0.91571091385E+02 -0.94239080987E+02  0.25350499586E+03  0.28556702276E+03  0.41800000000E+01 0. -1.
        -11    1    1    2    0    0  0.16470977052E+03  0.11218879888E+03 -0.33118100132E+02  0.20202089906E+03  0.00000000000E+00 0. -1.
         11    1    1    2    0    0  0.73468241348E+02 -0.12576197344E+02 -0.55848490369E+01  0.74745794298E+02  0.00000000000E+00 0.  1.
</event>
<event>
 7    1  0.8661710E-006  0.1068680E+03  0.7561462E-02  0.1266482E+00
         -1   -1    0    0    0  501 -0.00000000000E+00  0.00000000000E+00  0.31165709253E+03  0.31165709253E+03  0.00000000000E+00 0.  1.
          1   -1    0    0  501    0  0.00000000000E+00 -0.00000000000E+00 -0.56586363561E+02  0.56586363561E+02  0.00000000000E+00 0. -1.
         23    2    1    2    0    0 -0.44269065821E+02 -0.45479685158E+02  0.19740850818E+03  0.24216960550E+03  0.12509135371E+03 0.  0.
          5    1    3    3  502    0 -0.28235467230E+02 -0.71658153115E+02  0.19658624527E+03  0.21117707439E+03  0.41800000000E+01 0.  1.
         -5    1    3    3    0  502 -0.16033598591E+02  0.26178467957E+02  0.82226291194E+00  0.30992531111E+02  0.41800000000E+01 0.  1.
        -11    1    1    2    0    0  0.54668042385E+02  0.64128867119E+02  0.26573641979E+02  0.88358728511E+02  0.00000000000E+00 0. -1.
         11    1    1    2    0    0 -0.10398976564E+02 -0.18649181961E+02  0.31088578806E+02  0.37715122081E+02  0.00000000000E+00 0.  1.
</event>
<event>
 7    1  0.8661710E-006  0.1229006E+03  0.7561462E-02  0.1238387E+00
          3   -1    0    0  501    0  0.00000000000E+00  0.00000000000E+00  0.26483854156E+03  0.26483854156E+03  0.00000000000E+00 0. -1.
         -3   -1    0    0    0  501 -0.00000000000E+00 -0.00000000000E+00 -0.11720720966E+03  0.11720720966E+03  0.00000000000E+00 0.  1.
         23    2    1    2    0    0  0.17557731054E+01  0.90623833363E+02 -0.35458846896E+02  0.15912926455E+03  0.12589293507E+03 0.  0.
          5    1    3    3  502    0  0.44410625815E+02  0.10126146442E+03 -0.29911106004E+02  0.11462257423E+03  0.41800000000E+01 0.  1.
         -5    1    3    3    0  502 -0.42654852710E+02 -0.10637631056E+02 -0.55477408926E+01  0.44506690319E+02  0.41800000000E+01 0.  1.
        -11    1    1    2    0    0 -0.49568489065E+01 -0.53691151029E+02  0.17739743920E+03  0.18541079117E+03  0.00000000000E+00 0. -1.
         11    1    1    2    0    0  0.32010758011E+01 -0.36932682334E+02  0.56927395937E+01  0.37505695497E+02  0.00000000000E+00 0.  1.
</event>
<event>
 7    1  0.8661710E-006  0.1159975E+03  0.7561462E-02  0.1249850E+00
         -2   -1    0    0    0  501 -0.00000000000E+00  0.00000000000E+00  0.88509247836E+02  0.88509247836E+02  0.00000000000E+00 0.  1.
          2   -1    0    0  501    0  0.00000000000E+00 -0.00000000000E+00 -0.17384000791E+03  0.17384000791E+03  0.00000000000E+00 0. -1.
         23    2    1    2    0    0  0.15839538100E+02  0.39802969616E+02 -0.20889874375E+01  0.13223693201E+03  0.12508826868E+03 0.  0.
          5    1    3    3  502    0 -0.48472361412E+02  0.46554425795E+02 -0.33998207559E+01  0.67423405158E+02  0.41800000000E+01 0. -1.
         -5    1    3    3    0  502  0.64311899512E+02 -0.67514561785E+01  0.13108333184E+01  0.64813526855E+02  0.41800000000E+01 0. -1.
        -11    1    1    2    0    0 -0.32013082255E+02  0.20105983965E+02 -0.34917377294E+02  0.51461745635E+02  0.00000000000E+00 0. -1.
         11    1    1    2    0    0  0.16173544156E+02 -0.59908953581E+02 -0.48324395339E+02  0.78650578095E+02  0.00000000000E+00 0.  1.
</event>
<event>
 7    1  0.8661710E-006  0.8469171E+02  0.7561462E-02  0.1316241E+00
         -1   -1    0    0    0  501 -0.00000000000E+00  0.00000000000E+00  0.28180585062E+03  0.28180585062E+03  0.00000000000E+00 0.  1.
          1   -1    0    0  501    0  0.00000000000E+00 -0.00000000000E+00 -0.45252408396E+02  0.45252408396E+02  0.00000000000E+00 0. -1.
         23    2    1    2    0    0 -0.22297927284E+02 -0.35287347105E+02  0.16006504993E+03  0.20033751200E+03  0.11301284918E+03 0.  0.
          5    1    3    3  502    0  0.25979697035E+02  0.65530861646E+01 -0.87425796736E+00  0.27131611144E+02  0.41800000000E+01 0. -1.
         -5    1    3    3    0  502 -0.48277624319E+02 -0.41840433270E+02  0.16093930789E+03  0.17320590085E+03  0.41800000000E+01 0.  1.
        -11    1    1    2    0    0  0.17900223126E+02 -0.17641586913E+02 -0.84749993778E+01  0.26522993632E+02  0.00000000000E+00 0.  1.
         11    1    1    2    0    0  0.43977041578E+01  0.52928934018E+02  0.84963391680E+02  0.10019775339E+03  0.00000000000E+00 0. -1.
</event>
<event>
 7    1  0.8661710E-006  0.9450092E+02  0.7561462E-02  0.1292304E+00
         -2   -1    0    0    0  501 -0.00000000000E+00  0.00000000000E+00  0.13709852352E+03  0.13709852352E+03  0.00000000000E+00 0.  1.
          2   -1    0    0  501    0  0.00000000000E+00 -0.00000000000E+00 -0.91017711513E+02  0.91017711513E+02  0.00000000000E+00 0. -1.
         23    2    1    2    0    0  0.29784828947E+02  0.52250821603E+00  0.34712454096E+02  0.13318426334E+03  0.12508271056E+03 0.  0.
          5    1    3    3  502    0  0.66626583210E+02  0.31358775181E+02  0.41266991177E+02  0.84515746059E+02  0.41800000000E+01 0. -1.
         -5    1    3    3    0  502 -0.36841754264E+02 -0.30836266965E+02 -0.65545370805E+01  0.48668517277E+02  0.41800000000E+01 0. -1.
        -11    1    1    2    0    0 -0.38827357617E+02 -0.21353455621E+02  0.39094879703E+02  0.59092667781E+02  0.00000000000E+00 0.  1.
         11    1    1    2    0    0  0.90425286700E+01  0.20830947405E+02 -0.27726521792E+02  0.35839303916E+02  0.00000000000E+00 0. -1.
</event>
<event>
 7    1  0.8661710E-006  0.9312836E+02  0.7561462E-02  0.1295448E+00
         -1   -1    0    0    0  501 -0.00000000000E+00  0.00000000000E+00  0.43212183790E+02  0.43212183790E+02  0.00000000000E+00 0.  1.
          1   -1    0    0  501    0  0.00000000000E+00 -0.00000000000E+00 -0.27692485718E+03  0.27692485718E+03  0.00000000000E+00 0. -1.
         23    2    1    2    0    0 -0.11916487817E+02 -0.70900393728E+01 -0.12006262833E+03  0.17394499523E+03  0.12509818266E+03 0.  0.
          5    1    3    3  502    0  0.18325727591E+02 -0.60985771711E+02 -0.64486474633E+02  0.90725269101E+02  0.41800000000E+01 0.  1.
         -5    1    3    3    0  502 -0.30242215408E+02  0.53895732339E+02 -0.55576153700E+02  0.83219726130E+02  0.41800000000E+01 0.  1.
        -11    1    1    2    0    0  0.48961849441E+01  0.33149684509E+02 -0.45660529300E+01  0.33818974695E+02  0.00000000000E+00 0.  1.
         11    1    1    2    0    0  0.70203028729E+01 -0.26059645137E+02 -0.10908399212E+03  0.11237307104E+03  0.00000000000E+00 0. -1.
</event>
<event>
 7    1  0.8661710E-006  0.1284030E+03  0.7561462E-02  0.1229845E+00
         -1   -1    0    0    0  501 -0.00000000000E+00  0.00000000000E+00  0.21746649902E+03  0.21746649902E+03  0.00000000000E+00 0.  1.
          1   -1    0    0  501    0  0.00000000000E+00 -0.00000000000E+00 -0.92930319765E+02  0.92930319765E+02  0.00000000000E+00 0. -1.
         23    2    1    2    0    0  0.19752061215E+02  0.84604602392E+02  0.90247159008E+02  0.17703487726E+03  0.12509482559E+03 0.  0.
          5    1    3    3  502    0  0.94509126671E+00  0.10192836981E+03  0.22455157840E+02  0.10446048192E+03  0.41800000000E+01 0.  1.
         -5    1    3    3    0  502  0.18806969948E+02 -0.17323767419E+02  0.67792001167E+02  0.72574395337E+02  0.41800000000E+01 0.  1.
        -11    1    1    2    0    0 -0.58086669722E+02 -0.42756320403E+02  0.19307598047E+02  0.74665570889E+02  0.00000000000E+00 0. -1.
         11    1    1    2    0    0  0.38334608507E+02 -0.41848281989E+02  0.14981422200E+02  0.58696370637E+02  0.00000000000E+00 0.  1.
</event>
<event>
 7    1  0.8661710E-006  0.1412142E+03  0.7561462E-02  0.1211704E+00
         -1   -1    0    0    0  501 -0.00000000000E+00  0.00000000000E+00  0.80388849369E+02  0.80388849369E+02  0.00000000000E+00 0.  1.
          1   -1    0    0  501    0  0.00000000000E+00 -0.00000000000E+00 -0.25345680568E+03  0.25345680568E+03  0.00000000000E+00 0. -1.
         23    2    1    2    0    0  0.37701619569E+02 -0.83224750452E+02 -0.92678411674E+02  0.18050929639E+03  0.12508615785E+03 0.  0.
          5    1    3    3  502    0  0.83914379790E+02 -0.57492631842E+02 -0.59070872836E+02  0.11770244802E+03  0.41800000000E+01 0. -1.
         -5    1    3    3    0  502 -0.46212760221E+02 -0.25732118610E+02 -0.33607538838E+02  0.62806848370E+02  0.41800000000E+01 0. -1.
        -11    1    1    2    0    0 -0.63577629719E+02  0.78901239631E+02 -0.76168586984E+02  0.12676424677E+03  0.00000000000E+00 0. -1.
         11    1    1    2    0    0  0.25876010150E+02  0.43235108208E+01 -0.42209576577E+01  0.26572111896E+02  0.00000000000E+00 0.  1.
</event>
<event>
 7    1  0.8661710E-006  0.7802341E+02  0.7561462E-02  0.1334756E+00
          2   -1    0    0  501    0  0.00000000000E+00  0.00000000000E+00  0.76007468527E+02  0.76007468527E+02  0.00000000000E+00 0.  1.
         -2   -1    0    0    0  501 -0.00000000000E+00 -0.00000000000E+00 -0.18875220926E+03  0.18875220926E+03  0.00000000000E+00 0. -1.
         23    2    1    2    0    0 -0.43643038561E+02 -0.13827928004E+02 -0.88441665008E+02  0.15988482895E+03  0.12508118968E+03 0.  0.
          5    1    3    3  502    0 -0.28723315330E+02 -0.31890160357E+02  0.20945138761E+02  0.47939361790E+02  0.41800000000E+01 0. -1.
         -5    1    3    3    0  502 -0.14919723232E+02  0.18062232353E+02 -0.10938680377E+03  0.11194546716E+03  0.41800000000E+01 0. -1.
        -11    1    1    2    0    0 -0.18683172179E+02  0.18924857673E+02 -0.32291469230E+02  0.41832405449E+02  0.00000000000E+00 0. -1.
         11    1    1    2    0    0  0.62326210740E+02 -0.50969296696E+01  0.79883935066E+01  0.63042443386E+02  0.00000000000E+00 0.  1.
</event>
<event>
 7    1  0.8661710E-006  0.1276674E+03  0.7561462E-02  0.1230958E+00
         -4   -1    0    0    0  501 -0.00000000000E+00  0.00000000000E+00  0.10137436043E+03  0.10137436043E+03  0.00000000000E+00 0.  1.
          4   -1    0    0  501    0  0.00000000000E+00 -0.00000000000E+00 -0.22293472145E+03  0.22293472145E+03  0.00000000000E+00 0. -1.
         23    2    1    2    0    0  0.53748158155E+02  0.80322669843E+02 -0.17931736652E+02  0.15908838537E+03  0.12508785466E+03 0.  0.
          5    1    3    3  502    0  0.76043124668E+02  0.77437399560E+02 -0.50108935702E+02  0.11961390177E+03  0.41800000000E+01 0. -1.
         -5    1    3    3    0  502 -0.22294966513E+02  0.28852702827E+01  0.32177199050E+02  0.39474483595E+02  0.41800000000E+01 0. -1.
        -11    1    1    2    0    0 -0.31498567128E+02 -0.93041144038E+02 -0.61448392054E+02  0.11586509009E+03  0.00000000000E+00 0.  1.
         11    1    1    2    0    0 -0.22249591026E+02  0.12718474195E+02 -0.42180232313E+02  0.49355606416E+02  0.00000000000E+00 0. -1.
</event>
<event>
 7    1  0.8661710E-006  0.2243095E+03  0.7561462E-02  0.1130710E+00
          1   -1    0    0  501    0  0.00000000000E+00  0.00000000000E+00  0.76079623177E+03  0.76079623177E+03  0.00000000000E+00 0. -1.
         -1   -1    0    0    0  501 -0.00000000000E+00 -0.00000000000E+00 -0.76923846793E+02  0.76923846793E+02  0.00000000000E+00 0.  1.
         23    2    1    2    0    0  0.21475938994E+03  0.10040137337E+02  0.33224667066E+03  0.41503960072E+03  0.12509044759E+03 0.  0.
          5    1    3    3  502    0  0.89910228526E+02 -0.35661002908E+01  0.24774220673E+03  0.26361001434E+03  0.41800000000E+01 0. -1.
         -5    1    3    3    0  502  0.12484916141E+03  0.13606237627E+02  0.84504463927E+02  0.15142958638E+03  0.41800000000E+01 0. -1.
        -11    1    1    2    0    0 -0.21087208988E+03  0.11316482352E+02  0.33168147300E+03  0.39320185732E+03  0.00000000000E+00 0.  1.
         11    1    1    2    0    0 -0.38873000557E+01 -0.21356619689E+02  0.19944241317E+02  0.29478620523E+02  0.00000000000E+00 0. -1.
</event>
<event>
 7    1  0.8661710E-006  0.8756792E+02  0.7561462E-02  0.1308851E+00
         -2   -1    0    0    0  501 -0.00000000000E+00  0.00000000000E+00  0.40857737565E+02  0.40857737565E+02  0.00000000000E+00 0.  1.
          2   -1    0    0  501    0  0.00000000000E+00 -0.00000000000E+00 -0.34688414865E+03  0.34688414865E+03  0.00000000000E+00 0. -1.
         23    2    1    2    0    0 -0.38111654600E+02 -0.31317075766E+02 -0.16859746249E+03  0.21565124613E+03  0.12508836136E+03 0.  0.
          5    1    3    3  502    0 -0.14931253822E+02  0.31806300169E+02 -0.14256220314E+01  0.35413103074E+02  0.41800000000E+01 0. -1.
         -5    1    3    3    0  502 -0.23180400778E+02 -0.63123375935E+02 -0.16717184045E+03  0.18023814305E+03  0.41800000000E+01 0. -1.
        -11    1    1    2    0    0  0.31509812754E+02 -0.79997058959E+01 -0.12670105037E+03  0.13080527420E+03  0.00000000000E+00 0. -1.
         11    1    1    2    0    0  0.66018418460E+01  0.39316781662E+02 -0.10727898229E+02  0.41285365887E+02  0.00000000000E+00 0.  1.
</event>
<event>
 7    1  0.8661710E-006  0.1125926E+03  0.7561462E-02  0.1255843E+00
         -1   -1    0    0    0  501 -0.00000000000E+00  0.00000000000E+00  0.18129434712E+03  0.18129434712E+03  0.00000000000E+00 0.  1.
          1   -1    0    0  501    0  0.00000000000E+00 -0.00000000000E+00 -0.10558601996E+03  0.10558601996E+03  0.00000000000E+00 0. -1.
         23    2    1    2    0    0 -0.37464613869E+02 -0.68768227545E+02  0.80856898065E+02  0.16827806739E+03  0.12508798338E+03 0.  0.
          5    1    3    3  502    0 -0.67021379597E+01  0.16023553085E+02 -0.23987999618E+02  0.29909353593E+02  0.41800000000E+01 0. -1.
         -5    1    3    3    0  502 -0.30762475910E+02 -0.84791780630E+02  0.10484489768E+03  0.13836871379E+03  0.41800000000E+01 0. -1.
        -11    1    1    2    0    0  0.64538581132E+02  0.33965260178E+02 -0.12213843618E+02  0.73946232693E+02  0.00000000000E+00 0. -1.
         11    1    1    2    0    0 -0.27073967263E+02  0.34802967367E+02  0.70652727137E+01  0.44656066994E+02  0.00000000000E+00 0.  1.
</event>
<event>
 7    1  0.8661710E-006  0.1259428E+03  0.7561462E-02  0.1233603E+00
          2   -1    0    0  501    0  0.00000000000E+00  0.00000000000E+00  0.33948197074E+03  0.33948197074E+03  0.00000000000E+00 0.  1.
         -2   -1    0    0    0  501 -0.00000000000E+00 -0.00000000000E+00 -0.88510337172E+02  0.88510337172E+02  0.00000000000E+00 0. -1.
         23    2    1    2    0    0 -0.68781375412E+02 -0.11898013738E+02 -0.95875333109E+01  0.14357643822E+03  0.12509929049E+03 0.  0.
          5    1    3    3  502    0 -0.53123027137E+02  0.53597764517E+02 -0.12278001706E+01  0.75589392554E+02  0.41800000000E+01 0.  1.
         -5    1    3    3    0  502 -0.15658348275E+02 -0.65495778255E+02 -0.83597331402E+01  0.67987045664E+02  0.41800000000E+01 0.  1.
        -11    1    1    2    0    0  0.50565489842E+02 -0.33000981023E+02  0.10111213220E+03  0.11776925231E+03  0.00000000000E+00 0.  1.
         11    1    1    2    0    0  0.18215885570E+02  0.44898994762E+02  0.15944703468E+03  0.16664661738E+03  0.00000000000E+00 0. -1.
</event>
<event>
 7    1  0.8661710E-006  0.1471007E+03  0.7561462E-02  0.1204082E+00
         -1   -1    0    0    0  501 -0.00000000000E+00  0.00000000000E+00  0.35470495388E+02  0.35470495388E+02  0.00000000000E+00 0.  1.
          1   -1    0    0  501    0  0.00000000000E+00 -0.00000000000E+00 -0.81094736130E+03  0.81094736130E+03  0.00000000000E+00 0. -1.
         23    2    1    2    0    0 -0.80275713908E+02 -0.89443591707E+02 -0.28655124502E+03  0.33496952049E+03  0.12509443351E+03 0.  0.
          5    1    3    3  502    0 -0.11254042456E+03 -0.76264486604E+02 -0.24787823222E+03  0.28274141806E+03  0.41800000000E+01 0.  1.
         -5    1    3    3    0  502  0.32264710654E+02 -0.13179105103E+02 -0.38673012801E+02  0.52228102435E+02  0.41800000000E+01 0.  1.
        -11    1    1    2    0    0  0.23361821985E+02  0.45630143843E+02 -0.72021336064E+02  0.88402248852E+02  0.00000000000E+00 0.  1.
         11    1    1    2    0    0  0.56913891923E+02  0.43813447863E+02 -0.41690428483E+03  0.42304608735E+03  0.00000000000E+00 0. -1.
</event>
<event>
 7    1  0.8661710E-006  0.1037916E+03  0.7561462E-02  0.1272519E+00
          3   -1    0    0  501    0  0.00000000000E+00  0.00000000000E+00  0.14236759659E+03  0.14236759659E+03  0.00000000000E+00 0. -1.
         -3   -1    0    0    0  501 -0.00000000000E+00 -0.00000000000E+00 -0.11869336149E+03  0.11869336149E+03  0.00000000000E+00 0.  1.
         23    2    1    2    0    0  0.51810344714E+02  0.41463447008E+02 -0.11152526422E+02  0.14203269306E+03  0.12508148463E+03 0.  0.
          5    1    3    3  502    0  0.88275038174E+02  0.37246874339E+02  0.14587001406E+02  0.97005489652E+02  0.41800000000E+01 0. -1.
         -5    1    3    3    0  502 -0.36464693460E+02  0.42165726689E+01 -0.25739527828E+02  0.45027203411E+02  0.41800000000E+01 0. -1.
        -11    1    1    2    0    0 -0.45791341977E+02 -0.15899943855E+02 -0.24379407518E+02  0.54258738702E+02  0.00000000000E+00 0.  1.
         11    1    1    2    0    0 -0.60190027373E+01 -0.25563503153E+02  0.59206169039E+02  0.64769526320E+02  0.00000000000E+00 0. -1.
</event>
<event>
 7    1  0.8661710E-006  0.7696133E+02  0.7561462E-02  0.1337903E+00
          2   -1    0    0  501    0  0.00000000000E+00  0.00000000000E+00  0.21199249258E+03  0.21199249258E+03  0.00000000000E+00 0.  1.
         -2   -1    0    0    0  501 -0.00000000000E+00 -0.00000000000E+00 -0.55555698483E+02  0.55555698483E+02  0.00000000000E+00 0. -1.
         23    2    1    2    0    0 -0.48336499882E+01 -0.57586503830E+01  0.65698704725E+02  0.14149241189E+03  0.12508899469E+03 0.  0.
          5    1    3    3  502    0  0.40065262586E+02  0.27874721075E+02  0.69590714544E+02  0.85103262522E+02  0.41800000000E+01 0. -1.
         -5    1    3    3    0  502 -0.44898912574E+02 -0.33633371458E+02 -0.38920098191E+01  0.56389149368E+02  0.41800000000E+01 0. -1.
        -11    1    1    2    0    0 -0.17611290816E+02  0.16197751459E+02  0.97501568868E+02  0.10039462460E+03  0.00000000000E+00 0.  1.
         11    1    1    2    0    0  0.22444940804E+02 -0.10439101076E+02 -0.67634794996E+01  0.25661154571E+02  0.00000000000E+00 0. -1.
</event>
<event>
 7    1  0.8661710E-006  0.9462990E+02  0.7561462E-02  0.1292012E+00
         -2   -1    0    0    0  501 -0.00000000000E+00  0.00000000000E+00  0.12024751028E+03  0.12024751028E+03  0.00000000000E+00 0. -1.
          2   -1    0    0  501    0  0.00000000000E+00 -0.00000000000E+00 -0.14136604021E+03  0.14136604021E+03  0.00000000000E+00 0.  1.
         23    2    1    2    0    0  0.48477551648E+02 -0.37034502506E+02  0.17523027186E+02  0.14026975528E+03  0.12508765077E+03 0.  0.
          5    1    3    3  502    0  0.14735519802E+02 -0.46578635943E+02  0.64799628539E+02  0.81259886346E+02  0.41800000000E+01 0.  1.
         -5    1    3    3    0  502  0.33742031847E+02  0.95441334368E+01 -0.47276601353E+02  0.59009868935E+02  0.41800000000E+01 0.  1.
        -11    1    1    2    0    0 -0.73237271222E+02  0.25025554397E+02 -0.49378169368E+02  0.91805119024E+02  0.00000000000E+00 0.  1.
         11    1    1    2    0    0  0.24759719573E+02  0.12008948109E+02  0.10736612255E+02  0.29538676185E+02  0.00000000000E+00 0. -1.
</event>
<event>
 7    1  0.8661710E-006  0.1837491E+03  0.7561462E-02  0.1164223E+00
         -1   -1    0    0    0  501 -0.00000000000E+00  0.00000000000E+00  0.63489129688E+03  0.63489129688E+03  0.00000000000E+00 0.  1.
          1   -1    0    0  501    0  0.00000000000E+00 -0.00000000000E+00 -0.76246285553E+02  0.76246285553E+02  0.00000000000E+00 0. -1.
         23    2    1    2    0    0 -0.13114260508E+03 -0.83813251931E+02  0.46783334961E+03  0.50866285271E+03  0.12508721221E+03 0.  0.
          5    1    3    3  502    0 -0.34552722760E+02  0.31667435428E+02  0.14461058484E+03  0.15207370176E+03  0.41800000000E+01 0.  1.
         -5    1    3    3    0  502 -0.96589882317E+02 -0.11548068736E+03  0.32322276476E+03  0.35658915096E+03  0.41800000000E+01 0.  1.
        -11    1    1    2    0    0  0.18484997307E+02  0.48293383721E+02 -0.27535912843E+01  0.51783475179E+02  0.00000000000E+00 0. -1.
         11    1    1    2    0    0  0.11265760777E+03  0.35519868210E+02  0.93565253008E+02  0.15069125455E+03  0.00000000000E+00 0.  1.
</event>
<event>
 7    1  0.8661710E-006  0.1260448E+03  0.7561462E-02  0.1233445E+00
          2   -1    0    0  501    0  0.00000000000E+00  0.00000000000E+00  0.62588903158E+03  0.62588903158E+03  0.00000000000E+00 0. -1.
         -2   -1    0    0    0  501 -0.00000000000E+00 -0.00000000000E+00 -0.41864927304E+02  0.41864927304E+02  0.00000000000E+00 0.  1.
         23    2    1    2    0    0  0.19163279157E+02 -0.11803757191E+03  0.22714808141E+03  0.28051365306E+03  0.11309977460E+03 0.  0.
          5    1    3    3  502    0 -0.10664129989E+02 -0.59566399785E+02  0.20062579217E+03  0.20959499168E+03  0.41800000000E+01 0.  1.
         -5    1    3    3    0  502  0.29827409146E+02 -0.58471172120E+02  0.26522289239E+02  0.70918661380E+02  0.41800000000E+01 0.  1.
        -11    1    1    2    0    0 -0.29220299157E+02  0.10609997712E+03  0.35482189156E+03  0.37149644112E+03  0.00000000000E+00 0. -1.
         11    1    1    2    0    0  0.10057020000E+02  0.11937594786E+02  0.20541312970E+01  0.15743864708E+02  0.00000000000E+00 0.  1.
</event>
<event>
 7    1  0.8661710E-006  0.9823912E+02  0.7561462E-02  0.1284043E+00
          1   -1    0    0  501    0  0.00000000000E+00  0.00000000000E+00  0.73932650301E+02  0.73932650301E+02  0.00000000000E+00 0. -1.
         -1   -1    0    0    0  501 -0.00000000000E+00 -0.00000000000E+00 -0.18018300783E+03  0.18018300783E+03  0.00000000000E+00 0.  1.
         23    2    1    2    0    0  0.11591590066E+02  0.83783275603E+01 -0.97421560529E+02  0.15919220226E+03  0.12508651195E+03 0.  0.
          5    1    3    3  502    0  0.38923437207E+02  0.43833776105E+02 -0.82761082168E+01  0.59349812627E+02  0.41800000000E+01 0. -1.
         -5    1    3    3    0  502 -0.27331847140E+02 -0.35455448545E+02 -0.89145452312E+02  0.99842389633E+02  0.41800000000E+01 0. -1.
        -11    1    1    2    0    0 -0.24603991950E+02 -0.46421767585E+02  0.40739087934E+01  0.52696619042E+02  0.00000000000E+00 0. -1.
         11    1    1    2    0    0  0.13012401884E+02  0.38043440025E+02 -0.12902705790E+02  0.42226836827E+02  0.00000000000E+00 0.  1.
</event>
<event>
 7    1  0.8661710E-006  0.1137414E+03  0.7561462E-02  0.1253794E+00
          3   -1    0    0  501    0  0.00000000000E+00  0.00000000000E+00  0.35322772330E+03  0.35322772330E+03  0.00000000000E+00 0. -1.
         -3   -1    0    0    0  501 -0.00000000000E+00 -0.00000000000E+00 -0.37123351984E+02  0.37123351984E+02  0.00000000000E+00 0.  1.
         23    2    1    2    0    0  0.36792647768E+02 -0.28055418549E+00  0.18253885479E+03  0.22433012834E+03  0.12509914201E+03 0.  0.
          5    1    3    3  502    0  0.23080884104E+02  0.61448282983E+02  0.77422904060E+02  0.10158935557E+03  0.41800000000E+01 0.  1.
         -5    1    3    3    0  502  0.13711763665E+02 -0.61728837169E+02  0.10511595073E+03  0.12274077277E+03  0.41800000000E+01 0.  1.
        -11    1    1    2    0    0 -0.34675070243E+02  0.43184131132E+02  0.81242770467E+02  0.98324042996E+02  0.00000000000E+00 0.  1.
         11    1    1    2    0    0 -0.21175775255E+01 -0.42903576946E+02  0.52322746057E+02  0.67696903949E+02  0.00000000000E+00 0. -1.
</event>
<event>
 7    1  0.8661710E-006  0.1241917E+03  0.7561462E-02  0.1236338E+00
          1   -1    0    0  501    0  0.00000000000E+00  0.00000000000E+00  0.69562870977E+02  0.69562870977E+02  0.00000000000E+00 0. -1.
         -1   -1    0    0    0  501 -0.00000000000E+00 -0.00000000000E+00 -0.25225812323E+03  0.25225812323E+03  0.00000000000E+00 0.  1.
         23    2    1    2    0    0  0.67785941300E+02 -0.29721355777E+02 -0.11146051303E+03  0.18316612378E+03  0.12509232634E+03 0.  0.
          5    1    3    3  502    0 -0.87721586075E+01  0.38937636780E+02 -0.17410875659E+02  0.43745871987E+02  0.41800000000E+01 0. -1.
         -5    1    3    3    0  502  0.76558099907E+02 -0.68658992557E+02 -0.94049637373E+02  0.13942025179E+03  0.41800000000E+01 0. -1.
        -11    1    1    2    0    0 -0.49739239326E+02 -0.19100383791E+02 -0.68160168829E+02  0.86513728416E+02  0.00000000000E+00 0. -1.
         11    1    1    2    0    0 -0.18046701974E+02  0.48821739568E+02 -0.30745703890E+01  0.52141142006E+02  0.00000000000E+00 0.  1.
</event>
<event>
 7    1  0.8661710E-006  0.1470458E+03  0.7561462E-02  0.1204151E+00
         -2   -1    0    0    0  501 -0.00000000000E+00  0.00000000000E+00  0.40085900554E+02  0.40085900554E+02  0.00000000000E+00 0.  1.
          2   -1    0    0  501    0  0.00000000000E+00 -0.00000000000E+00 -0.90363328490E+03  0.90363328490E+03  0.00000000000E+00 0. -1.
         23    2    1    2    0    0 -0.51094726221E+00  0.13934011268E+03 -0.27323001838E+03  0.33123708305E+03  0.12508970452E+03 0.  0.
          5    1    3    3  502    0 -0.85624980806E+01  0.11098011845E+03 -0.27943858816E+03  0.30082104317E+03  0.41800000000E+01 0.  1.
         -5    1    3    3    0  502  0.80515508184E+01  0.28359994228E+02  0.62085697778E+01  0.30416039878E+02  0.41800000000E+01 0.  1.
        -11    1    1    2    0    0  0.31646028619E+02 -0.63623386633E+02 -0.16979210656E+03  0.18406185348E+03  0.00000000000E+00 0. -1.
         11    1    1    2    0    0 -0.31135081357E+02 -0.75716726044E+02 -0.42052525941E+03  0.42842024893E+03  0.00000000000E+00 0.  1.
</event>
<event>
 7    1  0.8661710E-006  0.1172503E+03  0.7561462E-02  0.1247703E+00
         -1   -1    0    0    0  501 -0.00000000000E+00  0.00000000000E+00  0.83997122019E+03  0.83997122019E+03  0.00000000000E+00 0.  1.
          1   -1    0    0  501    0  0.00000000000E+00 -0.00000000000E+00 -0.26696244953E+02  0.26696244953E+02  0.00000000000E+00 0. -1.
         23    2    1    2    0    0 -0.13919905394E+02  0.82585279904E+02  0.61227014151E+03  0.63050455039E+03  0.12508864715E+03 0.  0.
          5    1    3    3  502    0  0.25957536810E+02 -0.24283486107E+02  0.17150728337E+03  0.17520188944E+03  0.41800000000E+01 0.  1.
         -5    1    3    3    0  502 -0.39877442204E+02  0.10686876601E+03  0.44076285815E+03  0.45530266095E+03  0.41800000000E+01 0.  1.
        -11    1    1    2    0    0  0.11489435979E+02 -0.33381564217E+02  0.69867944295E+01  0.35988210085E+02  0.00000000000E+00 0. -1.
         11    1    1    2    0    0  0.24304694150E+01 -0.49203715687E+02  0.19401803929E+03  0.20017470467E+03  0.00000000000E+00 0.  1.
</event>
<event>
 7    1  0.8661710E-006  0.1570837E+03  0.7561462E-02  0.1192029E+00
         -1   -1    0    0    0  501 -0.00000000000E+00  0.00000000000E+00  0.18900444493E+03  0.18900444493E+03  0.00000000000E+00 0.  1.
          1   -1    0    0  501    0  0.00000000000E+00 -0.00000000000E+00 -0.18921847321E+03  0.18921847321E+03  0.00000000000E+00 0. -1.
         23    2    1    2    0    0  0.11969871625E+03 -0.13104729400E+01  0.10041309614E+03  0.20014923194E+03  0.12508966848E+03 0.  0.
          5    1    3    3  502    0  0.12468916166E+03  0.36859637594E+02  0.57154381211E+02  0.14209192662E+03  0.41800000000E+01 0. -1.
         -5    1    3    3    0  502 -0.49904454161E+01 -0.38170110534E+02  0.43258714930E+02  0.58057305320E+02  0.41800000000E+01 0. -1.
        -11    1    1    2    0    0 -0.75839533844E+02  0.40992739797E+02 -0.72204679734E+02  0.11245245833E+03  0.00000000000E+00 0. -1.
         11    1    1    2    0    0 -0.43859182404E+02 -0.39682266857E+02 -0.28422444695E+02  0.65621227865E+02  0.00000000000E+00 0.  1.
</event>
<event>
 6    1  0.8661710E-006  0.1285563E+03  0.7561462E-02  0.1229614E+00
         -2   -1    0    0    0  501 -0.00000000000E+00  0.00000000000E+00  0.58075289696E+02  0.58075289696E+02  0.00000000000E+00 0.  1.
          2   -1    0    0  501    0  0.00000000000E+00 -0.00000000000E+00 -0.67123993065E+03  0.67123993065E+03  0.00000000000E+00 0. -1.
          5    1    1    2  502    0 -0.42359976857E+02 -0.40599373306E+02 -0.12203217537E+03  0.13546955738E+03  0.41800000000E+01 0. -1.
         -5    1    1    2    0  502  0.71320007513E+02 -0.33061502447E+02  0.90996767863E+01  0.79245712397E+02  0.41800000000E+01 0.  1.
        -11    1    1    2    0    0 -0.48536059858E+02  0.57303628149E+01 -0.24070054895E+03  0.24561217484E+03  0.00000000000E+00 0.  1.
         11    1    1    2    0    0  0.19576029201E+02  0.67930512937E+02 -0.25953159342E+03  0.26898777573E+03  0.00000000000E+00 0. -1.
</event>
<event>
 7    1  0.8661710E-006  0.9920845E+02  0.7561462E-02  0.1281969E+00
          1   -1    0    0  501    0  0.00000000000E+00  0.00000000000E+00  0.12520202747E+03  0.12520202747E+03  0.00000000000E+00 0. -1.
         -1   -1    0    0    0  501 -0.00000000000E+00 -0.00000000000E+00 -0.19641507152E+03  0.19641507152E+03  0.00000000000E+00 0.  1.
         23    2    1    2    0    0 -0.16977818251E+01  0.34784763304E+02 -0.14725743214E+03  0.19632815469E+03  0.12508849180E+03 0.  0.
          5    1    3    3  502    0  0.52665563000E+02  0.26357259845E+02 -0.12223655504E+03  0.13574834975E+03  0.41800000000E+01 0. -1.
         -5    1    3    3    0  502 -0.54363344825E+02  0.84275034582E+01 -0.25020877098E+02  0.60579804935E+02  0.41800000000E+01 0. -1.
        -11    1    1    2    0    0 -0.18481697806E+02 -0.53549285308E+02  0.79392169378E+02  0.97530588378E+02  0.00000000000E+00 0. -1.
         11    1    1    2    0    0  0.20179479631E+02  0.18764522004E+02 -0.33477812962E+01  0.27758355928E+02  0.00000000000E+00 0.  1.
</event>
<event>
 7    1  0.8661710E-006  0.1224674E+03  0.7561462E-02  0.1239081E+00
          2   -1    0    0  501    0  0.00000000000E+00  0.00000000000E+00  0.10390915005E+03  0.10390915005E+03  0.00000000000E+00 0.  1.
         -2   -1    0    0    0  501 -0.00000000000E+00 -0.00000000000E+00 -0.49022416128E+03  0.49022416128E+03  0.00000000000E+00 0. -1.
         23    2    1    2    0    0 -0.16319082883E+02 -0.55248798237E+02 -0.44836787602E+03  0.46904119671E+03  0.12508856780E+03 0.  0.
          5    1    3    3  502    0 -0.70662183814E+02 -0.30474631999E+02 -0.27674710328E+03  0.28727735552E+03  0.41800000000E+01 0. -1.
         -5    1    3    3    0  502  0.54343100931E+02 -0.24774166238E+02 -0.17162077274E+03  0.18176384120E+03  0.41800000000E+01 0. -1.
        -11    1    1    2    0    0 -0.38198257085E+02  0.24985334597E+02  0.19695806864E+02  0.49712157440E+02  0.00000000000E+00 0. -1.
         11    1    1    2    0    0  0.54517339968E+02  0.30263463640E+02  0.42357057928E+02  0.75379957184E+02  0.00000000000E+00 0.  1.
</event>
<event>
 7    1  0.8661710E-006  0.1007186E+03  0.7561462E-02  0.1278792E+00
          1   -1    0    0  501    0  0.00000000000E+00  0.00000000000E+00  0.53813804239E+03  0.53813804239E+03  0.00000000000E+00 0. -1.
         -1   -1    0    0    0  501 -0.00000000000E+00 -0.00000000000E+00 -0.33776633793E+02  0.33776633793E+02  0.00000000000E+00 0.  1.
         23    2    1    2    0    0 -0.27337664079E+02  0.68666254406E+02  0.20476606436E+03  0.25107847840E+03  0.12509539894E+03 0.  0.
          5    1    3    3  502    0 -0.12096520040E+02 -0.42076161328E+01 -0.14313376886E+02  0.19656423593E+02  0.41800000000E+01 0. -1.
         -5    1    3    3    0  502 -0.15241144039E+02  0.72873870538E+02  0.21907944124E+03  0.23142205481E+03  0.41800000000E+01 0. -1.
        -11    1    1    2    0    0 -0.29844599724E+02 -0.10005958388E+02  0.10722055894E+03  0.11174554844E+03  0.00000000000E+00 0. -1.
         11    1    1    2    0    0  0.57182263802E+02 -0.58660296017E+02  0.19237478530E+03  0.20909064935E+03  0.00000000000E+00 0.  1.
</event>
<event>
 7    1  0.8661710E-006  0.1332198E+03  0.7561462E-02  0.1222755E+00
         -1   -1    0    0    0  501 -0.00000000000E+00  0.00000000000E+00  0.73171548789E+02  0.73171548789E+02  0.00000000000E+00 0. -1.
          1   -1    0    0  501    0  0.00000000000E+00 -0.00000000000E+00 -0.29124379329E+03  0.29124379329E+03  0.00000000000E+00 0.  1.
         23    2    1    2    0    0 -0.88527841516E+02 -0.79104442298E+01 -0.70456839517E+02  0.16885236486E+03  0.12508877262E+03 0.  0.
          5    1    3    3  502    0 -0.30123060416E+02 -0.64035116135E+02 -0.21343789665E+02  0.74033267012E+02  0.41800000000E+01 0. -1.
         -5    1    3    3    0  502 -0.58404781099E+02  0.56124671905E+02 -0.49113049852E+02  0.94819097852E+02  0.41800000000E+01 0. -1.
        -11    1    1    2    0    0 -0.10289833794E+02 -0.96136100024E+01 -0.62205544932E+02  0.63779557830E+02  0.00000000000E+00 0.  1.
         11    1    1    2    0    0  0.98817675310E+02  0.17524054232E+02 -0.85409860053E+02  0.13178341938E+03  0.00000000000E+00 0. -1.
</event>
<event>
 7    1  0.8661710E-006  0.9759602E+02  0.7561462E-02  0.1285434E+00
          1   -1    0    0  501    0  0.00000000000E+00  0.00000000000E+00  0.61621380218E+03  0.61621380218E+03  0.00000000000E+00 0. -1.
         -1   -1    0    0    0  501 -0.00000000000E+00 -0.00000000000E+00 -0.22985016960E+02  0.22985016960E+02  0.00000000000E+00 0.  1.
         23    2    1    2    0    0 -0.42905476869E+02 -0.63357611170E+01  0.25390016498E+03  0.28634599134E+03  0.12509081167E+03 0.  0.
          5    1    3    3  502    0 -0.77297622447E+02 -0.31814411882E+01  0.23349868769E+03  0.24601657171E+03  0.41800000000E+01 0. -1.
         -5    1    3    3    0  502  0.34392145578E+02 -0.31543199289E+01  0.20401477289E+02  0.40329419624E+02  0.41800000000E+01 0. -1.
        -11    1    1    2    0    0  0.60730050096E+02 -0.63332382242E+01  0.31166369212E+03  0.31758857958E+03  0.00000000000E+00 0. -1.
         11    1    1    2    0    0 -0.17824573227E+02  0.12668999341E+02  0.27664928116E+02  0.35264248222E+02  0.00000000000E+00 0.  1.
</event>
<event>
 7    1  0.8661710E-006  0.1282746E+03  0.7561462E-02  0.1230039E+00
          1   -1    0    0  501    0  0.00000000000E+00  0.00000000000E+00  0.30584769526E+03  0.30584769526E+03  0.00000000000E+00 0. -1.
         -1   -1    0    0    0  501 -0.00000000000E+00 -0.00000000000E+00 -0.85131087676E+02  0.85131087676E+02  0.00000000000E+00 0.  1.
         23    2    1    2    0    0  0.13216510005E+02 -0.80254561499E+02  0.13541723361E+02  0.14982146720E+03  0.12509045920E+03 0.  0.
          5    1    3    3  502    0 -0.32669840064E+02  0.12713674367E+02  0.27998386415E+02  0.45059272159E+02  0.41800000000E+01 0. -1.
         -5    1    3    3    0  502  0.45886350068E+02 -0.92968235866E+02 -0.14456663054E+02  0.10476219504E+03  0.41800000000E+01 0. -1.
        -11    1    1    2    0    0  0.10483226074E+02  0.90900856801E+02  0.12458858333E+03  0.15458065497E+03  0.00000000000E+00 0.  1.
         11    1    1    2    0    0 -0.23699736078E+02 -0.10646295302E+02  0.82586300897E+02  0.86576660768E+02  0.00000000000E+00 0. -1.
</event>
<event>
 7    1  0.8661710E-006  0.2330427E+03  0.7561462E-02  0.1124516E+00
          2   -1    0    0  501    0  0.00000000000E+00  0.00000000000E+00  0.18464329120E+04  0.18464329120E+04  0.00000000000E+00 0. -1.
         -2   -1    0    0    0  501 -0.00000000000E+00 -0.00000000000E+00 -0.31707906656E+02  0.31707906656E+02  0.00000000000E+00 0.  1.
         23    2    1    2    0    0 -0.10792024092E+02  0.20954357501E+03  0.74592542798E+03  0.78490521200E+03  0.12508585093E+03 0.  0.
          5    1    3    3  502    0  0.33705652921E+02  0.19148091250E+03  0.55887374277E+03  0.59174178798E+03  0.41800000000E+01 0. -1.
         -5    1    3    3    0  502 -0.44497677014E+02  0.18062662510E+02  0.18705168521E+03  0.19316342401E+03  0.41800000000E+01 0. -1.
        -11    1    1    2    0    0  0.20170458457E+02 -0.80804996597E+01  0.47795698187E+02  0.52503053571E+02  0.00000000000E+00 0.  1.
         11    1    1    2    0    0 -0.93784343642E+01 -0.20146307535E+03  0.10210038791E+04  0.10407325530E+04  0.00000000000E+00 0. -1.
</event>
<event>
 7    1  0.9770156E-006  0.2167251E+03  0.7561462E-02  0.1136348E+00
          1   -1    0    0  501    0  0.00000000000E+00  0.00000000000E+00  0.89568318831E+03  0.89568318831E+03  0.00000000000E+00 0. -1.
         -1   -1    0    0    0  501 -0.00000000000E+00 -0.00000000000E+00 -0.68448353440E+02  0.68448353440E+02  0.00000000000E+00 0.  1.
         23    2    1    2    0    0  0.18158403913E+03  0.54918520944E+02  0.20006918090E+03  0.30276024416E+03  0.12508909261E+03 0.  0.
          5    1    3    3  502    0  0.33408783649E+02  0.70060694354E+02  0.59205171971E+02  0.97710657077E+02  0.41800000000E+01 0.  1.
         -5    1    3    3    0  502  0.14817525548E+03 -0.15142173410E+02  0.14086400893E+03  0.20504958708E+03  0.41800000000E+01 0.  1.
        -11    1    1    2    0    0 -0.43850313510E+02 -0.53234759248E+02  0.15786100285E+03  0.17226980527E+03  0.00000000000E+00 0.  1.
         11    1    1    2    0    0 -0.13773372562E+03 -0.16837616955E+01  0.46930465112E+03  0.48910149232E+03  0.00000000000E+00 0. -1.
</event>
<event>
 7    1  0.8661710E-006  0.1254025E+03  0.7561462E-02  0.1234442E+00
         -1   -1    0    0    0  501 -0.00000000000E+00  0.00000000000E+00  0.35882478074E+02  0.35882478074E+02  0.00000000000E+00 0.  1.
          1   -1    0    0  501    0  0.00000000000E+00 -0.00000000000E+00 -0.47409331652E+03  0.47409331652E+03  0.00000000000E+00 0. -1.
         23    2    1    2    0    0  0.63320983651E+02 -0.18055519398E+02 -0.18155387179E+03  0.23009960139E+03  0.12509384256E+03 0.  0.
          5    1    3    3  502    0  0.26358339043E+02  0.53767056671E+02 -0.86548055741E+02  0.10532661949E+03  0.41800000000E+01 0.  1.
         -5    1    3    3    0  502  0.36962644608E+02 -0.71822576069E+02 -0.95005816051E+02  0.12477298190E+03  0.41800000000E+01 0.  1.
        -11    1    1    2    0    0 -0.82306429339E+02 -0.19303343447E+01 -0.16899832249E+03  0.18798539173E+03  0.00000000000E+00 0.  1.
         11    1    1    2    0    0  0.18985445688E+02  0.19985853743E+02 -0.87658644163E+02  0.91890801467E+02  0.00000000000E+00 0. -1.
</event>
<event>
 7    1  0.8661710E-006  0.1182170E+03  0.7561462E-02  0.1246068E+00
          2   -1    0    0  501    0  0.00000000000E+00  0.00000000000E+00  0.33876737478E+03  0.33876737478E+03  0.00000000000E+00 0. -1.
         -2   -1    0    0    0  501 -0.00000000000E+00 -0.00000000000E+00 -0.64409075897E+02  0.64409075897E+02  0.00000000000E+00 0.  1.
         23    2    1    2    0    0 -0.69457482566E+02 -0.55333087097E+02  0.84238328377E+02  0.17500960070E+03  0.12508465916E+03 0.  0.
          5    1    3    3  502    0 -0.96492407874E+02 -0.55826365532E+02  0.32025582578E+02  0.11606238928E+03  0.41800000000E+01 0.  1.
         -5    1    3    3    0  502  0.27034925308E+02  0.49327843478E+00  0.52212745798E+02  0.58947211417E+02  0.41800000000E+01 0.  1.
        -11    1    1    2    0    0  0.91384838239E+01  0.31265397273E+02  0.62539128843E+01  0.33168484735E+02  0.00000000000E+00 0.  1.
         11    1    1    2    0    0  0.60318998742E+02  0.24067689825E+02  0.18386605762E+03  0.19499836524E+03  0.00000000000E+00 0. -1.
</event>
<event>
 7    1  0.8661710E-006  0.1048476E+03  0.7561462E-02  0.1270420E+00
          1   -1    0    0  501    0  0.00000000000E+00  0.00000000000E+00  0.26725001807E+03  0.26725001807E+03  0.00000000000E+00 0. -1.
         -1   -1    0    0    0  501 -0.00000000000E+00 -0.00000000000E+00 -0.67349541599E+02  0.67349541599E+02  0.00000000000E+00 0.  1.
         23    2    1    2    0    0  0.22375072303E+02 -0.62594765588E+02  0.57923449428E+02  0.15304109659E+03  0.12509077788E+03 0.  0.
          5    1    3    3  502    0 -0.95609519688E-02  0.15096235305E+02 -0.29801399915E+02  0.33667376623E+02  0.41800000000E+01 0.  1.
         -5    1    3    3    0  502  0.22384633254E+02 -0.77691000893E+02  0.87724849343E+02  0.11937371996E+03  0.41800000000E+01 0.  1.
        -11    1    1    2    0    0  0.33797059820E+02  0.79815381561E+01  0.40271305035E+02  0.53176350128E+02  0.00000000000E+00 0.  1.
         11    1    1    2    0    0 -0.56172132122E+02  0.54613227432E+02  0.10170572201E+03  0.12838211296E+03  0.00000000000E+00 0. -1.
</event>
<event>
 7    1  0.8661710E-006  0.9593276E+02  0.7561462E-02  0.1289089E+00
          3   -1    0    0  501    0  0.00000000000E+00  0.00000000000E+00  0.34726944828E+03  0.34726944828E+03  0.00000000000E+00 0. -1.
         -3   -1    0    0    0  501 -0.00000000000E+00 -0.00000000000E+00 -0.51063583863E+02  0.51063583863E+02  0.00000000000E+00 0.  1.
         23    2    1    2    0    0  0.58106528130E+02 -0.32093528175E+02  0.11813114937E+03  0.18441516101E+03  0.12509044726E+03 0.  0.
          5    1    3    3  502    0  0.78244467878E+02 -0.22561135010E+02  0.20349626949E+02  0.84040355088E+02  0.41800000000E+01 0. -1.
         -5    1    3    3    0  502 -0.20137939748E+02 -0.95323931650E+01  0.97781522422E+02  0.10037480592E+03  0.41800000000E+01 0. -1.
        -11    1    1    2    0    0 -0.76433858846E+00 -0.14040075129E+02 -0.62921041912E+01  0.15404496040E+02  0.00000000000E+00 0.  1.
         11    1    1    2    0    0 -0.57342189541E+02  0.46133603304E+02  0.18436681924E+03  0.19851337509E+03  0.00000000000E+00 0. -1.
</event>
<event>
 7    1  0.8661710E-006  0.1296559E+03  0.7561462E-02  0.1227967E+00
         -1   -1    0    0    0  501 -0.00000000000E+00  0.00000000000E+00  0.11751727919E+03  0.11751727919E+03  0.00000000000E+00 0.  1.
          1   -1    0    0  501    0  0.00000000000E+00 -0.00000000000E+00 -0.19544170512E+03  0.19544170512E+03  0.00000000000E+00 0. -1.
         23    2    1    2    0    0  0.87909079570E+02 -0.21203543252E+02  0.17880609006E+02  0.15538590533E+03  0.12508983524E+03 0.  0.
          5    1    3    3  502    0  0.22313343963E+02  0.48589602252E+02  0.25157529245E+02  0.59238572261E+02  0.41800000000E+01 0. -1.
         -5    1    3    3    0  502  0.65595735607E+02 -0.69793145504E+02 -0.72769202392E+01  0.96147333074E+02  0.41800000000E+01 0. -1.
        -11    1    1    2    0    0  0.48708225629E+01 -0.10651854740E+02  0.84349365832E+01  0.14433817132E+02  0.00000000000E+00 0.  1.
         11    1    1    2    0    0 -0.92779902133E+02  0.31855397992E+02 -0.10423997151E+03  0.14313926185E+03  0.00000000000E+00 0. -1.
</event>
<event>
 7    1  0.8661710E-006  0.1164884E+03  0.7561462E-02  0.1249005E+00
          1   -1    0    0  501    0  0.00000000000E+00  0.00000000000E+00  0.54465344074E+03  0.54465344074E+03  0.00000000000E+00 0. -1.
         -1   -1    0    0    0  501 -0.00000000000E+00 -0.00000000000E+00 -0.31339470948E+02  0.31339470948E+02  0.00000000000E+00 0.  1.
         23    2    1    2    0    0  0.42688064834E+02  0.32015386642E+02  0.17546681064E+03  0.22209027226E+03  0.12525267077E+03 0.  0.
          5    1    3    3  502    0 -0.27218742850E+02  0.48417891673E+02  0.11631548674E+03  0.12896478997E+03  0.41800000000E+01 0. -1.
         -5    1    3    3    0  502  0.69906807684E+02 -0.16402505030E+02  0.59151323893E+02  0.93125482282E+02  0.41800000000E+01 0. -1.
        -11    1    1    2    0    0 -0.47740262596E+02 -0.60133691922E+02  0.25040119980E+03  0.26190829395E+03  0.00000000000E+00 0. -1.
         11    1    1    2    0    0  0.50521977620E+01  0.28118305279E+02  0.87445959354E+02  0.91994345486E+02  0.00000000000E+00 0.  1.
</event>
<event>
 7    1  0.8661710E-006  0.1213716E+03  0.7561462E-02  0.1240851E+00
         -2   -1    0    0    0  501 -0.00000000000E+00  0.00000000000E+00  0.18420685624E+02  0.18420685624E+02  0.00000000000E+00 0.  1.
          2   -1    0    0  501    0  0.00000000000E+00 -0.00000000000E+00 -0.88422005790E+03  0.88422005790E+03  0.00000000000E+00 0. -1.
         23    2    1    2    0    0  0.12622796374E+02 -0.51310133143E+02 -0.40894597140E+03  0.43098340468E+03  0.12537074155E+03 0.  0.
          5    1    3    3  502    0 -0.45368456312E+02  0.11679377895E+02 -0.10253832285E+03  0.11281083613E+03  0.41800000000E+01 0. -1.
         -5    1    3    3    0  502  0.57991252686E+02 -0.62989511038E+02 -0.30640764855E+03  0.31817256855E+03  0.41800000000E+01 0. -1.
        -11    1    1    2    0    0 -0.52040734535E+02  0.10195004590E+02 -0.13962980929E+03  0.14936083761E+03  0.00000000000E+00 0.  1.
         11    1    1    2    0    0  0.39417938161E+02  0.41115128553E+02 -0.31722359159E+03  0.32229650123E+03  0.00000000000E+00 0. -1.
</event>
<event>
 7    1  0.8661710E-006  0.1038596E+03  0.7561462E-02  0.1272383E+00
          1   -1    0    0  501    0  0.00000000000E+00  0.00000000000E+00  0.10600354533E+02  0.10600354533E+02  0.00000000000E+00 0. -1.
         -1   -1    0    0    0  501 -0.00000000000E+00 -0.00000000000E+00 -0.12864616481E+04  0.12864616481E+04  0.00000000000E+00 0.  1.
         23    2    1    2    0    0  0.37842195987E+02  0.76178014050E+01 -0.81671118144E+03  0.82713600794E+03  0.12508700591E+03 0.  0.
          5    1    3    3  502    0  0.65076118432E+02  0.30550399560E+02 -0.27606303542E+03  0.28530071859E+03  0.41800000000E+01 0.  1.
         -5    1    3    3    0  502 -0.27233922445E+02 -0.22932598155E+02 -0.54064814602E+03  0.54183528935E+03  0.41800000000E+01 0.  1.
        -11    1    1    2    0    0  0.28359496248E+02 -0.16895719659E+02 -0.16600873753E+03  0.16925905384E+03  0.00000000000E+00 0.  1.
         11    1    1    2    0    0 -0.66201692235E+02  0.92779182538E+01 -0.29314137464E+03  0.30066694090E+03  0.00000000000E+00 0. -1.
</event>
<event>
 7    1  0.8661710E-006  0.1057398E+03  0.7561462E-02  0.1268669E+00
          3   -1    0    0  501    0  0.00000000000E+00  0.00000000000E+00  0.16252113565E+03  0.16252113565E+03  0.00000000000E+00 0. -1.
         -3   -1    0    0    0  501 -0.00000000000E+00 -0.00000000000E+00 -0.84965131617E+02  0.84965131617E+02  0.00000000000E+00 0.  1.
         23    2    1    2    0    0 -0.40217720108E+02 -0.31213168005E+01  0.22765782931E+02  0.13338849438E+03  0.12508797677E+03 0.  0.
          5    1    3    3  502    0 -0.98170590720E+01 -0.62328742752E+02  0.10144752595E+01  0.63243563956E+02  0.41800000000E+01 0.  1.
         -5    1    3    3    0  502 -0.30400661036E+02  0.59207425951E+02  0.21751307671E+02  0.70144930427E+02  0.41800000000E+01 0.  1.
        -11    1    1    2    0    0  0.58204978565E+02 -0.10306374802E+02  0.48067690112E+01  0.59305530262E+02  0.00000000000E+00 0.  1.
         11    1    1    2    0    0 -0.17987258457E+02  0.13427691602E+02  0.49983452087E+02  0.54792242618E+02  0.00000000000E+00 0. -1.
</event>
<event>
 6    1  0.8661710E-006  0.1105530E+03  0.7561462E-02  0.1259549E+00
          1   -1    0    0  501    0  0.00000000000E+00  0.00000000000E+00  0.21260628699E+03  0.21260628699E+03  0.00000000000E+00 0. -1.
         -1   -1    0    0    0  501 -0.00000000000E+00 -0.00000000000E+00 -0.41459791782E+03  0.41459791782E+03  0.00000000000E+00 0.  1.
          5    1    1    2  502    0  0.15378515565E+02  0.17983515770E+02  0.29186044851E+02  0.37804803854E+02  0.41800000000E+01 0. -1.
         -5    1    1    2    0  502  0.21283343964E+02  0.84468680125E+02 -0.37633852161E+03  0.38631087727E+03  0.41800000000E+01 0.  1.
        -11    1    1    2    0    0 -0.67942983733E+01 -0.40805861670E+02 -0.13129360106E+01  0.41388460203E+02  0.00000000000E+00 0.  1.
         11    1    1    2    0    0 -0.29867561156E+02 -0.61646334225E+02  0.14647378194E+03  0.16170006347E+03  0.00000000000E+00 0. -1.
</event>
<event>
 7    1  0.8661710E-006  0.1075065E+03  0.7561462E-02  0.1265258E+00
          3   -1    0    0  501    0  0.00000000000E+00  0.00000000000E+00  0.56889634150E+03  0.56889634150E+03  0.00000000000E+00 0. -1.
         -3   -1    0    0    0  501 -0.00000000000E+00 -0.00000000000E+00 -0.23602387300E+02  0.23602387300E+02  0.00000000000E+00 0.  1.
         23    2    1    2    0    0 -0.13094665783E+02  0.18314221095E+02  0.23109016419E+03  0.26373591656E+03  0.12508832372E+03 0.  0.
          5    1    3    3  502    0  0.53961492878E+02  0.12105933937E+02  0.71650372203E+02  0.90607089054E+02  0.41800000000E+01 0. -1.
         -5    1    3    3    0  502 -0.67056158661E+02  0.62082871586E+01  0.15943979199E+03  0.17312882750E+03  0.41800000000E+01 0. -1.
        -11    1    1    2    0    0  0.85248773941E+01  0.36293508514E+02  0.17966267320E+03  0.18348996822E+03  0.00000000000E+00 0.  1.
         11    1    1    2    0    0  0.45697883892E+01 -0.54607729609E+02  0.13454111681E+03  0.14527284403E+03  0.00000000000E+00 0. -1.
</event>
<event>
 7    1  0.8661710E-006  0.2294327E+03  0.7561462E-02  0.1127040E+00
         -1   -1    0    0    0  501 -0.00000000000E+00  0.00000000000E+00  0.16456409842E+03  0.16456409842E+03  0.00000000000E+00 0.  1.
          1   -1    0    0  501    0  0.00000000000E+00 -0.00000000000E+00 -0.82534666711E+03  0.82534666711E+03  0.00000000000E+00 0. -1.
         23    2    1    2    0    0  0.50978846567E+02  0.20031600825E+03  0.47256968666E+02  0.24618446148E+03  0.12509285363E+03 0.  0.
          5    1    3    3  502    0  0.55168058057E+02  0.21644127004E+03  0.37798833510E+02  0.22657573176E+03  0.41800000000E+01 0.  1.
         -5    1    3    3    0  502 -0.41892114899E+01 -0.16125261791E+02  0.94581351562E+01  0.19608729724E+02  0.41800000000E+01 0.  1.
        -11    1    1    2    0    0 -0.56316731935E+02 -0.79894524710E+02 -0.21519070042E+03  0.23635089786E+03  0.00000000000E+00 0.  1.
         11    1    1    2    0    0  0.53378853677E+01 -0.12042148354E+03 -0.49284883694E+03  0.50737540618E+03  0.00000000000E+00 0. -1.
</event>
<event>
 7    1  0.8661710E-006  0.1229903E+03  0.7561462E-02  0.1238244E+00
          1   -1    0    0  501    0  0.00000000000E+00  0.00000000000E+00  0.64516476418E+03  0.64516476418E+03  0.00000000000E+00 0. -1.
         -1   -1    0    0    0  501 -0.00000000000E+00 -0.00000000000E+00 -0.25299885555E+02  0.25299885555E+02  0.00000000000E+00 0.  1.
         23    2    1    2    0    0 -0.64693276879E+02  0.14689978748E+02  0.34726276744E+03  0.37501957049E+03  0.12508890058E+03 0.  0.
          5    1    3    3  502    0  0.37331799123E+01  0.54474058155E+02  0.20476510402E+03  0.21196126974E+03  0.41800000000E+01 0. -1.
         -5    1    3    3    0  502 -0.68426456791E+02 -0.39784079407E+02  0.14249766342E+03  0.16305830075E+03  0.41800000000E+01 0. -1.
        -11    1    1    2    0    0  0.21970865234E+02 -0.51228448998E+02  0.16298865304E+03  0.17225670938E+03  0.00000000000E+00 0. -1.
         11    1    1    2    0    0  0.42722411645E+02  0.36538470249E+02  0.10961345814E+03  0.12318836986E+03  0.00000000000E+00 0.  1.
</event>
<event>
 7    1  0.8661710E-006  0.1269114E+03  0.7561462E-02  0.1232112E+00
         -2   -1    0    0    0  501 -0.00000000000E+00  0.00000000000E+00  0.12102519581E+03  0.12102519581E+03  0.00000000000E+00 0.  1.
          2   -1    0    0  501    0  0.00000000000E+00 -0.00000000000E+00 -0.16468320385E+03  0.16468320385E+03  0.00000000000E+00 0. -1.
         23    2    1    2    0    0 -0.88648867392E+02 -0.10307181629E+02 -0.19220507114E+02  0.15486369321E+03  0.12509386835E+03 0.  0.
          5    1    3    3  502    0 -0.50889989669E+02  0.41216701374E+02 -0.51269234384E+02  0.83274331669E+02  0.41800000000E+01 0. -1.
         -5    1    3    3    0  502 -0.37758877723E+02 -0.51523883003E+02  0.32048727270E+02  0.71589361544E+02  0.41800000000E+01 0. -1.
        -11    1    1    2    0    0  0.44117244246E+02 -0.38186721803E+02 -0.28387601761E+02  0.64887694486E+02  0.00000000000E+00 0. -1.
         11    1    1    2    0    0  0.44531623146E+02  0.48493903432E+02  0.39501008379E+01  0.65957011960E+02  0.00000000000E+00 0.  1.
</event>
<event>
 7    1  0.8661710E-006  0.1796528E+03  0.7561462E-02  0.1168139E+00
         -2   -1    0    0    0  501 -0.00000000000E+00  0.00000000000E+00  0.33354335873E+02  0.33354335873E+02  0.00000000000E+00 0.  1.
          2   -1    0    0  501    0  0.00000000000E+00 -0.00000000000E+00 -0.12029592975E+04  0.12029592975E+04  0.00000000000E+00 0. -1.
         23    2    1    2    0    0  0.15790105291E+03  0.25213593947E+02 -0.45615475280E+03  0.49929235718E+03  0.12508889481E+03 0.  0.
          5    1    3    3  502    0  0.12503220900E+03  0.70260023010E+02 -0.28238120086E+03  0.31674301747E+03  0.41800000000E+01 0.  1.
         -5    1    3    3    0  502  0.32868843908E+02 -0.45046429063E+02 -0.17377355194E+03  0.18254933970E+03  0.41800000000E+01 0.  1.
        -11    1    1    2    0    0 -0.11141800410E+03 -0.18230180081E+02 -0.63955161648E+03  0.64944020606E+03  0.00000000000E+00 0.  1.
         11    1    1    2    0    0 -0.46483048805E+02 -0.69834138661E+01 -0.73898592335E+02  0.87581070127E+02  0.00000000000E+00 0. -1.
</event>
<event>
 7    1  0.8661710E-006  0.1193451E+03  0.7561462E-02  0.1244181E+00
          1   -1    0    0  501    0  0.00000000000E+00  0.00000000000E+00  0.11299307328E+03  0.11299307328E+03  0.00000000000E+00 0. -1.
         -1   -1    0    0    0  501 -0.00000000000E+00 -0.00000000000E+00 -0.19281183953E+03  0.19281183953E+03  0.00000000000E+00 0.  1.
         23    2    1    2    0    0  0.48465672392E+02  0.18459645187E+02 -0.13214983966E+03  0.18921276071E+03  0.12509280073E+03 0.  0.
          5    1    3    3  502    0  0.71692950585E+02  0.55827717163E+02 -0.83364046310E+02  0.12338415532E+03  0.41800000000E+01 0.  1.
         -5    1    3    3    0  502 -0.23227278193E+02 -0.37368071977E+02 -0.48785793345E+02  0.65828605392E+02  0.41800000000E+01 0.  1.
        -11    1    1    2    0    0 -0.32944857644E+02  0.34880382792E+02  0.30793617881E+02  0.57010978338E+02  0.00000000000E+00 0. -1.
         11    1    1    2    0    0 -0.15520814748E+02 -0.53340027979E+02  0.21537455530E+02  0.59581173754E+02  0.00000000000E+00 0.  1.
</event>
<event>
 7    1  0.8661710E-006  0.1183212E+03  0.7561462E-02  0.1245892E+00
         -3   -1    0    0    0  501 -0.00000000000E+00  0.00000000000E+00  0.50945104910E+02  0.50945104910E+02  0.00000000000E+00 0. -1.
          3   -1    0    0  501    0  0.00000000000E+00 -0.00000000000E+00 -0.56161761262E+03  0.56161761262E+03  0.00000000000E+00 0.  1.
         23    2    1    2    0    0  0.56903198768E+02  0.71331344251E+02 -0.10561569985E+03  0.18742453797E+03  0.12508855533E+03 0.  0.
          5    1    3    3  502    0  0.23969098162E+02 -0.16759001639E+02 -0.86444687678E+02  0.91353917433E+02  0.41800000000E+01 0. -1.
         -5    1    3    3    0  502  0.32934100606E+02  0.88090345890E+02 -0.19171012171E+02  0.96070620532E+02  0.41800000000E+01 0. -1.
        -11    1    1    2    0    0 -0.17040831627E+02  0.11825792541E+02 -0.18696469918E+02  0.27924850925E+02  0.00000000000E+00 0. -1.
         11    1    1    2    0    0 -0.39862367141E+02 -0.83157136792E+02 -0.38636033794E+03  0.39721332864E+03  0.00000000000E+00 0.  1.
</event>
<event>
 7    1  0.8661710E-006  0.1132630E+03  0.7561462E-02  0.1254644E+00
          1   -1    0    0  501    0  0.00000000000E+00  0.00000000000E+00  0.59728972241E+02  0.59728972241E+02  0.00000000000E+00 0. -1.
         -1   -1    0    0    0  501 -0.00000000000E+00 -0.00000000000E+00 -0.35060416368E+03  0.35060416368E+03  0.00000000000E+00 0.  1.
         23    2    1    2    0    0  0.39916512754E+02 -0.15599034644E+02 -0.27943470174E+03  0.30914017813E+03  0.12508892566E+03 0.  0.
          5    1    3    3  502    0 -0.43485123484E+02  0.86940755064E+01 -0.11034794322E+03  0.11899867178E+03  0.41800000000E+01 0.  1.
         -5    1    3    3    0  502  0.83401636238E+02 -0.24293110150E+02 -0.16908675852E+03  0.19014150635E+03  0.41800000000E+01 0.  1.
        -11    1    1    2    0    0 -0.64274589722E+02  0.24918055778E+02  0.69439011979E+01  0.69284559258E+02  0.00000000000E+00 0. -1.
         11    1    1    2    0    0  0.24358076968E+02 -0.93190211345E+01 -0.18384390897E+02  0.31908398536E+02  0.00000000000E+00 0.  1.
</event>
<event>
 7    1  0.8661710E-006  0.1284583E+03  0.7561462E-02  0.1229761E+00
         -1   -1    0    0    0  501 -0.00000000000E+00  0.00000000000E+00  0.11907078217E+02  0.11907078217E+02  0.00000000000E+00 0.  1.
          1   -1    0    0  501    0  0.00000000000E+00 -0.00000000000E+00 -0.15734733830E+04  0.15734733830E+04  0.00000000000E+00 0. -1.
         23    2    1    2    0    0 -0.77395306150E+02 -0.14129599862E+02 -0.10363209112E+04  0.10468035256E+04  0.12508761396E+03 0.  0.
          5    1    3    3  502    0  0.24988393962E+02  0.24977722209E+02 -0.17954190479E+03  0.18303298723E+03  0.41800000000E+01 0. -1.
         -5    1    3    3    0  502 -0.10238370011E+03 -0.39107322071E+02 -0.85677900645E+03  0.86377053838E+03  0.41800000000E+01 0. -1.
        -11    1    1    2    0    0  0.28094187729E+01  0.34284756972E+02 -0.86650142282E+02  0.93228668080E+02  0.00000000000E+00 0.  1.
         11    1    1    2    0    0  0.74585887378E+02 -0.20155157110E+02 -0.43859525128E+03  0.44534826754E+03  0.00000000000E+00 0. -1.
</event>
<event>
 7    1  0.8661710E-006  0.1389722E+03  0.7561462E-02  0.1214719E+00
         -1   -1    0    0    0  501 -0.00000000000E+00  0.00000000000E+00  0.73714857100E+02  0.73714857100E+02  0.00000000000E+00 0.  1.
          1   -1    0    0  501    0  0.00000000000E+00 -0.00000000000E+00 -0.48589848057E+03  0.48589848057E+03  0.00000000000E+00 0. -1.
         23    2    1    2    0    0 -0.10824211787E+03 -0.22456071641E+01 -0.54233498866E+02  0.17409536960E+03  0.12508607630E+03 0.  0.
          5    1    3    3  502    0 -0.22287068885E+02 -0.37152354248E+02  0.26571285924E+02  0.50995259597E+02  0.41800000000E+01 0. -1.
         -5    1    3    3    0  502 -0.85955048985E+02  0.34906747084E+02 -0.80804784790E+02  0.12310011000E+03  0.41800000000E+01 0. -1.
        -11    1    1    2    0    0  0.32014500890E+02  0.44173121904E+02 -0.11078227194E+03  0.12348645570E+03  0.00000000000E+00 0.  1.
         11    1    1    2    0    0  0.76227616980E+02 -0.41927514740E+02 -0.24716785267E+03  0.26203151237E+03  0.00000000000E+00 0. -1.
</event>
<event>
 6    1  0.8661710E-006  0.1350774E+03  0.7561462E-02  0.1220110E+00
         -1   -1    0    0    0  501 -0.00000000000E+00  0.00000000000E+00  0.83602790658E+03  0.83602790658E+03  0.00000000000E+00 0.  1.
          1   -1    0    0  501    0  0.00000000000E+00 -0.00000000000E+00 -0.51043963096E+02  0.51043963096E+02  0.00000000000E+00 0. -1.
          5    1    1    2  502    0  0.32164973785E+02 -0.12987039544E+02  0.80861944851E+02  0.88087316112E+02  0.41800000000E+01 0. -1.
         -5    1    1    2    0  502 -0.65409377913E+02  0.92207859404E+02  0.65778751708E+03  0.66744480377E+03  0.41800000000E+01 0.  1.
        -11    1    1    2    0    0  0.45573983216E+02 -0.93018628282E+02  0.45157174320E+02  0.11299833426E+03  0.00000000000E+00 0. -1.
         11    1    1    2    0    0 -0.12329579088E+02  0.13797808422E+02  0.11773072392E+01  0.18541415536E+02  0.00000000000E+00 0.  1.
</event>
<event>
 7    1  0.8661710E-006  0.1289330E+03  0.7561462E-02  0.1229048E+00
          2   -1    0    0  501    0  0.00000000000E+00  0.00000000000E+00  0.10111094622E+03  0.10111094622E+03  0.00000000000E+00 0. -1.
         -2   -1    0    0    0  501 -0.00000000000E+00 -0.00000000000E+00 -0.19005886068E+03  0.19005886068E+03  0.00000000000E+00 0.  1.
         23    2    1    2    0    0 -0.81014740311E+02  0.16194706806E+02 -0.71841016646E+02  0.16624499902E+03  0.12510240346E+03 0.  0.
          5    1    3    3  502    0 -0.35818466258E+02 -0.54763739542E+02 -0.28197198363E+02  0.71376355253E+02  0.41800000000E+01 0. -1.
         -5    1    3    3    0  502 -0.45196274053E+02  0.70958446347E+02 -0.43643818283E+02  0.94868643769E+02  0.41800000000E+01 0. -1.
        -11    1    1    2    0    0 -0.46702257135E+01 -0.21703256099E+02 -0.30811433733E+02  0.37976134376E+02  0.00000000000E+00 0.  1.
         11    1    1    2    0    0  0.85684966025E+02  0.55085492928E+01  0.13704535920E+02  0.86948673496E+02  0.00000000000E+00 0. -1.
</event>
<event>
 7    1  0.8661710E-006  0.7862800E+02  0.7561462E-02  0.1332991E+00
          1   -1    0    0  501    0  0.00000000000E+00  0.00000000000E+00  0.15174047345E+03  0.15174047345E+03  0.00000000000E+00 0. -1.
         -1   -1    0    0    0  501 -0.00000000000E+00 -0.00000000000E+00 -0.94799759515E+02  0.94799759515E+02  0.00000000000E+00 0.  1.
         23    2    1    2    0    0  0.15946234820E+02 -0.16999359188E+02 -0.17564930576E+02  0.12845060780E+03  0.12509105180E+03 0.  0.
          5    1    3    3  502    0  0.82133259990E+01 -0.40004869502E+02 -0.63915262375E+02  0.75963685221E+02  0.41800000000E+01 0. -1.
         -5    1    3    3    0  502  0.77329088206E+01  0.23005510314E+02  0.46350331799E+02  0.52486922576E+02  0.41800000000E+01 0. -1.
        -11    1    1    2    0    0 -0.52747023179E+02  0.14430194074E+02  0.46269877062E+02  0.71633654651E+02  0.00000000000E+00 0.  1.
         11    1    1    2    0    0  0.36800788359E+02  0.25691651141E+01  0.28235767447E+02  0.46455970516E+02  0.00000000000E+00 0. -1.
</event>
<event>
 7    1  0.8661710E-006  0.1362594E+03  0.7561462E-02  0.1218453E+00
          1   -1    0    0  501    0  0.00000000000E+00  0.00000000000E+00  0.28615315672E+03  0.28615315672E+03  0.00000000000E+00 0. -1.
         -1   -1    0    0    0  501 -0.00000000000E+00 -0.00000000000E+00 -0.87169418362E+02  0.87169418362E+02  0.00000000000E+00 0.  1.
         23    2    1    2    0    0 -0.10791033025E+03  0.11969580489E+02  0.64723334376E+02  0.17783151690E+03  0.12508808160E+03 0.  0.
          5    1    3    3  502    0 -0.44207852297E+01  0.52405014593E+02  0.32919705838E+02  0.62185274213E+02  0.41800000000E+01 0. -1.
         -5    1    3    3    0  502 -0.10348954502E+03 -0.40435434104E+02  0.31803628538E+02  0.11564624269E+03  0.41800000000E+01 0. -1.
        -11    1    1    2    0    0  0.15925286410E+02 -0.20346924366E+01  0.92674187657E+02  0.94054557457E+02  0.00000000000E+00 0. -1.
         11    1    1    2    0    0  0.91985043841E+02 -0.99348880527E+01  0.41586216329E+02  0.10143650073E+03  0.00000000000E+00 0.  1.
</event>
<event>
 7    1  0.8661710E-006  0.1167537E+03  0.7561462E-02  0.1248551E+00
         -1   -1    0    0    0  501 -0.00000000000E+00  0.00000000000E+00  0.15320080486E+03  0.15320080486E+03  0.00000000000E+00 0.  1.
          1   -1    0    0  501    0  0.00000000000E+00 -0.00000000000E+00 -0.99622461659E+02  0.99622461659E+02  0.00000000000E+00 0. -1.
         23    2    1    2    0    0  0.37894745315E+02 -0.42770064430E+02  0.42241280531E+02  0.14386189460E+03  0.12508648529E+03 0.  0.
          5    1    3    3  502    0 -0.39242348757E+02 -0.32511111984E+02 -0.71065419226E+01  0.51622763162E+02  0.41800000000E+01 0. -1.
         -5    1    3    3    0  502  0.77137094072E+02 -0.10258952446E+02  0.49347822453E+02  0.92239131436E+02  0.41800000000E+01 0. -1.
        -11    1    1    2    0    0  0.10947165095E+01 -0.25663241397E+02 -0.96708591425E+01  0.27446782686E+02  0.00000000000E+00 0. -1.
         11    1    1    2    0    0 -0.38989461824E+02  0.68433305827E+02  0.21007921817E+02  0.81514589239E+02  0.00000000000E+00 0.  1.
</event>
<event>
 7    1  0.8661710E-006  0.1128762E+03  0.7561462E-02  0.1255334E+00
          1   -1    0    0  501    0  0.00000000000E+00  0.00000000000E+00  0.58423097476E+03  0.58423097476E+03  0.00000000000E+00 0. -1.
         -1   -1    0    0    0  501 -0.00000000000E+00 -0.00000000000E+00 -0.28129135787E+02  0.28129135787E+02  0.00000000000E+00 0.  1.
         23    2    1    2    0    0 -0.50673723432E+02  0.17186287120E+02  0.20142202226E+03  0.24306565839E+03  0.12508752347E+03 0.  0.
          5    1    3    3  502    0 -0.29872517566E+02 -0.50148691187E+02  0.13037359820E+03  0.14290558436E+03  0.41800000000E+01 0. -1.
         -5    1    3    3    0  502 -0.20801205866E+02  0.67334978308E+02  0.71048424056E+02  0.10016007403E+03  0.41800000000E+01 0. -1.
        -11    1    1    2    0    0  0.50910800108E+02  0.23410390363E+02  0.26490881223E+03  0.27077044658E+03  0.00000000000E+00 0. -1.
         11    1    1    2    0    0 -0.23707667624E+00 -0.40596677483E+02  0.89771004485E+02  0.98524005573E+02  0.00000000000E+00 0.  1.
</event>
<event>
 7    1  0.8661710E-006  0.1341835E+03  0.7561462E-02  0.1221377E+00
         -3   -1    0    0    0  501 -0.00000000000E+00  0.00000000000E+00  0.52032061087E+03  0.52032061087E+03  0.00000000000E+00 0.  1.
          3   -1    0    0  501    0  0.00000000000E+00 -0.00000000000E+00 -0.17153933207E+03  0.17153933207E+03  0.00000000000E+00 0. -1.
         23    2    1    2    0    0  0.87069600858E+02  0.79320082438E+02  0.46947799862E+03  0.49992863015E+03  0.12508498384E+03 0.  0.
          5    1    3    3  502    0  0.36149526876E+02  0.20453070879E+02  0.24978956625E+02  0.48647066467E+02  0.41800000000E+01 0. -1.
         -5    1    3    3    0  502  0.50920073982E+02  0.58867011558E+02  0.44449904200E+03  0.45128156368E+03  0.41800000000E+01 0. -1.
        -11    1    1    2    0    0 -0.10426388245E+03 -0.52291169730E+02 -0.10124637206E+03  0.15445436695E+03  0.00000000000E+00 0.  1.
         11    1    1    2    0    0  0.17194281588E+02 -0.27028912707E+02 -0.19450347754E+02  0.37476945836E+02  0.00000000000E+00 0. -1.
</event>
<event>
 7    1  0.8661710E-006  0.1357394E+03  0.7561462E-02  0.1219180E+00
         -1   -1    0    0    0  501 -0.00000000000E+00  0.00000000000E+00  0.41289360727E+02  0.41289360727E+02  0.00000000000E+00 0.  1.
          1   -1    0    0  501    0  0.00000000000E+00 -0.00000000000E+00 -0.47875530417E+03  0.47875530417E+03  0.00000000000E+00 0. -1.
         23    2    1    2    0    0  0.61361984566E+02 -0.56476747766E+02 -0.19230031763E+03  0.24409402935E+03  0.12509023469E+03 0.  0.
          5    1    3    3  502    0 -0.82668380962E+01  0.33957583544E+02 -0.57477838200E+02  0.67399053231E+02  0.41800000000E+01 0.  1.
         -5    1    3    3    0  502  0.69628822662E+02 -0.90434331310E+02 -0.13482247943E+03  0.17669497612E+03  0.41800000000E+01 0.  1.
        -11    1    1    2    0    0 -0.42102478409E+02  0.80760320170E+02 -0.14622410799E+03  0.17226821459E+03  0.00000000000E+00 0.  1.
         11    1    1    2    0    0 -0.19259506157E+02 -0.24283572404E+02 -0.98941517825E+02  0.10368242096E+03  0.00000000000E+00 0. -1.
</event>
<event>
 7    1  0.8661710E-006  0.8877482E+02  0.7561462E-02  0.1305846E+00
          1   -1    0    0  501    0  0.00000000000E+00  0.00000000000E+00  0.81539315787E+02  0.81539315787E+02  0.00000000000E+00 0. -1.
         -1   -1    0    0    0  501 -0.00000000000E+00 -0.00000000000E+00 -0.16043412575E+03  0.16043412575E+03  0.00000000000E+00 0.  1.
         23    2    1    2    0    0  0.15351404956E+02  0.22964560898E+02 -0.60289637048E+02  0.14158381741E+03  0.12509236718E+03 0.  0.
          5    1    3    3  502    0 -0.19394017438E+02 -0.41596891423E+02 -0.49030070611E+02  0.67289297162E+02  0.41800000000E+01 0.  1.
         -5    1    3    3    0  502  0.34745422393E+02  0.64561452321E+02 -0.11259566437E+02  0.74294520252E+02  0.41800000000E+01 0.  1.
        -11    1    1    2    0    0 -0.18113398259E+02 -0.38341323403E+02  0.28280240097E+02  0.50969836735E+02  0.00000000000E+00 0. -1.
         11    1    1    2    0    0  0.27619933031E+01  0.15376762506E+02 -0.46885413009E+02  0.49419787385E+02  0.00000000000E+00 0.  1.
</event>
<event>
 7    1  0.8661710E-006  0.8066150E+02  0.7561462E-02  0.1327185E+00
         -1   -1    0    0    0  501 -0.00000000000E+00  0.00000000000E+00  0.61020774446E+03  0.61020774446E+03  0.00000000000E+00 0.  1.
          1   -1    0    0  501    0  0.00000000000E+00 -0.00000000000E+00 -0.20273709478E+02  0.20273709478E+02  0.00000000000E+00 0. -1.
         23    2    1    2    0    0 -0.24805914160E+02  0.14401336862E+01  0.30910045132E+03  0.33437788196E+03  0.12509225225E+03 0.  0.
          5    1    3    3  502    0 -0.20101513271E+02 -0.33670878045E+02  0.29230093384E+03  0.29494932987E+03  0.41800000000E+01 0.  1.
         -5    1    3    3    0  502 -0.47044008885E+01  0.35111011731E+02  0.16799517479E+02  0.39428552092E+02  0.41800000000E+01 0.  1.
        -11    1    1    2    0    0  0.40860135692E+02  0.30150266668E+02  0.10376318107E+03  0.11552223602E+03  0.00000000000E+00 0. -1.
         11    1    1    2    0    0 -0.16054221532E+02 -0.31590400354E+02  0.17707040259E+03  0.18058133596E+03  0.00000000000E+00 0.  1.
</event>
<event>
 7    1  0.8661710E-006  0.1403735E+03  0.7561462E-02  0.1212827E+00
          2   -1    0    0  501    0  0.00000000000E+00  0.00000000000E+00  0.22585189599E+03  0.22585189599E+03  0.00000000000E+00 0. -1.
         -2   -1    0    0    0  501 -0.00000000000E+00 -0.00000000000E+00 -0.97656121886E+02  0.97656121886E+02  0.00000000000E+00 0.  1.
         23    2    1    2    0    0  0.53496503753E+02 -0.78323707774E+02  0.30710690704E+02  0.15996334577E+03  0.12509454965E+03 0.  0.
          5    1    3    3  502    0  0.79908237724E+02 -0.90652323132E+02  0.42610408627E+02  0.12820409303E+03  0.41800000000E+01 0.  1.
         -5    1    3    3    0  502 -0.26411733971E+02  0.12328615358E+02 -0.11899717924E+02  0.31759252741E+02  0.41800000000E+01 0.  1.
        -11    1    1    2    0    0  0.25352418481E+02  0.17568801742E+02  0.15148103107E+02  0.34363831934E+02  0.00000000000E+00 0.  1.
         11    1    1    2    0    0 -0.78848922234E+02  0.60754906032E+02  0.82336980296E+02  0.12918084018E+03  0.00000000000E+00 0. -1.
</event>
<event>
 7    1  0.8661710E-006  0.1025972E+03  0.7561462E-02  0.1274927E+00
         -1   -1    0    0    0  501 -0.00000000000E+00  0.00000000000E+00  0.60190720711E+03  0.60190720711E+03  0.00000000000E+00 0.  1.
          1   -1    0    0  501    0  0.00000000000E+00 -0.00000000000E+00 -0.33911455307E+02  0.33911455307E+02  0.00000000000E+00 0. -1.
         23    2    1    2    0    0  0.63353475538E+02 -0.20797908477E+02  0.45247934415E+03  0.47416491454E+03  0.12509433816E+03 0.  0.
          5    1    3    3  502    0  0.71262500612E+02  0.54826719964E+00  0.44370765032E+03  0.44941361344E+03  0.41800000000E+01 0.  1.
         -5    1    3    3    0  502 -0.79090250733E+01 -0.21346175677E+02  0.87716938260E+01  0.24751301101E+02  0.41800000000E+01 0.  1.
        -11    1    1    2    0    0 -0.26703626202E+01 -0.30856455502E+02  0.18394939463E+02  0.36022569043E+02  0.00000000000E+00 0. -1.
         11    1    1    2    0    0 -0.60683112918E+02  0.51654363979E+02  0.97121468194E+02  0.12563117884E+03  0.00000000000E+00 0.  1.
</event>
<event>
 7    1  0.8661710E-006  0.1312364E+03  0.7561462E-02  0.1225633E+00
         -1   -1    0    0    0  501 -0.00000000000E+00  0.00000000000E+00  0.15631653578E+02  0.15631653578E+02  0.00000000000E+00 0.  1.
          1   -1    0    0  501    0  0.00000000000E+00 -0.00000000000E+00 -0.12719670361E+04  0.12719670361E+04  0.00000000000E+00 0. -1.
         23    2    1    2    0    0  0.90313515055E+02 -0.42929213488E+00 -0.75222982458E+03  0.76789017052E+03  0.12509552234E+03 0.  0.
          5    1    3    3  502    0  0.90809043632E+01  0.43481837691E+02 -0.10490001629E+03  0.11399394217E+03  0.41800000000E+01 0.  1.
         -5    1    3    3    0  502  0.81232610692E+02 -0.43911129825E+02 -0.64732980828E+03  0.65389622835E+03  0.41800000000E+01 0.  1.
        -11    1    1    2    0    0 -0.36976843085E+02 -0.42947241539E+02 -0.26013702673E+03  0.26623866202E+03  0.00000000000E+00 0.  1.
         11    1    1    2    0    0 -0.53336671970E+02  0.43376533674E+02 -0.24396853118E+03  0.25346985710E+03  0.00000000000E+00 0. -1.
</event>
<event>
 7    1  0.8661710E-006  0.9619661E+02  0.7561462E-02  0.1288504E+00
          2   -1    0    0  501    0  0.00000000000E+00  0.00000000000E+00  0.40256918693E+03  0.40256918693E+03  0.00000000000E+00 0. -1.
         -2   -1    0    0    0  501 -0.00000000000E+00 -0.00000000000E+00 -0.33941418812E+02  0.33941418812E+02  0.00000000000E+00 0.  1.
         23    2    1    2    0    0 -0.16980343886E+02  0.32998523300E+02  0.16668099242E+03  0.21167671407E+03  0.12508894206E+03 0.  0.
          5    1    3    3  502    0 -0.25810374013E+02  0.61054883482E+02  0.31938839043E+02  0.73698277070E+02  0.41800000000E+01 0. -1.
         -5    1    3    3    0  502  0.88300301261E+01 -0.28056360182E+02  0.13474215338E+03  0.13797843700E+03  0.41800000000E+01 0. -1.
        -11    1    1    2    0    0  0.53502205241E+02 -0.15085045136E+02  0.14096669096E+03  0.15153102822E+03  0.00000000000E+00 0.  1.
         11    1    1    2    0    0 -0.36521861355E+02 -0.17913478164E+02  0.60980084733E+02  0.73302863456E+02  0.00000000000E+00 0. -1.
</event>
<event>
 7    1  0.8661710E-006  0.1057315E+03  0.7561462E-02  0.1268685E+00
          1   -1    0    0  501    0  0.00000000000E+00  0.00000000000E+00  0.11531035368E+03  0.11531035368E+03  0.00000000000E+00 0. -1.
         -1   -1    0    0    0  501 -0.00000000000E+00 -0.00000000000E+00 -0.12485305353E+03  0.12485305353E+03  0.00000000000E+00 0.  1.
         23    2    1    2    0    0 -0.51142927021E+01 -0.45770226331E+02 -0.28879285198E+02  0.13638415457E+03  0.12508219257E+03 0.  0.
          5    1    3    3  502    0 -0.97155804589E+01 -0.77011770785E+02 -0.54971522130E+02  0.95207909274E+02  0.41800000000E+01 0.  1.
         -5    1    3    3    0  502  0.46012877568E+01  0.31241544454E+02  0.26092236932E+02  0.41176245300E+02  0.41800000000E+01 0.  1.
        -11    1    1    2    0    0  0.48051756170E+02  0.25348818403E+02  0.81664526861E+01  0.54938372882E+02  0.00000000000E+00 0. -1.
         11    1    1    2    0    0 -0.42937463468E+02  0.20421407928E+02  0.11170132661E+02  0.48840879747E+02  0.00000000000E+00 0.  1.
</event>
<event>
 7    1  0.8661710E-006  0.1250027E+03  0.7561462E-02  0.1235065E+00
          3   -1    0    0  501    0  0.00000000000E+00  0.00000000000E+00  0.20679061646E+03  0.20679061646E+03  0.00000000000E+00 0. -1.
         -3   -1    0    0    0  501 -0.00000000000E+00 -0.00000000000E+00 -0.10853077796E+03  0.10853077796E+03  0.00000000000E+00 0.  1.
         23    2    1    2    0    0  0.27388093782E+02 -0.92956642830E+02  0.16346316310E+02  0.15907781663E+03  0.12508998585E+03 0.  0.
          5    1    3    3  502    0  0.57986919684E+02 -0.69547709907E+02 -0.32882175382E+02  0.96426535069E+02  0.41800000000E+01 0.  1.
         -5    1    3    3    0  502 -0.30598825902E+02 -0.23408932923E+02  0.49228491692E+02  0.62651281563E+02  0.41800000000E+01 0.  1.
        -11    1    1    2    0    0  0.84034958878E+01  0.83043003988E+02  0.84807407678E+02  0.11899183019E+03  0.00000000000E+00 0. -1.
         11    1    1    2    0    0 -0.35791589670E+02  0.99136388417E+01 -0.28938854879E+01  0.37251747602E+02  0.00000000000E+00 0.  1.
</event>
<event>
 7    1  0.8661710E-006  0.1193994E+03  0.7561462E-02  0.1244091E+00
         -1   -1    0    0    0  501 -0.00000000000E+00  0.00000000000E+00  0.19796618501E+02  0.19796618501E+02  0.00000000000E+00 0. -1.
          1   -1    0    0  501    0  0.00000000000E+00 -0.00000000000E+00 -0.74911473618E+03  0.74911473618E+03  0.00000000000E+00 0.  1.
         23    2    1    2    0    0  0.28447714498E+02  0.43815965632E+02 -0.34145005204E+03  0.36737543786E+03  0.12508981974E+03 0.  0.
          5    1    3    3  502    0 -0.37046999945E+02 -0.20983764698E+02 -0.93308325294E+02  0.10264850001E+03  0.41800000000E+01 0.  1.
         -5    1    3    3    0  502  0.65494714443E+02  0.64799730331E+02 -0.24814172674E+03  0.26472693785E+03  0.41800000000E+01 0.  1.
        -11    1    1    2    0    0 -0.40954130690E+02  0.15032766942E+02 -0.17102290421E+03  0.17649945798E+03  0.00000000000E+00 0. -1.
         11    1    1    2    0    0  0.12506416192E+02 -0.58848732574E+02 -0.21684516143E+03  0.22503645884E+03  0.00000000000E+00 0.  1.
</event>
<event>
 7    1  0.8661710E-006  0.1231355E+03  0.7561462E-02  0.1238012E+00
         -1   -1    0    0    0  501 -0.00000000000E+00  0.00000000000E+00  0.16921043118E+03  0.16921043118E+03  0.00000000000E+00 0.  1.
          1   -1    0    0  501    0  0.00000000000E+00 -0.00000000000E+00 -0.93134035991E+02  0.93134035991E+02  0.00000000000E+00 0. -1.
         23    2    1    2    0    0  0.44794716122E+02 -0.42023649667E+02  0.33907182814E+02  0.14342206586E+03  0.12509052005E+03 0.  0.
          5    1    3    3  502    0 -0.40342662896E+02 -0.11617399666E+01  0.26800407043E+02  0.48627300017E+02  0.41800000000E+01 0.  1.
         -5    1    3    3    0  502  0.85137379017E+02 -0.40861909700E+02  0.71067757711E+01  0.94794765848E+02  0.41800000000E+01 0.  1.
        -11    1    1    2    0    0  0.23353561941E+02  0.35789366898E+02  0.17491445606E+02  0.46175949451E+02  0.00000000000E+00 0.  1.
         11    1    1    2    0    0 -0.68148278063E+02  0.62342827690E+01  0.24677766766E+02  0.72746451853E+02  0.00000000000E+00 0. -1.
</event>
<event>
 7    1  0.8661710E-006  0.9152170E+02  0.7561462E-02  0.1299208E+00
         -1   -1    0    0    0  501 -0.00000000000E+00  0.00000000000E+00  0.31739177804E+03  0.31739177804E+03  0.00000000000E+00 0.  1.
          1   -1    0    0  501    0  0.00000000000E+00 -0.00000000000E+00 -0.39545520967E+02  0.39545520967E+02  0.00000000000E+00 0. -1.
         23    2    1    2    0    0  0.21357767255E+02 -0.20380370152E+02  0.17306834762E+03  0.21557282579E+03  0.12508987394E+03 0.  0.
          5    1    3    3  502    0  0.21041659951E+02  0.40330536837E+02  0.13793766869E+03  0.14530511519E+03  0.41800000000E+01 0.  1.
         -5    1    3    3    0  502  0.31610730363E+00 -0.60710906989E+02  0.35130678923E+02  0.70267710599E+02  0.41800000000E+01 0.  1.
        -11    1    1    2    0    0  0.13109668188E+02  0.36260036759E+02  0.94476714453E+02  0.10204167403E+03  0.00000000000E+00 0.  1.
         11    1    1    2    0    0 -0.34467435442E+02 -0.15879666606E+02  0.10301195006E+02  0.39322799189E+02  0.00000000000E+00 0. -1.
</event>
<event>
 7    1  0.8661710E-006  0.1042700E+03  0.7561462E-02  0.1271565E+00
          1   -1    0    0  501    0  0.00000000000E+00  0.00000000000E+00  0.34006140429E+03  0.34006140429E+03  0.00000000000E+00 0. -1.
         -1   -1    0    0    0  501 -0.00000000000E+00 -0.00000000000E+00 -0.51537166717E+02  0.51537166717E+02  0.00000000000E+00 0.  1.
         23    2    1    2    0    0  0.53108641175E+02 -0.35166076835E+02  0.86144008021E+02  0.16090468740E+03  0.12005143724E+03 0.  0.
          5    1    3    3  502    0  0.59704601964E+02  0.10887307869E+02 -0.23077171006E+01  0.60876686231E+02  0.41800000000E+01 0. -1.
         -5    1    3    3    0  502 -0.65959607891E+01 -0.46053384704E+02  0.88451725122E+02  0.10002800117E+03  0.41800000000E+01 0.  1.
        -11    1    1    2    0    0 -0.71986076812E+02  0.38793338066E+02  0.11429543672E+03  0.14053599250E+03  0.00000000000E+00 0.  1.
         11    1    1    2    0    0  0.18877435637E+02 -0.36272612303E+01  0.88084792825E+02  0.90157891099E+02  0.00000000000E+00 0. -1.
</event>
<event>
 7    1  0.8661710E-006  0.1596136E+03  0.7561462E-02  0.1189134E+00
          1   -1    0    0  501    0  0.00000000000E+00  0.00000000000E+00  0.22736779809E+03  0.22736779809E+03  0.00000000000E+00 0. -1.
         -1   -1    0    0    0  501 -0.00000000000E+00 -0.00000000000E+00 -0.15396775512E+03  0.15396775512E+03  0.00000000000E+00 0.  1.
         23    2    1    2    0    0  0.12382436895E+03 -0.60924953600E+02 -0.26743453326E+02  0.18816778615E+03  0.12509028392E+03 0.  0.
          5    1    3    3  502    0  0.13414772097E+03 -0.24338598457E+02 -0.47769822489E+02  0.14452476174E+03  0.41800000000E+01 0.  1.
         -5    1    3    3    0  502 -0.10323352017E+02 -0.36586355143E+02  0.21026369163E+02  0.43643024410E+02  0.41800000000E+01 0.  1.
        -11    1    1    2    0    0 -0.52830381972E+02  0.29319159910E+01 -0.56163342768E+01  0.53208914680E+02  0.00000000000E+00 0.  1.
         11    1    1    2    0    0 -0.70993986977E+02  0.57993037609E+02  0.10575983057E+03  0.13995885238E+03  0.00000000000E+00 0. -1.
</event>
<event>
 7    1  0.8661710E-006  0.1287479E+03  0.7561462E-02  0.1229326E+00
         -1   -1    0    0    0  501 -0.00000000000E+00  0.00000000000E+00  0.30450060358E+02  0.30450060358E+02  0.00000000000E+00 0.  1.
          1   -1    0    0  501    0  0.00000000000E+00 -0.00000000000E+00 -0.71703713045E+03  0.71703713045E+03  0.00000000000E+00 0. -1.
         23    2    1    2    0    0 -0.93991586036E+02  0.34163565995E+02 -0.35608940496E+03  0.39044325529E+03  0.12507879034E+03 0.  0.
          5    1    3    3  502    0 -0.62888622384E+02 -0.16545565099E+02 -0.30510204154E+03  0.31198311285E+03  0.41800000000E+01 0. -1.
         -5    1    3    3    0  502 -0.31102963652E+02  0.50709131094E+02 -0.50987363418E+02  0.78460142446E+02  0.41800000000E+01 0. -1.
        -11    1    1    2    0    0  0.91340747527E+02  0.68516918330E+01 -0.25699281485E+03  0.27282848958E+03  0.00000000000E+00 0.  1.
         11    1    1    2    0    0  0.26508385092E+01 -0.41015257828E+02 -0.73504850281E+02  0.84215445936E+02  0.00000000000E+00 0. -1.
</event>
<event>
 7    1  0.8661710E-006  0.9770906E+02  0.7561462E-02  0.1285189E+00
         -2   -1    0    0    0  501 -0.00000000000E+00  0.00000000000E+00  0.96154251431E+02  0.96154251431E+02  0.00000000000E+00 0.  1.
          2   -1    0    0  501    0  0.00000000000E+00 -0.00000000000E+00 -0.17102138742E+03  0.17102138742E+03  0.00000000000E+00 0. -1.
         23    2    1    2    0    0 -0.91075543736E+00  0.40965847115E+02  0.15605569234E+02  0.13254753172E+03  0.12508510810E+03 0.  0.
          5    1    3    3  502    0  0.29011530041E+02  0.67174930809E+02 -0.23143882776E+02  0.76858648924E+02  0.41800000000E+01 0. -1.
         -5    1    3    3    0  502 -0.29922285478E+02 -0.26209083694E+02  0.38749452009E+02  0.55688882798E+02  0.41800000000E+01 0. -1.
        -11    1    1    2    0    0  0.17282788151E+02  0.15575841064E+02  0.37134642216E+01  0.23560377918E+02  0.00000000000E+00 0.  1.
         11    1    1    2    0    0 -0.16372032713E+02 -0.56541688179E+02 -0.94186169444E+02  0.11106772921E+03  0.00000000000E+00 0. -1.
</event>
<event>
 7    1  0.8661710E-006  0.1260541E+03  0.7561462E-02  0.1233431E+00
         -2   -1    0    0    0  501 -0.00000000000E+00  0.00000000000E+00  0.24335275890E+02  0.24335275890E+02  0.00000000000E+00 0.  1.
          2   -1    0    0  501    0  0.00000000000E+00 -0.00000000000E+00 -0.72575846632E+03  0.72575846632E+03  0.00000000000E+00 0. -1.
         23    2    1    2    0    0 -0.71996210298E+01  0.76378582662E+02 -0.39723768371E+03  0.42347494997E+03  0.12509090076E+03 0.  0.
          5    1    3    3  502    0  0.17060980065E+02 -0.24032580340E+02 -0.18518522301E+03  0.18756247274E+03  0.41800000000E+01 0. -1.
         -5    1    3    3    0  502 -0.24260601095E+02  0.10041116300E+03 -0.21205246070E+03  0.23591247722E+03  0.41800000000E+01 0. -1.
        -11    1    1    2    0    0  0.12896877857E+02 -0.96850577589E+02 -0.25066343002E+03  0.26903256121E+03  0.00000000000E+00 0.  1.
         11    1    1    2    0    0 -0.56972568274E+01  0.20471994927E+02 -0.53522076699E+02  0.57586231044E+02  0.00000000000E+00 0. -1.
</event>
<event>
 6    1  0.8661710E-006  0.1580144E+03  0.7561462E-02  0.1190957E+00
          1   -1    0    0  501    0  0.00000000000E+00  0.00000000000E+00  0.93899434509E+03  0.93899434509E+03  0.00000000000E+00 0. -1.
         -1   -1    0    0    0  501 -0.00000000000E+00 -0.00000000000E+00 -0.27190343234E+02  0.27190343234E+02  0.00000000000E+00 0.  1.
          5    1    1    2  502    0  0.96599125059E+02 -0.10047107030E+03  0.39618022028E+03  0.42000245984E+03  0.41800000000E+01 0. -1.
         -5    1    1    2    0  502 -0.14962863923E+02  0.42814371084E+02  0.13462217450E+03  0.14211811966E+03  0.41800000000E+01 0.  1.
        -11    1    1    2    0    0 -0.20989967956E+02  0.66520123244E+02  0.15639473936E+03  0.17124491248E+03  0.00000000000E+00 0.  1.
         11    1    1    2    0    0 -0.60646293180E+02 -0.88634240298E+01  0.22460686772E+03  0.23281919635E+03  0.00000000000E+00 0. -1.
</event>
<event>
 7    1  0.8661710E-006  0.1171537E+03  0.7561462E-02  0.1247868E+00
         -1   -1    0    0    0  501 -0.00000000000E+00  0.00000000000E+00  0.55179640350E+02  0.55179640350E+02  0.00000000000E+00 0.  1.
          1   -1    0    0  501    0  0.00000000000E+00 -0.00000000000E+00 -0.34959268927E+03  0.34959268927E+03  0.00000000000E+00 0. -1.
         23    2    1    2    0    0 -0.67680131772E+02  0.39373785937E+02 -0.10746149054E+03  0.18255420980E+03  0.12508865781E+03 0.  0.
          5    1    3    3  502    0 -0.61349526338E+02 -0.24871023293E+02 -0.96259475957E+02  0.11690034770E+03  0.41800000000E+01 0. -1.
         -5    1    3    3    0  502 -0.63306054346E+01  0.64244809230E+02 -0.11202014580E+02  0.65653862101E+02  0.41800000000E+01 0. -1.
        -11    1    1    2    0    0  0.30129051036E+02 -0.54921370540E+02 -0.52422158986E+02  0.81683532068E+02  0.00000000000E+00 0.  1.
         11    1    1    2    0    0  0.37551080736E+02  0.15547584604E+02 -0.13452939939E+03  0.14053458774E+03  0.00000000000E+00 0. -1.
</event>
<event>
 7    1  0.8661710E-006  0.1401504E+03  0.7561462E-02  0.1213127E+00
          4   -1    0    0  501    0  0.00000000000E+00  0.00000000000E+00  0.21571095986E+03  0.21571095986E+03  0.00000000000E+00 0. -1.
         -4   -1    0    0    0  501 -0.00000000000E+00 -0.00000000000E+00 -0.13105161114E+03  0.13105161114E+03  0.00000000000E+00 0.  1.
         23    2    1    2    0    0 -0.74511827023E+02  0.84503979551E+02 -0.17096928063E+02  0.16921203794E+03  0.12508986333E+03 0.  0.
          5    1    3    3  502    0 -0.52519274192E+01  0.83385407215E+02  0.25904287687E+02  0.87574045234E+02  0.41800000000E+01 0. -1.
         -5    1    3    3    0  502 -0.69259899604E+02  0.11185723358E+01 -0.43001215750E+02  0.81637992706E+02  0.41800000000E+01 0. -1.
        -11    1    1    2    0    0 -0.56846669076E+01 -0.29407146828E+02  0.68437441378E+02  0.74704612340E+02  0.00000000000E+00 0. -1.
         11    1    1    2    0    0  0.80196493930E+02 -0.55096832722E+02  0.33318835406E+02  0.10284592071E+03  0.00000000000E+00 0.  1.
</event>
<event>
 7    1  0.8661710E-006  0.1168573E+03  0.7561462E-02  0.1248373E+00
         -1   -1    0    0    0  501 -0.00000000000E+00  0.00000000000E+00  0.26225352935E+02  0.26225352935E+02  0.00000000000E+00 0.  1.
          1   -1    0    0  501    0  0.00000000000E+00 -0.00000000000E+00 -0.56008475355E+03  0.56008475355E+03  0.00000000000E+00 0. -1.
         23    2    1    2    0    0 -0.12834081728E+01 -0.46740353169E+02 -0.22604089939E+03  0.26254226903E+03  0.12509055553E+03 0.  0.
          5    1    3    3  502    0  0.22473959183E+01  0.43140450676E+02 -0.68909855455E+02  0.81438257912E+02  0.41800000000E+01 0. -1.
         -5    1    3    3    0  502 -0.35308040910E+01 -0.89880803846E+02 -0.15713104393E+03  0.18110401112E+03  0.41800000000E+01 0. -1.
        -11    1    1    2    0    0 -0.20858244623E+02 -0.20638475562E+02 -0.96772120691E+02  0.10112297655E+03  0.00000000000E+00 0.  1.
         11    1    1    2    0    0  0.22141652796E+02  0.67378828731E+02 -0.21104638054E+03  0.22264486091E+03  0.00000000000E+00 0. -1.
</event>
<event>
 7    1  0.8661710E-006  0.1092521E+03  0.7561462E-02  0.1261961E+00
          1   -1    0    0  501    0  0.00000000000E+00  0.00000000000E+00  0.30786638205E+03  0.30786638205E+03  0.00000000000E+00 0. -1.
         -1   -1    0    0    0  501 -0.00000000000E+00 -0.00000000000E+00 -0.60356938761E+02  0.60356938761E+02  0.00000000000E+00 0.  1.
         23    2    1    2    0    0 -0.13153001248E+02  0.26913280005E+02  0.31679215189E+02  0.13246758875E+03  0.12508702295E+03 0.  0.
          5    1    3    3  502    0 -0.17086570694E+02 -0.46898876316E+02 -0.40681338431E+01  0.50254130285E+02  0.41800000000E+01 0.  1.
         -5    1    3    3    0  502  0.39335694451E+01  0.73812156321E+02  0.35747349032E+02  0.82213458462E+02  0.41800000000E+01 0.  1.
        -11    1    1    2    0    0  0.75289110936E+01 -0.60176048516E+02  0.12704065424E+03  0.14077346748E+03  0.00000000000E+00 0. -1.
         11    1    1    2    0    0  0.56240901548E+01  0.33262768510E+02  0.88789573862E+02  0.94982264585E+02  0.00000000000E+00 0.  1.
</event>
<event>
 7    1  0.8661710E-006  0.1046628E+03  0.7561462E-02  0.1270785E+00
          1   -1    0    0  501    0  0.00000000000E+00  0.00000000000E+00  0.41206001576E+03  0.41206001576E+03  0.00000000000E+00 0. -1.
         -1   -1    0    0    0  501 -0.00000000000E+00 -0.00000000000E+00 -0.37837076512E+02  0.37837076512E+02  0.00000000000E+00 0.  1.
         23    2    1    2    0    0  0.45507497183E+02  0.32821967639E+02  0.15741180293E+03  0.20873695865E+03  0.12507768924E+03 0.  0.
          5    1    3    3  502    0  0.67569934801E+02  0.53833420844E+02  0.15548597285E+03  0.17792440373E+03  0.41800000000E+01 0.  1.
         -5    1    3    3    0  502 -0.22062437618E+02 -0.21011453205E+02  0.19258300791E+01  0.30812554924E+02  0.41800000000E+01 0.  1.
        -11    1    1    2    0    0 -0.12810936730E+02 -0.52417589779E+02  0.64223323162E+02  0.83883008149E+02  0.00000000000E+00 0.  1.
         11    1    1    2    0    0 -0.32696560453E+02  0.19595622140E+02  0.15258781316E+03  0.15727712547E+03  0.00000000000E+00 0. -1.
</event>
<event>
 7    1  0.8661710E-006  0.1009114E+03  0.7561462E-02  0.1278391E+00
         -1   -1    0    0    0  501 -0.00000000000E+00  0.00000000000E+00  0.17839907822E+04  0.17839907822E+04  0.00000000000E+00 0.  1.
          1   -1    0    0  501    0  0.00000000000E+00 -0.00000000000E+00 -0.22077010479E+02  0.22077010479E+02  0.00000000000E+00 0. -1.
         23    2    1    2    0    0  0.54143086465E+02 -0.37546533276E+02  0.16196131033E+04  0.16257718476E+04  0.12508509178E+03 0.  0.
          5    1    3    3  502    0  0.71042455915E+02 -0.56204263151E+02  0.15275006072E+04  0.15301900297E+04  0.41800000000E+01 0.  1.
         -5    1    3    3    0  502 -0.16899369450E+02  0.18657729875E+02  0.92112496107E+02  0.95581817889E+02  0.41800000000E+01 0.  1.
        -11    1    1    2    0    0 -0.57057207238E+01  0.36736976892E+02  0.12240343870E+03  0.12792483154E+03  0.00000000000E+00 0.  1.
         11    1    1    2    0    0 -0.48437365741E+02  0.80955638465E+00  0.19897229753E+02  0.52371113539E+02  0.00000000000E+00 0. -1.
</event>
<event>
 7    1  0.8661710E-006  0.1599177E+03  0.7561462E-02  0.1188790E+00
         -2   -1    0    0    0  501 -0.00000000000E+00  0.00000000000E+00  0.64030043444E+02  0.64030043444E+02  0.00000000000E+00 0.  1.
          2   -1    0    0  501    0  0.00000000000E+00 -0.00000000000E+00 -0.66991309151E+03  0.66991309151E+03  0.00000000000E+00 0. -1.
         23    2    1    2    0    0  0.13493175576E+03 -0.83294008706E+02 -0.17962178676E+03  0.27028988099E+03  0.12509261724E+03 0.  0.
          5    1    3    3  502    0  0.12097887024E+03 -0.73619794962E+02 -0.19893948148E+03  0.24423380386E+03  0.41800000000E+01 0. -1.
         -5    1    3    3    0  502  0.13952885520E+02 -0.96742137440E+01  0.19317694724E+02  0.26056077129E+02  0.41800000000E+01 0. -1.
        -11    1    1    2    0    0 -0.41324971026E+02  0.12083643891E+02 -0.36217889479E+02  0.56262804750E+02  0.00000000000E+00 0.  1.
         11    1    1    2    0    0 -0.93606784735E+02  0.71210364815E+02 -0.39004337183E+03  0.40739044922E+03  0.00000000000E+00 0. -1.
</event>
<event>
 7    1  0.8661710E-006  0.6721956E+02  0.7561462E-02  0.1369812E+00
          1   -1    0    0  501    0  0.00000000000E+00  0.00000000000E+00  0.46184498287E+02  0.46184498287E+02  0.00000000000E+00 0. -1.
         -1   -1    0    0    0  501 -0.00000000000E+00 -0.00000000000E+00 -0.35300672628E+03  0.35300672628E+03  0.00000000000E+00 0.  1.
         23    2    1    2    0    0 -0.33103862805E+02  0.59443055601E+01 -0.26095188286E+03  0.29133359096E+03  0.12509266787E+03 0.  0.
          5    1    3    3  502    0  0.48697825236E+01 -0.25056579930E+02 -0.82642567097E-01  0.25865540965E+02  0.41800000000E+01 0.  1.
         -5    1    3    3    0  502 -0.37973645329E+02  0.31000885490E+02 -0.26086924029E+03  0.26546805000E+03  0.41800000000E+01 0.  1.
        -11    1    1    2    0    0  0.40124002264E+02  0.10516764700E+02  0.15232699999E+02  0.44187928744E+02  0.00000000000E+00 0. -1.
         11    1    1    2    0    0 -0.70201394585E+01 -0.16461070260E+02 -0.61103045137E+02  0.63669704861E+02  0.00000000000E+00 0.  1.
</event>
<event>
 7    1  0.8661710E-006  0.1426819E+03  0.7561462E-02  0.1209765E+00
         -1   -1    0    0    0  501 -0.00000000000E+00  0.00000000000E+00  0.16612757453E+03  0.16612757453E+03  0.00000000000E+00 0.  1.
          1   -1    0    0  501    0  0.00000000000E+00 -0.00000000000E+00 -0.13324477137E+03  0.13324477137E+03  0.00000000000E+00 0. -1.
         23    2    1    2    0    0  0.88907933186E+02 -0.46336592478E+02  0.35793069779E+02  0.16425752241E+03  0.12509072483E+03 0.  0.
          5    1    3    3  502    0 -0.29122266779E+02 -0.92094296929E+01  0.25535989426E+02  0.40030977675E+02  0.41800000000E+01 0. -1.
         -5    1    3    3    0  502  0.11803019996E+03 -0.37127162785E+02  0.10257080353E+02  0.12422654474E+03  0.41800000000E+01 0. -1.
        -11    1    1    2    0    0 -0.19528787513E+02 -0.24666459303E+02  0.13960693033E+02  0.34419597705E+02  0.00000000000E+00 0. -1.
         11    1    1    2    0    0 -0.69379145674E+02  0.71003051781E+02 -0.16870959652E+02  0.10069522579E+03  0.00000000000E+00 0.  1.
</event>
<event>
 7    1  0.8661710E-006  0.1287475E+03  0.7561462E-02  0.1229326E+00
         -2   -1    0    0    0  501 -0.00000000000E+00  0.00000000000E+00  0.42100169005E+03  0.42100169005E+03  0.00000000000E+00 0.  1.
          2   -1    0    0  501    0  0.00000000000E+00 -0.00000000000E+00 -0.53757096296E+02  0.53757096296E+02  0.00000000000E+00 0. -1.
         23    2    1    2    0    0 -0.91837538902E+02 -0.19834959723E+02  0.26231329250E+03  0.30542614028E+03  0.12509718048E+03 0.  0.
          5    1    3    3  502    0 -0.10721388362E+03 -0.43393030112E+02  0.14939828409E+03  0.18898436864E+03  0.41800000000E+01 0. -1.
         -5    1    3    3    0  502  0.15376344717E+02  0.23558070389E+02  0.11291500841E+03  0.11644177164E+03  0.41800000000E+01 0. -1.
        -11    1    1    2    0    0  0.30588081727E+02  0.38605945363E+02  0.91446105746E+02  0.10386741557E+03  0.00000000000E+00 0.  1.
         11    1    1    2    0    0  0.61249457174E+02 -0.18770985640E+02  0.13485195508E+02  0.65465230496E+02  0.00000000000E+00 0. -1.
</event>
<event>
 7    1  0.8661710E-006  0.9019303E+02  0.7561462E-02  0.1302385E+00
          3   -1    0    0  501    0  0.00000000000E+00  0.00000000000E+00  0.93267292790E+02  0.93267292790E+02  0.00000000000E+00 0. -1.
         -3   -1    0    0    0  501 -0.00000000000E+00 -0.00000000000E+00 -0.27701011993E+03  0.27701011993E+03  0.00000000000E+00 0.  1.
         23    2    1    2    0    0  0.46659210887E+02  0.17709508798E+02 -0.22073164768E+03  0.25857315941E+03  0.12508760858E+03 0.  0.
          5    1    3    3  502    0  0.25714168238E+02 -0.20549131815E+02  0.35883914422E+00  0.33182622441E+02  0.41800000000E+01 0. -1.
         -5    1    3    3    0  502  0.20945042649E+02  0.38258640613E+02 -0.22109048682E+03  0.22539053697E+03  0.41800000000E+01 0. -1.
        -11    1    1    2    0    0 -0.38271993246E+02  0.33885084034E+02  0.29159982524E+02  0.58849375254E+02  0.00000000000E+00 0. -1.
         11    1    1    2    0    0 -0.83872176416E+01 -0.51594592832E+02  0.78288380154E+01  0.52854878053E+02  0.00000000000E+00 0.  1.
</event>
<event>
 7    1  0.8661710E-006  0.1007372E+03  0.7561462E-02  0.1278753E+00
          2   -1    0    0  501    0  0.00000000000E+00  0.00000000000E+00  0.61468369413E+03  0.61468369413E+03  0.00000000000E+00 0. -1.
         -2   -1    0    0    0  501 -0.00000000000E+00 -0.00000000000E+00 -0.33446281079E+02  0.33446281079E+02  0.00000000000E+00 0.  1.
         23    2    1    2    0    0 -0.67490406225E+01  0.73995765512E+02  0.17600492590E+03  0.22633034182E+03  0.12135389085E+03 0.  0.
          5    1    3    3  502    0 -0.18852227588E+01 -0.40464179683E+01  0.14001824001E+03  0.14015173028E+03  0.41800000000E+01 0. -1.
         -5    1    3    3    0  502 -0.48638178637E+01  0.78042183480E+02  0.35986685888E+02  0.86178611545E+02  0.41800000000E+01 0.  1.
        -11    1    1    2    0    0  0.24733289119E+02  0.13191258644E+02  0.97082400408E+02  0.10104819328E+03  0.00000000000E+00 0.  1.
         11    1    1    2    0    0 -0.17984248497E+02 -0.87187024155E+02  0.30815008674E+03  0.32075144011E+03  0.00000000000E+00 0. -1.
</event>
<event>
 7    1  0.8661710E-006  0.1042312E+03  0.7561462E-02  0.1271642E+00
          1   -1    0    0  501    0  0.00000000000E+00  0.00000000000E+00  0.39070146558E+03  0.39070146558E+03  0.00000000000E+00 0. -1.
         -1   -1    0    0    0  501 -0.00000000000E+00 -0.00000000000E+00 -0.29454806216E+02  0.29454806216E+02  0.00000000000E+00 0.  1.
         23    2    1    2    0    0  0.51225438039E+01 -0.33670832924E+02  0.18416400583E+03  0.22522035812E+03  0.12509141947E+03 0.  0.
          5    1    3    3  502    0 -0.55088575602E+02 -0.37087743016E+02  0.11895000612E+03  0.13629683856E+03  0.41800000000E+01 0. -1.
         -5    1    3    3    0  502  0.60211119406E+02  0.34169100919E+01  0.65213999709E+02  0.88923519570E+02  0.41800000000E+01 0. -1.
        -11    1    1    2    0    0  0.21130469957E+02 -0.15174842056E+02  0.58962697464E+02  0.64446662321E+02  0.00000000000E+00 0. -1.
         11    1    1    2    0    0 -0.26253013761E+02  0.48845674980E+02  0.11811995607E+03  0.13048925135E+03  0.00000000000E+00 0.  1.
</event>
<event>
 7    1  0.8661710E-006  0.1351982E+03  0.7561462E-02  0.1219940E+00
         -2   -1    0    0    0  501 -0.00000000000E+00  0.00000000000E+00  0.80508835047E+02  0.80508835047E+02  0.00000000000E+00 0.  1.
          2   -1    0    0  501    0  0.00000000000E+00 -0.00000000000E+00 -0.24825587195E+03  0.24825587195E+03  0.00000000000E+00 0. -1.
         23    2    1    2    0    0 -0.52038827570E+02 -0.73083991405E+02 -0.86018094041E+02  0.17633559475E+03  0.12508325267E+03 0.  0.
          5    1    3    3  502    0 -0.27642867098E+02 -0.10094958188E+03 -0.29837284796E+02  0.10891594074E+03  0.41800000000E+01 0.  1.
         -5    1    3    3    0  502 -0.24395960471E+02  0.27865590473E+02 -0.56180809245E+02  0.67419654012E+02  0.41800000000E+01 0.  1.
        -11    1    1    2    0    0  0.74229191595E+02  0.75713234476E+02 -0.63496849734E+02  0.12358930652E+03  0.00000000000E+00 0.  1.
         11    1    1    2    0    0 -0.22190364025E+02 -0.26292430709E+01 -0.18232093133E+02  0.28839805733E+02  0.00000000000E+00 0. -1.
</event>
<event>
 7    1  0.8661710E-006  0.2015970E+03  0.7561462E-02  0.1148399E+00
          4   -1    0    0  501    0  0.00000000000E+00  0.00000000000E+00  0.46626356898E+03  0.46626356898E+03  0.00000000000E+00 0. -1.
         -4   -1    0    0    0  501 -0.00000000000E+00 -0.00000000000E+00 -0.10914238330E+03  0.10914238330E+03  0.00000000000E+00 0.  1.
         23    2    1    2    0    0  0.51641609985E+02 -0.18985588043E+03  0.16357836038E+03  0.28481227673E+03  0.12509213314E+03 0.  0.
          5    1    3    3  502    0  0.55592259669E+02 -0.17990573235E+03  0.18276653952E+03  0.26244552241E+03  0.41800000000E+01 0. -1.
         -5    1    3    3    0  502 -0.39506496844E+01 -0.99501480841E+01 -0.19188179141E+02  0.22366754315E+02  0.41800000000E+01 0. -1.
        -11    1    1    2    0    0  0.10030714123E+02  0.41428685695E+02  0.51231948464E+01  0.42932485947E+02  0.00000000000E+00 0.  1.
         11    1    1    2    0    0 -0.61672324108E+02  0.14842719474E+03  0.18841963045E+03  0.24766118961E+03  0.00000000000E+00 0. -1.
</event>
<event>
 7    1  0.8661710E-006  0.1260642E+03  0.7561462E-02  0.1233415E+00
         -1   -1    0    0    0  501 -0.00000000000E+00  0.00000000000E+00  0.92064037959E+02  0.92064037959E+02  0.00000000000E+00 0.  1.
          1   -1    0    0  501    0  0.00000000000E+00 -0.00000000000E+00 -0.18973654628E+03  0.18973654628E+03  0.00000000000E+00 0. -1.
         23    2    1    2    0    0 -0.67921332653E+02 -0.20455501535E+02 -0.30612721348E+02  0.14702801234E+03  0.12509341603E+03 0.  0.
          5    1    3    3  502    0 -0.59713541205E+02 -0.70598613347E+02 -0.23983925366E+02  0.95616799182E+02  0.41800000000E+01 0. -1.
         -5    1    3    3    0  502 -0.82077914483E+01  0.50143111812E+02 -0.66287959819E+01  0.51411213162E+02  0.41800000000E+01 0. -1.
        -11    1    1    2    0    0  0.63061025581E+02  0.48856488591E+02 -0.69573160993E+02  0.10584929927E+03  0.00000000000E+00 0. -1.
         11    1    1    2    0    0  0.48603070724E+01 -0.28400987056E+02  0.25133740193E+01  0.28923272629E+02  0.00000000000E+00 0.  1.
</event>
<event>
 7    1  0.8661710E-006  0.1087452E+03  0.7561462E-02  0.1262911E+00
         -1   -1    0    0    0  501 -0.00000000000E+00  0.00000000000E+00  0.44695810179E+02  0.44695810179E+02  0.00000000000E+00 0.  1.
          1   -1    0    0  501    0  0.00000000000E+00 -0.00000000000E+00 -0.29291354811E+03  0.29291354811E+03  0.00000000000E+00 0. -1.
         23    2    1    2    0    0 -0.17184123624E+02  0.28559673800E+02 -0.11247871048E+03  0.17149470861E+03  0.12509206888E+03 0.  0.
          5    1    3    3  502    0 -0.69009281531E+02  0.54228917663E+01 -0.80367574236E+02  0.10615134517E+03  0.41800000000E+01 0. -1.
         -5    1    3    3    0  502  0.51825157907E+02  0.23136782034E+02 -0.32111136245E+02  0.65343363442E+02  0.41800000000E+01 0. -1.
        -11    1    1    2    0    0 -0.17490984435E+02 -0.48274427622E+02 -0.50566691482E+02  0.72064867905E+02  0.00000000000E+00 0.  1.
         11    1    1    2    0    0  0.34675108059E+02  0.19714753822E+02 -0.85172335965E+02  0.94049781769E+02  0.00000000000E+00 0. -1.
</event>
<event>
 7    1  0.8661710E-006  0.9063704E+02  0.7561462E-02  0.1301316E+00
          1   -1    0    0  501    0  0.00000000000E+00  0.00000000000E+00  0.14277715184E+03  0.14277715184E+03  0.00000000000E+00 0. -1.
         -1   -1    0    0    0  501 -0.00000000000E+00 -0.00000000000E+00 -0.95188420869E+02  0.95188420869E+02  0.00000000000E+00 0.  1.
         23    2    1    2    0    0 -0.89094644055E+01  0.15068506532E+02 -0.13602041957E+02  0.12703874891E+03  0.12508952687E+03 0.  0.
          5    1    3    3  502    0  0.45268815171E+02  0.11284920824E+02  0.31392400587E+02  0.56387678438E+02  0.41800000000E+01 0.  1.
         -5    1    3    3    0  502 -0.54178279577E+02  0.37835857074E+01 -0.44994442544E+02  0.70651070470E+02  0.41800000000E+01 0.  1.
        -11    1    1    2    0    0 -0.11962478537E+01  0.31898145206E+02  0.53463590865E+02  0.62267794442E+02  0.00000000000E+00 0.  1.
         11    1    1    2    0    0  0.10105712259E+02 -0.46966651737E+02  0.77271820636E+01  0.48659029361E+02  0.00000000000E+00 0. -1.
</event>
<event>
 7    1  0.8661710E-006  0.1267749E+03  0.7561462E-02  0.1232321E+00
         -2   -1    0    0    0  501 -0.00000000000E+00  0.00000000000E+00  0.16118414152E+03  0.16118414152E+03  0.00000000000E+00 0.  1.
          2   -1    0    0  501    0  0.00000000000E+00 -0.00000000000E+00 -0.11370404625E+03  0.11370404625E+03  0.00000000000E+00 0. -1.
         23    2    1    2    0    0  0.39493231510E+02 -0.55141137598E+02  0.71036764666E+02  0.15904535520E+03  0.12509573408E+03 0.  0.
          5    1    3    3  502    0  0.77742507504E+02 -0.66224849639E+02  0.52870327558E+02  0.11507550616E+03  0.41800000000E+01 0.  1.
         -5    1    3    3    0  502 -0.38249275994E+02  0.11083712041E+02  0.18166437108E+02  0.43969849032E+02  0.41800000000E+01 0.  1.
        -11    1    1    2    0    0  0.32749765094E+01  0.66869682074E+02 -0.25017949240E+02  0.71471516257E+02  0.00000000000E+00 0. -1.
         11    1    1    2    0    0 -0.42768208019E+02 -0.11728544476E+02  0.14612798466E+01  0.44371316314E+02  0.00000000000E+00 0.  1.
</event>
<event>
 7    1  0.8661710E-006  0.9415065E+02  0.7561462E-02  0.1293101E+00
          1   -1    0    0  501    0  0.00000000000E+00  0.00000000000E+00  0.60598245878E+02  0.60598245878E+02  0.00000000000E+00 0. -1.
         -1   -1    0    0    0  501 -0.00000000000E+00 -0.00000000000E+00 -0.23689755215E+03  0.23689755215E+03  0.00000000000E+00 0.  1.
         23    2    1    2    0    0 -0.43557428486E+02  0.24684129877E+02 -0.10580699050E+03  0.17131682775E+03  0.12509108836E+03 0.  0.
          5    1    3    3  502    0  0.29764832236E+02 -0.39458418647E+01 -0.84338215132E+02  0.89620989939E+02  0.41800000000E+01 0. -1.
         -5    1    3    3    0  502 -0.73322260722E+02  0.28629971742E+02 -0.21468775370E+02  0.81695837808E+02  0.41800000000E+01 0. -1.
        -11    1    1    2    0    0  0.43218134646E+02  0.10094778880E+02 -0.78783069745E+02  0.90423911668E+02  0.00000000000E+00 0.  1.
         11    1    1    2    0    0  0.33929383951E+00 -0.34778908757E+02  0.82907539769E+01  0.35755058609E+02  0.00000000000E+00 0. -1.
</event>
<event>
 7    1  0.8661710E-006  0.1417871E+03  0.7561462E-02  0.1210944E+00
          1   -1    0    0  501    0  0.00000000000E+00  0.00000000000E+00  0.21610561716E+03  0.21610561716E+03  0.00000000000E+00 0. -1.
         -1   -1    0    0    0  501 -0.00000000000E+00 -0.00000000000E+00 -0.12771247792E+03  0.12771247792E+03  0.00000000000E+00 0.  1.
         23    2    1    2    0    0  0.10209687391E+03 -0.23456749799E+02 -0.24803307480E+02  0.16503513894E+03  0.12508957691E+03 0.  0.
          5    1    3    3  502    0  0.13156121584E+03 -0.19273821070E+02 -0.18252585409E+02  0.13427755942E+03  0.41800000000E+01 0.  1.
         -5    1    3    3    0  502 -0.29464341929E+02 -0.41829287285E+01 -0.65507220706E+01  0.30757579516E+02  0.41800000000E+01 0.  1.
        -11    1    1    2    0    0 -0.81737576720E+01  0.25261054311E+02  0.70997661920E+02  0.75799730722E+02  0.00000000000E+00 0. -1.
         11    1    1    2    0    0 -0.93923116236E+02 -0.18043045122E+01  0.42198784801E+02  0.10298322541E+03  0.00000000000E+00 0.  1.
</event>
<event>
 7    1  0.8661710E-006  0.6704957E+02  0.7561462E-02  0.1370424E+00
          1   -1    0    0  501    0  0.00000000000E+00  0.00000000000E+00  0.15525411715E+03  0.15525411715E+03  0.00000000000E+00 0. -1.
         -1   -1    0    0    0  501 -0.00000000000E+00 -0.00000000000E+00 -0.34555055890E+02  0.34555055890E+02  0.00000000000E+00 0.  1.
         23    2    1    2    0    0  0.15185972287E+01  0.12286851873E+02  0.89638158396E+02  0.14402166757E+03  0.11204449305E+03 0.  0.
          5    1    3    3  502    0 -0.44061286262E+02 -0.15929008718E+02  0.10256172274E+02  0.48143449560E+02  0.41800000000E+01 0. -1.
         -5    1    3    3    0  502  0.45579883491E+02  0.28215860591E+02  0.79381986122E+02  0.95878218009E+02  0.41800000000E+01 0.  1.
        -11    1    1    2    0    0 -0.74898049113E+01  0.86952969729E+01  0.13938844459E+02  0.18055380137E+02  0.00000000000E+00 0.  1.
         11    1    1    2    0    0  0.59712076826E+01 -0.20982148846E+02  0.17122058401E+02  0.27732125329E+02  0.00000000000E+00 0. -1.
</event>
<event>
 7    1  0.8661710E-006  0.1212231E+03  0.7561462E-02  0.1241093E+00
         -4   -1    0    0    0  501 -0.00000000000E+00  0.00000000000E+00  0.74446554210E+02  0.74446554210E+02  0.00000000000E+00 0. -1.
          4   -1    0    0  501    0  0.00000000000E+00 -0.00000000000E+00 -0.23198916790E+03  0.23198916790E+03  0.00000000000E+00 0.  1.
         23    2    1    2    0    0  0.52501228712E+02  0.50612542756E+02 -0.69103867347E+02  0.16043698508E+03  0.12508666276E+03 0.  0.
          5    1    3    3  502    0  0.43134125266E+01  0.84997096755E+02 -0.45234903271E+02  0.96471658316E+02  0.41800000000E+01 0. -1.
         -5    1    3    3    0  502  0.48187816186E+02 -0.34384553999E+02 -0.23868964077E+02  0.63965326768E+02  0.41800000000E+01 0. -1.
        -11    1    1    2    0    0  0.12156985899E+02 -0.26010933738E+02 -0.68077185410E+02  0.73884126532E+02  0.00000000000E+00 0.  1.
         11    1    1    2    0    0 -0.64658214611E+02 -0.24601609018E+02 -0.20361560931E+02  0.72114610493E+02  0.00000000000E+00 0. -1.
</event>
<event>
 7    1  0.8661710E-006  0.1231681E+03  0.7561462E-02  0.1237960E+00
         -3   -1    0    0    0  501 -0.00000000000E+00  0.00000000000E+00  0.58114689564E+03  0.58114689564E+03  0.00000000000E+00 0.  1.
          3   -1    0    0  501    0  0.00000000000E+00 -0.00000000000E+00 -0.33280038067E+02  0.33280038067E+02  0.00000000000E+00 0. -1.
         23    2    1    2    0    0 -0.73667284495E+02  0.46492784916E+02  0.29741458989E+03  0.33420249261E+03  0.12508964760E+03 0.  0.
          5    1    3    3  502    0 -0.87985989486E+02  0.77538767620E+02  0.21642681636E+03  0.24619470764E+03  0.41800000000E+01 0.  1.
         -5    1    3    3    0  502  0.14318704991E+02 -0.31045982705E+02  0.80987773529E+02  0.88007784974E+02  0.41800000000E+01 0.  1.
        -11    1    1    2    0    0  0.19707023124E+02 -0.33773468886E+02  0.20453466122E+03  0.20823890511E+03  0.00000000000E+00 0.  1.
         11    1    1    2    0    0  0.53960261371E+02 -0.12719316029E+02  0.45917606463E+02  0.71985535983E+02  0.00000000000E+00 0. -1.
</event>
<event>
 7    1  0.8661710E-006  0.1096577E+03  0.7561462E-02  0.1261205E+00
          4   -1    0    0  501    0  0.00000000000E+00  0.00000000000E+00  0.85776291661E+02  0.85776291661E+02  0.00000000000E+00 0.  1.
         -4   -1    0    0    0  501 -0.00000000000E+00 -0.00000000000E+00 -0.25463215604E+03  0.25463215604E+03  0.00000000000E+00 0. -1.
         23    2    1    2    0    0 -0.33623794532E+02 -0.75168919775E+02 -0.15636207350E+03  0.21651054103E+03  0.12508713080E+03 0.  0.
          5    1    3    3  502    0  0.11420597408E+02 -0.70953666711E+02 -0.22924794389E+02  0.75550456403E+02  0.41800000000E+01 0.  1.
         -5    1    3    3    0  502 -0.45044391940E+02 -0.42152530638E+01 -0.13343727911E+03  0.14096008463E+03  0.41800000000E+01 0.  1.
        -11    1    1    2    0    0  0.48453758191E+02  0.37064173945E+02  0.27306511674E+02  0.66836855498E+02  0.00000000000E+00 0.  1.
         11    1    1    2    0    0 -0.14829963659E+02  0.38104745830E+02 -0.39800302561E+02  0.57061051172E+02  0.00000000000E+00 0. -1.
</event>
<event>
 7    1  0.8661710E-006  0.1279518E+03  0.7561462E-02  0.1230527E+00
          4   -1    0    0  501    0  0.00000000000E+00  0.00000000000E+00  0.19999519771E+03  0.19999519771E+03  0.00000000000E+00 0. -1.
         -4   -1    0    0    0  501 -0.00000000000E+00 -0.00000000000E+00 -0.11596852981E+03  0.11596852981E+03  0.00000000000E+00 0.  1.
         23    2    1    2    0    0  0.10606897195E+03  0.11372527571E+02  0.40948894474E+02  0.16942372041E+03  0.12509046280E+03 0.  0.
          5    1    3    3  502    0  0.80473021758E+02  0.40595704438E+02  0.75204865154E+02  0.11746132382E+03  0.41800000000E+01 0. -1.
         -5    1    3    3    0  502  0.25595950190E+02 -0.29223176867E+02 -0.34255970680E+02  0.51962396591E+02  0.41800000000E+01 0. -1.
        -11    1    1    2    0    0 -0.20600417707E+02  0.26124568938E+02 -0.15125650957E+02  0.36546622672E+02  0.00000000000E+00 0.  1.
         11    1    1    2    0    0 -0.85468554241E+02 -0.37497096508E+02  0.58203424384E+02  0.10999338444E+03  0.00000000000E+00 0. -1.
</event>
<event>
 7    1  0.8661710E-006  0.1275199E+03  0.7561462E-02  0.1231183E+00
          2   -1    0    0  501    0  0.00000000000E+00  0.00000000000E+00  0.55101187024E+03  0.55101187024E+03  0.00000000000E+00 0. -1.
         -2   -1    0    0    0  501 -0.00000000000E+00 -0.00000000000E+00 -0.36368413834E+02  0.36368413834E+02  0.00000000000E+00 0.  1.
         23    2    1    2    0    0 -0.50713178762E+02  0.71690195024E+02  0.23242697632E+03  0.27817488593E+03  0.12509059630E+03 0.  0.
          5    1    3    3  502    0  0.27883572731E+02  0.61986362454E+02  0.14465848335E+03  0.15988543387E+03  0.41800000000E+01 0. -1.
         -5    1    3    3    0  502 -0.78596751493E+02  0.97038325696E+01  0.87768492965E+02  0.11828945206E+03  0.41800000000E+01 0. -1.
        -11    1    1    2    0    0 -0.13529678385E+02 -0.24281819051E+02  0.16534453121E+03  0.16766476355E+03  0.00000000000E+00 0.  1.
         11    1    1    2    0    0  0.64242857147E+02 -0.47408375973E+02  0.11687194888E+03  0.14154063460E+03  0.00000000000E+00 0. -1.
</event>
<event>
 7    1  0.8661710E-006  0.2386387E+03  0.7561462E-02  0.1120703E+00
         -2   -1    0    0    0  501 -0.00000000000E+00  0.00000000000E+00  0.13301748081E+03  0.13301748081E+03  0.00000000000E+00 0.  1.
          2   -1    0    0  501    0  0.00000000000E+00 -0.00000000000E+00 -0.61704824467E+03  0.61704824467E+03  0.00000000000E+00 0. -1.
         23    2    1    2    0    0 -0.33760082244E+02  0.21788544783E+03 -0.54756090287E+02  0.25934301447E+03  0.12508700253E+03 0.  0.
          5    1    3    3  502    0 -0.74642369265E+02  0.18901008593E+03 -0.42853720502E+02  0.20772628537E+03  0.41800000000E+01 0. -1.
         -5    1    3    3    0  502  0.40882287020E+02  0.28875361905E+02 -0.11902369785E+02  0.51616729106E+02  0.41800000000E+01 0. -1.
        -11    1    1    2    0    0  0.38940021754E+02 -0.12879552564E+03 -0.33448787723E+03  0.36053675643E+03  0.00000000000E+00 0.  1.
         11    1    1    2    0    0 -0.51799395097E+01 -0.89089922188E+02 -0.94786796345E+02  0.13018595458E+03  0.00000000000E+00 0. -1.
</event>
<event>
 7    1  0.8661710E-006  0.1875233E+03  0.7561462E-02  0.1160714E+00
         -2   -1    0    0    0  501 -0.00000000000E+00  0.00000000000E+00  0.97132236748E+02  0.97132236748E+02  0.00000000000E+00 0.  1.
          2   -1    0    0  501    0  0.00000000000E+00 -0.00000000000E+00 -0.48578442687E+03  0.48578442687E+03  0.00000000000E+00 0. -1.
         23    2    1    2    0    0  0.12531717444E+03  0.10635936797E+03 -0.78175882522E+02  0.22085186932E+03  0.12508944885E+03 0.  0.
          5    1    3    3  502    0  0.54810392790E+02  0.10458061067E+03 -0.37150211329E+01  0.11820557122E+03  0.41800000000E+01 0. -1.
         -5    1    3    3    0  502  0.70506781645E+02  0.17787572955E+01 -0.74460861389E+02  0.10264629810E+03  0.41800000000E+01 0. -1.
        -11    1    1    2    0    0 -0.14213074948E+02 -0.66822466205E+02 -0.11130721601E+03  0.13060072674E+03  0.00000000000E+00 0.  1.
         11    1    1    2    0    0 -0.11110409949E+03 -0.39536901760E+02 -0.19916909159E+03  0.23146406756E+03  0.00000000000E+00 0. -1.
</event>
<event>
 7    1  0.8661710E-006  0.8775767E+02  0.7561462E-02  0.1308374E+00
          2   -1    0    0  501    0  0.00000000000E+00  0.00000000000E+00  0.29270286886E+03  0.29270286886E+03  0.00000000000E+00 0.  1.
         -2   -1    0    0    0  501 -0.00000000000E+00 -0.00000000000E+00 -0.66545379469E+02  0.66545379469E+02  0.00000000000E+00 0. -1.
         23    2    1    2    0    0 -0.34354495231E+02  0.78174824186E+02  0.14709634965E+03  0.21114543849E+03  0.12511405052E+03 0.  0.
          5    1    3    3  502    0 -0.27820217348E+02  0.33746227918E+02  0.15862312421E+03  0.16459507990E+03  0.41800000000E+01 0.  1.
         -5    1    3    3    0  502 -0.65342778833E+01  0.44428596268E+02 -0.11526774558E+02  0.46550358598E+02  0.41800000000E+01 0.  1.
        -11    1    1    2    0    0  0.13548329387E+02 -0.47651049392E+02  0.95565801352E+02  0.10764293811E+03  0.00000000000E+00 0.  1.
         11    1    1    2    0    0  0.20806165844E+02 -0.30523774794E+02 -0.16504661613E+02  0.40459871722E+02  0.00000000000E+00 0. -1.
</event>
<event>
 7    1  0.8661710E-006  0.1705024E+03  0.7561462E-02  0.1177325E+00
         -1   -1    0    0    0  501 -0.00000000000E+00  0.00000000000E+00  0.10904766676E+03  0.10904766676E+03  0.00000000000E+00 0.  1.
          1   -1    0    0  501    0  0.00000000000E+00 -0.00000000000E+00 -0.38652693085E+03  0.38652693085E+03  0.00000000000E+00 0. -1.
         23    2    1    2    0    0  0.14838037067E+03 -0.79165609571E+02 -0.19529181092E+03  0.28647894238E+03  0.12508942753E+03 0.  0.
          5    1    3    3  502    0  0.13185813629E+03 -0.56230900978E+02 -0.21003653024E+03  0.25432518312E+03  0.41800000000E+01 0.  1.
         -5    1    3    3    0  502  0.16522234379E+02 -0.22934708593E+02  0.14744719324E+02  0.32153759268E+02  0.41800000000E+01 0.  1.
        -11    1    1    2    0    0 -0.48733779863E+02  0.35151428075E+02  0.16279077703E+02  0.62254418046E+02  0.00000000000E+00 0.  1.
         11    1    1    2    0    0 -0.99646590807E+02  0.44014181496E+02 -0.98466530878E+02  0.14684123718E+03  0.00000000000E+00 0. -1.
</event>
<event>
 7    1  0.8661710E-006  0.1859116E+03  0.7561462E-02  0.1162201E+00
         -1   -1    0    0    0  501 -0.00000000000E+00  0.00000000000E+00  0.45499226650E+02  0.45499226650E+02  0.00000000000E+00 0.  1.
          1   -1    0    0  501    0  0.00000000000E+00 -0.00000000000E+00 -0.77928495950E+03  0.77928495950E+03  0.00000000000E+00 0. -1.
         23    2    1    2    0    0 -0.81247319280E+02  0.12810074269E+03 -0.33530298897E+03  0.38869696036E+03  0.12508519262E+03 0.  0.
          5    1    3    3  502    0 -0.89070831857E+02  0.26626766234E+02 -0.18564279939E+03  0.20766154948E+03  0.41800000000E+01 0. -1.
         -5    1    3    3    0  502  0.78235125769E+01  0.10147397646E+03 -0.14966018958E+03  0.18103541088E+03  0.41800000000E+01 0. -1.
        -11    1    1    2    0    0  0.83231060026E+02 -0.46620861562E+02 -0.22642149015E+03  0.24569819960E+03  0.00000000000E+00 0.  1.
         11    1    1    2    0    0 -0.19837407463E+01 -0.81479881131E+02 -0.17206125373E+03  0.19038902618E+03  0.00000000000E+00 0. -1.
</event>
<event>
 7    1  0.8661710E-006  0.8014168E+02  0.7561462E-02  0.1328650E+00
         -2   -1    0    0    0  501 -0.00000000000E+00  0.00000000000E+00  0.58385099609E+02  0.58385099609E+02  0.00000000000E+00 0.  1.
          2   -1    0    0  501    0  0.00000000000E+00 -0.00000000000E+00 -0.20940380686E+03  0.20940380686E+03  0.00000000000E+00 0. -1.
         23    2    1    2    0    0  0.31451991796E+02  0.35337652414E+02 -0.69046108785E+02  0.15050831464E+03  0.12508960856E+03 0.  0.
          5    1    3    3  502    0  0.99230002180E+01 -0.28307559605E+02  0.21888370056E+02  0.37367860627E+02  0.41800000000E+01 0. -1.
         -5    1    3    3    0  502  0.21528991578E+02  0.63645212019E+02 -0.90934478841E+02  0.11314045401E+03  0.41800000000E+01 0. -1.
        -11    1    1    2    0    0 -0.40410678555E+02 -0.20416455530E+02 -0.87916412317E+02  0.98889585662E+02  0.00000000000E+00 0. -1.
         11    1    1    2    0    0  0.89586867591E+01 -0.14921196884E+02  0.59438138502E+01  0.18391006171E+02  0.00000000000E+00 0.  1.
</event>
<event>
 7    1  0.8661710E-006  0.1945557E+03  0.7561462E-02  0.1154415E+00
          4   -1    0    0  501    0  0.00000000000E+00  0.00000000000E+00  0.34408198967E+03  0.34408198967E+03  0.00000000000E+00 0. -1.
         -4   -1    0    0    0  501 -0.00000000000E+00 -0.00000000000E+00 -0.12277928520E+03  0.12277928520E+03  0.00000000000E+00 0.  1.
         23    2    1    2    0    0 -0.16981681247E+03  0.36459666527E+02  0.10700621615E+03  0.23930202494E+03  0.12509225301E+03 0.  0.
          5    1    3    3  502    0 -0.14774128228E+02  0.38126306133E+02  0.67849425004E+02  0.79327844781E+02  0.41800000000E+01 0. -1.
         -5    1    3    3    0  502 -0.15504268424E+03 -0.16666396060E+01  0.39156791150E+02  0.15997418015E+03  0.41800000000E+01 0. -1.
        -11    1    1    2    0    0  0.88785432936E+02 -0.61597395923E+02  0.41457959467E+02  0.11574046263E+03  0.00000000000E+00 0.  1.
         11    1    1    2    0    0  0.81031379530E+02  0.25137729395E+02  0.72838528849E+02  0.11181878730E+03  0.00000000000E+00 0. -1.
</event>
<event>
 7    1  0.8661710E-006  0.7060213E+02  0.7561462E-02  0.1358057E+00
          1   -1    0    0  501    0  0.00000000000E+00  0.00000000000E+00  0.24818073751E+03  0.24818073751E+03  0.00000000000E+00 0. -1.
         -1   -1    0    0    0  501 -0.00000000000E+00 -0.00000000000E+00 -0.48064263601E+02  0.48064263601E+02  0.00000000000E+00 0.  1.
         23    2    1    2    0    0 -0.63625974672E+01 -0.10110227940E+01  0.91527860204E+02  0.15513345441E+03  0.12509010621E+03 0.  0.
          5    1    3    3  502    0  0.44106290190E+02  0.15239399124E+02 -0.27028632806E+01  0.46929542827E+02  0.41800000000E+01 0. -1.
         -5    1    3    3    0  502 -0.50468887658E+02 -0.16250421918E+02  0.94230723484E+02  0.10820391158E+03  0.41800000000E+01 0. -1.
        -11    1    1    2    0    0  0.11464346427E+02 -0.18078998953E+02 -0.80050926455E+01  0.22855260891E+02  0.00000000000E+00 0.  1.
         11    1    1    2    0    0 -0.51017489599E+01  0.19090021747E+02  0.11659370635E+03  0.11825628581E+03  0.00000000000E+00 0. -1.
</event>
<event>
 7    1  0.8661710E-006  0.1687836E+03  0.7561462E-02  0.1179122E+00
          1   -1    0    0  501    0  0.00000000000E+00  0.00000000000E+00  0.84524261311E+03  0.84524261311E+03  0.00000000000E+00 0. -1.
         -1   -1    0    0    0  501 -0.00000000000E+00 -0.00000000000E+00 -0.41737733903E+02  0.41737733903E+02  0.00000000000E+00 0.  1.
         23    2    1    2    0    0  0.23161870096E+02  0.13472413985E+03  0.26254403690E+03  0.32134800392E+03  0.12509237477E+03 0.  0.
          5    1    3    3  502    0  0.72786303730E+02  0.70329234127E+02  0.11853556096E+03  0.15592369543E+03  0.41800000000E+01 0. -1.
         -5    1    3    3    0  502 -0.49624433634E+02  0.64394905726E+02  0.14400847594E+03  0.16542430849E+03  0.41800000000E+01 0. -1.
        -11    1    1    2    0    0  0.21775830737E+02 -0.85422748280E+02  0.40115526085E+03  0.41072713087E+03  0.00000000000E+00 0. -1.
         11    1    1    2    0    0 -0.44937700833E+02 -0.49301391573E+02  0.13980558146E+03  0.15490521223E+03  0.00000000000E+00 0.  1.
</event>
<event>
 7    1  0.8661710E-006  0.2487608E+03  0.7561462E-02  0.1114090E+00
         -1   -1    0    0    0  501 -0.00000000000E+00  0.00000000000E+00  0.11276828247E+03  0.11276828247E+03  0.00000000000E+00 0.  1.
          1   -1    0    0  501    0  0.00000000000E+00 -0.00000000000E+00 -0.68201032662E+03  0.68201032662E+03  0.00000000000E+00 0. -1.
         23    2    1    2    0    0 -0.94108546421E+02 -0.22143896596E+03 -0.17034014237E+03  0.32024198990E+03  0.12509010288E+03 0.  0.
          5    1    3    3  502    0 -0.98142561197E+02 -0.11901608082E+03 -0.15088646229E+03  0.21582628828E+03  0.41800000000E+01 0. -1.
         -5    1    3    3    0  502  0.40340147753E+01 -0.10242288514E+03 -0.19453680082E+02  0.10441570162E+03  0.41800000000E+01 0. -1.
        -11    1    1    2    0    0  0.32575565614E+02  0.74180020705E+02 -0.22179365036E+03  0.23612764829E+03  0.00000000000E+00 0. -1.
         11    1    1    2    0    0  0.61532980808E+02  0.14725894525E+03 -0.17710825142E+03  0.23840897090E+03  0.00000000000E+00 0.  1.
</event>
<event>
 7    1  0.8661710E-006  0.1097262E+03  0.7561462E-02  0.1261078E+00
         -1   -1    0    0    0  501 -0.00000000000E+00  0.00000000000E+00  0.46781258330E+02  0.46781258330E+02  0.00000000000E+00 0.  1.
          1   -1    0    0  501    0  0.00000000000E+00 -0.00000000000E+00 -0.27218469541E+03  0.27218469541E+03  0.00000000000E+00 0. -1.
         23    2    1    2    0    0 -0.26045602286E+02  0.42568165231E+01 -0.11134285167E+03  0.16954400535E+03  0.12510573626E+03 0.  0.
          5    1    3    3  502    0 -0.73703046637E+02  0.14505391736E+02 -0.86607541107E+02  0.11472089631E+03  0.41800000000E+01 0.  1.
         -5    1    3    3    0  502  0.47657444351E+02 -0.10248575213E+02 -0.24735310564E+02  0.54823109038E+02  0.41800000000E+01 0.  1.
        -11    1    1    2    0    0  0.28531612711E+02  0.41009844019E+02 -0.71610618782E+02  0.87315181685E+02  0.00000000000E+00 0.  1.
         11    1    1    2    0    0 -0.24860104248E+01 -0.45266660543E+02 -0.42449966631E+02  0.62106766713E+02  0.00000000000E+00 0. -1.
</event>
<event>
 7    1  0.8661710E-006  0.2451668E+03  0.7561462E-02  0.1116398E+00
          2   -1    0    0  501    0  0.00000000000E+00  0.00000000000E+00  0.74758590184E+03  0.74758590184E+03  0.00000000000E+00 0. -1.
         -2   -1    0    0    0  501 -0.00000000000E+00 -0.00000000000E+00 -0.99187214327E+02  0.99187214327E+02  0.00000000000E+00 0.  1.
         23    2    1    2    0    0  0.13452623729E+03 -0.20230635194E+03  0.24473566579E+03  0.36683661777E+03  0.12509352290E+03 0.  0.
          5    1    3    3  502    0  0.68232220733E+02 -0.64029437968E+02  0.21711012529E+02  0.96146998589E+02  0.41800000000E+01 0.  1.
         -5    1    3    3    0  502  0.66294016559E+02 -0.13827691397E+03  0.22302465326E+03  0.27068961918E+03  0.41800000000E+01 0.  1.
        -11    1    1    2    0    0 -0.19123691457E+02  0.21552425285E+02  0.80169119180E+01  0.29908083980E+02  0.00000000000E+00 0.  1.
         11    1    1    2    0    0 -0.11540254583E+03  0.18075392665E+03  0.39564610980E+03  0.45002841442E+03  0.00000000000E+00 0. -1.
</event>
<event>
 7    1  0.8661710E-006  0.1515541E+03  0.7561462E-02  0.1198576E+00
         -2   -1    0    0    0  501 -0.00000000000E+00  0.00000000000E+00  0.44721333001E+02  0.44721333001E+02  0.00000000000E+00 0.  1.
          2   -1    0    0  501    0  0.00000000000E+00 -0.00000000000E+00 -0.57532998224E+03  0.57532998224E+03  0.00000000000E+00 0. -1.
         23    2    1    2    0    0  0.11789876918E+03 -0.57752986002E+01 -0.22536866031E+03  0.28349922735E+03  0.12508918823E+03 0.  0.
          5    1    3    3  502    0  0.26248686274E+02  0.50795447708E+02 -0.11888581427E+03  0.13198666703E+03  0.41800000000E+01 0. -1.
         -5    1    3    3    0  502  0.91650082909E+02 -0.56570746308E+02 -0.10648284603E+03  0.15151256032E+03  0.41800000000E+01 0. -1.
        -11    1    1    2    0    0 -0.76904191852E+02 -0.31004700043E+02 -0.21957613109E+03  0.23471093604E+03  0.00000000000E+00 0. -1.
         11    1    1    2    0    0 -0.40994577332E+02  0.36779998643E+02 -0.85663857834E+02  0.10184115185E+03  0.00000000000E+00 0.  1.
</event>
<event>
 7    1  0.8661710E-006  0.8477845E+02  0.7561462E-02  0.1316013E+00
          1   -1    0    0  501    0  0.00000000000E+00  0.00000000000E+00  0.24765371346E+03  0.24765371346E+03  0.00000000000E+00 0. -1.
         -1   -1    0    0    0  501 -0.00000000000E+00 -0.00000000000E+00 -0.39063983035E+02  0.39063983035E+02  0.00000000000E+00 0.  1.
         23    2    1    2    0    0  0.25072313540E+02 -0.29934489516E+02  0.92544931109E+02  0.16042487408E+03  0.12508749491E+03 0.  0.
          5    1    3    3  502    0 -0.46125642866E+02  0.43979565925E+01  0.13223406469E+02  0.48365771271E+02  0.41800000000E+01 0.  1.
         -5    1    3    3    0  502  0.71197956406E+02 -0.34332446108E+02  0.79321524640E+02  0.11205910281E+03  0.41800000000E+01 0.  1.
        -11    1    1    2    0    0  0.11605910905E+01  0.12107583189E+02  0.10443899496E+02  0.16031705431E+02  0.00000000000E+00 0.  1.
         11    1    1    2    0    0 -0.26232904630E+02  0.17826906327E+02  0.10560089982E+03  0.11026111697E+03  0.00000000000E+00 0. -1.
</event>
<event>
 7    1  0.8661710E-006  0.1160889E+03  0.7561462E-02  0.1249692E+00
          3   -1    0    0  501    0  0.00000000000E+00  0.00000000000E+00  0.69650877240E+02  0.69650877240E+02  0.00000000000E+00 0. -1.
         -3   -1    0    0    0  501 -0.00000000000E+00 -0.00000000000E+00 -0.22342726758E+03  0.22342726758E+03  0.00000000000E+00 0.  1.
         23    2    1    2    0    0 -0.61201713017E+02  0.50818325477E+01 -0.89571410400E+02  0.16564751550E+03  0.12507832399E+03 0.  0.
          5    1    3    3  502    0  0.24058725590E+02 -0.36411568858E+02 -0.21376518913E+02  0.48775532642E+02  0.41800000000E+01 0. -1.
         -5    1    3    3    0  502 -0.85260438607E+02  0.41493401406E+02 -0.68194891487E+02  0.11687198286E+03  0.41800000000E+01 0. -1.
        -11    1    1    2    0    0  0.74652873991E+02 -0.15699923024E+02 -0.18326979708E+02  0.78456467950E+02  0.00000000000E+00 0. -1.
         11    1    1    2    0    0 -0.13451160973E+02  0.10618090476E+02 -0.45878000228E+02  0.48974161369E+02  0.00000000000E+00 0.  1.
</event>
<event>
 7    1  0.8661710E-006  0.9341465E+02  0.7561462E-02  0.1294787E+00
         -1   -1    0    0    0  501 -0.00000000000E+00  0.00000000000E+00  0.26536776740E+03  0.26536776740E+03  0.00000000000E+00 0.  1.
          1   -1    0    0  501    0  0.00000000000E+00 -0.00000000000E+00 -0.47622677297E+02  0.47622677297E+02  0.00000000000E+00 0. -1.
         23    2    1    2    0    0 -0.54304433947E+01  0.64913805814E+01  0.16392106509E+03  0.20637284445E+03  0.12509199657E+03 0.  0.
          5    1    3    3  502    0 -0.18137083234E+02 -0.56366214529E+02  0.61616597639E+02  0.85558058845E+02  0.41800000000E+01 0. -1.
         -5    1    3    3    0  502  0.12706639839E+02  0.62857595111E+02  0.10230446746E+03  0.12081478560E+03  0.41800000000E+01 0. -1.
        -11    1    1    2    0    0 -0.30197472919E+01 -0.34150264061E+02 -0.10695108588E+02  0.35913016537E+02  0.00000000000E+00 0. -1.
         11    1    1    2    0    0  0.84501906866E+01  0.27658883479E+02  0.64519133597E+02  0.70704583714E+02  0.00000000000E+00 0.  1.
</event>
<event>
 7    1  0.9513394E-006  0.2729826E+03  0.7561462E-02  0.1099585E+00
          1   -1    0    0  501    0  0.00000000000E+00  0.00000000000E+00  0.74845404392E+03  0.74845404392E+03  0.00000000000E+00 0. -1.
         -1   -1    0    0    0  501 -0.00000000000E+00 -0.00000000000E+00 -0.10920331495E+03  0.10920331495E+03  0.00000000000E+00 0.  1.
         23    2    1    2    0    0 -0.22511913047E+03 -0.13709386312E+03  0.30157576876E+03  0.41960574280E+03  0.12509070661E+03 0.  0.
          5    1    3    3  502    0 -0.39492285622E+02  0.88282486084E+01  0.57587492938E+01  0.41087883744E+02  0.41800000000E+01 0.  1.
         -5    1    3    3    0  502 -0.18562684484E+03 -0.14592211173E+03  0.29581701946E+03  0.37851785905E+03  0.41800000000E+01 0.  1.
        -11    1    1    2    0    0  0.17815609351E+03  0.80250831257E+02  0.18776516049E+03  0.27098993536E+03  0.00000000000E+00 0.  1.
         11    1    1    2    0    0  0.46963036960E+02  0.56843031863E+02  0.14990979972E+03  0.16706168072E+03  0.00000000000E+00 0. -1.
</event>
<event>
 6    1  0.8661710E-006  0.1509738E+03  0.7561462E-02  0.1199282E+00
          1   -1    0    0  501    0  0.00000000000E+00  0.00000000000E+00  0.10878666618E+03  0.10878666618E+03  0.00000000000E+00 0. -1.
         -1   -1    0    0    0  501 -0.00000000000E+00 -0.00000000000E+00 -0.76567603639E+03  0.76567603639E+03  0.00000000000E+00 0.  1.
          5    1    1    2  502    0 -0.20566684426E+02  0.52373745612E+02 -0.15748233254E+03  0.16728465321E+03  0.41800000000E+01 0. -1.
         -5    1    1    2    0  502 -0.86546721458E+02 -0.96335520439E+02 -0.53853365184E+03  0.55390146602E+03  0.41800000000E+01 0.  1.
        -11    1    1    2    0    0  0.57678924168E+02  0.27064001066E+02 -0.26834125241E+02  0.69133123207E+02  0.00000000000E+00 0.  1.
         11    1    1    2    0    0  0.49434481715E+02  0.16897773760E+02  0.65960739404E+02  0.84143460134E+02  0.00000000000E+00 0. -1.
</event>
<event>
 7    1  0.8661710E-006  0.1699269E+03  0.7561462E-02  0.1177924E+00
         -3   -1    0    0    0  501 -0.00000000000E+00  0.00000000000E+00  0.17062424772E+03  0.17062424772E+03  0.00000000000E+00 0.  1.
          3   -1    0    0  501    0  0.00000000000E+00 -0.00000000000E+00 -0.20967969773E+03  0.20967969773E+03  0.00000000000E+00 0. -1.
         23    2    1    2    0    0  0.89957270896E+00  0.14671933669E+03  0.28936125764E+02  0.19496694909E+03  0.12508972329E+03 0.  0.
          5    1    3    3  502    0  0.48136524525E+02  0.11752958733E+02  0.88716337080E+01  0.50511734448E+02  0.41800000000E+01 0.  1.
         -5    1    3    3    0  502 -0.47236951816E+02  0.13496637796E+03  0.20064492056E+02  0.14445521464E+03  0.41800000000E+01 0.  1.
        -11    1    1    2    0    0  0.39938047422E+01 -0.31946572841E+02  0.22349609907E+02  0.39192334144E+02  0.00000000000E+00 0.  1.
         11    1    1    2    0    0 -0.48933774511E+01 -0.11477276385E+03 -0.90341185688E+02  0.14614466222E+03  0.00000000000E+00 0. -1.
</event>
<event>
 7    1  0.8661710E-006  0.2148174E+03  0.7561462E-02  0.1137807E+00
         -1   -1    0    0    0  501 -0.00000000000E+00  0.00000000000E+00  0.58711560704E+02  0.58711560704E+02  0.00000000000E+00 0.  1.
          1   -1    0    0  501    0  0.00000000000E+00 -0.00000000000E+00 -0.93256098737E+03  0.93256098737E+03  0.00000000000E+00 0. -1.
         23    2    1    2    0    0 -0.27070332336E+02  0.13058660682E+03 -0.20585652046E+03  0.27533666588E+03  0.12509079818E+03 0.  0.
          5    1    3    3  502    0 -0.77355390015E+02  0.80905781687E+02 -0.12824162476E+03  0.17027327622E+03  0.41800000000E+01 0.  1.
         -5    1    3    3    0  502  0.50285057679E+02  0.49680825137E+02 -0.77614895701E+02  0.10506338966E+03  0.41800000000E+01 0.  1.
        -11    1    1    2    0    0  0.13718779775E+02 -0.18767761954E+03 -0.40639758273E+03  0.44785052087E+03  0.00000000000E+00 0.  1.
         11    1    1    2    0    0  0.13351552561E+02  0.57091012720E+02 -0.26159532348E+03  0.26808536133E+03  0.00000000000E+00 0. -1.
</event>
<event>
 7    1  0.8661710E-006  0.1325351E+03  0.7561462E-02  0.1223742E+00
          1   -1    0    0  501    0  0.00000000000E+00  0.00000000000E+00  0.51567404258E+03  0.51567404258E+03  0.00000000000E+00 0. -1.
         -1   -1    0    0    0  501 -0.00000000000E+00 -0.00000000000E+00 -0.44431603428E+02  0.44431603428E+02  0.00000000000E+00 0.  1.
         23    2    1    2    0    0  0.84840258219E+02  0.61138601115E+02  0.23667854750E+03  0.28740293022E+03  0.12509161239E+03 0.  0.
          5    1    3    3  502    0 -0.15756014127E+02  0.57478602572E+02  0.64541135134E+02  0.87949259572E+02  0.41800000000E+01 0. -1.
         -5    1    3    3    0  502  0.10059627235E+03  0.36599985429E+01  0.17213741236E+03  0.19945367065E+03  0.41800000000E+01 0. -1.
        -11    1    1    2    0    0 -0.55806665388E+02 -0.39957582353E+02  0.50628257586E+02  0.85288995511E+02  0.00000000000E+00 0.  1.
         11    1    1    2    0    0 -0.29033592832E+02 -0.21181018762E+02  0.18393563407E+03  0.18741372028E+03  0.00000000000E+00 0. -1.
</event>
<event>
 7    1  0.8661710E-006  0.8919422E+02  0.7561462E-02  0.1304815E+00
          1   -1    0    0  501    0  0.00000000000E+00  0.00000000000E+00  0.60343525828E+02  0.60343525828E+02  0.00000000000E+00 0. -1.
         -1   -1    0    0    0  501 -0.00000000000E+00 -0.00000000000E+00 -0.22259206255E+03  0.22259206255E+03  0.00000000000E+00 0.  1.
         23    2    1    2    0    0 -0.10131889724E+02 -0.36832236482E+02 -0.11720490437E+03  0.17562294019E+03  0.12508860331E+03 0.  0.
          5    1    3    3  502    0  0.31913559709E+02 -0.40478253048E+01  0.12934572618E+02  0.34923283806E+02  0.41800000000E+01 0. -1.
         -5    1    3    3    0  502 -0.42045449432E+02 -0.32784411177E+02 -0.13013947699E+03  0.14069965638E+03  0.41800000000E+01 0. -1.
        -11    1    1    2    0    0  0.39149108066E+02 -0.71304769304E+01 -0.36404824295E+02  0.53933362547E+02  0.00000000000E+00 0.  1.
         11    1    1    2    0    0 -0.29017218342E+02  0.43962713412E+02 -0.86388080482E+01  0.53379285639E+02  0.00000000000E+00 0. -1.
</event>
<event>
 6    1  0.8661710E-006  0.2192234E+03  0.7561462E-02  0.1134463E+00
          2   -1    0    0  501    0  0.00000000000E+00  0.00000000000E+00  0.66013390042E+02  0.66013390042E+02  0.00000000000E+00 0. -1.
         -2   -1    0    0    0  501 -0.00000000000E+00 -0.00000000000E+00 -0.10324963198E+04  0.10324963198E+04  0.00000000000E+00 0.  1.
          5    1    1    2  502    0 -0.14876406685E+03  0.12165934459E+03 -0.30838717824E+03  0.36338941621E+03  0.41800000000E+01 0. -1.
         -5    1    1    2    0  502  0.12482122130E+03 -0.76057211607E+02 -0.59305746461E+03  0.61081884831E+03  0.41800000000E+01 0.  1.
        -11    1    1    2    0    0  0.49608541223E+02 -0.23015761368E+01 -0.52828462948E+02  0.72506214302E+02  0.00000000000E+00 0.  1.
         11    1    1    2    0    0 -0.25665695676E+02 -0.43300556850E+02 -0.12209824003E+02  0.51795231057E+02  0.00000000000E+00 0. -1.
</event>
<event>
 7    1  0.8661710E-006  0.1063938E+03  0.7561462E-02  0.1267398E+00
         -1   -1    0    0    0  501 -0.00000000000E+00  0.00000000000E+00  0.53753816253E+02  0.53753816253E+02  0.00000000000E+00 0.  1.
          1   -1    0    0  501    0  0.00000000000E+00 -0.00000000000E+00 -0.45895847992E+03  0.45895847992E+03  0.00000000000E+00 0. -1.
         23    2    1    2    0    0  0.29615460625E+02 -0.15606986345E+02 -0.39446909452E+02  0.13536500047E+03  0.12508785375E+03 0.  0.
          5    1    3    3  502    0 -0.44792696176E+02 -0.68337763026E+01 -0.39604495755E+02  0.60324742961E+02  0.41800000000E+01 0. -1.
         -5    1    3    3    0  502  0.74408156800E+02 -0.87732100419E+01  0.15758630340E+00  0.75040257504E+02  0.41800000000E+01 0. -1.
        -11    1    1    2    0    0 -0.56086954695E+02 -0.81492569346E+01 -0.24434294546E+03  0.25082988632E+03  0.00000000000E+00 0.  1.
         11    1    1    2    0    0  0.26471494070E+02  0.23756243279E+02 -0.12141480875E+03  0.12651740939E+03  0.00000000000E+00 0. -1.
</event>
<event>
 7    1  0.8661710E-006  0.9017292E+02  0.7561462E-02  0.1302433E+00
         -4   -1    0    0    0  501 -0.00000000000E+00  0.00000000000E+00  0.57651372742E+02  0.57651372742E+02  0.00000000000E+00 0.  1.
          4   -1    0    0  501    0  0.00000000000E+00 -0.00000000000E+00 -0.32041731094E+03  0.32041731094E+03  0.00000000000E+00 0. -1.
         23    2    1    2    0    0 -0.48686926662E+02  0.13695046991E+02 -0.56738371363E+02  0.14638060104E+03  0.12510022556E+03 0.  0.
          5    1    3    3  502    0 -0.25355016543E+02 -0.52998394379E+02 -0.46120374601E+02  0.74808208266E+02  0.41800000000E+01 0. -1.
         -5    1    3    3    0  502 -0.23331910119E+02  0.66693441370E+02 -0.10617996762E+02  0.71572392770E+02  0.41800000000E+01 0. -1.
        -11    1    1    2    0    0  0.13337726818E+02 -0.51570778420E+01  0.67586383785E+01  0.15816750655E+02  0.00000000000E+00 0.  1.
         11    1    1    2    0    0  0.35349199844E+02 -0.85379691488E+01 -0.21278620521E+03  0.21587133199E+03  0.00000000000E+00 0. -1.
</event>
<event>
 7    1  0.8661710E-006  0.1194214E+03  0.7561462E-02  0.1244055E+00
         -2   -1    0    0    0  501 -0.00000000000E+00  0.00000000000E+00  0.29059570514E+02  0.29059570514E+02  0.00000000000E+00 0.  1.
          2   -1    0    0  501    0  0.00000000000E+00 -0.00000000000E+00 -0.62059588191E+03  0.62059588191E+03  0.00000000000E+00 0. -1.
         23    2    1    2    0    0  0.87889606420E+01 -0.77389501634E+02 -0.22911871469E+03  0.26835380737E+03  0.11598275611E+03 0.  0.
          5    1    3    3  502    0 -0.41449553046E+02 -0.48089666046E+02 -0.52916363223E+02  0.82754427826E+02  0.41800000000E+01 0. -1.
         -5    1    3    3    0  502  0.50238513688E+02 -0.29299835589E+02 -0.17620235147E+03  0.18559937954E+03  0.41800000000E+01 0.  1.
        -11    1    1    2    0    0 -0.37581107014E+02  0.79607129972E+02 -0.29749191060E+03  0.31024356821E+03  0.00000000000E+00 0. -1.
         11    1    1    2    0    0  0.28792146372E+02 -0.22176283372E+01 -0.64925686106E+02  0.71058076842E+02  0.00000000000E+00 0.  1.
</event>
<event>
 7    1  0.8661710E-006  0.1107948E+03  0.7561462E-02  0.1259105E+00
          1   -1    0    0  501    0  0.00000000000E+00  0.00000000000E+00  0.31183732275E+03  0.31183732275E+03  0.00000000000E+00 0. -1.
         -1   -1    0    0    0  501 -0.00000000000E+00 -0.00000000000E+00 -0.57018285544E+02  0.57018285544E+02  0.00000000000E+00 0.  1.
         23    2    1    2    0    0 -0.78132610303E+02 -0.17189751925E+01  0.11506329286E+03  0.18706058153E+03  0.12507773635E+03 0.  0.
          5    1    3    3  502    0 -0.14005054786E+02  0.42644768710E+02  0.96920294185E+02  0.10689122360E+03  0.41800000000E+01 0. -1.
         -5    1    3    3    0  502 -0.64127555516E+02 -0.44363743903E+02  0.18142998672E+02  0.80169357927E+02  0.41800000000E+01 0. -1.
        -11    1    1    2    0    0  0.70507160066E+02  0.24307448369E+02  0.52152089162E+02  0.91005231008E+02  0.00000000000E+00 0.  1.
         11    1    1    2    0    0  0.76254502365E+01 -0.22588473176E+02  0.87603655185E+02  0.90789795757E+02  0.00000000000E+00 0. -1.
</event>
<event>
 6    1  0.8661710E-006  0.1406786E+03  0.7561462E-02  0.1212419E+00
          1   -1    0    0  501    0  0.00000000000E+00  0.00000000000E+00  0.40419383086E+03  0.40419383086E+03  0.00000000000E+00 0. -1.
         -1   -1    0    0    0  501 -0.00000000000E+00 -0.00000000000E+00 -0.11648717501E+03  0.11648717501E+03  0.00000000000E+00 0.  1.
          5    1    1    2  502    0 -0.63776278132E+02  0.66014538749E+02  0.55148160797E+02  0.10716400990E+03  0.41800000000E+01 0. -1.
         -5    1    1    2    0  502  0.96417935848E+02 -0.43314872404E+02 -0.51022179602E+02  0.11744501580E+03  0.41800000000E+01 0.  1.
        -11    1    1    2    0    0  0.12640000712E+02 -0.34628006793E+02  0.98878367732E+02  0.10552630041E+03  0.00000000000E+00 0. -1.
         11    1    1    2    0    0 -0.45281658428E+02  0.11928340449E+02  0.18470230692E+03  0.19054567977E+03  0.00000000000E+00 0.  1.
</event>
<event>
 7    1  0.8661710E-006  0.1195127E+03  0.7561462E-02  0.1243903E+00
         -2   -1    0    0    0  501 -0.00000000000E+00  0.00000000000E+00  0.16659797005E+02  0.16659797005E+02  0.00000000000E+00 0.  1.
          2   -1    0    0  501    0  0.00000000000E+00 -0.00000000000E+00 -0.95754722922E+03  0.95754722922E+03  0.00000000000E+00 0. -1.
         23    2    1    2    0    0  0.31163028949E+02 -0.56461467607E+02 -0.46846271822E+03  0.48914579813E+03  0.12508901536E+03 0.  0.
          5    1    3    3  502    0  0.71090599119E+02 -0.63985524288E+02 -0.26858578902E+03  0.28513824553E+03  0.41800000000E+01 0. -1.
         -5    1    3    3    0  502 -0.39927570170E+02  0.75240566805E+01 -0.19987692920E+03  0.20400755259E+03  0.41800000000E+01 0. -1.
        -11    1    1    2    0    0 -0.25355432503E+01  0.70509792519E+02 -0.39622846007E+03  0.40246124334E+03  0.00000000000E+00 0.  1.
         11    1    1    2    0    0 -0.28627485698E+02 -0.14048324912E+02 -0.76196253919E+02  0.82599984755E+02  0.00000000000E+00 0. -1.
</event>
<event>
 7    1  0.8661710E-006  0.1100678E+03  0.7561462E-02  0.1260444E+00
          2   -1    0    0  501    0  0.00000000000E+00  0.00000000000E+00  0.15189043029E+03  0.15189043029E+03  0.00000000000E+00 0. -1.
         -2   -1    0    0    0  501 -0.00000000000E+00 -0.00000000000E+00 -0.14354294863E+03  0.14354294863E+03  0.00000000000E+00 0.  1.
         23    2    1    2    0    0 -0.23880946506E+02  0.66447390491E+02 -0.65709263587E+02  0.15795990675E+03  0.12509224400E+03 0.  0.
          5    1    3    3  502    0  0.90879854568E+01  0.96705637657E+02 -0.55215145597E+02  0.11180678216E+03  0.41800000000E+01 0. -1.
         -5    1    3    3    0  502 -0.32968931963E+02 -0.30258247167E+02 -0.10494117990E+02  0.46153124583E+02  0.41800000000E+01 0. -1.
        -11    1    1    2    0    0  0.27480324384E+02 -0.27571519458E+02 -0.13824957739E+02  0.41309640158E+02  0.00000000000E+00 0.  1.
         11    1    1    2    0    0 -0.35993778778E+01 -0.38875871032E+02  0.87881702984E+02  0.96163832021E+02  0.00000000000E+00 0. -1.
</event>
<event>
 7    1  0.8661710E-006  0.9475432E+02  0.7561462E-02  0.1291730E+00
          1   -1    0    0  501    0  0.00000000000E+00  0.00000000000E+00  0.40110092933E+03  0.40110092933E+03  0.00000000000E+00 0.  1.
         -1   -1    0    0    0  501 -0.00000000000E+00 -0.00000000000E+00 -0.30564364650E+02  0.30564364650E+02  0.00000000000E+00 0. -1.
         23    2    1    2    0    0 -0.15793832777E+02  0.14051853086E+02  0.19988481265E+03  0.23675891788E+03  0.12511573498E+03 0.  0.
          5    1    3    3  502    0  0.99488929355E+00  0.64519912980E+02  0.64907380461E+02  0.91620136509E+02  0.41800000000E+01 0. -1.
         -5    1    3    3    0  502 -0.16788722071E+02 -0.50468059894E+02  0.13497743219E+03  0.14513878137E+03  0.41800000000E+01 0. -1.
        -11    1    1    2    0    0  0.59224654161E+01 -0.41709595002E+02  0.31271181829E+02  0.52465729051E+02  0.00000000000E+00 0. -1.
         11    1    1    2    0    0  0.98713673614E+01  0.27657741916E+02  0.13938057020E+03  0.14244064705E+03  0.00000000000E+00 0.  1.
</event>
<event>
 7    1  0.8661710E-006  0.1822728E+03  0.7561462E-02  0.1165621E+00
         -1   -1    0    0    0  501 -0.00000000000E+00  0.00000000000E+00  0.52396100017E+02  0.52396100017E+02  0.00000000000E+00 0.  1.
          1   -1    0    0  501    0  0.00000000000E+00 -0.00000000000E+00 -0.88831354181E+03  0.88831354181E+03  0.00000000000E+00 0. -1.
         23    2    1    2    0    0  0.17520495938E+03  0.92454115976E+01 -0.28697910045E+03  0.35886910675E+03  0.12509107186E+03 0.  0.
          5    1    3    3  502    0  0.15574936812E+03  0.47003062244E+01 -0.29753171129E+03  0.33589068188E+03  0.41800000000E+01 0. -1.
         -5    1    3    3    0  502  0.19455591253E+02  0.45451053731E+01  0.10552610844E+02  0.22978424869E+02  0.41800000000E+01 0. -1.
        -11    1    1    2    0    0 -0.14886180785E+03 -0.33348123786E+02 -0.38634000995E+03  0.41536795553E+03  0.00000000000E+00 0.  1.
         11    1    1    2    0    0 -0.26343151524E+02  0.24102712188E+02 -0.16259833140E+03  0.16647257954E+03  0.00000000000E+00 0. -1.
</event>
<event>
 7    1  0.8661710E-006  0.8378476E+02  0.7561462E-02  0.1318641E+00
          1   -1    0    0  501    0  0.00000000000E+00  0.00000000000E+00  0.14242678052E+03  0.14242678052E+03  0.00000000000E+00 0. -1.
         -1   -1    0    0    0  501 -0.00000000000E+00 -0.00000000000E+00 -0.94322259475E+02  0.94322259475E+02  0.00000000000E+00 0.  1.
         23    2    1    2    0    0  0.36145327235E+02 -0.10951113443E+02  0.41055354673E+02  0.13696303335E+03  0.12508764443E+03 0.  0.
          5    1    3    3  502    0  0.44659595142E+02 -0.24902611249E+02 -0.33006352382E+02  0.61004189879E+02  0.41800000000E+01 0.  1.
         -5    1    3    3    0  502 -0.85142679066E+01  0.13951497806E+02  0.74061707055E+02  0.75958843468E+02  0.41800000000E+01 0.  1.
        -11    1    1    2    0    0 -0.25702934856E+02  0.51481547881E+02  0.67052026523E+01  0.57930565119E+02  0.00000000000E+00 0. -1.
         11    1    1    2    0    0 -0.10442392379E+02 -0.40530434437E+02  0.34396371618E+00  0.41855441526E+02  0.00000000000E+00 0.  1.
</event>
<event>
 7    1  0.8661710E-006  0.7963195E+02  0.7561462E-02  0.1330099E+00
         -4   -1    0    0    0  501 -0.00000000000E+00  0.00000000000E+00  0.93550522419E+02  0.93550522419E+02  0.00000000000E+00 0. -1.
          4   -1    0    0  501    0  0.00000000000E+00 -0.00000000000E+00 -0.17987308152E+03  0.17987308152E+03  0.00000000000E+00 0.  1.
         23    2    1    2    0    0 -0.33117555433E+01  0.27409469408E+02  0.21241939552E+02  0.12984964888E+03  0.12508982605E+03 0.  0.
          5    1    3    3  502    0 -0.47034062610E+02  0.83504986050E+01 -0.32458360888E+02  0.57904675667E+02  0.41800000000E+01 0.  1.
         -5    1    3    3    0  502  0.43722307066E+02  0.19058970803E+02  0.53700300441E+02  0.71944973213E+02  0.41800000000E+01 0.  1.
        -11    1    1    2    0    0  0.24460651986E+02  0.47746159254E+01  0.42780674900E+01  0.25286801187E+02  0.00000000000E+00 0. -1.
         11    1    1    2    0    0 -0.21148896442E+02 -0.32184085333E+02 -0.11184256615E+03  0.11828715387E+03  0.00000000000E+00 0.  1.
</event>
<event>
 7    1  0.8661710E-006  0.1496256E+03  0.7561462E-02  0.1200934E+00
         -2   -1    0    0    0  501 -0.00000000000E+00  0.00000000000E+00  0.72301385436E+02  0.72301385436E+02  0.00000000000E+00 0.  1.
          2   -1    0    0  501    0  0.00000000000E+00 -0.00000000000E+00 -0.81702136561E+03  0.81702136561E+03  0.00000000000E+00 0. -1.
         23    2    1    2    0    0  0.65392631615E+02 -0.83842543311E+02 -0.37399726645E+02  0.16837953596E+03  0.12508860955E+03 0.  0.
          5    1    3    3  502    0  0.85575493857E+02 -0.10230549007E+03 -0.42894975850E+02  0.14016786294E+03  0.41800000000E+01 0.  1.
         -5    1    3    3    0  502 -0.20182862241E+02  0.18462946757E+02  0.54952492047E+01  0.28211673028E+02  0.41800000000E+01 0.  1.
        -11    1    1    2    0    0 -0.86404349058E+01 -0.18889119597E+02 -0.75008023285E+02  0.77830967562E+02  0.00000000000E+00 0.  1.
         11    1    1    2    0    0 -0.56752196709E+02  0.10273166291E+03 -0.63231223024E+03  0.64311224752E+03  0.00000000000E+00 0. -1.
</event>
<event>
 7    1  0.8661710E-006  0.1884398E+03  0.7561462E-02  0.1159876E+00
         -1   -1    0    0    0  501 -0.00000000000E+00  0.00000000000E+00  0.49657664777E+02  0.49657664777E+02  0.00000000000E+00 0.  1.
          1   -1    0    0  501    0  0.00000000000E+00 -0.00000000000E+00 -0.78602770650E+03  0.78602770650E+03  0.00000000000E+00 0. -1.
         23    2    1    2    0    0 -0.60176759313E+02 -0.14561295013E+03 -0.28468883916E+03  0.34859689534E+03  0.12509071386E+03 0.  0.
          5    1    3    3  502    0 -0.92568681374E+02 -0.12874925134E+03 -0.25912800657E+03  0.30382581635E+03  0.41800000000E+01 0. -1.
         -5    1    3    3    0  502  0.32391922060E+02 -0.16863698794E+02 -0.25560832589E+02  0.44771078996E+02  0.41800000000E+01 0. -1.
        -11    1    1    2    0    0 -0.13423960861E+02  0.85267054039E+02 -0.23798802197E+03  0.25315799776E+03  0.00000000000E+00 0.  1.
         11    1    1    2    0    0  0.73600720174E+02  0.60345896091E+02 -0.21369318059E+03  0.23393047817E+03  0.00000000000E+00 0. -1.
</event>
<event>
 7    1  0.8661710E-006  0.9264702E+02  0.7561462E-02  0.1296565E+00
         -2   -1    0    0    0  501 -0.00000000000E+00  0.00000000000E+00  0.10651997301E+03  0.10651997301E+03  0.00000000000E+00 0.  1.
          2   -1    0    0  501    0  0.00000000000E+00 -0.00000000000E+00 -0.12783520610E+03  0.12783520610E+03  0.00000000000E+00 0. -1.
         23    2    1    2    0    0  0.42490703534E+02 -0.45329093268E+01 -0.45789549207E+01  0.13226692261E+03  0.12509022678E+03 0.  0.
          5    1    3    3  502    0  0.81470377531E+02 -0.28293540237E+02 -0.32637157159E+01  0.86406429590E+02  0.41800000000E+01 0. -1.
         -5    1    3    3    0  502 -0.38979673998E+02  0.23760630910E+02 -0.13152392048E+01  0.45860493024E+02  0.41800000000E+01 0. -1.
        -11    1    1    2    0    0 -0.91315631615E+01 -0.12635536251E+02  0.34921768272E+02  0.38243589285E+02  0.00000000000E+00 0.  1.
         11    1    1    2    0    0 -0.33359140372E+02  0.17168445578E+02 -0.51658046442E+02  0.63844667217E+02  0.00000000000E+00 0. -1.
</event>
<event>
 7    1  0.8661710E-006  0.1323016E+03  0.7561462E-02  0.1224080E+00
          3   -1    0    0  501    0  0.00000000000E+00  0.00000000000E+00  0.12437052242E+03  0.12437052242E+03  0.00000000000E+00 0.  1.
         -3   -1    0    0    0  501 -0.00000000000E+00 -0.00000000000E+00 -0.19482664266E+03  0.19482664266E+03  0.00000000000E+00 0. -1.
         23    2    1    2    0    0 -0.30200189183E+02  0.81748147329E+02 -0.10953477994E+03  0.18772435205E+03  0.12509098017E+03 0.  0.
          5    1    3    3  502    0  0.28606369740E+02 -0.13737691490E+02 -0.53374914112E+02  0.62236664544E+02  0.41800000000E+01 0. -1.
         -5    1    3    3    0  502 -0.58806558923E+02  0.95485838819E+02 -0.56159865824E+02  0.12548768751E+03  0.41800000000E+01 0. -1.
        -11    1    1    2    0    0  0.44822102177E+02 -0.84230203553E+01  0.33321553437E+02  0.56482687958E+02  0.00000000000E+00 0.  1.
         11    1    1    2    0    0 -0.14621912994E+02 -0.73325126974E+02  0.57571062553E+01  0.74990125068E+02  0.00000000000E+00 0. -1.
</event>
<event>
 7    1  0.8661710E-006  0.1057128E+03  0.7561462E-02  0.1268721E+00
         -3   -1    0    0    0  501 -0.00000000000E+00  0.00000000000E+00  0.17769244819E+03  0.17769244819E+03  0.00000000000E+00 0.  1.
          3   -1    0    0  501    0  0.00000000000E+00 -0.00000000000E+00 -0.11284539775E+03  0.11284539775E+03  0.00000000000E+00 0. -1.
         23    2    1    2    0    0 -0.25773028839E+02 -0.52417206910E+01  0.12485459201E+03  0.17869025686E+03  0.12509921702E+03 0.  0.
          5    1    3    3  502    0 -0.76265250109E+02 -0.81055478233E+01  0.69345068713E+02  0.10348091242E+03  0.41800000000E+01 0. -1.
         -5    1    3    3    0  502  0.50492221271E+02  0.28638271322E+01  0.55509523295E+02  0.75209344440E+02  0.41800000000E+01 0. -1.
        -11    1    1    2    0    0 -0.17447296740E+01  0.39719841597E+02 -0.54399182559E+02  0.67379380831E+02  0.00000000000E+00 0.  1.
         11    1    1    2    0    0  0.27517758513E+02 -0.34478120906E+02 -0.56083590021E+01  0.44468208256E+02  0.00000000000E+00 0. -1.
</event>
<event>
 7    1  0.8661710E-006  0.1639873E+03  0.7561462E-02  0.1184267E+00
         -2   -1    0    0    0  501 -0.00000000000E+00  0.00000000000E+00  0.41932373927E+02  0.41932373927E+02  0.00000000000E+00 0. -1.
          2   -1    0    0  501    0  0.00000000000E+00 -0.00000000000E+00 -0.73651529193E+03  0.73651529193E+03  0.00000000000E+00 0.  1.
         23    2    1    2    0    0 -0.83528780461E+02  0.10298477622E+03 -0.29821734615E+03  0.34952292934E+03  0.12509904590E+03 0.  0.
          5    1    3    3  502    0  0.25171804049E+02  0.58723719740E+02 -0.12154325457E+03  0.13737659958E+03  0.41800000000E+01 0. -1.
         -5    1    3    3    0  502 -0.10870058451E+03  0.44261056485E+02 -0.17667409158E+03  0.21214632976E+03  0.41800000000E+01 0. -1.
        -11    1    1    2    0    0  0.69601148211E+02 -0.36525416376E+02 -0.30574022471E+03  0.31568261099E+03  0.00000000000E+00 0.  1.
         11    1    1    2    0    0  0.13927632250E+02 -0.66459359849E+02 -0.90625347135E+02  0.11324212553E+03  0.00000000000E+00 0. -1.
</event>
<event>
 7    1  0.8661710E-006  0.8959706E+02  0.7561462E-02  0.1303830E+00
          4   -1    0    0  501    0  0.00000000000E+00  0.00000000000E+00  0.25624170209E+03  0.25624170209E+03  0.00000000000E+00 0. -1.
         -4   -1    0    0    0  501 -0.00000000000E+00 -0.00000000000E+00 -0.50326764166E+02  0.50326764166E+02  0.00000000000E+00 0.  1.
         23    2    1    2    0    0  0.27872054197E+02  0.16256573048E+02  0.12694715012E+03  0.18111482511E+03  0.12508346565E+03 0.  0.
          5    1    3    3  502    0 -0.81196070037E+01 -0.36750234724E+02  0.10757989158E+03  0.11405004710E+03  0.41800000000E+01 0.  1.
         -5    1    3    3    0  502  0.35991661200E+02  0.53006807773E+02  0.19367258531E+02  0.67064778008E+02  0.41800000000E+01 0.  1.
        -11    1    1    2    0    0 -0.35580748630E+02  0.19477219453E+02  0.24318925124E+01  0.40635770595E+02  0.00000000000E+00 0.  1.
         11    1    1    2    0    0  0.77086944332E+01 -0.35733792501E+02  0.76535895294E+02  0.84817870551E+02  0.00000000000E+00 0. -1.
</event>
<event>
 7    1  0.8661710E-006  0.8026291E+02  0.7561462E-02  0.1328307E+00
          1   -1    0    0  501    0  0.00000000000E+00  0.00000000000E+00  0.54291362156E+02  0.54291362156E+02  0.00000000000E+00 0. -1.
         -1   -1    0    0    0  501 -0.00000000000E+00 -0.00000000000E+00 -0.21912721628E+03  0.21912721628E+03  0.00000000000E+00 0.  1.
         23    2    1    2    0    0 -0.10694594106E+02  0.10144315137E+02 -0.10746665200E+03  0.16556809233E+03  0.12508569236E+03 0.  0.
          5    1    3    3  502    0  0.40478768564E+02  0.17312642571E+02  0.21864309587E+01  0.44277660028E+02  0.41800000000E+01 0.  1.
         -5    1    3    3    0  502 -0.51173362670E+02 -0.71683274336E+01 -0.10965308296E+03  0.12129043230E+03  0.41800000000E+01 0.  1.
        -11    1    1    2    0    0 -0.24185259557E+02  0.75670177734E+01  0.12132495843E+02  0.28095978239E+02  0.00000000000E+00 0. -1.
         11    1    1    2    0    0  0.34879853663E+02 -0.17711332910E+02 -0.69501697965E+02  0.79754507867E+02  0.00000000000E+00 0.  1.
</event>
<event>
 7    1  0.9340986E-006  0.1352409E+03  0.7561462E-02  0.1219880E+00
         -1   -1    0    0    0  501 -0.00000000000E+00  0.00000000000E+00  0.36240287513E+03  0.36240287513E+03  0.00000000000E+00 0.  1.
          1   -1    0    0  501    0  0.00000000000E+00 -0.00000000000E+00 -0.75101479705E+02  0.75101479705E+02  0.00000000000E+00 0. -1.
         23    2    1    2    0    0  0.93960581569E+02 -0.73281915120E+02  0.19922626892E+03  0.26369883187E+03  0.12508851958E+03 0.  0.
          5    1    3    3  502    0  0.14022999570E+02 -0.28727249112E+02  0.16139536101E+03  0.16458382154E+03  0.41800000000E+01 0. -1.
         -5    1    3    3    0  502  0.79937581999E+02 -0.44554666007E+02  0.37830907910E+02  0.99115010328E+02  0.41800000000E+01 0. -1.
        -11    1    1    2    0    0 -0.10820472216E+03  0.49680914525E+02  0.84513118288E+02  0.14601000763E+03  0.00000000000E+00 0.  1.
         11    1    1    2    0    0  0.14244140591E+02  0.23601000594E+02  0.35620082222E+01  0.27795515336E+02  0.00000000000E+00 0. -1.
</event>
<event>
 7    1  0.8661710E-006  0.2055477E+03  0.7561462E-02  0.1145141E+00
          1   -1    0    0  501    0  0.00000000000E+00  0.00000000000E+00  0.65967241816E+03  0.65967241816E+03  0.00000000000E+00 0. -1.
         -1   -1    0    0    0  501 -0.00000000000E+00 -0.00000000000E+00 -0.74053835515E+02  0.74053835515E+02  0.00000000000E+00 0.  1.
         23    2    1    2    0    0 -0.17688035745E+03  0.34223222733E+02  0.19367160520E+03  0.29259144533E+03  0.12507267244E+03 0.  0.
          5    1    3    3  502    0  0.24778304524E+01  0.29153682627E+02  0.66060413634E+02  0.72370764152E+02  0.41800000000E+01 0.  1.
         -5    1    3    3    0  502 -0.17935818790E+03  0.50695401062E+01  0.12761119157E+03  0.22022068118E+03  0.41800000000E+01 0.  1.
        -11    1    1    2    0    0  0.61476852772E+02  0.31686342939E+02  0.14700003486E+03  0.16245749599E+03  0.00000000000E+00 0.  1.
         11    1    1    2    0    0  0.11540350468E+03 -0.65909565672E+02  0.24494694258E+03  0.27867731235E+03  0.00000000000E+00 0. -1.
</event>
<event>
 7    1  0.8661710E-006  0.1280868E+03  0.7561462E-02  0.1230323E+00
         -1   -1    0    0    0  501 -0.00000000000E+00  0.00000000000E+00  0.15064090870E+03  0.15064090870E+03  0.00000000000E+00 0.  1.
          1   -1    0    0  501    0  0.00000000000E+00 -0.00000000000E+00 -0.11664370581E+03  0.11664370581E+03  0.00000000000E+00 0. -1.
         23    2    1    2    0    0  0.58380814418E+02  0.55298527298E+02  0.23332471283E+02  0.15052739394E+03  0.12509134861E+03 0.  0.
          5    1    3    3  502    0  0.89989843207E+02  0.14163291623E+02 -0.48863354570E+01  0.91324254085E+02  0.41800000000E+01 0.  1.
         -5    1    3    3    0  502 -0.31609028789E+02  0.41135235675E+02  0.28218806740E+02  0.59203139856E+02  0.41800000000E+01 0.  1.
        -11    1    1    2    0    0 -0.66460504423E+02 -0.10344841636E+02 -0.73451641547E+01  0.67660666809E+02  0.00000000000E+00 0.  1.
         11    1    1    2    0    0  0.80796900045E+01 -0.44953685661E+02  0.18009895760E+02  0.49096553753E+02  0.00000000000E+00 0. -1.
</event>
<event>
 7    1  0.8661710E-006  0.1074576E+03  0.7561462E-02  0.1265352E+00
          2   -1    0    0  501    0  0.00000000000E+00  0.00000000000E+00  0.56452949936E+03  0.56452949936E+03  0.00000000000E+00 0.  1.
         -2   -1    0    0    0  501 -0.00000000000E+00 -0.00000000000E+00 -0.29545795436E+02  0.29545795436E+02  0.00000000000E+00 0. -1.
         23    2    1    2    0    0  0.34387777126E+02 -0.30469403799E+02  0.17489803105E+03  0.21987966488E+03  0.12508733739E+03 0.  0.
          5    1    3    3  502    0 -0.42770206763E+02  0.17847488046E+01  0.29702584964E+02  0.52270372760E+02  0.41800000000E+01 0. -1.
         -5    1    3    3    0  502  0.77157983890E+02 -0.32254152603E+02  0.14519544609E+03  0.16760929212E+03  0.41800000000E+01 0. -1.
        -11    1    1    2    0    0 -0.54858874527E+02  0.44139320802E+01  0.30489161011E+03  0.30981909694E+03  0.00000000000E+00 0.  1.
         11    1    1    2    0    0  0.20471097400E+02  0.26055471718E+02  0.55194062759E+02  0.64376532984E+02  0.00000000000E+00 0. -1.
</event>
<event>
 7    1  0.8661710E-006  0.1079650E+03  0.7561462E-02  0.1264385E+00
         -2   -1    0    0    0  501 -0.00000000000E+00  0.00000000000E+00  0.17206172036E+02  0.17206172036E+02  0.00000000000E+00 0.  1.
          2   -1    0    0  501    0  0.00000000000E+00 -0.00000000000E+00 -0.80098076273E+03  0.80098076273E+03  0.00000000000E+00 0. -1.
         23    2    1    2    0    0  0.10081318460E+02  0.30835541075E+02 -0.40081483770E+03  0.42114673369E+03  0.12513821800E+03 0.  0.
          5    1    3    3  502    0 -0.33815112162E+02 -0.24253338089E+02 -0.26313212583E+03  0.26643512205E+03  0.41800000000E+01 0.  1.
         -5    1    3    3    0  502  0.43896430622E+02  0.55088879163E+02 -0.13768271186E+03  0.15471161164E+03  0.41800000000E+01 0.  1.
        -11    1    1    2    0    0  0.38580091376E+02 -0.38242275918E+02 -0.17009741806E+03  0.17856098888E+03  0.00000000000E+00 0.  1.
         11    1    1    2    0    0 -0.48661409836E+02  0.74067348429E+01 -0.21286233493E+03  0.21847921219E+03  0.00000000000E+00 0. -1.
</event>
<event>
 7    1  0.8661710E-006  0.9428245E+02  0.7561462E-02  0.1292800E+00
         -1   -1    0    0    0  501 -0.00000000000E+00  0.00000000000E+00  0.11273027264E+04  0.11273027264E+04  0.00000000000E+00 0.  1.
          1   -1    0    0  501    0  0.00000000000E+00 -0.00000000000E+00 -0.11210633429E+02  0.11210633429E+02  0.00000000000E+00 0. -1.
         23    2    1    2    0    0  0.28618892155E+02 -0.64160148074E+01  0.61372632679E+03  0.62703003855E+03  0.12508580579E+03 0.  0.
          5    1    3    3  502    0  0.29737388829E+02  0.38224620521E+02  0.98361198588E+02  0.10971705290E+03  0.41800000000E+01 0.  1.
         -5    1    3    3    0  502 -0.11184966741E+01 -0.44640635329E+02  0.51536512821E+03  0.51731298565E+03  0.41800000000E+01 0.  1.
        -11    1    1    2    0    0 -0.60184107279E+00 -0.40476280756E+02  0.17753415888E+03  0.18209082647E+03  0.00000000000E+00 0.  1.
         11    1    1    2    0    0 -0.28017051082E+02  0.46892295564E+02  0.32483160729E+03  0.32939249480E+03  0.00000000000E+00 0. -1.
</event>
<event>
 7    1  0.8661710E-006  0.8801807E+02  0.7561462E-02  0.1307723E+00
          2   -1    0    0  501    0  0.00000000000E+00  0.00000000000E+00  0.35339296437E+03  0.35339296437E+03  0.00000000000E+00 0. -1.
         -2   -1    0    0    0  501 -0.00000000000E+00 -0.00000000000E+00 -0.47282280318E+02  0.47282280318E+02  0.00000000000E+00 0.  1.
         23    2    1    2    0    0  0.25006399400E+02  0.13097281713E+02  0.70905264700E+02  0.14653140063E+03  0.12508811298E+03 0.  0.
          5    1    3    3  502    0  0.55041907072E+02 -0.63135191109E+01 -0.11379816509E+02  0.56713708056E+02  0.41800000000E+01 0. -1.
         -5    1    3    3    0  502 -0.30035507672E+02  0.19410800824E+02  0.82285081208E+02  0.89817692573E+02  0.41800000000E+01 0. -1.
        -11    1    1    2    0    0 -0.22397473515E+02 -0.46159048086E+02  0.77189162742E+02  0.92684795867E+02  0.00000000000E+00 0.  1.
         11    1    1    2    0    0 -0.26089258853E+01  0.33061766373E+02  0.15801625661E+03  0.16145904819E+03  0.00000000000E+00 0. -1.
</event>
<event>
 7    1  0.8661710E-006  0.2107354E+03  0.7561462E-02  0.1140985E+00
          2   -1    0    0  501    0  0.00000000000E+00  0.00000000000E+00  0.15483214329E+03  0.15483214329E+03  0.00000000000E+00 0.  1.
         -2   -1    0    0    0  501 -0.00000000000E+00 -0.00000000000E+00 -0.34484748528E+03  0.34484748528E+03  0.00000000000E+00 0. -1.
         23    2    1    2    0    0 -0.73891267431E+02  0.17848665447E+03 -0.16784429395E+03  0.28484619224E+03  0.12509292944E+03 0.  0.
          5    1    3    3  502    0 -0.15850359195E+02  0.13827115712E+03 -0.16237424404E+03  0.21389954256E+03  0.41800000000E+01 0.  1.
         -5    1    3    3    0  502 -0.58040908236E+02  0.40215497345E+02 -0.54700499136E+01  0.70946649686E+02  0.41800000000E+01 0.  1.
        -11    1    1    2    0    0  0.87986720398E+02 -0.10651135632E+03 -0.29031749981E+02  0.14117072819E+03  0.00000000000E+00 0.  1.
         11    1    1    2    0    0 -0.14095452967E+02 -0.71975298147E+02  0.68607019423E+01  0.73662708129E+02  0.00000000000E+00 0. -1.
</event>
<event>
 7    1  0.8661710E-006  0.1784376E+03  0.7561462E-02  0.1169324E+00
          1   -1    0    0  501    0  0.00000000000E+00  0.00000000000E+00  0.78991669374E+03  0.78991669374E+03  0.00000000000E+00 0.  1.
         -1   -1    0    0    0  501 -0.00000000000E+00 -0.00000000000E+00 -0.11828820401E+03  0.11828820401E+03  0.00000000000E+00 0. -1.
         23    2    1    2    0    0  0.15941560947E+03  0.36591858494E+02 -0.54592999277E+01  0.20591617815E+03  0.12497746925E+03 0.  0.
          5    1    3    3  502    0  0.14343815508E+03  0.48232979983E+02 -0.48004275038E+02  0.15881689933E+03  0.41800000000E+01 0. -1.
         -5    1    3    3    0  502  0.15977454382E+02 -0.11641121488E+02  0.42544975111E+02  0.47099278818E+02  0.41800000000E+01 0. -1.
        -11    1    1    2    0    0 -0.37431671786E+02  0.28472450397E+02  0.20809478461E+03  0.21334303332E+03  0.00000000000E+00 0.  1.
         11    1    1    2    0    0 -0.12198393768E+03 -0.65064308891E+02  0.46899300505E+03  0.48894568627E+03  0.00000000000E+00 0. -1.
</event>
<event>
 7    1  0.8661710E-006  0.7719434E+02  0.7561462E-02  0.1337207E+00
         -1   -1    0    0    0  501 -0.00000000000E+00  0.00000000000E+00  0.21762080133E+02  0.21762080133E+02  0.00000000000E+00 0.  1.
          1   -1    0    0  501    0  0.00000000000E+00 -0.00000000000E+00 -0.60782059126E+03  0.60782059126E+03  0.00000000000E+00 0. -1.
         23    2    1    2    0    0 -0.31342752217E+01  0.22557894084E+01 -0.22129571722E+03  0.25369109462E+03  0.12398574418E+03 0.  0.
          5    1    3    3  502    0 -0.32974016975E+02 -0.51069818221E+01 -0.22009613600E+03  0.22265028304E+03  0.41800000000E+01 0. -1.
         -5    1    3    3    0  502  0.29839741753E+02  0.73627712306E+01 -0.11995812252E+01  0.31040811575E+02  0.41800000000E+01 0.  1.
        -11    1    1    2    0    0 -0.15793739914E+02  0.40236795252E+02 -0.14742130658E+03  0.15362774342E+03  0.00000000000E+00 0.  1.
         11    1    1    2    0    0  0.18928015135E+02 -0.42492584661E+02 -0.21734148732E+03  0.22226383336E+03  0.00000000000E+00 0. -1.
</event>
<event>
 7    1  0.8661710E-006  0.1212292E+03  0.7561462E-02  0.1241083E+00
         -2   -1    0    0    0  501 -0.00000000000E+00  0.00000000000E+00  0.17554538150E+03  0.17554538150E+03  0.00000000000E+00 0.  1.
          2   -1    0    0  501    0  0.00000000000E+00 -0.00000000000E+00 -0.11235921943E+03  0.11235921943E+03  0.00000000000E+00 0. -1.
         23    2    1    2    0    0  0.46467565327E+02  0.75832926000E+02  0.32076212200E+02  0.15679548135E+03  0.12508426076E+03 0.  0.
          5    1    3    3  502    0 -0.17452238278E+02 -0.26944687689E+02  0.66163037370E+01  0.33043073264E+02  0.41800000000E+01 0.  1.
         -5    1    3    3    0  502  0.63919803605E+02  0.10277761369E+03  0.25459908463E+02  0.12375240809E+03  0.41800000000E+01 0.  1.
        -11    1    1    2    0    0 -0.25070564460E+02 -0.38302249624E+02  0.62669097710E+02  0.77608062316E+02  0.00000000000E+00 0.  1.
         11    1    1    2    0    0 -0.21397000868E+02 -0.37530676377E+02 -0.31559147847E+02  0.53501057263E+02  0.00000000000E+00 0. -1.
</event>
<event>
 7    1  0.8661710E-006  0.1514051E+03  0.7561462E-02  0.1198757E+00
         -1   -1    0    0    0  501 -0.00000000000E+00  0.00000000000E+00  0.22079887035E+02  0.22079887035E+02  0.00000000000E+00 0.  1.
          1   -1    0    0  501    0  0.00000000000E+00 -0.00000000000E+00 -0.12399952792E+04  0.12399952792E+04  0.00000000000E+00 0. -1.
         23    2    1    2    0    0  0.85261186772E+02 -0.10300194747E+03 -0.80794493195E+03  0.82843310979E+03  0.12509010022E+03 0.  0.
          5    1    3    3  502    0  0.10137106125E+03 -0.10556336350E+03 -0.52633501443E+03  0.54632017681E+03  0.41800000000E+01 0. -1.
         -5    1    3    3    0  502 -0.16109874476E+02  0.25614160289E+01 -0.28160991752E+03  0.28211293298E+03  0.41800000000E+01 0. -1.
        -11    1    1    2    0    0 -0.14254034805E+02 -0.23669881879E+00 -0.24827816425E+02  0.28629600119E+02  0.00000000000E+00 0.  1.
         11    1    1    2    0    0 -0.71007151966E+02  0.10323864629E+03 -0.38514264382E+03  0.40501245636E+03  0.00000000000E+00 0. -1.
</event>
<event>
 7    1  0.8661710E-006  0.1167030E+03  0.7561462E-02  0.1248637E+00
         -2   -1    0    0    0  501 -0.00000000000E+00  0.00000000000E+00  0.15519461873E+02  0.15519461873E+02  0.00000000000E+00 0. -1.
          2   -1    0    0  501    0  0.00000000000E+00 -0.00000000000E+00 -0.88329439603E+03  0.88329439603E+03  0.00000000000E+00 0.  1.
         23    2    1    2    0    0  0.38304426536E+02  0.92583771737E+01 -0.49227774722E+03  0.50944859987E+03  0.12509016291E+03 0.  0.
          5    1    3    3  502    0 -0.38837116363E+02  0.32093364895E+02 -0.19574307063E+03  0.20216608959E+03  0.41800000000E+01 0. -1.
         -5    1    3    3    0  502  0.77141542899E+02 -0.22834987722E+02 -0.29653467659E+03  0.30728251028E+03  0.41800000000E+01 0. -1.
        -11    1    1    2    0    0 -0.69788254521E+02 -0.11497865394E+02 -0.27959882637E+03  0.28840614606E+03  0.00000000000E+00 0.  1.
         11    1    1    2    0    0  0.31483827984E+02  0.22394882200E+01 -0.95898360572E+02  0.10095911198E+03  0.00000000000E+00 0. -1.
</event>
<event>
 7    1  0.8661710E-006  0.1046607E+03  0.7561462E-02  0.1270790E+00
         -2   -1    0    0    0  501 -0.00000000000E+00  0.00000000000E+00  0.16551488112E+03  0.16551488112E+03  0.00000000000E+00 0.  1.
          2   -1    0    0  501    0  0.00000000000E+00 -0.00000000000E+00 -0.12469282388E+03  0.12469282388E+03  0.00000000000E+00 0. -1.
         23    2    1    2    0    0 -0.68431821253E+02 -0.50480462978E+02  0.63186521268E+02  0.16392525967E+03  0.12509101880E+03 0.  0.
          5    1    3    3  502    0 -0.74028550280E+02 -0.70894387974E+02  0.85014457089E+02  0.13323351987E+03  0.41800000000E+01 0. -1.
         -5    1    3    3    0  502  0.55967290278E+01  0.20413924996E+02 -0.21827935821E+02  0.30691739797E+02  0.41800000000E+01 0. -1.
        -11    1    1    2    0    0  0.17275633921E+02  0.15277057189E+02  0.34886553652E+02  0.41819942963E+02  0.00000000000E+00 0.  1.
         11    1    1    2    0    0  0.51156187332E+02  0.35203405789E+02 -0.57251017680E+02  0.84462502371E+02  0.00000000000E+00 0. -1.
</event>
<event>
 7    1  0.8661710E-006  0.1341016E+03  0.7561462E-02  0.1221493E+00
         -2   -1    0    0    0  501 -0.00000000000E+00  0.00000000000E+00  0.13417107387E+03  0.13417107387E+03  0.00000000000E+00 0. -1.
          2   -1    0    0  501    0  0.00000000000E+00 -0.00000000000E+00 -0.17351579725E+03  0.17351579725E+03  0.00000000000E+00 0.  1.
         23    2    1    2    0    0 -0.87748906629E+02  0.63316015603E+02 -0.47513929431E+02  0.17209107904E+03  0.12509587343E+03 0.  0.
          5    1    3    3  502    0  0.11486807770E+02  0.59051819959E+02 -0.40059428550E+02  0.72396784521E+02  0.41800000000E+01 0. -1.
         -5    1    3    3    0  502 -0.99235714399E+02  0.42641956435E+01 -0.74545008811E+01  0.99694294522E+02  0.41800000000E+01 0. -1.
        -11    1    1    2    0    0  0.37750463883E+02 -0.31999483635E+02 -0.36586828328E+02  0.61543971950E+02  0.00000000000E+00 0.  1.
         11    1    1    2    0    0  0.49998442746E+02 -0.31316531968E+02  0.44756034376E+02  0.74051820130E+02  0.00000000000E+00 0. -1.
</event>
<event>
 7    1  0.8661710E-006  0.2917585E+03  0.7561462E-02  0.1089435E+00
          1   -1    0    0  501    0  0.00000000000E+00  0.00000000000E+00  0.31377269773E+03  0.31377269773E+03  0.00000000000E+00 0. -1.
         -1   -1    0    0    0  501 -0.00000000000E+00 -0.00000000000E+00 -0.28890532906E+03  0.28890532906E+03  0.00000000000E+00 0.  1.
         23    2    1    2    0    0  0.15189283946E+03  0.23575045324E+03  0.68223129220E+01  0.30715361036E+03  0.12508831090E+03 0.  0.
          5    1    3    3  502    0  0.55701047362E+02  0.18227301150E+03 -0.25581895731E+02  0.19234854610E+03  0.41800000000E+01 0.  1.
         -5    1    3    3    0  502  0.96191792095E+02  0.53477441743E+02  0.32404208653E+02  0.11480506426E+03  0.41800000000E+01 0.  1.
        -11    1    1    2    0    0 -0.97638360376E+02 -0.11848151723E+03  0.51703638091E+02  0.16200118992E+03  0.00000000000E+00 0. -1.
         11    1    1    2    0    0 -0.54254479081E+02 -0.11726893601E+03 -0.33658582340E+02  0.13352322651E+03  0.00000000000E+00 0.  1.
</event>
<event>
 7    1  0.8661710E-006  0.9438258E+02  0.7561462E-02  0.1292573E+00
          4   -1    0    0  501    0  0.00000000000E+00  0.00000000000E+00  0.48162301645E+02  0.48162301645E+02  0.00000000000E+00 0. -1.
         -4   -1    0    0    0  501 -0.00000000000E+00 -0.00000000000E+00 -0.30939168653E+03  0.30939168653E+03  0.00000000000E+00 0.  1.
         23    2    1    2    0    0  0.22248147495E+01  0.30449246572E+02 -0.21588787640E+03  0.25137252202E+03  0.12509381772E+03 0.  0.
          5    1    3    3  502    0 -0.21153476999E+02 -0.35785880676E+02 -0.26850138042E+02  0.49663881823E+02  0.41800000000E+01 0. -1.
         -5    1    3    3    0  502  0.23378291749E+02  0.66235127248E+02 -0.18903773836E+03  0.20170864020E+03  0.41800000000E+01 0. -1.
        -11    1    1    2    0    0  0.29982020757E+02 -0.32664139723E+02  0.67985824943E+01  0.44856307432E+02  0.00000000000E+00 0. -1.
         11    1    1    2    0    0 -0.32206835506E+02  0.22148931510E+01 -0.52140090980E+02  0.61325158723E+02  0.00000000000E+00 0.  1.
</event>
<event>
 7    1  0.8661710E-006  0.1409106E+03  0.7561462E-02  0.1212109E+00
         -1   -1    0    0    0  501 -0.00000000000E+00  0.00000000000E+00  0.23439427512E+02  0.23439427512E+02  0.00000000000E+00 0.  1.
          1   -1    0    0  501    0  0.00000000000E+00 -0.00000000000E+00 -0.10358085122E+04  0.10358085122E+04  0.00000000000E+00 0. -1.
         23    2    1    2    0    0 -0.89860633056E+02 -0.57634431783E+02 -0.43793125917E+03  0.46779110743E+03  0.12509225128E+03 0.  0.
          5    1    3    3  502    0 -0.26298794826E+02  0.26639588622E+02 -0.24457777239E+03  0.24746121603E+03  0.41800000000E+01 0. -1.
         -5    1    3    3    0  502 -0.63561838230E+02 -0.84274020406E+02 -0.19335348679E+03  0.22032989141E+03  0.41800000000E+01 0. -1.
        -11    1    1    2    0    0  0.40426482710E+02  0.75753152988E+02 -0.30156536013E+03  0.31355144254E+03  0.00000000000E+00 0.  1.
         11    1    1    2    0    0  0.49434150346E+02 -0.18118721205E+02 -0.27287246536E+03  0.27790538971E+03  0.00000000000E+00 0. -1.
</event>
<event>
 7    1  0.8661710E-006  0.1649577E+03  0.7561462E-02  0.1183211E+00
         -1   -1    0    0    0  501 -0.00000000000E+00  0.00000000000E+00  0.26997335687E+03  0.26997335687E+03  0.00000000000E+00 0.  1.
          1   -1    0    0  501    0  0.00000000000E+00 -0.00000000000E+00 -0.11499775250E+03  0.11499775250E+03  0.00000000000E+00 0. -1.
         23    2    1    2    0    0 -0.12459628775E+03  0.40265231246E+02  0.13266713611E+03  0.22446899061E+03  0.12506092504E+03 0.  0.
          5    1    3    3  502    0 -0.77654093324E+02 -0.38770435048E+02  0.47228356860E+02  0.98900429400E+02  0.41800000000E+01 0. -1.
         -5    1    3    3    0  502 -0.46942194431E+02  0.79035666295E+02  0.85438779250E+02  0.12556856121E+03  0.41800000000E+01 0. -1.
        -11    1    1    2    0    0  0.11817020721E+03 -0.83724113686E+01  0.37959550561E+02  0.12439944784E+03  0.00000000000E+00 0.  1.
         11    1    1    2    0    0  0.64260805494E+01 -0.31892819878E+02 -0.15651082302E+02  0.36102670929E+02  0.00000000000E+00 0. -1.
</event>
<event>
 7    1  0.8661710E-006  0.1274869E+03  0.7561462E-02  0.1231233E+00
         -2   -1    0    0    0  501 -0.00000000000E+00  0.00000000000E+00  0.25425621272E+03  0.25425621272E+03  0.00000000000E+00 0.  1.
          2   -1    0    0  501    0  0.00000000000E+00 -0.00000000000E+00 -0.87488618068E+02  0.87488618068E+02  0.00000000000E+00 0. -1.
         23    2    1    2    0    0  0.58440751674E+02  0.64715060472E+02  0.15523407979E+03  0.21759562911E+03  0.12508748047E+03 0.  0.
          5    1    3    3  502    0  0.26569974406E+02 -0.28041870135E+02  0.65156325394E+01  0.39398424943E+02  0.41800000000E+01 0. -1.
         -5    1    3    3    0  502  0.31870777268E+02  0.92756930607E+02  0.14871844725E+03  0.17819720417E+03  0.41800000000E+01 0. -1.
        -11    1    1    2    0    0  0.87822501041E+01 -0.47841662499E+02  0.23158520345E+02  0.53872717141E+02  0.00000000000E+00 0.  1.
         11    1    1    2    0    0 -0.67223001779E+02 -0.16873397973E+02 -0.11625005480E+02  0.70276484543E+02  0.00000000000E+00 0. -1.
</event>
<event>
 7    1  0.8661710E-006  0.8984542E+02  0.7561462E-02  0.1303226E+00
         -1   -1    0    0    0  501 -0.00000000000E+00  0.00000000000E+00  0.47664108617E+02  0.47664108617E+02  0.00000000000E+00 0.  1.
          1   -1    0    0  501    0  0.00000000000E+00 -0.00000000000E+00 -0.33861426274E+03  0.33861426274E+03  0.00000000000E+00 0. -1.
         23    2    1    2    0    0  0.23017292096E+02  0.50315290272E+02 -0.10600412270E+03  0.17307432609E+03  0.12512563347E+03 0.  0.
          5    1    3    3  502    0 -0.81557666706E+01  0.39226806355E+02  0.18393648539E+02  0.44283829705E+02  0.41800000000E+01 0. -1.
         -5    1    3    3    0  502  0.31173058766E+02  0.11088483918E+02 -0.12439777124E+03  0.12879049638E+03  0.41800000000E+01 0. -1.
        -11    1    1    2    0    0 -0.28102576359E+02  0.20673435667E+02 -0.59328571048E+02  0.68826049450E+02  0.00000000000E+00 0. -1.
         11    1    1    2    0    0  0.50852842636E+01 -0.70988725939E+02 -0.12561746037E+03  0.14437799582E+03  0.00000000000E+00 0.  1.
</event>
<event>
 7    1  0.8661710E-006  0.1109862E+03  0.7561462E-02  0.1258754E+00
          4   -1    0    0  501    0  0.00000000000E+00  0.00000000000E+00  0.50115656306E+02  0.50115656306E+02  0.00000000000E+00 0. -1.
         -4   -1    0    0    0  501 -0.00000000000E+00 -0.00000000000E+00 -0.32537292428E+03  0.32537292428E+03  0.00000000000E+00 0.  1.
         23    2    1    2    0    0 -0.53477553510E+02 -0.35184247336E+02 -0.18527702743E+03  0.23253592175E+03  0.12509035941E+03 0.  0.
          5    1    3    3  502    0 -0.48049890394E+02  0.22975415851E+02 -0.16012354009E+03  0.16880071739E+03  0.41800000000E+01 0.  1.
         -5    1    3    3    0  502 -0.54276631165E+01 -0.58159663188E+02 -0.25153487343E+02  0.63735204358E+02  0.41800000000E+01 0.  1.
        -11    1    1    2    0    0 -0.17222434267E+02  0.35310348256E+02 -0.41992768037E+02  0.57505004160E+02  0.00000000000E+00 0.  1.
         11    1    1    2    0    0  0.70699987777E+02 -0.12610091948E+00 -0.47987472509E+02  0.85447654684E+02  0.00000000000E+00 0. -1.
</event>
<event>
 7    1  0.8661710E-006  0.7457402E+02  0.7561462E-02  0.1345195E+00
         -2   -1    0    0    0  501 -0.00000000000E+00  0.00000000000E+00  0.75270868443E+03  0.75270868443E+03  0.00000000000E+00 0.  1.
          2   -1    0    0  501    0  0.00000000000E+00 -0.00000000000E+00 -0.21500570835E+02  0.21500570835E+02  0.00000000000E+00 0. -1.
         23    2    1    2    0    0  0.42800739856E+02 -0.18527542887E+02  0.56143084904E+03  0.57708607955E+03  0.12509425155E+03 0.  0.
          5    1    3    3  502    0 -0.61833625803E+01 -0.36724075039E+02  0.47568719851E+02  0.60556974566E+02  0.41800000000E+01 0. -1.
         -5    1    3    3    0  502  0.48984102436E+02  0.18196532152E+02  0.51386212919E+03  0.51652910498E+03  0.41800000000E+01 0. -1.
        -11    1    1    2    0    0 -0.13601022290E+02  0.25794946787E+02  0.16388752849E+03  0.16646167451E+03  0.00000000000E+00 0.  1.
         11    1    1    2    0    0 -0.29199717566E+02 -0.72674039005E+01  0.58897360621E+01  0.30661501207E+02  0.00000000000E+00 0. -1.
</event>
<event>
 7    1  0.8661710E-006  0.1218654E+03  0.7561462E-02  0.1240051E+00
          1   -1    0    0  501    0  0.00000000000E+00  0.00000000000E+00  0.15101837321E+03  0.15101837321E+03  0.00000000000E+00 0. -1.
         -1   -1    0    0    0  501 -0.00000000000E+00 -0.00000000000E+00 -0.11144912188E+03  0.11144912188E+03  0.00000000000E+00 0.  1.
         23    2    1    2    0    0 -0.55676600655E+02  0.22523873958E+02 -0.19349363769E+02  0.14009319793E+03  0.12507796556E+03 0.  0.
          5    1    3    3  502    0  0.34370709877E+02 -0.16540084886E+02  0.54763379202E+01  0.38760582845E+02  0.41800000000E+01 0.  1.
         -5    1    3    3    0  502 -0.90047310532E+02  0.39063958844E+02 -0.24825701689E+02  0.10133261508E+03  0.41800000000E+01 0.  1.
        -11    1    1    2    0    0 -0.24081989832E+02 -0.11189724976E+02  0.11922528337E+02  0.29108398466E+02  0.00000000000E+00 0.  1.
         11    1    1    2    0    0  0.79758590488E+02 -0.11334148982E+02  0.46996086760E+02  0.93265898701E+02  0.00000000000E+00 0. -1.
</event>
<event>
 7    1  0.8661710E-006  0.1341165E+03  0.7561462E-02  0.1221472E+00
          2   -1    0    0  501    0  0.00000000000E+00  0.00000000000E+00  0.97333629222E+03  0.97333629222E+03  0.00000000000E+00 0. -1.
         -2   -1    0    0    0  501 -0.00000000000E+00 -0.00000000000E+00 -0.28459020792E+02  0.28459020792E+02  0.00000000000E+00 0.  1.
         23    2    1    2    0    0  0.10062013819E+03  0.61570494624E+02  0.62836563832E+03  0.65146469143E+03  0.12509009047E+03 0.  0.
          5    1    3    3  502    0  0.65078465693E+02  0.66976336923E+02  0.59480727984E+03  0.60210813726E+03  0.41800000000E+01 0. -1.
         -5    1    3    3    0  502  0.35541672501E+02 -0.54058422992E+01  0.33558358480E+02  0.49356554164E+02  0.41800000000E+01 0. -1.
        -11    1    1    2    0    0 -0.40687243205E+02 -0.66995245523E+02  0.10891350393E+03  0.13418631085E+03  0.00000000000E+00 0.  1.
         11    1    1    2    0    0 -0.59932894989E+02  0.54247508995E+01  0.20759812918E+03  0.21614431073E+03  0.00000000000E+00 0. -1.
</event>
<event>
 7    1  0.8661710E-006  0.6220699E+02  0.7561462E-02  0.1388797E+00
         -1   -1    0    0    0  501 -0.00000000000E+00  0.00000000000E+00  0.17385666232E+03  0.17385666232E+03  0.00000000000E+00 0.  1.
          1   -1    0    0  501    0  0.00000000000E+00 -0.00000000000E+00 -0.76212093718E+02  0.76212093718E+02  0.00000000000E+00 0. -1.
         23    2    1    2    0    0  0.13610445961E+02 -0.15030231231E+02  0.80846559330E+02  0.15030877996E+03  0.12508161771E+03 0.  0.
          5    1    3    3  502    0  0.33431468351E+02 -0.26826100650E+02  0.10690770282E+03  0.11525637542E+03  0.41800000000E+01 0.  1.
         -5    1    3    3    0  502 -0.19821022390E+02  0.11795869419E+02 -0.26061143495E+02  0.35052404542E+02  0.41800000000E+01 0.  1.
        -11    1    1    2    0    0  0.13631216353E+02  0.25343827073E+02 -0.31933230686E+02  0.42986635738E+02  0.00000000000E+00 0. -1.
         11    1    1    2    0    0 -0.27241662314E+02 -0.10313595843E+02  0.48731239959E+02  0.56773340335E+02  0.00000000000E+00 0.  1.
</event>
<event>
 7    1  0.8661710E-006  0.1105372E+03  0.7561462E-02  0.1259578E+00
         -1   -1    0    0    0  501 -0.00000000000E+00  0.00000000000E+00  0.80991604090E+02  0.80991604090E+02  0.00000000000E+00 0.  1.
          1   -1    0    0  501    0  0.00000000000E+00 -0.00000000000E+00 -0.21421980618E+03  0.21421980618E+03  0.00000000000E+00 0. -1.
         23    2    1    2    0    0  0.41203909455E+02 -0.37842000549E+02 -0.17165227533E+02  0.13810132087E+03  0.12509017000E+03 0.  0.
          5    1    3    3  502    0  0.27893529234E+02 -0.74766444963E+02 -0.43177667186E+02  0.90828704765E+02  0.41800000000E+01 0. -1.
         -5    1    3    3    0  502  0.13310380221E+02  0.36924444414E+02  0.26012439654E+02  0.47272616107E+02  0.41800000000E+01 0. -1.
        -11    1    1    2    0    0 -0.60210699385E+02  0.97965956989E+00 -0.89452026925E+02  0.10783298741E+03  0.00000000000E+00 0.  1.
         11    1    1    2    0    0  0.19006789930E+02  0.36862340980E+02 -0.26610947628E+02  0.49277101981E+02  0.00000000000E+00 0. -1.
</event>
<event>
 7    1  0.8661710E-006  0.2402940E+03  0.7561462E-02  0.1119597E+00
         -2   -1    0    0    0  501 -0.00000000000E+00  0.00000000000E+00  0.93946645069E+03  0.93946645069E+03  0.00000000000E+00 0.  1.
          2   -1    0    0  501    0  0.00000000000E+00 -0.00000000000E+00 -0.70321839302E+02  0.70321839302E+02  0.00000000000E+00 0. -1.
         23    2    1    2    0    0 -0.18579092144E+03 -0.13994891063E+03  0.44995083846E+03  0.52173446147E+03  0.12508847738E+03 0.  0.
          5    1    3    3  502    0 -0.91764854735E+02 -0.62481383548E+02  0.33958417865E+03  0.35729483433E+03  0.41800000000E+01 0. -1.
         -5    1    3    3    0  502 -0.94026066710E+02 -0.77467527078E+02  0.11036665981E+03  0.16443962713E+03  0.41800000000E+01 0. -1.
        -11    1    1    2    0    0  0.13788165729E+03  0.51848083576E+02  0.28147059224E+03  0.31768737697E+03  0.00000000000E+00 0. -1.
         11    1    1    2    0    0  0.47909264153E+02  0.88100827051E+02  0.13772318069E+03  0.17036645156E+03  0.00000000000E+00 0.  1.
</event>
<event>
 7    1  0.8661710E-006  0.8019378E+02  0.7561462E-02  0.1328502E+00
          4   -1    0    0  501    0  0.00000000000E+00  0.00000000000E+00  0.54758690786E+02  0.54758690786E+02  0.00000000000E+00 0. -1.
         -4   -1    0    0    0  501 -0.00000000000E+00 -0.00000000000E+00 -0.26557237267E+03  0.26557237267E+03  0.00000000000E+00 0.  1.
         23    2    1    2    0    0  0.25165262038E+02 -0.25662247456E+02 -0.16782695746E+03  0.21238010408E+03  0.12509028580E+03 0.  0.
          5    1    3    3  502    0  0.34005281884E+02 -0.64001445113E+02 -0.15437031066E+03  0.17058783481E+03  0.41800000000E+01 0.  1.
         -5    1    3    3    0  502 -0.88400198458E+01  0.38339197656E+02 -0.13456646799E+02  0.41792269272E+02  0.41800000000E+01 0.  1.
        -11    1    1    2    0    0 -0.13103288527E+02 -0.59499551719E+01  0.26786015127E+02  0.30407050879E+02  0.00000000000E+00 0. -1.
         11    1    1    2    0    0 -0.12061973511E+02  0.31612202628E+02 -0.69772739551E+02  0.77543908493E+02  0.00000000000E+00 0.  1.
</event>
<event>
 7    1  0.8661710E-006  0.2247370E+03  0.7561462E-02  0.1130400E+00
         -1   -1    0    0    0  501 -0.00000000000E+00  0.00000000000E+00  0.30466553222E+03  0.30466553222E+03  0.00000000000E+00 0.  1.
          1   -1    0    0  501    0  0.00000000000E+00 -0.00000000000E+00 -0.17964276322E+03  0.17964276322E+03  0.00000000000E+00 0. -1.
         23    2    1    2    0    0  0.19918564327E+03  0.52995348536E+02  0.44483246697E+02  0.24517465546E+03  0.12509366488E+03 0.  0.
          5    1    3    3  502    0  0.89662851891E+02 -0.23133609349E+02 -0.23187494689E+02  0.95549585036E+02  0.41800000000E+01 0.  1.
         -5    1    3    3    0  502  0.10952279138E+03  0.76128957885E+02  0.67670741386E+02  0.14962507042E+03  0.41800000000E+01 0.  1.
        -11    1    1    2    0    0 -0.12707437575E+03  0.10153916106E+02  0.30817552952E+02  0.13115151755E+03  0.00000000000E+00 0. -1.
         11    1    1    2    0    0 -0.72111267515E+02 -0.63149264641E+02  0.49721969354E+02  0.10798212243E+03  0.00000000000E+00 0.  1.
</event>
<event>
 7    1  0.8661710E-006  0.1099329E+03  0.7561462E-02  0.1260694E+00
          4   -1    0    0  501    0  0.00000000000E+00  0.00000000000E+00  0.96089603914E+02  0.96089603914E+02  0.00000000000E+00 0. -1.
         -4   -1    0    0    0  501 -0.00000000000E+00 -0.00000000000E+00 -0.34062418751E+03  0.34062418751E+03  0.00000000000E+00 0.  1.
         23    2    1    2    0    0 -0.12803654730E+02  0.44490428665E+02 -0.29402291697E+03  0.32286219028E+03  0.12508871409E+03 0.  0.
          5    1    3    3  502    0 -0.13938079299E+02  0.80858785319E+02 -0.12268384852E+03  0.14765233593E+03  0.41800000000E+01 0. -1.
         -5    1    3    3    0  502  0.11344245698E+01 -0.36368356654E+02 -0.17133906845E+03  0.17520985435E+03  0.41800000000E+01 0. -1.
        -11    1    1    2    0    0  0.26382086070E+02 -0.68552565653E+02  0.44182056321E+02  0.85717692595E+02  0.00000000000E+00 0. -1.
         11    1    1    2    0    0 -0.13578431341E+02  0.24062136989E+02  0.53062770517E+01  0.28133908550E+02  0.00000000000E+00 0.  1.
</event>
<event>
 7    1  0.8661710E-006  0.9928391E+02  0.7561462E-02  0.1281809E+00
          3   -1    0    0  501    0  0.00000000000E+00  0.00000000000E+00  0.65280390437E+02  0.65280390437E+02  0.00000000000E+00 0. -1.
         -3   -1    0    0    0  501 -0.00000000000E+00 -0.00000000000E+00 -0.23183975225E+03  0.23183975225E+03  0.00000000000E+00 0.  1.
         23    2    1    2    0    0 -0.12479738350E+02 -0.52340537537E+02 -0.12116672976E+03  0.18227699528E+03  0.12509296890E+03 0.  0.
          5    1    3    3  502    0 -0.62222636674E+02 -0.46602078987E+02 -0.10241355357E+03  0.12864454375E+03  0.41800000000E+01 0.  1.
         -5    1    3    3    0  502  0.49742898323E+02 -0.57384585501E+01 -0.18753176189E+02  0.53632451532E+02  0.41800000000E+01 0.  1.
        -11    1    1    2    0    0 -0.13176636372E+02  0.39775416968E+02 -0.67000381866E+02  0.79023785731E+02  0.00000000000E+00 0.  1.
         11    1    1    2    0    0  0.25656374722E+02  0.12565120569E+02  0.21607749815E+02  0.35819361676E+02  0.00000000000E+00 0. -1.
</event>
<event>
 7    1  0.8661710E-006  0.9280308E+02  0.7561462E-02  0.1296202E+00
         -4   -1    0    0    0  501 -0.00000000000E+00  0.00000000000E+00  0.67246714664E+03  0.67246714664E+03  0.00000000000E+00 0.  1.
          4   -1    0    0  501    0  0.00000000000E+00 -0.00000000000E+00 -0.24675288728E+02  0.24675288728E+02  0.00000000000E+00 0. -1.
         23    2    1    2    0    0  0.18337643401E+02 -0.37295595193E+02  0.44904828572E+03  0.46799571033E+03  0.12509353059E+03 0.  0.
          5    1    3    3  502    0  0.34997378846E+02  0.12165289372E+01  0.40672354945E+03  0.40824969632E+03  0.41800000000E+01 0. -1.
         -5    1    3    3    0  502 -0.16659735445E+02 -0.38512124130E+02  0.42324736276E+02  0.59746014017E+02  0.41800000000E+01 0. -1.
        -11    1    1    2    0    0  0.48065965831E+01 -0.33419875212E+02  0.31839855447E+02  0.46408704192E+02  0.00000000000E+00 0.  1.
         11    1    1    2    0    0 -0.23144239984E+02  0.70715470404E+02  0.16690371675E+03  0.18273802085E+03  0.00000000000E+00 0. -1.
</event>
<event>
 7    1  0.8661710E-006  0.1468700E+03  0.7561462E-02  0.1204373E+00
         -1   -1    0    0    0  501 -0.00000000000E+00  0.00000000000E+00  0.48580071150E+02  0.48580071150E+02  0.00000000000E+00 0.  1.
          1   -1    0    0  501    0  0.00000000000E+00 -0.00000000000E+00 -0.52706737776E+03  0.52706737776E+03  0.00000000000E+00 0. -1.
         23    2    1    2    0    0 -0.48794020740E+02 -0.10467679635E+03 -0.21957651706E+03  0.27784237741E+03  0.12507778255E+03 0.  0.
          5    1    3    3  502    0 -0.90485660760E+02 -0.59026463730E+02 -0.14533925992E+03  0.18114290242E+03  0.41800000000E+01 0.  1.
         -5    1    3    3    0  502  0.41691640020E+02 -0.45650332621E+02 -0.74237257136E+02  0.96699474989E+02  0.41800000000E+01 0.  1.
        -11    1    1    2    0    0 -0.38707382196E+01  0.40294727373E+02 -0.20650963394E+02  0.45443480914E+02  0.00000000000E+00 0.  1.
         11    1    1    2    0    0  0.52664758960E+02  0.64382068978E+02 -0.23825982616E+03  0.25236159059E+03  0.00000000000E+00 0. -1.
</event>
<event>
 7    1  0.1249105E-005  0.1827739E+03  0.7561462E-02  0.1165145E+00
          2   -1    0    0  501    0  0.00000000000E+00  0.00000000000E+00  0.69853128317E+03  0.69853128317E+03  0.00000000000E+00 0. -1.
         -2   -1    0    0    0  501 -0.00000000000E+00 -0.00000000000E+00 -0.68011714583E+02  0.68011714583E+02  0.00000000000E+00 0.  1.
         23    2    1    2    0    0  0.84440827160E+02 -0.15457144267E+03  0.20772479519E+03  0.29969892813E+03  0.12508905949E+03 0.  0.
          5    1    3    3  502    0  0.45311709001E+02 -0.11372397536E+03  0.50384680673E+02  0.13244765755E+03  0.41800000000E+01 0.  1.
         -5    1    3    3    0  502  0.39129118159E+02 -0.40847467308E+02  0.15734011451E+03  0.16725127057E+03  0.41800000000E+01 0.  1.
        -11    1    1    2    0    0  0.64858247500E+01  0.37743078316E+02  0.35500328937E+02  0.52219529279E+02  0.00000000000E+00 0.  1.
         11    1    1    2    0    0 -0.90926651910E+02  0.11682836435E+03  0.38729444446E+03  0.41462454034E+03  0.00000000000E+00 0. -1.
</event>
<event>
 7    1  0.8661710E-006  0.8860588E+02  0.7561462E-02  0.1306263E+00
          1   -1    0    0  501    0  0.00000000000E+00  0.00000000000E+00  0.51464745571E+02  0.51464745571E+02  0.00000000000E+00 0. -1.
         -1   -1    0    0    0  501 -0.00000000000E+00 -0.00000000000E+00 -0.30228818816E+03  0.30228818816E+03  0.00000000000E+00 0.  1.
         23    2    1    2    0    0  0.26848882359E+02  0.56477258391E+02 -0.18320375043E+03  0.23048069580E+03  0.12508874357E+03 0.  0.
          5    1    3    3  502    0 -0.97646507168E+01 -0.12788474703E+02 -0.13986212498E+03  0.14084665382E+03  0.41800000000E+01 0. -1.
         -5    1    3    3    0  502  0.36613533076E+02  0.69265733094E+02 -0.43341625451E+02  0.89634041983E+02  0.41800000000E+01 0. -1.
        -11    1    1    2    0    0 -0.14937227001E+01 -0.56752512790E+02 -0.65514358027E+01  0.57148930231E+02  0.00000000000E+00 0. -1.
         11    1    1    2    0    0 -0.25355159659E+02  0.27525439840E+00 -0.61068256356E+02  0.66123307697E+02  0.00000000000E+00 0.  1.
</event>
<event>
 6    1  0.8661710E-006  0.1112514E+03  0.7561462E-02  0.1258270E+00
          4   -1    0    0  501    0  0.00000000000E+00  0.00000000000E+00  0.52673648503E+03  0.52673648503E+03  0.00000000000E+00 0. -1.
         -4   -1    0    0    0  501 -0.00000000000E+00 -0.00000000000E+00 -0.44971282138E+02  0.44971282138E+02  0.00000000000E+00 0.  1.
          5    1    1    2  502    0 -0.10529442806E+01  0.14777821358E+02  0.17117305115E+03  0.17186383719E+03  0.41800000000E+01 0. -1.
         -5    1    1    2    0  502 -0.77867362178E+02 -0.31466309533E+02  0.23203040455E+02  0.87231348806E+02  0.41800000000E+01 0.  1.
        -11    1    1    2    0    0  0.89681115161E+02 -0.13756120816E+02  0.21232217116E+03  0.23089529585E+03  0.00000000000E+00 0.  1.
         11    1    1    2    0    0 -0.10760808703E+02  0.30444608992E+02  0.75066940125E+02  0.81717285322E+02  0.00000000000E+00 0. -1.
</event>
<event>
 7    1  0.8661710E-006  0.2776091E+03  0.7561462E-02  0.1097002E+00
          1   -1    0    0  501    0  0.00000000000E+00  0.00000000000E+00  0.56538020581E+03  0.56538020581E+03  0.00000000000E+00 0. -1.
         -1   -1    0    0    0  501 -0.00000000000E+00 -0.00000000000E+00 -0.15168890734E+03  0.15168890734E+03  0.00000000000E+00 0.  1.
         23    2    1    2    0    0  0.26386621002E+03  0.47076555773E+02  0.15671109320E+03  0.33473749987E+03  0.12509695516E+03 0.  0.
          5    1    3    3  502    0  0.24886778195E+03  0.26269310579E+02  0.94877724557E+02  0.26766491101E+03  0.41800000000E+01 0. -1.
         -5    1    3    3    0  502  0.14998428070E+02  0.20807245195E+02  0.61833368647E+02  0.67072588853E+02  0.41800000000E+01 0. -1.
        -11    1    1    2    0    0 -0.19746156933E+03  0.14603559330E+00  0.15063668940E+03  0.24835962812E+03  0.00000000000E+00 0. -1.
         11    1    1    2    0    0 -0.66404640693E+02 -0.47222591366E+02  0.10634351587E+03  0.13397198516E+03  0.00000000000E+00 0.  1.
</event>
<event>
 7    1  0.8661710E-006  0.2395061E+03  0.7561462E-02  0.1120122E+00
          1   -1    0    0  501    0  0.00000000000E+00  0.00000000000E+00  0.51555396811E+03  0.51555396811E+03  0.00000000000E+00 0. -1.
         -1   -1    0    0    0  501 -0.00000000000E+00 -0.00000000000E+00 -0.13277679577E+03  0.13277679577E+03  0.00000000000E+00 0.  1.
         23    2    1    2    0    0  0.23566761076E+03  0.16181213237E+02  0.22542439788E+03  0.34966376435E+03  0.12509010559E+03 0.  0.
          5    1    3    3  502    0  0.97194345429E+02 -0.47135513164E+01  0.17589962260E+03  0.20106493473E+03  0.41800000000E+01 0.  1.
         -5    1    3    3    0  502  0.13847326533E+03  0.20894764553E+02  0.49524775287E+02  0.14859882962E+03  0.41800000000E+01 0.  1.
        -11    1    1    2    0    0 -0.70249057917E+02 -0.28106102815E+02  0.90855328544E+01  0.76206496186E+02  0.00000000000E+00 0.  1.
         11    1    1    2    0    0 -0.16541855284E+03  0.11924889578E+02  0.14826724160E+03  0.22246050334E+03  0.00000000000E+00 0. -1.
</event>
<event>
 7    1  0.8661710E-006  0.9695693E+02  0.7561462E-02  0.1286828E+00
         -1   -1    0    0    0  501 -0.00000000000E+00  0.00000000000E+00  0.34277554997E+03  0.34277554997E+03  0.00000000000E+00 0.  1.
          1   -1    0    0  501    0  0.00000000000E+00 -0.00000000000E+00 -0.45507978304E+02  0.45507978304E+02  0.00000000000E+00 0. -1.
         23    2    1    2    0    0  0.58570002824E+02 -0.10969653933E+02  0.15311874156E+03  0.20650320214E+03  0.12508974754E+03 0.  0.
          5    1    3    3  502    0  0.72828271929E+02  0.12508207089E+02  0.29293393976E+02  0.79598918130E+02  0.41800000000E+01 0.  1.
         -5    1    3    3    0  502 -0.14258269106E+02 -0.23477861022E+02  0.12382534759E+03  0.12690428401E+03  0.41800000000E+01 0.  1.
        -11    1    1    2    0    0  0.42959828146E+01  0.26918432779E+02  0.99181149150E+02  0.10285892202E+03  0.00000000000E+00 0.  1.
         11    1    1    2    0    0 -0.62865985638E+02 -0.15948778846E+02  0.44967680951E+02  0.78921404112E+02  0.00000000000E+00 0. -1.
</event>
<event>
 7    1  0.8661710E-006  0.9457955E+02  0.7561462E-02  0.1292126E+00
         -3   -1    0    0    0  501 -0.00000000000E+00  0.00000000000E+00  0.27331065306E+03  0.27331065306E+03  0.00000000000E+00 0.  1.
          3   -1    0    0  501    0  0.00000000000E+00 -0.00000000000E+00 -0.56527773337E+02  0.56527773337E+02  0.00000000000E+00 0. -1.
         23    2    1    2    0    0  0.79639983317E+01  0.58876419299E+02  0.10886619914E+03  0.17615329891E+03  0.12509307488E+03 0.  0.
          5    1    3    3  502    0  0.26797303531E+02  0.36686963855E+01 -0.20492010361E+02  0.34189906381E+02  0.41800000000E+01 0. -1.
         -5    1    3    3    0  502 -0.18833305199E+02  0.55207722913E+02  0.12935820950E+03  0.14196339253E+03  0.41800000000E+01 0. -1.
        -11    1    1    2    0    0 -0.44630204564E+02 -0.17277301137E+02  0.25160852625E+02  0.54068741421E+02  0.00000000000E+00 0. -1.
         11    1    1    2    0    0  0.36666206233E+02 -0.41599118162E+02  0.82755827958E+02  0.99616386064E+02  0.00000000000E+00 0.  1.
</event>
<event>
 7    1  0.8661710E-006  0.7135946E+02  0.7561462E-02  0.1355530E+00
          2   -1    0    0  501    0  0.00000000000E+00  0.00000000000E+00  0.29180601381E+03  0.29180601381E+03  0.00000000000E+00 0. -1.
         -2   -1    0    0    0  501 -0.00000000000E+00 -0.00000000000E+00 -0.41355124839E+02  0.41355124839E+02  0.00000000000E+00 0.  1.
         23    2    1    2    0    0  0.17990909538E+02 -0.87989490507E+01  0.14289963534E+03  0.19096714378E+03  0.12508816848E+03 0.  0.
          5    1    3    3  502    0  0.24697584063E+02  0.38242198642E+02  0.61381447491E+01  0.46125758926E+02  0.41800000000E+01 0.  1.
         -5    1    3    3    0  502 -0.67066745249E+01 -0.47041147693E+02  0.13676149059E+03  0.14484138486E+03  0.41800000000E+01 0.  1.
        -11    1    1    2    0    0 -0.15113915188E+02  0.26964342262E+02  0.11735128195E+03  0.12135414934E+03  0.00000000000E+00 0. -1.
         11    1    1    2    0    0 -0.28769943498E+01 -0.18165393211E+02 -0.98000283102E+01  0.20839845534E+02  0.00000000000E+00 0.  1.
</event>
<event>
 7    1  0.8661710E-006  0.9207235E+02  0.7561462E-02  0.1297909E+00
          2   -1    0    0  501    0  0.00000000000E+00  0.00000000000E+00  0.22797567409E+03  0.22797567409E+03  0.00000000000E+00 0. -1.
         -2   -1    0    0    0  501 -0.00000000000E+00 -0.00000000000E+00 -0.56751995804E+02  0.56751995804E+02  0.00000000000E+00 0.  1.
         23    2    1    2    0    0 -0.26712524453E+02 -0.59764881194E+01  0.12451866550E+03  0.17861673522E+03  0.12509901147E+03 0.  0.
          5    1    3    3  502    0  0.37273485823E+02  0.20797717170E+01 -0.84635147901E+00  0.37574285177E+02  0.41800000000E+01 0. -1.
         -5    1    3    3    0  502 -0.63986010276E+02 -0.80562598364E+01  0.12536501697E+03  0.14104245004E+03  0.41800000000E+01 0. -1.
        -11    1    1    2    0    0  0.51556855594E+02  0.17661933380E+02  0.31049015832E+01  0.54586570357E+02  0.00000000000E+00 0.  1.
         11    1    1    2    0    0 -0.24844331141E+02 -0.11685445261E+02  0.43600111208E+02  0.51524364316E+02  0.00000000000E+00 0. -1.
</event>
<event>
 7    1  0.8661710E-006  0.1375569E+03  0.7561462E-02  0.1216655E+00
         -2   -1    0    0    0  501 -0.00000000000E+00  0.00000000000E+00  0.20670837256E+03  0.20670837256E+03  0.00000000000E+00 0.  1.
          2   -1    0    0  501    0  0.00000000000E+00 -0.00000000000E+00 -0.12121900143E+03  0.12121900143E+03  0.00000000000E+00 0. -1.
         23    2    1    2    0    0 -0.95040418501E+02 -0.60378722219E+02  0.46619734767E+02  0.17463979374E+03  0.12508951451E+03 0.  0.
          5    1    3    3  502    0 -0.91217676775E+02  0.18327038979E+01 -0.79710283861E+01  0.91678967345E+02  0.41800000000E+01 0. -1.
         -5    1    3    3    0  502 -0.38227417262E+01 -0.62211426117E+02  0.54590763153E+02  0.82960826391E+02  0.41800000000E+01 0. -1.
        -11    1    1    2    0    0  0.66618564021E+02  0.15835453313E+02 -0.22713268599E+02  0.72143518242E+02  0.00000000000E+00 0. -1.
         11    1    1    2    0    0  0.28421854480E+02  0.44543268907E+02  0.61582904955E+02  0.81144062011E+02  0.00000000000E+00 0.  1.
</event>
<event>
 7    1  0.8661710E-006  0.1269101E+03  0.7561462E-02  0.1232114E+00
          1   -1    0    0  501    0  0.00000000000E+00  0.00000000000E+00  0.95872875019E+02  0.95872875019E+02  0.00000000000E+00 0. -1.
         -1   -1    0    0    0  501 -0.00000000000E+00 -0.00000000000E+00 -0.19993713428E+03  0.19993713428E+03  0.00000000000E+00 0.  1.
         23    2    1    2    0    0 -0.47296221492E+02 -0.59011501549E+02 -0.10131717951E+03  0.17785416449E+03  0.12509053953E+03 0.  0.
          5    1    3    3  502    0  0.19456901344E+02 -0.72383401438E+02 -0.70588455868E+02  0.10304431239E+03  0.41800000000E+01 0. -1.
         -5    1    3    3    0  502 -0.66753122835E+02  0.13371899889E+02 -0.30728723643E+02  0.74809852103E+02  0.41800000000E+01 0. -1.
        -11    1    1    2    0    0 -0.10538423867E+02 -0.13922759483E+02  0.15210719698E+02  0.23157452428E+02  0.00000000000E+00 0. -1.
         11    1    1    2    0    0  0.57834645359E+02  0.72934261032E+02 -0.17957799444E+02  0.94798392375E+02  0.00000000000E+00 0.  1.
</event>
<event>
 7    1  0.8661710E-006  0.1189442E+03  0.7561462E-02  0.1244849E+00
          4   -1    0    0  501    0  0.00000000000E+00  0.00000000000E+00  0.12431398711E+03  0.12431398711E+03  0.00000000000E+00 0. -1.
         -4   -1    0    0    0  501 -0.00000000000E+00 -0.00000000000E+00 -0.15722148857E+03  0.15722148857E+03  0.00000000000E+00 0.  1.
         23    2    1    2    0    0  0.81367235968E+02  0.62878614140E+01 -0.55541392778E+02  0.15934737111E+03  0.12508626654E+03 0.  0.
          5    1    3    3  502    0  0.92338154391E+02  0.27489840888E+02 -0.79715819022E+02  0.12511638706E+03  0.41800000000E+01 0.  1.
         -5    1    3    3    0  502 -0.10970918423E+02 -0.21201979474E+02  0.24174426244E+02  0.34230984048E+02  0.41800000000E+01 0.  1.
        -11    1    1    2    0    0 -0.53498078555E+02 -0.44732593324E+02  0.26376817545E+02  0.74557265363E+02  0.00000000000E+00 0.  1.
         11    1    1    2    0    0 -0.27869157412E+02  0.38444731910E+02 -0.37429262243E+01  0.47630839203E+02  0.00000000000E+00 0. -1.
</event>
<event>
 7    1  0.8661710E-006  0.1041159E+03  0.7561462E-02  0.1271871E+00
          2   -1    0    0  501    0  0.00000000000E+00  0.00000000000E+00  0.44230462827E+02  0.44230462827E+02  0.00000000000E+00 0. -1.
         -2   -1    0    0    0  501 -0.00000000000E+00 -0.00000000000E+00 -0.26216218534E+03  0.26216218534E+03  0.00000000000E+00 0.  1.
         23    2    1    2    0    0 -0.14948451094E+02 -0.32636723243E+02 -0.12772621455E+03  0.17247206209E+03  0.11019988396E+03 0.  0.
          5    1    3    3  502    0 -0.51764751479E+02 -0.52503837902E+02 -0.82294660375E+02  0.11057181384E+03  0.41800000000E+01 0.  1.
         -5    1    3    3    0  502  0.36816300385E+02  0.19867114658E+02 -0.45431554173E+02  0.61900248250E+02  0.41800000000E+01 0. -1.
        -11    1    1    2    0    0 -0.33907158265E+02  0.26633211727E+02 -0.66579313443E+02  0.79321045927E+02  0.00000000000E+00 0.  1.
         11    1    1    2    0    0  0.48855609359E+02  0.60035115160E+01 -0.23626194519E+02  0.54599540143E+02  0.00000000000E+00 0. -1.
</event>
<event>
 7    1  0.8661710E-006  0.1644466E+03  0.7561462E-02  0.1183766E+00
         -1   -1    0    0    0  501 -0.00000000000E+00  0.00000000000E+00  0.71474013799E+02  0.71474013799E+02  0.00000000000E+00 0.  1.
          1   -1    0    0  501    0  0.00000000000E+00 -0.00000000000E+00 -0.69624986280E+03  0.69624986280E+03  0.00000000000E+00 0. -1.
         23    2    1    2    0    0  0.14531024045E+03  0.47435183380E+02 -0.11137070717E+03  0.22675141843E+03  0.12509040227E+03 0.  0.
          5    1    3    3  502    0  0.39018867338E+02  0.33507624563E+02  0.21565007155E+02  0.55926334099E+02  0.41800000000E+01 0.  1.
         -5    1    3    3    0  502  0.10629137311E+03  0.13927558817E+02 -0.13293571432E+03  0.17082508433E+03  0.41800000000E+01 0.  1.
        -11    1    1    2    0    0 -0.44878364906E+02  0.19902322502E+02 -0.16722267644E+03  0.17428021573E+03  0.00000000000E+00 0.  1.
         11    1    1    2    0    0 -0.10043187555E+03 -0.67337505882E+02 -0.34618246540E+03  0.36669224245E+03  0.00000000000E+00 0. -1.
</event>
<event>
 7    1  0.8661710E-006  0.9032920E+02  0.7561462E-02  0.1302056E+00
          1   -1    0    0  501    0  0.00000000000E+00  0.00000000000E+00  0.73296488535E+03  0.73296488535E+03  0.00000000000E+00 0. -1.
         -1   -1    0    0    0  501 -0.00000000000E+00 -0.00000000000E+00 -0.18068749397E+02  0.18068749397E+02  0.00000000000E+00 0.  1.
         23    2    1    2    0    0 -0.50893540030E+01 -0.15296461815E+02  0.29896613161E+03  0.32448334513E+03  0.12509520436E+03 0.  0.
          5    1    3    3  502    0 -0.90295120445E+01  0.34898637099E+02  0.20926595646E+02  0.41890831508E+02  0.41800000000E+01 0. -1.
         -5    1    3    3    0  502  0.39401580415E+01 -0.50195098914E+02  0.27803953596E+03  0.28259251363E+03  0.41800000000E+01 0. -1.
        -11    1    1    2    0    0 -0.43350587845E+02  0.13379997294E+02  0.17449483165E+03  0.18029626748E+03  0.00000000000E+00 0. -1.
         11    1    1    2    0    0  0.48439941848E+02  0.19164645213E+01  0.24143517270E+03  0.24625402214E+03  0.00000000000E+00 0.  1.
</event>
<event>
 7    1  0.8661710E-006  0.1094490E+03  0.7561462E-02  0.1261594E+00
          2   -1    0    0  501    0  0.00000000000E+00  0.00000000000E+00  0.15704344636E+03  0.15704344636E+03  0.00000000000E+00 0. -1.
         -2   -1    0    0    0  501 -0.00000000000E+00 -0.00000000000E+00 -0.87567104751E+02  0.87567104751E+02  0.00000000000E+00 0.  1.
         23    2    1    2    0    0 -0.10444272055E+02 -0.21243994551E+02 -0.13199268681E+01  0.12732176532E+03  0.12509476245E+03 0.  0.
          5    1    3    3  502    0  0.26160817740E+02  0.43577578391E+02  0.98150031753E+01  0.51934578179E+02  0.41800000000E+01 0.  1.
         -5    1    3    3    0  502 -0.36605089795E+02 -0.64821572942E+02 -0.11134930043E+02  0.75387187138E+02  0.41800000000E+01 0.  1.
        -11    1    1    2    0    0  0.44700743704E+02  0.34644963539E+02  0.46355353771E+02  0.73124885023E+02  0.00000000000E+00 0. -1.
         11    1    1    2    0    0 -0.34256471650E+02 -0.13400968988E+02  0.24440914706E+02  0.44163900772E+02  0.00000000000E+00 0.  1.
</event>
<event>
 7    1  0.8661710E-006  0.8154978E+02  0.7561462E-02  0.1324710E+00
         -2   -1    0    0    0  501 -0.00000000000E+00  0.00000000000E+00  0.87444778805E+03  0.87444778805E+03  0.00000000000E+00 0.  1.
          2   -1    0    0  501    0  0.00000000000E+00 -0.00000000000E+00 -0.16424738559E+02  0.16424738559E+02  0.00000000000E+00 0. -1.
         23    2    1    2    0    0  0.10123956192E+02 -0.15890625348E+02  0.66171983133E+03  0.67369871664E+03  0.12506725856E+03 0.  0.
          5    1    3    3  502    0  0.97123056577E+01  0.41866208440E+02  0.99003885679E+02  0.10801087941E+03  0.41800000000E+01 0.  1.
         -5    1    3    3    0  502  0.41165053390E+00 -0.57756833788E+02  0.56271594565E+03  0.56568783723E+03  0.41800000000E+01 0.  1.
        -11    1    1    2    0    0  0.14135917439E+02  0.30551736583E+02  0.18262239648E+03  0.18569914503E+03  0.00000000000E+00 0.  1.
         11    1    1    2    0    0 -0.24259873630E+02 -0.14661111235E+02  0.13680821687E+02  0.31474664942E+02  0.00000000000E+00 0. -1.
</event>
<event>
 7    1  0.8661710E-006  0.1114634E+03  0.7561462E-02  0.1257884E+00
          2   -1    0    0  501    0  0.00000000000E+00  0.00000000000E+00  0.32424318474E+03  0.32424318474E+03  0.00000000000E+00 0.  1.
         -2   -1    0    0    0  501 -0.00000000000E+00 -0.00000000000E+00 -0.64524961136E+02  0.64524961136E+02  0.00000000000E+00 0. -1.
         23    2    1    2    0    0 -0.73533256904E+02 -0.57849159894E+02  0.11141374738E+03  0.19165199596E+03  0.12475495693E+03 0.  0.
          5    1    3    3  502    0 -0.64790470014E+02 -0.49489203224E+02  0.21739897366E+01  0.81665077430E+02  0.41800000000E+01 0.  1.
         -5    1    3    3    0  502 -0.87427868899E+01 -0.83599566705E+01  0.10923975764E+03  0.10998691853E+03  0.41800000000E+01 0.  1.
        -11    1    1    2    0    0  0.67223053942E+02 -0.30258952295E+01  0.91783646639E+02  0.11380831610E+03  0.00000000000E+00 0.  1.
         11    1    1    2    0    0  0.63102029613E+01  0.60875055124E+02  0.56520829586E+02  0.83307833814E+02  0.00000000000E+00 0. -1.
</event>
<event>
 7    1  0.8661710E-006  0.1324130E+03  0.7561462E-02  0.1223919E+00
         -2   -1    0    0    0  501 -0.00000000000E+00  0.00000000000E+00  0.11559991506E+03  0.11559991506E+03  0.00000000000E+00 0.  1.
          2   -1    0    0  501    0  0.00000000000E+00 -0.00000000000E+00 -0.18249378928E+03  0.18249378928E+03  0.00000000000E+00 0. -1.
         23    2    1    2    0    0  0.77723091828E+02 -0.47462863220E+02 -0.69099230719E+02  0.16946826794E+03  0.12510470721E+03 0.  0.
          5    1    3    3  502    0  0.54758938541E+02  0.36739467036E+02 -0.40643634541E+02  0.77573882312E+02  0.41800000000E+01 0. -1.
         -5    1    3    3    0  502  0.22964153287E+02 -0.84202330256E+02 -0.28455596178E+02  0.91894385632E+02  0.41800000000E+01 0. -1.
        -11    1    1    2    0    0 -0.10401181968E+01  0.33395284662E+02  0.30939106117E+02  0.45536306073E+02  0.00000000000E+00 0.  1.
         11    1    1    2    0    0 -0.76682973631E+02  0.14067578558E+02 -0.28733749613E+02  0.83089130326E+02  0.00000000000E+00 0. -1.
</event>
<event>
 7    1  0.8661710E-006  0.1068166E+03  0.7561462E-02  0.1266581E+00
         -3   -1    0    0    0  501 -0.00000000000E+00  0.00000000000E+00  0.11329517118E+03  0.11329517118E+03  0.00000000000E+00 0.  1.
          3   -1    0    0  501    0  0.00000000000E+00 -0.00000000000E+00 -0.12903490106E+03  0.12903490106E+03  0.00000000000E+00 0. -1.
         23    2    1    2    0    0 -0.49834473777E+02 -0.53554864894E+01  0.11217439375E+02  0.13522660916E+03  0.12509296090E+03 0.  0.
          5    1    3    3  502    0 -0.66304298336E+02  0.44315969671E+02  0.19173972242E+02  0.82129646031E+02  0.41800000000E+01 0. -1.
         -5    1    3    3    0  502  0.16469824558E+02 -0.49671456161E+02 -0.79565328671E+01  0.53096963128E+02  0.41800000000E+01 0. -1.
        -11    1    1    2    0    0  0.42006298434E+02 -0.25702898945E+02 -0.48008689069E+02  0.68775012530E+02  0.00000000000E+00 0. -1.
         11    1    1    2    0    0  0.78281753436E+01  0.31058385435E+02  0.21051519817E+02  0.38328450551E+02  0.00000000000E+00 0.  1.
</event>
<event>
 7    1  0.8661710E-006  0.1535538E+03  0.7561462E-02  0.1196173E+00
         -2   -1    0    0    0  501 -0.00000000000E+00  0.00000000000E+00  0.45785415983E+02  0.45785415983E+02  0.00000000000E+00 0. -1.
          2   -1    0    0  501    0  0.00000000000E+00 -0.00000000000E+00 -0.65186244749E+03  0.65186244749E+03  0.00000000000E+00 0.  1.
         23    2    1    2    0    0 -0.12476878896E+03 -0.45989053164E+02 -0.35772814745E+03  0.40162278901E+03  0.12509673640E+03 0.  0.
          5    1    3    3  502    0 -0.13629961889E+03 -0.14294460688E+02 -0.33136434063E+03  0.35861081461E+03  0.41800000000E+01 0. -1.
         -5    1    3    3    0  502  0.11530829929E+02 -0.31694592476E+02 -0.26363806827E+02  0.43011974396E+02  0.41800000000E+01 0. -1.
        -11    1    1    2    0    0  0.49101888242E+02  0.33197969825E+02 -0.19166332025E+03  0.20061886492E+03  0.00000000000E+00 0.  1.
         11    1    1    2    0    0  0.75666900720E+02  0.12791083339E+02 -0.56685563801E+02  0.95406209552E+02  0.00000000000E+00 0. -1.
</event>
<event>
 7    1  0.8661710E-006  0.3564622E+03  0.7561462E-02  0.1059994E+00
         -2   -1    0    0    0  501 -0.00000000000E+00  0.00000000000E+00  0.10688354955E+03  0.10688354955E+03  0.00000000000E+00 0.  1.
          2   -1    0    0  501    0  0.00000000000E+00 -0.00000000000E+00 -0.13952715581E+04  0.13952715581E+04  0.00000000000E+00 0. -1.
         23    2    1    2    0    0 -0.12685859723E+02  0.34311232753E+03 -0.38145746598E+03  0.52824663741E+03  0.12509081198E+03 0.  0.
          5    1    3    3  502    0  0.28858521836E+02  0.27674265903E+02 -0.81901193856E+02  0.91235723436E+02  0.41800000000E+01 0. -1.
         -5    1    3    3    0  502 -0.41544381558E+02  0.31543806163E+03 -0.29955627213E+03  0.43701091398E+03  0.41800000000E+01 0. -1.
        -11    1    1    2    0    0 -0.35943169353E+02 -0.92322953402E+02 -0.23324786868E+03  0.25341666755E+03  0.00000000000E+00 0. -1.
         11    1    1    2    0    0  0.48629029076E+02 -0.25078937413E+03 -0.67368267387E+03  0.72049180267E+03  0.00000000000E+00 0.  1.
</event>
<event>
 7    1  0.8661710E-006  0.1064945E+03  0.7561462E-02  0.1267203E+00
          1   -1    0    0  501    0  0.00000000000E+00  0.00000000000E+00  0.21661628988E+03  0.21661628988E+03  0.00000000000E+00 0. -1.
         -1   -1    0    0    0  501 -0.00000000000E+00 -0.00000000000E+00 -0.67577213932E+02  0.67577213932E+02  0.00000000000E+00 0.  1.
         23    2    1    2    0    0 -0.35355694717E+01  0.53247671815E+02  0.84185833040E+02  0.15994583457E+03  0.12509037016E+03 0.  0.
          5    1    3    3  502    0  0.56185293102E+02  0.48461588604E+02  0.58708873514E+02  0.94707533810E+02  0.41800000000E+01 0.  1.
         -5    1    3    3    0  502 -0.59720862574E+02  0.47860832113E+01  0.25476959526E+02  0.65238300758E+02  0.41800000000E+01 0.  1.
        -11    1    1    2    0    0 -0.10599035795E+02 -0.61393490714E+02  0.53299689793E+01  0.62529263798E+02  0.00000000000E+00 0.  1.
         11    1    1    2    0    0  0.14134605266E+02  0.81458188990E+01  0.59523273926E+02  0.61718405443E+02  0.00000000000E+00 0. -1.
</event>
<event>
 7    1  0.8661710E-006  0.1273089E+03  0.7561462E-02  0.1231504E+00
         -3   -1    0    0    0  501 -0.00000000000E+00  0.00000000000E+00  0.95578907542E+02  0.95578907542E+02  0.00000000000E+00 0.  1.
          3   -1    0    0  501    0  0.00000000000E+00 -0.00000000000E+00 -0.22833256206E+03  0.22833256206E+03  0.00000000000E+00 0. -1.
         23    2    1    2    0    0 -0.72910233029E+02  0.65225223963E+02 -0.48408548407E+02  0.16603495738E+03  0.12511589665E+03 0.  0.
          5    1    3    3  502    0 -0.10044498604E+03  0.18243385400E+02 -0.18731495929E+02  0.10387664642E+03  0.41800000000E+01 0.  1.
         -5    1    3    3    0  502  0.27534753012E+02  0.46981838563E+02 -0.29677052478E+02  0.62158310965E+02  0.41800000000E+01 0.  1.
        -11    1    1    2    0    0  0.55261336679E+02 -0.49580769627E+02 -0.42318186642E+01  0.74363810671E+02  0.00000000000E+00 0.  1.
         11    1    1    2    0    0  0.17648896350E+02 -0.15644454335E+02 -0.80113287443E+02  0.83512701541E+02  0.00000000000E+00 0. -1.
</event>
<event>
 7    1  0.8661710E-006  0.8590361E+02  0.7561462E-02  0.1313086E+00
         -1   -1    0    0    0  501 -0.00000000000E+00  0.00000000000E+00  0.32350085076E+02  0.32350085076E+02  0.00000000000E+00 0.  1.
          1   -1    0    0  501    0  0.00000000000E+00 -0.00000000000E+00 -0.54654977500E+03  0.54654977500E+03  0.00000000000E+00 0. -1.
         23    2    1    2    0    0  0.36555579813E+02  0.33649552884E+02 -0.15726977973E+03  0.20700398687E+03  0.12509302194E+03 0.  0.
          5    1    3    3  502    0  0.12457918123E+01  0.33927839019E+02 -0.16673544671E+03  0.17020820147E+03  0.41800000000E+01 0. -1.
         -5    1    3    3    0  502  0.35309788001E+02 -0.27828613500E+00  0.94656669779E+01  0.36795785400E+02  0.41800000000E+01 0. -1.
        -11    1    1    2    0    0 -0.48259576928E+02  0.16147013597E+02 -0.21763027945E+03  0.22350089787E+03  0.00000000000E+00 0.  1.
         11    1    1    2    0    0  0.11703997115E+02 -0.49796566481E+02 -0.13929963074E+03  0.14839497534E+03  0.00000000000E+00 0. -1.
</event>
<event>
 7    1  0.8661710E-006  0.1707967E+03  0.7561462E-02  0.1177020E+00
          1   -1    0    0  501    0  0.00000000000E+00  0.00000000000E+00  0.51250799804E+03  0.51250799804E+03  0.00000000000E+00 0. -1.
         -1   -1    0    0    0  501 -0.00000000000E+00 -0.00000000000E+00 -0.62035744875E+02  0.62035744875E+02  0.00000000000E+00 0.  1.
         23    2    1    2    0    0  0.14013292108E+03 -0.23420820944E+02  0.23911148474E+03  0.30497540767E+03  0.12509966717E+03 0.  0.
          5    1    3    3  502    0  0.67706994049E+02 -0.67278573679E+02  0.79677913672E+02  0.12440532885E+03  0.41800000000E+01 0. -1.
         -5    1    3    3    0  502  0.72425927027E+02  0.43857752735E+02  0.15943357107E+03  0.18057007882E+03  0.41800000000E+01 0. -1.
        -11    1    1    2    0    0 -0.45405494443E+02  0.45213169350E+02  0.12067365573E+03  0.13663096573E+03  0.00000000000E+00 0.  1.
         11    1    1    2    0    0 -0.94727426633E+02 -0.21792348406E+02  0.90687112691E+02  0.13293736952E+03  0.00000000000E+00 0. -1.
</event>
<event>
 7    1  0.8661710E-006  0.9824321E+02  0.7561462E-02  0.1284034E+00
         -2   -1    0    0    0  501 -0.00000000000E+00  0.00000000000E+00  0.64290038879E+02  0.64290038879E+02  0.00000000000E+00 0. -1.
          2   -1    0    0  501    0  0.00000000000E+00 -0.00000000000E+00 -0.28280751141E+03  0.28280751141E+03  0.00000000000E+00 0.  1.
         23    2    1    2    0    0  0.29388295179E+02  0.14209873524E+02 -0.28495520991E+02  0.13238133331E+03  0.12508888956E+03 0.  0.
          5    1    3    3  502    0  0.58710705348E+02 -0.21698787550E+02  0.19330860082E+02  0.65642507989E+02  0.41800000000E+01 0. -1.
         -5    1    3    3    0  502 -0.29322410169E+02  0.35908661074E+02 -0.47826381073E+02  0.66738825317E+02  0.41800000000E+01 0. -1.
        -11    1    1    2    0    0 -0.48331377634E+02 -0.34550950516E+02 -0.17102127014E+03  0.18104685881E+03  0.00000000000E+00 0.  1.
         11    1    1    2    0    0  0.18943082455E+02  0.20341076992E+02 -0.19000681405E+02  0.33669358176E+02  0.00000000000E+00 0. -1.
</event>
<event>
 7    1  0.8661710E-006  0.3697175E+02  0.7561462E-02  0.1531757E+00
         -1   -1    0    0    0  501 -0.00000000000E+00  0.00000000000E+00  0.18688870141E+03  0.18688870141E+03  0.00000000000E+00 0.  1.
          1   -1    0    0  501    0  0.00000000000E+00 -0.00000000000E+00 -0.72900140871E+02  0.72900140871E+02  0.00000000000E+00 0. -1.
         23    2    1    2    0    0 -0.69777004760E+01  0.60466055628E+01  0.99896238320E+02  0.16035329780E+03  0.12509465193E+03 0.  0.
          5    1    3    3  502    0 -0.23627171658E+02 -0.18511895465E+01  0.12591660538E+03  0.12819568656E+03  0.41800000000E+01 0.  1.
         -5    1    3    3    0  502  0.16649471183E+02  0.78977951093E+01 -0.26020367059E+02  0.32157611232E+02  0.41800000000E+01 0.  1.
        -11    1    1    2    0    0  0.12019804858E+02  0.90629424088E+01  0.54215285663E+02  0.56266418346E+02  0.00000000000E+00 0.  1.
         11    1    1    2    0    0 -0.50421043816E+01 -0.15109547972E+02 -0.40122963442E+02  0.43169126142E+02  0.00000000000E+00 0. -1.
</event>
<event>
 6    1  0.8661710E-006  0.1187040E+03  0.7561462E-02  0.1245251E+00
          2   -1    0    0  501    0  0.00000000000E+00  0.00000000000E+00  0.41064455508E+03  0.41064455508E+03  0.00000000000E+00 0. -1.
         -2   -1    0    0    0  501 -0.00000000000E+00 -0.00000000000E+00 -0.12626954500E+03  0.12626954500E+03  0.00000000000E+00 0.  1.
          5    1    1    2  502    0 -0.19005855068E+02  0.34197308100E+02  0.17899390180E+03  0.18326747581E+03  0.41800000000E+01 0. -1.
         -5    1    1    2    0  502 -0.35792943173E+02 -0.73956850235E+02 -0.92842505123E+02  0.12404819078E+03  0.41800000000E+01 0.  1.
        -11    1    1    2    0    0  0.43825294366E+02 -0.24766852090E+02  0.89995149817E+02  0.10311731367E+03  0.00000000000E+00 0. -1.
         11    1    1    2    0    0  0.10973503875E+02  0.64526394225E+02  0.10822846359E+03  0.12648111981E+03  0.00000000000E+00 0.  1.
</event>
<event>
 7    1  0.8661710E-006  0.1461604E+03  0.7561462E-02  0.1205272E+00
          3   -1    0    0  501    0  0.00000000000E+00  0.00000000000E+00  0.28499247120E+02  0.28499247120E+02  0.00000000000E+00 0. -1.
         -3   -1    0    0    0  501 -0.00000000000E+00 -0.00000000000E+00 -0.10235052654E+04  0.10235052654E+04  0.00000000000E+00 0.  1.
         23    2    1    2    0    0  0.87200019135E+02 -0.88042205941E+02 -0.71974183171E+03  0.74096742406E+03  0.12509654608E+03 0.  0.
          5    1    3    3  502    0  0.87287940537E+02 -0.34532022588E+02 -0.62545675559E+03  0.63247550993E+03  0.41800000000E+01 0.  1.
         -5    1    3    3    0  502 -0.87921401803E-01 -0.53510183353E+02 -0.94285076115E+02  0.10849191413E+03  0.41800000000E+01 0.  1.
        -11    1    1    2    0    0  0.40991115634E+01  0.42426019816E+02 -0.74993002157E+02  0.86259609583E+02  0.00000000000E+00 0.  1.
         11    1    1    2    0    0 -0.91299130699E+02  0.45616186125E+02 -0.20027118440E+03  0.22477747887E+03  0.00000000000E+00 0. -1.
</event>
<event>
 7    1  0.8661710E-006  0.1108708E+03  0.7561462E-02  0.1258966E+00
         -3   -1    0    0    0  501 -0.00000000000E+00  0.00000000000E+00  0.30953601536E+03  0.30953601536E+03  0.00000000000E+00 0.  1.
          3   -1    0    0  501    0  0.00000000000E+00 -0.00000000000E+00 -0.57387445840E+02  0.57387445840E+02  0.00000000000E+00 0. -1.
         23    2    1    2    0    0 -0.25253373295E+01  0.52005519001E+02  0.19120084418E+03  0.23434250738E+03  0.12509075353E+03 0.  0.
          5    1    3    3  502    0  0.43138621414E+02  0.63324777903E+02  0.68489981215E+02  0.10285581209E+03  0.41800000000E+01 0.  1.
         -5    1    3    3    0  502 -0.45663958743E+02 -0.11319258902E+02  0.12271086296E+03  0.13148669529E+03  0.41800000000E+01 0.  1.
        -11    1    1    2    0    0  0.41824542202E+02 -0.17008264611E+02  0.65726937708E+02  0.79740853619E+02  0.00000000000E+00 0.  1.
         11    1    1    2    0    0 -0.39299204872E+02 -0.34997254390E+02 -0.47792123621E+01  0.52840100201E+02  0.00000000000E+00 0. -1.
</event>
<event>
 7    1  0.8661710E-006  0.1046926E+03  0.7561462E-02  0.1270726E+00
         -1   -1    0    0    0  501 -0.00000000000E+00  0.00000000000E+00  0.17017640501E+02  0.17017640501E+02  0.00000000000E+00 0.  1.
          1   -1    0    0  501    0  0.00000000000E+00 -0.00000000000E+00 -0.78870716127E+03  0.78870716127E+03  0.00000000000E+00 0. -1.
         23    2    1    2    0    0  0.34518033851E+02  0.60295897127E+01 -0.36758833786E+03  0.38986733383E+03  0.12508997260E+03 0.  0.
          5    1    3    3  502    0 -0.38315363986E+02 -0.16642428436E+02 -0.62014370548E+02  0.74888531139E+02  0.41800000000E+01 0.  1.
         -5    1    3    3    0  502  0.72833397837E+02  0.22672018148E+02 -0.30557396731E+03  0.31497880270E+03  0.41800000000E+01 0.  1.
        -11    1    1    2    0    0  0.16475052005E+02 -0.30333837426E+02 -0.84100029114E+02  0.90908657060E+02  0.00000000000E+00 0.  1.
         11    1    1    2    0    0 -0.50993085856E+02  0.24304247713E+02 -0.32000115379E+03  0.32494881088E+03  0.00000000000E+00 0. -1.
</event>
<event>
 7    1  0.8661710E-006  0.1817430E+03  0.7561462E-02  0.1166127E+00
          2   -1    0    0  501    0  0.00000000000E+00  0.00000000000E+00  0.10121205635E+04  0.10121205635E+04  0.00000000000E+00 0. -1.
         -2   -1    0    0    0  501 -0.00000000000E+00 -0.00000000000E+00 -0.35114591512E+02  0.35114591512E+02  0.00000000000E+00 0.  1.
         23    2    1    2    0    0 -0.14894461408E+03 -0.36411480605E+02  0.46337817140E+03  0.50386205970E+03  0.12508937402E+03 0.  0.
          5    1    3    3  502    0  0.19617082113E+02 -0.14154920630E+02  0.94953648537E+02  0.98075784265E+02  0.41800000000E+01 0.  1.
         -5    1    3    3    0  502 -0.16856169619E+03 -0.22256559974E+02  0.36842452286E+03  0.40578627543E+03  0.41800000000E+01 0.  1.
        -11    1    1    2    0    0  0.47796640055E+02 -0.21387308005E+02  0.24563676705E+03  0.25115604128E+03  0.00000000000E+00 0.  1.
         11    1    1    2    0    0  0.10114797402E+03  0.57798788610E+02  0.26799103358E+03  0.29221705408E+03  0.00000000000E+00 0. -1.
</event>
<event>
 7    1  0.8661710E-006  0.9243496E+02  0.7561462E-02  0.1297060E+00
         -1   -1    0    0    0  501 -0.00000000000E+00  0.00000000000E+00  0.20442792279E+02  0.20442792279E+02  0.00000000000E+00 0.  1.
          1   -1    0    0  501    0  0.00000000000E+00 -0.00000000000E+00 -0.59084742990E+03  0.59084742990E+03  0.00000000000E+00 0. -1.
         23    2    1    2    0    0 -0.80076722137E+00  0.20952637436E+01 -0.27600247843E+03  0.30303440716E+03  0.12508977762E+03 0.  0.
          5    1    3    3  502    0  0.36388799186E+02  0.30211659211E+02 -0.23814659781E+03  0.24283361280E+03  0.41800000000E+01 0.  1.
         -5    1    3    3    0  502 -0.37189566408E+02 -0.28116395467E+02 -0.37855880616E+02  0.60200794354E+02  0.41800000000E+01 0.  1.
        -11    1    1    2    0    0 -0.55743146223E+01  0.43846286574E+02 -0.16395865388E+03  0.16981168986E+03  0.00000000000E+00 0. -1.
         11    1    1    2    0    0  0.63750818437E+01 -0.45941550317E+02 -0.13044350531E+03  0.13844412516E+03  0.00000000000E+00 0.  1.
</event>
<event>
 7    1  0.8661710E-006  0.1554711E+03  0.7561462E-02  0.1193907E+00
          1   -1    0    0  501    0  0.00000000000E+00  0.00000000000E+00  0.59068810638E+03  0.59068810638E+03  0.00000000000E+00 0. -1.
         -1   -1    0    0    0  501 -0.00000000000E+00 -0.00000000000E+00 -0.57068557595E+02  0.57068557595E+02  0.00000000000E+00 0.  1.
         23    2    1    2    0    0  0.64995241629E+02 -0.12427952844E+03  0.19925000793E+03  0.27388837201E+03  0.12507794384E+03 0.  0.
          5    1    3    3  502    0  0.19314015350E+02 -0.77440794824E+02  0.19194903606E+03  0.20792309332E+03  0.41800000000E+01 0. -1.
         -5    1    3    3    0  502  0.45681226279E+02 -0.46838733621E+02  0.73009718695E+01  0.65965278684E+02  0.41800000000E+01 0. -1.
        -11    1    1    2    0    0 -0.22031287865E+02  0.12031274598E+03  0.26953392853E+03  0.29598829896E+03  0.00000000000E+00 0. -1.
         11    1    1    2    0    0 -0.42963953764E+02  0.39667824622E+01  0.64835612327E+02  0.77879993015E+02  0.00000000000E+00 0.  1.
</event>
<event>
 7    1  0.8661710E-006  0.1597842E+03  0.7561462E-02  0.1188941E+00
         -2   -1    0    0    0  501 -0.00000000000E+00  0.00000000000E+00  0.43206804810E+02  0.43206804810E+02  0.00000000000E+00 0.  1.
          2   -1    0    0  501    0  0.00000000000E+00 -0.00000000000E+00 -0.72623141277E+03  0.72623141277E+03  0.00000000000E+00 0. -1.
         23    2    1    2    0    0  0.12453456804E+03  0.54618016177E+02 -0.41687313609E+03  0.45598678819E+03  0.12509497626E+03 0.  0.
          5    1    3    3  502    0  0.12863043228E+03  0.65962194400E+02 -0.41881019554E+03  0.44307589811E+03  0.41800000000E+01 0.  1.
         -5    1    3    3    0  502 -0.40958642417E+01 -0.11344178223E+02  0.19370594496E+01  0.12910890084E+02  0.41800000000E+01 0.  1.
        -11    1    1    2    0    0 -0.19596828965E+01 -0.38507022625E+02 -0.39035370196E+02  0.54867032677E+02  0.00000000000E+00 0.  1.
         11    1    1    2    0    0 -0.12257488514E+03 -0.16110993553E+02 -0.22711610168E+03  0.25858439671E+03  0.00000000000E+00 0. -1.
</event>
<event>
 7    1  0.8661710E-006  0.1180790E+03  0.7561462E-02  0.1246300E+00
          1   -1    0    0  501    0  0.00000000000E+00  0.00000000000E+00  0.15164985699E+03  0.15164985699E+03  0.00000000000E+00 0. -1.
         -1   -1    0    0    0  501 -0.00000000000E+00 -0.00000000000E+00 -0.10289944235E+03  0.10289944235E+03  0.00000000000E+00 0.  1.
         23    2    1    2    0    0  0.74134223395E+01 -0.55800668365E+02  0.10335645188E+01  0.13717708399E+03  0.12509120950E+03 0.  0.
          5    1    3    3  502    0 -0.52453437166E+02 -0.42126323197E+02  0.23898658426E+02  0.71516490764E+02  0.41800000000E+01 0.  1.
         -5    1    3    3    0  502  0.59866859505E+02 -0.13674345168E+02 -0.22865093908E+02  0.65660593222E+02  0.41800000000E+01 0.  1.
        -11    1    1    2    0    0 -0.31586379935E+02  0.71645257092E+02  0.36135735940E+02  0.86235338888E+02  0.00000000000E+00 0. -1.
         11    1    1    2    0    0  0.24172957596E+02 -0.15844588728E+02  0.11581114180E+02  0.31136876473E+02  0.00000000000E+00 0.  1.
</event>
<event>
 7    1  0.8661710E-006  0.1260148E+03  0.7561462E-02  0.1233492E+00
         -2   -1    0    0    0  501 -0.00000000000E+00  0.00000000000E+00  0.33480726177E+03  0.33480726177E+03  0.00000000000E+00 0.  1.
          2   -1    0    0  501    0  0.00000000000E+00 -0.00000000000E+00 -0.58838299716E+02  0.58838299716E+02  0.00000000000E+00 0. -1.
         23    2    1    2    0    0  0.72249113041E+02  0.18947474179E+02  0.22029262070E+03  0.26410839423E+03  0.12508182945E+03 0.  0.
          5    1    3    3  502    0 -0.73544538942E+01 -0.40534247005E+02  0.98599427461E+02  0.10694125802E+03  0.41800000000E+01 0. -1.
         -5    1    3    3    0  502  0.79603566936E+02  0.59481721184E+02  0.12169319324E+03  0.15716713621E+03  0.41800000000E+01 0. -1.
        -11    1    1    2    0    0 -0.66160170587E+02  0.22032369678E+02  0.14696964847E+02  0.71264256549E+02  0.00000000000E+00 0. -1.
         11    1    1    2    0    0 -0.60889424543E+01 -0.40979843857E+02  0.40979376504E+02  0.58272910699E+02  0.00000000000E+00 0.  1.
</event>
<event>
 7    1  0.8661710E-006  0.1376187E+03  0.7561462E-02  0.1216570E+00
          2   -1    0    0  501    0  0.00000000000E+00  0.00000000000E+00  0.31929568188E+03  0.31929568188E+03  0.00000000000E+00 0.  1.
         -2   -1    0    0    0  501 -0.00000000000E+00 -0.00000000000E+00 -0.63777942952E+02  0.63777942952E+02  0.00000000000E+00 0. -1.
         23    2    1    2    0    0 -0.95830863660E+01  0.92471676018E+02  0.13610966856E+03  0.20692201730E+03  0.12509209791E+03 0.  0.
          5    1    3    3  502    0 -0.52366314687E+02  0.10963952180E+02  0.87738466641E+02  0.10284916183E+03  0.41800000000E+01 0. -1.
         -5    1    3    3    0  502  0.42783228321E+02  0.81507723838E+02  0.48371201914E+02  0.10407285547E+03  0.41800000000E+01 0. -1.
        -11    1    1    2    0    0  0.31767823377E+02  0.25279101052E+01  0.32098543982E+02  0.45231642214E+02  0.00000000000E+00 0.  1.
         11    1    1    2    0    0 -0.22184737011E+02 -0.94999586124E+02  0.87309526394E+02  0.13091996532E+03  0.00000000000E+00 0. -1.
</event>
<event>
 7    1  0.8661710E-006  0.9117989E+02  0.7561462E-02  0.1300019E+00
         -1   -1    0    0    0  501 -0.00000000000E+00  0.00000000000E+00  0.96819688752E+03  0.96819688752E+03  0.00000000000E+00 0.  1.
          1   -1    0    0  501    0  0.00000000000E+00 -0.00000000000E+00 -0.25369486845E+02  0.25369486845E+02  0.00000000000E+00 0. -1.
         23    2    1    2    0    0  0.83506188532E+01  0.88976984289E+02  0.70738945546E+03  0.72390195410E+03  0.12509021095E+03 0.  0.
          5    1    3    3  502    0 -0.31603561109E+01  0.11712382765E+02  0.52849551268E+03  0.52865125279E+03  0.41800000000E+01 0. -1.
         -5    1    3    3    0  502  0.11510974964E+02  0.77264601524E+02  0.17889394279E+03  0.19525070130E+03  0.41800000000E+01 0. -1.
        -11    1    1    2    0    0  0.56193681670E+01 -0.39146172415E+02  0.20673901045E+03  0.21048757340E+03  0.00000000000E+00 0.  1.
         11    1    1    2    0    0 -0.13969987020E+02 -0.49830811874E+02  0.28698934766E+02  0.59176846875E+02  0.00000000000E+00 0. -1.
</event>
<event>
 6    1  0.8661710E-006  0.1070953E+03  0.7561462E-02  0.1266045E+00
          1   -1    0    0  501    0  0.00000000000E+00  0.00000000000E+00  0.24566299206E+03  0.24566299206E+03  0.00000000000E+00 0. -1.
         -1   -1    0    0    0  501 -0.00000000000E+00 -0.00000000000E+00 -0.73476143550E+02  0.73476143550E+02  0.00000000000E+00 0.  1.
          5    1    1    2  502    0 -0.99989337547E+01  0.67681192440E+02  0.12492754010E+03  0.14249591279E+03  0.41800000000E+01 0. -1.
         -5    1    1    2    0  502  0.28447939665E+02 -0.48439156553E+02 -0.23745263139E+02  0.61130574022E+02  0.41800000000E+01 0.  1.
        -11    1    1    2    0    0 -0.46121062991E+02  0.11925258367E+02  0.49164428200E+02  0.68458054593E+02  0.00000000000E+00 0. -1.
         11    1    1    2    0    0  0.27672057080E+02 -0.31167294254E+02  0.21840143350E+02  0.47054594204E+02  0.00000000000E+00 0.  1.
</event>
<event>
 7    1  0.8661710E-006  0.1070047E+03  0.7561462E-02  0.1266219E+00
         -1   -1    0    0    0  501 -0.00000000000E+00  0.00000000000E+00  0.27658394641E+02  0.27658394641E+02  0.00000000000E+00 0.  1.
          1   -1    0    0  501    0  0.00000000000E+00 -0.00000000000E+00 -0.56458087621E+03  0.56458087621E+03  0.00000000000E+00 0. -1.
         23    2    1    2    0    0 -0.13045742779E+02  0.60052033235E+02 -0.32683164030E+03  0.35530689806E+03  0.12509049767E+03 0.  0.
          5    1    3    3  502    0  0.29873940626E+02  0.80427884603E+02 -0.25503536688E+03  0.26911263016E+03  0.41800000000E+01 0. -1.
         -5    1    3    3    0  502 -0.42919683405E+02 -0.20375851369E+02 -0.71796273422E+02  0.86194267906E+02  0.41800000000E+01 0. -1.
        -11    1    1    2    0    0 -0.16870748516E+02 -0.42512020717E+02 -0.19285844303E+03  0.19820765149E+03  0.00000000000E+00 0. -1.
         11    1    1    2    0    0  0.29916491295E+02 -0.17540012518E+02 -0.17232398233E+02  0.38724721295E+02  0.00000000000E+00 0.  1.
</event>
<event>
 7    1  0.8661710E-006  0.1397006E+03  0.7561462E-02  0.1213732E+00
         -2   -1    0    0    0  501 -0.00000000000E+00  0.00000000000E+00  0.79007766559E+02  0.79007766559E+02  0.00000000000E+00 0. -1.
          2   -1    0    0  501    0  0.00000000000E+00 -0.00000000000E+00 -0.38961722647E+03  0.38961722647E+03  0.00000000000E+00 0.  1.
         23    2    1    2    0    0  0.13590507405E+03  0.15364363654E+02 -0.16936095899E+03  0.25107799298E+03  0.12510304274E+03 0.  0.
          5    1    3    3  502    0  0.59895881650E+02 -0.10628003695E+02  0.28134752239E+01  0.61039816054E+02  0.41800000000E+01 0.  1.
         -5    1    3    3    0  502  0.76009192398E+02  0.25992367349E+02 -0.17217443422E+03  0.19003817692E+03  0.41800000000E+01 0.  1.
        -11    1    1    2    0    0 -0.65065592691E+02 -0.16550917583E+02 -0.92977906869E+01  0.67778412025E+02  0.00000000000E+00 0. -1.
         11    1    1    2    0    0 -0.70839481357E+02  0.11865539291E+01 -0.13195071023E+03  0.14976858802E+03  0.00000000000E+00 0.  1.
</event>
<event>
 7    1  0.8661710E-006  0.8857662E+02  0.7561462E-02  0.1306336E+00
          2   -1    0    0  501    0  0.00000000000E+00  0.00000000000E+00  0.84158073640E+02  0.84158073640E+02  0.00000000000E+00 0. -1.
         -2   -1    0    0    0  501 -0.00000000000E+00 -0.00000000000E+00 -0.21179144704E+03  0.21179144704E+03  0.00000000000E+00 0.  1.
         23    2    1    2    0    0  0.70362986163E+02 -0.63525329423E+01 -0.11437355573E+03  0.17796063779E+03  0.11660777785E+03 0.  0.
          5    1    3    3  502    0  0.60218309313E+02  0.11021103752E+02  0.39980125479E+00  0.61362380540E+02  0.41800000000E+01 0. -1.
         -5    1    3    3    0  502  0.10144676850E+02 -0.17373636695E+02 -0.11477335698E+03  0.11659825725E+03  0.41800000000E+01 0.  1.
        -11    1    1    2    0    0 -0.81119944460E+02 -0.27293302222E+01  0.18501088545E+02  0.83247732162E+02  0.00000000000E+00 0.  1.
         11    1    1    2    0    0  0.10756958297E+02  0.90818631644E+01 -0.31760906219E+02  0.34741150732E+02  0.00000000000E+00 0. -1.
</event>
<event>
 7    1  0.8661710E-006  0.1509127E+03  0.7561462E-02  0.1199356E+00
         -1   -1    0    0    0  501 -0.00000000000E+00  0.00000000000E+00  0.70706451941E+02  0.70706451941E+02  0.00000000000E+00 0.  1.
          1   -1    0    0  501    0  0.00000000000E+00 -0.00000000000E+00 -0.38158145898E+03  0.38158145898E+03  0.00000000000E+00 0. -1.
         23    2    1    2    0    0  0.76407622875E+02  0.96023262682E+02 -0.14757154728E+03  0.22909149622E+03  0.12508781021E+03 0.  0.
          5    1    3    3  502    0  0.73717966890E+02  0.11858624111E+03 -0.87762439752E+02  0.16497500857E+03  0.41800000000E+01 0. -1.
         -5    1    3    3    0  502  0.26896559845E+01 -0.22562978427E+02 -0.59809107524E+02  0.64116487643E+02  0.41800000000E+01 0. -1.
        -11    1    1    2    0    0 -0.93005765762E+01 -0.63997677277E+02 -0.31658560084E+02  0.72003248871E+02  0.00000000000E+00 0.  1.
         11    1    1    2    0    0 -0.67107046298E+02 -0.32025585405E+02 -0.13164489968E+03  0.15119316584E+03  0.00000000000E+00 0. -1.
</event>
<event>
 7    1  0.8661710E-006  0.8830139E+02  0.7561462E-02  0.1307018E+00
         -2   -1    0    0    0  501 -0.00000000000E+00  0.00000000000E+00  0.34029130373E+02  0.34029130373E+02  0.00000000000E+00 0.  1.
          2   -1    0    0  501    0  0.00000000000E+00 -0.00000000000E+00 -0.43477142246E+03  0.43477142246E+03  0.00000000000E+00 0. -1.
         23    2    1    2    0    0 -0.28504331914E+02 -0.50889514523E+01 -0.12318988026E+03  0.17793573775E+03  0.12508791231E+03 0.  0.
          5    1    3    3  502    0  0.18148951727E+01  0.38860896285E+02  0.45809278489E+01  0.39394420982E+02  0.41800000000E+01 0. -1.
         -5    1    3    3    0  502 -0.30319227086E+02 -0.43949847737E+02 -0.12777080811E+03  0.13854131677E+03  0.41800000000E+01 0. -1.
        -11    1    1    2    0    0  0.43792054892E+02  0.31125094797E+02 -0.13813065472E+03  0.14821131324E+03  0.00000000000E+00 0.  1.
         11    1    1    2    0    0 -0.15287722978E+02 -0.26036143345E+02 -0.13942175710E+03  0.14265350184E+03  0.00000000000E+00 0. -1.
</event>
<event>
 7    1  0.8661710E-006  0.7215954E+02  0.7561462E-02  0.1352900E+00
         -1   -1    0    0    0  501 -0.00000000000E+00  0.00000000000E+00  0.39177392570E+03  0.39177392570E+03  0.00000000000E+00 0.  1.
          1   -1    0    0  501    0  0.00000000000E+00 -0.00000000000E+00 -0.32269597925E+02  0.32269597925E+02  0.00000000000E+00 0. -1.
         23    2    1    2    0    0 -0.24625902124E+02 -0.66352032459E+01  0.24552846607E+03  0.27673620770E+03  0.12509292554E+03 0.  0.
          5    1    3    3  502    0  0.18391039442E+02  0.27256176629E+02  0.96118988816E+01  0.34510730162E+02  0.41800000000E+01 0. -1.
         -5    1    3    3    0  502 -0.43016941566E+02 -0.33891379875E+02  0.23591656719E+03  0.24222547753E+03  0.41800000000E+01 0. -1.
        -11    1    1    2    0    0  0.25923689877E+02 -0.18013587730E+02  0.11813181622E+03  0.12227695222E+03  0.00000000000E+00 0.  1.
         11    1    1    2    0    0 -0.12977877526E+01  0.24648790976E+02 -0.41559545172E+01  0.25030363713E+02  0.00000000000E+00 0. -1.
</event>
<event>
 7    1  0.8661710E-006  0.1118929E+03  0.7561462E-02  0.1257104E+00
         -1   -1    0    0    0  501 -0.00000000000E+00  0.00000000000E+00  0.12333058653E+03  0.12333058653E+03  0.00000000000E+00 0.  1.
          1   -1    0    0  501    0  0.00000000000E+00 -0.00000000000E+00 -0.14632305722E+03  0.14632305722E+03  0.00000000000E+00 0. -1.
         23    2    1    2    0    0 -0.30508863159E+02 -0.20869464243E+02  0.57145636691E+02  0.14240472606E+03  0.12508859638E+03 0.  0.
          5    1    3    3  502    0 -0.78293112628E+02 -0.22456041773E+02  0.43879924342E+02  0.92612123706E+02  0.41800000000E+01 0. -1.
         -5    1    3    3    0  502  0.47784249468E+02  0.15865775296E+01  0.13265712349E+02  0.49792602358E+02  0.41800000000E+01 0. -1.
        -11    1    1    2    0    0  0.58802691932E+02  0.27893646209E+02 -0.36068186186E+02  0.74409180428E+02  0.00000000000E+00 0.  1.
         11    1    1    2    0    0 -0.28293828773E+02 -0.70241819658E+01 -0.44069921202E+02  0.52839737260E+02  0.00000000000E+00 0. -1.
</event>
<event>
 7    1  0.8661710E-006  0.7777277E+02  0.7561462E-02  0.1335493E+00
          3   -1    0    0  501    0  0.00000000000E+00  0.00000000000E+00  0.14610071627E+03  0.14610071627E+03  0.00000000000E+00 0. -1.
         -3   -1    0    0    0  501 -0.00000000000E+00 -0.00000000000E+00 -0.11717540973E+03  0.11717540973E+03  0.00000000000E+00 0.  1.
         23    2    1    2    0    0 -0.70649186676E+02  0.13517349964E+02 -0.69096643400E+01  0.14446482128E+03  0.12509322443E+03 0.  0.
          5    1    3    3  502    0 -0.43299774079E+02  0.14191803192E+02 -0.65364902926E+02  0.79789226388E+02  0.41800000000E+01 0. -1.
         -5    1    3    3    0  502 -0.27349412597E+02 -0.67445322798E+00  0.58455238586E+02  0.64675594892E+02  0.41800000000E+01 0. -1.
        -11    1    1    2    0    0  0.22698865397E+02  0.14154694770E+02 -0.24959409096E+02  0.36586417927E+02  0.00000000000E+00 0.  1.
         11    1    1    2    0    0  0.47950321279E+02 -0.27672044734E+02  0.60794379976E+02  0.82224886787E+02  0.00000000000E+00 0. -1.
</event>
<event>
 7    1  0.8661710E-006  0.1353903E+03  0.7561462E-02  0.1219670E+00
         -1   -1    0    0    0  501 -0.00000000000E+00  0.00000000000E+00  0.70168988441E+02  0.70168988441E+02  0.00000000000E+00 0.  1.
          1   -1    0    0  501    0  0.00000000000E+00 -0.00000000000E+00 -0.28676510908E+03  0.28676510908E+03  0.00000000000E+00 0. -1.
         23    2    1    2    0    0  0.54502356113E+02  0.69883920085E+02 -0.14436168513E+03  0.21057551699E+03  0.12508990012E+03 0.  0.
          5    1    3    3  502    0  0.20229422419E+02 -0.32829871053E+02 -0.67051998650E+02  0.77462719341E+02  0.41800000000E+01 0. -1.
         -5    1    3    3    0  502  0.34272933694E+02  0.10271379114E+03 -0.77309686482E+02  0.13311279765E+03  0.41800000000E+01 0. -1.
        -11    1    1    2    0    0 -0.76989733976E+02 -0.41641733590E+02 -0.34352817310E+02  0.94029618585E+02  0.00000000000E+00 0.  1.
         11    1    1    2    0    0  0.22487377863E+02 -0.28242186495E+02 -0.37881618193E+02  0.52328961944E+02  0.00000000000E+00 0. -1.
</event>
<event>
 7    1  0.8661710E-006  0.1283956E+03  0.7561462E-02  0.1229856E+00
          1   -1    0    0  501    0  0.00000000000E+00  0.00000000000E+00  0.48230302161E+03  0.48230302161E+03  0.00000000000E+00 0. -1.
         -1   -1    0    0    0  501 -0.00000000000E+00 -0.00000000000E+00 -0.83808875903E+02  0.83808875903E+02  0.00000000000E+00 0.  1.
         23    2    1    2    0    0 -0.69980507879E+02 -0.88072096980E+02  0.31984983490E+02  0.17124200873E+03  0.12508725209E+03 0.  0.
          5    1    3    3  502    0 -0.77801126346E+02 -0.33761266156E+02 -0.28406168171E+02  0.89538936465E+02  0.41800000000E+01 0. -1.
         -5    1    3    3    0  502  0.78206184671E+01 -0.54310830824E+02  0.60391151661E+02  0.81703072261E+02  0.41800000000E+01 0. -1.
        -11    1    1    2    0    0  0.55047883012E+02  0.85510132523E+02  0.36583169950E+03  0.37970394328E+03  0.00000000000E+00 0. -1.
         11    1    1    2    0    0  0.14932624868E+02  0.25619644567E+01  0.67746272125E+00  0.15165945505E+02  0.00000000000E+00 0.  1.
</event>
<event>
 7    1  0.8661710E-006  0.1116288E+03  0.7561462E-02  0.1257583E+00
         -1   -1    0    0    0  501 -0.00000000000E+00  0.00000000000E+00  0.47579455995E+03  0.47579455995E+03  0.00000000000E+00 0.  1.
          1   -1    0    0  501    0  0.00000000000E+00 -0.00000000000E+00 -0.29260931715E+02  0.29260931715E+02  0.00000000000E+00 0. -1.
         23    2    1    2    0    0 -0.34178039309E+02  0.24071956581E+02  0.27484780539E+03  0.30485434786E+03  0.12508900758E+03 0.  0.
          5    1    3    3  502    0 -0.55003123408E+02 -0.34430676840E+02  0.10022189877E+03  0.11946847486E+03  0.41800000000E+01 0. -1.
         -5    1    3    3    0  502  0.20825084099E+02  0.58502633421E+02  0.17462590662E+03  0.18538587300E+03  0.41800000000E+01 0. -1.
        -11    1    1    2    0    0 -0.27482889647E+02  0.48142187851E+01  0.21248007592E+02  0.35070839062E+02  0.00000000000E+00 0. -1.
         11    1    1    2    0    0  0.61660928956E+02 -0.28886175366E+02  0.15043781525E+03  0.16513030474E+03  0.00000000000E+00 0.  1.
</event>
<event>
 7    1  0.8661710E-006  0.1113854E+03  0.7561462E-02  0.1258026E+00
         -2   -1    0    0    0  501 -0.00000000000E+00  0.00000000000E+00  0.11840500613E+02  0.11840500613E+02  0.00000000000E+00 0.  1.
          2   -1    0    0  501    0  0.00000000000E+00 -0.00000000000E+00 -0.10798590074E+04  0.10798590074E+04  0.00000000000E+00 0. -1.
         23    2    1    2    0    0 -0.18176008306E+02  0.21970164954E+02 -0.68436111596E+03  0.69628271453E+03  0.12508567496E+03 0.  0.
          5    1    3    3  502    0  0.17367118830E+02 -0.46501474167E+02 -0.31645916129E+03  0.32035586007E+03  0.41800000000E+01 0. -1.
         -5    1    3    3    0  502 -0.35543127136E+02  0.68471639121E+02 -0.36790195468E+03  0.37592685446E+03  0.41800000000E+01 0. -1.
        -11    1    1    2    0    0  0.25871285127E+02 -0.55532276019E+02 -0.24941178345E+03  0.25682561164E+03  0.00000000000E+00 0.  1.
         11    1    1    2    0    0 -0.76952768212E+01  0.33562111065E+02 -0.13424560736E+03  0.13859118183E+03  0.00000000000E+00 0. -1.
</event>
<event>
 7    1  0.8661710E-006  0.7143078E+02  0.7561462E-02  0.1355294E+00
         -2   -1    0    0    0  501 -0.00000000000E+00  0.00000000000E+00  0.24865818305E+02  0.24865818305E+02  0.00000000000E+00 0.  1.
          2   -1    0    0  501    0  0.00000000000E+00 -0.00000000000E+00 -0.52290515617E+03  0.52290515617E+03  0.00000000000E+00 0. -1.
         23    2    1    2    0    0 -0.26704796756E+02  0.18235587876E+02 -0.26909491039E+03  0.29850743696E+03  0.12509570851E+03 0.  0.
          5    1    3    3  502    0  0.14221601739E+02  0.85620205724E+01  0.75096483846E+01  0.18693030015E+02  0.41800000000E+01 0.  1.
         -5    1    3    3    0  502 -0.40926398495E+02  0.96735673031E+01 -0.27660455877E+03  0.27981440694E+03  0.41800000000E+01 0.  1.
        -11    1    1    2    0    0 -0.13238707876E+02  0.22705787722E+02 -0.21137748390E+02  0.33728631595E+02  0.00000000000E+00 0. -1.
         11    1    1    2    0    0  0.39943504632E+02 -0.40941375598E+02 -0.20780667909E+03  0.21553490592E+03  0.00000000000E+00 0.  1.
</event>
<event>
 7    1  0.8661710E-006  0.1376105E+03  0.7561462E-02  0.1216581E+00
         -1   -1    0    0    0  501 -0.00000000000E+00  0.00000000000E+00  0.68368925415E+02  0.68368925415E+02  0.00000000000E+00 0. -1.
          1   -1    0    0  501    0  0.00000000000E+00 -0.00000000000E+00 -0.46910899496E+03  0.46910899496E+03  0.00000000000E+00 0.  1.
         23    2    1    2    0    0 -0.46176807297E+02  0.12167388143E+03 -0.12545026138E+03  0.21981878800E+03  0.12508277468E+03 0.  0.
          5    1    3    3  502    0 -0.38465351169E+02  0.26177218205E+02  0.15604197145E+02  0.49252343722E+02  0.41800000000E+01 0. -1.
         -5    1    3    3    0  502 -0.77114561280E+01  0.95496663224E+02 -0.14105445852E+03  0.17056644427E+03  0.41800000000E+01 0. -1.
        -11    1    1    2    0    0 -0.73607364474E+00 -0.26393022525E+02 -0.15483793020E+03  0.15707297053E+03  0.00000000000E+00 0.  1.
         11    1    1    2    0    0  0.46912880942E+02 -0.95280858904E+02 -0.12045187797E+03  0.16058616185E+03  0.00000000000E+00 0. -1.
</event>
<event>
 7    1  0.8661710E-006  0.2146758E+03  0.7561462E-02  0.1137916E+00
          2   -1    0    0  501    0  0.00000000000E+00  0.00000000000E+00  0.16657461329E+03  0.16657461329E+03  0.00000000000E+00 0. -1.
         -2   -1    0    0    0  501 -0.00000000000E+00 -0.00000000000E+00 -0.31081792706E+03  0.31081792706E+03  0.00000000000E+00 0.  1.
         23    2    1    2    0    0 -0.22001745432E+02  0.19620326036E+03 -0.10712582606E+03  0.25710868010E+03  0.12509650113E+03 0.  0.
          5    1    3    3  502    0  0.33742512775E+02  0.15790585353E+03 -0.97491236715E+02  0.18866592004E+03  0.41800000000E+01 0. -1.
         -5    1    3    3    0  502 -0.55744258207E+02  0.38297406828E+02 -0.96345893486E+01  0.68442760061E+02  0.41800000000E+01 0. -1.
        -11    1    1    2    0    0 -0.40323841898E+01 -0.10861867258E+03 -0.62591724486E+02  0.12542727028E+03  0.00000000000E+00 0.  1.
         11    1    1    2    0    0  0.26034129622E+02 -0.87584587782E+02  0.25474236773E+02  0.94856589973E+02  0.00000000000E+00 0. -1.
</event>
<event>
 7    1  0.8661710E-006  0.2119458E+03  0.7561462E-02  0.1140034E+00
          1   -1    0    0  501    0  0.00000000000E+00  0.00000000000E+00  0.92409323424E+03  0.92409323424E+03  0.00000000000E+00 0. -1.
         -1   -1    0    0    0  501 -0.00000000000E+00 -0.00000000000E+00 -0.92422701438E+02  0.92422701438E+02  0.00000000000E+00 0.  1.
         23    2    1    2    0    0  0.10445530763E+03  0.15403258074E+03  0.82520722865E+02  0.23894340206E+03  0.12508929797E+03 0.  0.
          5    1    3    3  502    0  0.13275971309E+03  0.11815453543E+03  0.58522365701E+02  0.18715762167E+03  0.41800000000E+01 0.  1.
         -5    1    3    3    0  502 -0.28304405465E+02  0.35878045314E+02  0.23998357164E+02  0.51785780393E+02  0.41800000000E+01 0.  1.
        -11    1    1    2    0    0 -0.12894271038E+02 -0.83926501705E+02  0.21592486554E+03  0.23202040314E+03  0.00000000000E+00 0. -1.
         11    1    1    2    0    0 -0.91561036589E+02 -0.70106079036E+02  0.53322494440E+03  0.54555213048E+03  0.00000000000E+00 0.  1.
</event>
<event>
 7    1  0.8661710E-006  0.1976946E+03  0.7561462E-02  0.1151699E+00
         -1   -1    0    0    0  501 -0.00000000000E+00  0.00000000000E+00  0.24505167287E+03  0.24505167287E+03  0.00000000000E+00 0.  1.
          1   -1    0    0  501    0  0.00000000000E+00 -0.00000000000E+00 -0.17918359671E+03  0.17918359671E+03  0.00000000000E+00 0. -1.
         23    2    1    2    0    0 -0.14509103292E+03  0.10306781834E+03  0.18503293795E+02  0.21831420569E+03  0.12507732614E+03 0.  0.
          5    1    3    3  502    0 -0.16109307588E+02  0.84140509860E+02  0.19150279673E+02  0.87882539802E+02  0.41800000000E+01 0.  1.
         -5    1    3    3    0  502 -0.12898172533E+03  0.18927308481E+02 -0.64698587864E+00  0.13043166589E+03  0.41800000000E+01 0.  1.
        -11    1    1    2    0    0  0.80705881240E+02 -0.44557474083E+02  0.70316642285E+02  0.11594497810E+03  0.00000000000E+00 0.  1.
         11    1    1    2    0    0  0.64385151680E+02 -0.58510344258E+02 -0.22951859916E+02  0.89976085798E+02  0.00000000000E+00 0. -1.
</event>
<event>
 7    1  0.8661710E-006  0.7007600E+02  0.7561462E-02  0.1359835E+00
         -1   -1    0    0    0  501 -0.00000000000E+00  0.00000000000E+00  0.22648971103E+03  0.22648971103E+03  0.00000000000E+00 0.  1.
          1   -1    0    0  501    0  0.00000000000E+00 -0.00000000000E+00 -0.56807831489E+02  0.56807831489E+02  0.00000000000E+00 0. -1.
         23    2    1    2    0    0  0.22013102371E+02  0.22937710692E+02  0.81317208774E+02  0.15254926034E+03  0.12509225851E+03 0.  0.
          5    1    3    3  502    0  0.17004651613E+02  0.29792396459E+02  0.11368777718E+03  0.11882393758E+03  0.41800000000E+01 0.  1.
         -5    1    3    3    0  502  0.50084507582E+01 -0.68546857670E+01 -0.32370568405E+02  0.33725322753E+02  0.41800000000E+01 0.  1.
        -11    1    1    2    0    0 -0.57589624031E+02 -0.17138596401E+02  0.59606931154E+02  0.84636177396E+02  0.00000000000E+00 0.  1.
         11    1    1    2    0    0  0.35576521660E+02 -0.57991142911E+01  0.28757739612E+02  0.46112104783E+02  0.00000000000E+00 0. -1.
</event>
<event>
 7    1  0.8661710E-006  0.1167742E+03  0.7561462E-02  0.1248516E+00
          1   -1    0    0  501    0  0.00000000000E+00  0.00000000000E+00  0.50661317562E+03  0.50661317562E+03  0.00000000000E+00 0. -1.
         -1   -1    0    0    0  501 -0.00000000000E+00 -0.00000000000E+00 -0.28477094085E+02  0.28477094085E+02  0.00000000000E+00 0.  1.
         23    2    1    2    0    0 -0.38109655915E+01  0.51286018818E+02  0.24250968370E+03  0.27767588655E+03  0.12509265406E+03 0.  0.
          5    1    3    3  502    0  0.60262264043E+02  0.20146095033E+02  0.12212431316E+03  0.13772881281E+03  0.41800000000E+01 0.  1.
         -5    1    3    3    0  502 -0.64073229635E+02  0.31139923785E+02  0.12038537054E+03  0.13994707374E+03  0.41800000000E+01 0.  1.
        -11    1    1    2    0    0  0.74843643333E+01  0.22971513420E+02  0.28578997847E+02  0.37422790599E+02  0.00000000000E+00 0.  1.
         11    1    1    2    0    0 -0.36733987419E+01 -0.74257532238E+02  0.20704739999E+03  0.21999159255E+03  0.00000000000E+00 0. -1.
</event>
<event>
 7    1  0.8661710E-006  0.2861684E+03  0.7561462E-02  0.1092367E+00
         -1   -1    0    0    0  501 -0.00000000000E+00  0.00000000000E+00  0.34489631378E+03  0.34489631378E+03  0.00000000000E+00 0.  1.
          1   -1    0    0  501    0  0.00000000000E+00 -0.00000000000E+00 -0.33435651134E+03  0.33435651134E+03  0.00000000000E+00 0. -1.
         23    2    1    2    0    0 -0.12770086325E+02 -0.27291835475E+03  0.17452346262E+03  0.34749549990E+03  0.12508868847E+03 0.  0.
          5    1    3    3  502    0  0.41675041177E+02 -0.54432134917E+02  0.11885459448E+02  0.69702244691E+02  0.41800000000E+01 0. -1.
         -5    1    3    3    0  502 -0.54445127501E+02 -0.21848621984E+03  0.16263800317E+03  0.27779325521E+03  0.41800000000E+01 0. -1.
        -11    1    1    2    0    0 -0.21223142584E+02  0.10662387582E+03 -0.23030370585E+02  0.11112817215E+03  0.00000000000E+00 0.  1.
         11    1    1    2    0    0  0.33993228909E+02  0.16629447893E+03 -0.14095328959E+03  0.22062915306E+03  0.00000000000E+00 0. -1.
</event>
<event>
 7    1  0.8661710E-006  0.1307618E+03  0.7561462E-02  0.1226330E+00
          1   -1    0    0  501    0  0.00000000000E+00  0.00000000000E+00  0.66774160634E+03  0.66774160634E+03  0.00000000000E+00 0. -1.
         -1   -1    0    0    0  501 -0.00000000000E+00 -0.00000000000E+00 -0.27100679735E+02  0.27100679735E+02  0.00000000000E+00 0.  1.
         23    2    1    2    0    0  0.18524724467E+01  0.81415151646E+02  0.32951552296E+03  0.36174562684E+03  0.12509020784E+03 0.  0.
          5    1    3    3  502    0 -0.53083445112E+02  0.73412742132E+02  0.16817134304E+03  0.19106636510E+03  0.41800000000E+01 0. -1.
         -5    1    3    3    0  502  0.54935917559E+02  0.80024095135E+01  0.16134417992E+03  0.17067926174E+03  0.41800000000E+01 0. -1.
        -11    1    1    2    0    0 -0.31860892604E+02 -0.78848484818E+02  0.26217577273E+03  0.27562354008E+03  0.00000000000E+00 0. -1.
         11    1    1    2    0    0  0.30008420157E+02 -0.25666668277E+01  0.48949630917E+02  0.57473119159E+02  0.00000000000E+00 0.  1.
</event>
<event>
 6    1  0.8661710E-006  0.1139764E+03  0.7561462E-02  0.1253378E+00
          3   -1    0    0  501    0  0.00000000000E+00  0.00000000000E+00  0.62587750194E+03  0.62587750194E+03  0.00000000000E+00 0. -1.
         -3   -1    0    0    0  501 -0.00000000000E+00 -0.00000000000E+00 -0.41147798827E+02  0.41147798827E+02  0.00000000000E+00 0.  1.
          5    1    1    2  502    0  0.42665448445E+02 -0.71530253213E+02  0.20509646781E+03  0.22140223830E+03  0.41800000000E+01 0. -1.
         -5    1    1    2    0  502 -0.27089019286E+02  0.45534140820E+02 -0.10216691283E+01  0.53157211683E+02  0.41800000000E+01 0.  1.
        -11    1    1    2    0    0  0.29793877276E+02  0.34145008182E+02  0.13167282842E+03  0.13925261380E+03  0.00000000000E+00 0.  1.
         11    1    1    2    0    0 -0.45370306435E+02 -0.81488957891E+01  0.24898207601E+03  0.25321323699E+03  0.00000000000E+00 0. -1.
</event>
<event>
 7    1  0.8661710E-006  0.1201993E+03  0.7561462E-02  0.1242769E+00
         -4   -1    0    0    0  501 -0.00000000000E+00  0.00000000000E+00  0.42918314906E+02  0.42918314906E+02  0.00000000000E+00 0.  1.
          4   -1    0    0  501    0  0.00000000000E+00 -0.00000000000E+00 -0.52081189608E+03  0.52081189608E+03  0.00000000000E+00 0. -1.
         23    2    1    2    0    0 -0.81744358815E+02  0.64732125176E+02 -0.21078212610E+03  0.26636232715E+03  0.12508955357E+03 0.  0.
          5    1    3    3  502    0 -0.84135153868E+02  0.50645241774E+02 -0.22515173323E+03  0.24567140658E+03  0.41800000000E+01 0. -1.
         -5    1    3    3    0  502  0.23907950533E+01  0.14086883402E+02  0.14369607133E+02  0.20690920572E+02  0.41800000000E+01 0. -1.
        -11    1    1    2    0    0  0.31690033504E+02  0.13418795983E+02 -0.45029556631E+02  0.56674361748E+02  0.00000000000E+00 0. -1.
         11    1    1    2    0    0  0.50054325311E+02 -0.78150921160E+02 -0.22208189844E+03  0.24069352209E+03  0.00000000000E+00 0.  1.
</event>
<event>
 7    1  0.8661710E-006  0.1142955E+03  0.7561462E-02  0.1252816E+00
          2   -1    0    0  501    0  0.00000000000E+00  0.00000000000E+00  0.28174725692E+03  0.28174725692E+03  0.00000000000E+00 0. -1.
         -2   -1    0    0    0  501 -0.00000000000E+00 -0.00000000000E+00 -0.58901754820E+02  0.58901754820E+02  0.00000000000E+00 0.  1.
         23    2    1    2    0    0  0.45592959452E+02  0.13176249619E+02  0.11500323825E+03  0.17642900279E+03  0.12509642965E+03 0.  0.
          5    1    3    3  502    0  0.74359467240E+02  0.43835488704E+02  0.52925782483E+02  0.10133849856E+03  0.41800000000E+01 0.  1.
         -5    1    3    3    0  502 -0.28766507788E+02 -0.30659239086E+02  0.62077455769E+02  0.75090504236E+02  0.41800000000E+01 0.  1.
        -11    1    1    2    0    0 -0.10216780372E+02  0.37081174975E+02 -0.18240158991E+01  0.38506144610E+02  0.00000000000E+00 0.  1.
         11    1    1    2    0    0 -0.35376179080E+02 -0.50257424594E+02  0.10966627975E+03  0.12571386434E+03  0.00000000000E+00 0. -1.
</event>
<event>
 7    1  0.8661710E-006  0.2038282E+03  0.7561462E-02  0.1146549E+00
          1   -1    0    0  501    0  0.00000000000E+00  0.00000000000E+00  0.36292086325E+03  0.36292086325E+03  0.00000000000E+00 0. -1.
         -1   -1    0    0    0  501 -0.00000000000E+00 -0.00000000000E+00 -0.12760371526E+03  0.12760371526E+03  0.00000000000E+00 0.  1.
         23    2    1    2    0    0  0.17263930162E+03  0.23208591562E+02  0.45797844683E+02  0.21928496776E+03  0.12508192245E+03 0.  0.
          5    1    3    3  502    0  0.16665819216E+03 -0.21992053068E+02  0.42130963637E+02  0.17335251342E+03  0.41800000000E+01 0.  1.
         -5    1    3    3    0  502  0.59811094563E+01  0.45200644630E+02  0.36668810461E+01  0.45932454342E+02  0.41800000000E+01 0.  1.
        -11    1    1    2    0    0 -0.27788157355E+02  0.28601416408E+02  0.32812090495E+02  0.51641611055E+02  0.00000000000E+00 0. -1.
         11    1    1    2    0    0 -0.14485114426E+03 -0.51810007970E+02  0.15670721281E+03  0.21959799969E+03  0.00000000000E+00 0.  1.
</event>
<event>
 7    1  0.8661710E-006  0.8370932E+02  0.7561462E-02  0.1318843E+00
          1   -1    0    0  501    0  0.00000000000E+00  0.00000000000E+00  0.29732224183E+02  0.29732224183E+02  0.00000000000E+00 0. -1.
         -1   -1    0    0    0  501 -0.00000000000E+00 -0.00000000000E+00 -0.49700709459E+03  0.49700709459E+03  0.00000000000E+00 0.  1.
         23    2    1    2    0    0 -0.28233053595E+02  0.39684139471E+02 -0.31239483572E+03  0.34001355437E+03  0.12508695987E+03 0.  0.
          5    1    3    3  502    0 -0.33691627003E+02  0.92841168217E+01 -0.30622491134E+03  0.30824095977E+03  0.41800000000E+01 0. -1.
         -5    1    3    3    0  502  0.54585734078E+01  0.30400022649E+02 -0.61699243816E+01  0.31772594600E+02  0.41800000000E+01 0. -1.
        -11    1    1    2    0    0  0.36938979412E+02 -0.64735690203E+02 -0.13249609904E+03  0.15202109737E+03  0.00000000000E+00 0.  1.
         11    1    1    2    0    0 -0.87059258168E+01  0.25051550732E+02 -0.22383935644E+02  0.34704667026E+02  0.00000000000E+00 0. -1.
</event>
<event>
 7    1  0.8661710E-006  0.7734035E+02  0.7561462E-02  0.1336773E+00
          2   -1    0    0  501    0  0.00000000000E+00  0.00000000000E+00  0.38693259354E+03  0.38693259354E+03  0.00000000000E+00 0. -1.
         -2   -1    0    0    0  501 -0.00000000000E+00 -0.00000000000E+00 -0.31243425420E+02  0.31243425420E+02  0.00000000000E+00 0.  1.
         23    2    1    2    0    0  0.37118744729E+02  0.26726750703E+02  0.19878599101E+03  0.23928013046E+03  0.12508792987E+03 0.  0.
          5    1    3    3  502    0 -0.18386271796E+02  0.40075861009E+02  0.16909151112E+03  0.17479571265E+03  0.41800000000E+01 0.  1.
         -5    1    3    3    0  502  0.55505016525E+02 -0.13349110306E+02  0.29694479886E+02  0.64484417816E+02  0.41800000000E+01 0.  1.
        -11    1    1    2    0    0 -0.11847662281E+02  0.47671956885E+01 -0.36986713263E+01  0.13295616791E+02  0.00000000000E+00 0.  1.
         11    1    1    2    0    0 -0.25271082447E+02 -0.31493946391E+02  0.16060184843E+03  0.16560027170E+03  0.00000000000E+00 0. -1.
</event>
<event>
 7    1  0.8661710E-006  0.9916994E+02  0.7561462E-02  0.1282051E+00
         -1   -1    0    0    0  501 -0.00000000000E+00  0.00000000000E+00  0.92384589539E+02  0.92384589539E+02  0.00000000000E+00 0.  1.
          1   -1    0    0  501    0  0.00000000000E+00 -0.00000000000E+00 -0.18981211726E+03  0.18981211726E+03  0.00000000000E+00 0. -1.
         23    2    1    2    0    0  0.51018669130E+02 -0.23697615776E+02  0.16412688519E+01  0.13716202844E+03  0.12508495789E+03 0.  0.
          5    1    3    3  502    0  0.52157108029E+02 -0.51296820815E+02 -0.42659349900E+02  0.84788090423E+02  0.41800000000E+01 0. -1.
         -5    1    3    3    0  502 -0.11384388994E+01  0.27599205039E+02  0.44300618752E+02  0.52373938020E+02  0.41800000000E+01 0. -1.
        -11    1    1    2    0    0  0.10073792476E+02 -0.19743572404E+02 -0.18093211535E+01  0.22238785695E+02  0.00000000000E+00 0.  1.
         11    1    1    2    0    0 -0.61092461606E+02  0.43441188180E+02 -0.97259475415E+02  0.12279589266E+03  0.00000000000E+00 0. -1.
</event>
<event>
 7    1  0.8661710E-006  0.6379050E+02  0.7561462E-02  0.1382580E+00
          2   -1    0    0  501    0  0.00000000000E+00  0.00000000000E+00  0.15364774727E+03  0.15364774727E+03  0.00000000000E+00 0. -1.
         -2   -1    0    0    0  501 -0.00000000000E+00 -0.00000000000E+00 -0.36182738345E+02  0.36182738345E+02  0.00000000000E+00 0.  1.
         23    2    1    2    0    0  0.26615284534E+02  0.16336863852E+02  0.84120810610E+02  0.14350013979E+03  0.11198532427E+03 0.  0.
          5    1    3    3  502    0  0.60049060318E+02  0.13460347406E+02  0.90068504418E+02  0.10916445615E+03  0.41800000000E+01 0. -1.
         -5    1    3    3    0  502 -0.33433775784E+02  0.28765164461E+01 -0.59476938080E+01  0.34335683649E+02  0.41800000000E+01 0.  1.
        -11    1    1    2    0    0 -0.10827082609E+02 -0.25511097333E+01  0.10005350106E+02  0.14961313761E+02  0.00000000000E+00 0.  1.
         11    1    1    2    0    0 -0.15788201925E+02 -0.13785754118E+02  0.23338848208E+02  0.31369032059E+02  0.00000000000E+00 0. -1.
</event>
<event>
 7    1  0.8661710E-006  0.1102745E+03  0.7561462E-02  0.1260062E+00
         -3   -1    0    0    0  501 -0.00000000000E+00  0.00000000000E+00  0.49221276814E+03  0.49221276814E+03  0.00000000000E+00 0.  1.
          3   -1    0    0  501    0  0.00000000000E+00 -0.00000000000E+00 -0.32231101032E+02  0.32231101032E+02  0.00000000000E+00 0. -1.
         23    2    1    2    0    0  0.34412484206E+02 -0.50499328759E+02  0.30328864017E+03  0.33371445506E+03  0.12508771717E+03 0.  0.
          5    1    3    3  502    0  0.16484807336E+02 -0.91763435689E+02  0.18806162734E+03  0.20994505253E+03  0.41800000000E+01 0.  1.
         -5    1    3    3    0  502  0.17927676870E+02  0.41264106930E+02  0.11522701282E+03  0.12376940253E+03  0.41800000000E+01 0.  1.
        -11    1    1    2    0    0 -0.48144032386E+02  0.28039662625E+02  0.15458712945E+03  0.16432057426E+03  0.00000000000E+00 0.  1.
         11    1    1    2    0    0  0.13731548180E+02  0.22459666134E+02  0.21058974980E+01  0.26408839856E+02  0.00000000000E+00 0. -1.
</event>
<event>
 7    1  0.8661710E-006  0.2268117E+03  0.7561462E-02  0.1128904E+00
          1   -1    0    0  501    0  0.00000000000E+00  0.00000000000E+00  0.35385276969E+03  0.35385276969E+03  0.00000000000E+00 0. -1.
         -1   -1    0    0    0  501 -0.00000000000E+00 -0.00000000000E+00 -0.15999821016E+03  0.15999821016E+03  0.00000000000E+00 0.  1.
         23    2    1    2    0    0 -0.76823658894E+02 -0.19625351876E+03  0.11120624140E+03  0.26913099535E+03  0.12508935342E+03 0.  0.
          5    1    3    3  502    0 -0.10023125932E+03 -0.13011036989E+03  0.11200239568E+03  0.19883918813E+03  0.41800000000E+01 0.  1.
         -5    1    3    3    0  502  0.23407600428E+02 -0.66143148874E+02 -0.79615427525E+00  0.70291807221E+02  0.41800000000E+01 0.  1.
        -11    1    1    2    0    0  0.22842082957E+02  0.96662094008E+01 -0.13224839605E+02  0.28108588378E+02  0.00000000000E+00 0.  1.
         11    1    1    2    0    0  0.53981575937E+02  0.18658730936E+03  0.95873157737E+02  0.21661139612E+03  0.00000000000E+00 0. -1.
</event>
<event>
 7    1  0.8661710E-006  0.1032820E+03  0.7561462E-02  0.1273542E+00
          1   -1    0    0  501    0  0.00000000000E+00  0.00000000000E+00  0.41664083296E+02  0.41664083296E+02  0.00000000000E+00 0. -1.
         -1   -1    0    0    0  501 -0.00000000000E+00 -0.00000000000E+00 -0.47950902409E+03  0.47950902409E+03  0.00000000000E+00 0.  1.
         23    2    1    2    0    0 -0.80213613780E+02 -0.49092791014E+02 -0.28641586425E+03  0.32638250804E+03  0.12508864177E+03 0.  0.
          5    1    3    3  502    0 -0.88435532285E+02 -0.39084911575E+02 -0.29488027034E+03  0.31035515127E+03  0.41800000000E+01 0.  1.
         -5    1    3    3    0  502  0.82219185054E+01 -0.10007879439E+02  0.84644060912E+01  0.16027356777E+02  0.41800000000E+01 0.  1.
        -11    1    1    2    0    0  0.47429420848E+02  0.17237715786E+02 -0.13831724402E+03  0.14723569133E+03  0.00000000000E+00 0.  1.
         11    1    1    2    0    0  0.32784192932E+02  0.31855075228E+02 -0.13111832528E+02  0.47554908014E+02  0.00000000000E+00 0. -1.
</event>
<event>
 7    1  0.8661710E-006  0.9422748E+02  0.7561462E-02  0.1292926E+00
         -1   -1    0    0    0  501 -0.00000000000E+00  0.00000000000E+00  0.15221176117E+03  0.15221176117E+03  0.00000000000E+00 0.  1.
          1   -1    0    0  501    0  0.00000000000E+00 -0.00000000000E+00 -0.82032524281E+02  0.82032524281E+02  0.00000000000E+00 0. -1.
         23    2    1    2    0    0  0.49309021414E+01 -0.25009640218E+02  0.39545200510E+02  0.13364598696E+03  0.12509049144E+03 0.  0.
          5    1    3    3  502    0 -0.38524182605E+02  0.70213400988E+01 -0.27079765847E+02  0.47793283843E+02  0.41800000000E+01 0. -1.
         -5    1    3    3    0  502  0.43455084747E+02 -0.32030980317E+02  0.66624966358E+02  0.85852703118E+02  0.41800000000E+01 0. -1.
        -11    1    1    2    0    0  0.28499072190E+02  0.46962916955E+02  0.24449989803E+02  0.60129150052E+02  0.00000000000E+00 0.  1.
         11    1    1    2    0    0 -0.33429974332E+02 -0.21953276737E+02  0.61840465759E+01  0.40469148439E+02  0.00000000000E+00 0. -1.
</event>
<event>
 7    1  0.8661710E-006  0.1248958E+03  0.7561462E-02  0.1235232E+00
          3   -1    0    0  501    0  0.00000000000E+00  0.00000000000E+00  0.23226684415E+03  0.23226684415E+03  0.00000000000E+00 0. -1.
         -3   -1    0    0    0  501 -0.00000000000E+00 -0.00000000000E+00 -0.13973127297E+03  0.13973127297E+03  0.00000000000E+00 0.  1.
         23    2    1    2    0    0  0.81333460134E+02  0.72040765218E+01 -0.72993249591E+02  0.16625617974E+03  0.12508426103E+03 0.  0.
          5    1    3    3  502    0  0.81512843116E+02 -0.35520130282E+02 -0.83513464888E+02  0.12205734089E+03  0.41800000000E+01 0.  1.
         -5    1    3    3    0  502 -0.17938298168E+00  0.42724206803E+02  0.10520215297E+02  0.44198838844E+02  0.41800000000E+01 0.  1.
        -11    1    1    2    0    0  0.18020285566E+02 -0.39155545536E+01  0.95191337842E+01  0.20752738792E+02  0.00000000000E+00 0.  1.
         11    1    1    2    0    0 -0.99353745700E+02 -0.32885219682E+01  0.15600968699E+03  0.18498919859E+03  0.00000000000E+00 0. -1.
</event>
<event>
 7    1  0.8661710E-006  0.1387657E+03  0.7561462E-02  0.1214999E+00
          4   -1    0    0  501    0  0.00000000000E+00  0.00000000000E+00  0.19199817012E+03  0.19199817012E+03  0.00000000000E+00 0. -1.
         -4   -1    0    0    0  501 -0.00000000000E+00 -0.00000000000E+00 -0.12669123719E+03  0.12669123719E+03  0.00000000000E+00 0.  1.
         23    2    1    2    0    0 -0.88140752930E+02  0.63007255980E+02  0.53499198893E+01  0.16557509968E+03  0.12509110823E+03 0.  0.
          5    1    3    3  502    0  0.95091684618E+01  0.57688229068E+02 -0.24069912584E+02  0.63365520195E+02  0.41800000000E+01 0.  1.
         -5    1    3    3    0  502 -0.97649921391E+02  0.53190269118E+01  0.29419832473E+02  0.10220957948E+03  0.41800000000E+01 0.  1.
        -11    1    1    2    0    0  0.43916764272E+02  0.16615894127E+00 -0.14173075712E+02  0.46147436202E+02  0.00000000000E+00 0.  1.
         11    1    1    2    0    0  0.44223988658E+02 -0.63173414921E+02  0.74130088749E+02  0.10696687143E+03  0.00000000000E+00 0. -1.
</event>
<event>
 7    1  0.8661710E-006  0.2196215E+03  0.7561462E-02  0.1134166E+00
         -2   -1    0    0    0  501 -0.00000000000E+00  0.00000000000E+00  0.66999556367E+02  0.66999556367E+02  0.00000000000E+00 0.  1.
          2   -1    0    0  501    0  0.00000000000E+00 -0.00000000000E+00 -0.73440987620E+03  0.73440987620E+03  0.00000000000E+00 0. -1.
         23    2    1    2    0    0 -0.13246058674E+03 -0.13814870887E+03 -0.29597551045E+03  0.37400575387E+03  0.12509167974E+03 0.  0.
          5    1    3    3  502    0 -0.17575438189E+01  0.21473317505E+02 -0.34930320983E+02  0.41252782317E+02  0.41800000000E+01 0.  1.
         -5    1    3    3    0  502 -0.13070304292E+03 -0.15962202637E+03 -0.26104518947E+03  0.33275297155E+03  0.41800000000E+01 0.  1.
        -11    1    1    2    0    0  0.10620827504E+02  0.71076802600E+02 -0.14075377269E+03  0.15803904065E+03  0.00000000000E+00 0.  1.
         11    1    1    2    0    0  0.12183975923E+03  0.67071906266E+02 -0.23068103670E+03  0.26936463805E+03  0.00000000000E+00 0. -1.
</event>
<event>
 7    1  0.8661710E-006  0.1772241E+03  0.7561462E-02  0.1170517E+00
         -2   -1    0    0    0  501 -0.00000000000E+00  0.00000000000E+00  0.56227600709E+03  0.56227600709E+03  0.00000000000E+00 0.  1.
          2   -1    0    0  501    0  0.00000000000E+00 -0.00000000000E+00 -0.58341693799E+02  0.58341693799E+02  0.00000000000E+00 0. -1.
         23    2    1    2    0    0 -0.95757553531E+02  0.10682652468E+03  0.23464048093E+03  0.30213283691E+03  0.12508669161E+03 0.  0.
          5    1    3    3  502    0 -0.28256788216E+02 -0.25706532809E+02  0.72592103824E+02  0.82136215197E+02  0.41800000000E+01 0.  1.
         -5    1    3    3    0  502 -0.67500765315E+02  0.13253305749E+03  0.16204837710E+03  0.21999662172E+03  0.41800000000E+01 0.  1.
        -11    1    1    2    0    0  0.38209383295E+01 -0.66878928121E+02  0.13703008130E+03  0.15252748531E+03  0.00000000000E+00 0.  1.
         11    1    1    2    0    0  0.91936615202E+02 -0.39947596557E+02  0.13226375107E+03  0.16595737866E+03  0.00000000000E+00 0. -1.
</event>
<event>
 7    1  0.8661710E-006  0.1078091E+03  0.7561462E-02  0.1264682E+00
          1   -1    0    0  501    0  0.00000000000E+00  0.00000000000E+00  0.30391196302E+03  0.30391196302E+03  0.00000000000E+00 0. -1.
         -1   -1    0    0    0  501 -0.00000000000E+00 -0.00000000000E+00 -0.45034153988E+02  0.45034153988E+02  0.00000000000E+00 0.  1.
         23    2    1    2    0    0  0.13001520177E+02 -0.22705514376E+02  0.89323153915E+02  0.15591727104E+03  0.12508792777E+03 0.  0.
          5    1    3    3  502    0  0.68689646817E+02 -0.44267628046E+01  0.45544854290E+02  0.82641817266E+02  0.41800000000E+01 0. -1.
         -5    1    3    3    0  502 -0.55688126639E+02 -0.18278751571E+02  0.43778299625E+02  0.73275453773E+02  0.41800000000E+01 0. -1.
        -11    1    1    2    0    0 -0.44907729880E+02 -0.55891677824E+01  0.11636242412E+03  0.12485254001E+03  0.00000000000E+00 0. -1.
         11    1    1    2    0    0  0.31906209703E+02  0.28294682158E+02  0.53192231002E+02  0.68176305964E+02  0.00000000000E+00 0.  1.
</event>
<event>
 7    1  0.8661710E-006  0.1749545E+03  0.7561462E-02  0.1172777E+00
         -2   -1    0    0    0  501 -0.00000000000E+00  0.00000000000E+00  0.38577226324E+02  0.38577226324E+02  0.00000000000E+00 0.  1.
          2   -1    0    0  501    0  0.00000000000E+00 -0.00000000000E+00 -0.92773885900E+03  0.92773885900E+03  0.00000000000E+00 0. -1.
         23    2    1    2    0    0 -0.21109366559E+02 -0.15225509248E+03 -0.53839320652E+03  0.57370894929E+03  0.12508994814E+03 0.  0.
          5    1    3    3  502    0 -0.49771663755E+02 -0.62997522099E+02 -0.38950765704E+03  0.39771798249E+03  0.41800000000E+01 0. -1.
         -5    1    3    3    0  502  0.28662297196E+02 -0.89257570380E+02 -0.14888554948E+03  0.17599096680E+03  0.41800000000E+01 0. -1.
        -11    1    1    2    0    0 -0.27738207909E+02  0.18664928026E+02 -0.54011152052E+02  0.63521588946E+02  0.00000000000E+00 0.  1.
         11    1    1    2    0    0  0.48847574468E+02  0.13359016445E+03 -0.29675727410E+03  0.32908554709E+03  0.00000000000E+00 0. -1.
</event>
<event>
 7    1  0.8661710E-006  0.1086478E+03  0.7561462E-02  0.1263095E+00
         -2   -1    0    0    0  501 -0.00000000000E+00  0.00000000000E+00  0.20298054657E+02  0.20298054657E+02  0.00000000000E+00 0. -1.
          2   -1    0    0  501    0  0.00000000000E+00 -0.00000000000E+00 -0.62078123402E+03  0.62078123402E+03  0.00000000000E+00 0.  1.
         23    2    1    2    0    0  0.10825745783E+02  0.11557357885E+02 -0.26721327113E+03  0.29546769864E+03  0.12508980526E+03 0.  0.
          5    1    3    3  502    0 -0.39046568437E+02 -0.38623646898E+02 -0.11010342255E+03  0.12311237413E+03  0.41800000000E+01 0.  1.
         -5    1    3    3    0  502  0.49872314220E+02  0.50181004783E+02 -0.15710984857E+03  0.17235532451E+03  0.41800000000E+01 0.  1.
        -11    1    1    2    0    0  0.55575510907E+01 -0.49606191379E+02 -0.17092998226E+03  0.17806942307E+03  0.00000000000E+00 0.  1.
         11    1    1    2    0    0 -0.16383296873E+02  0.38048833494E+02 -0.16233992598E+03  0.16754216697E+03  0.00000000000E+00 0. -1.
</event>
<event>
 7    1  0.8661710E-006  0.1549840E+03  0.7561462E-02  0.1194479E+00
         -1   -1    0    0    0  501 -0.00000000000E+00  0.00000000000E+00  0.35937024462E+02  0.35937024462E+02  0.00000000000E+00 0.  1.
          1   -1    0    0  501    0  0.00000000000E+00 -0.00000000000E+00 -0.88091087263E+03  0.88091087263E+03  0.00000000000E+00 0. -1.
         23    2    1    2    0    0 -0.11735379689E+03 -0.53268129242E+02 -0.29650104150E+03  0.34631442243E+03  0.12414267733E+03 0.  0.
          5    1    3    3  502    0  0.19117261963E+02 -0.20734825353E+02 -0.10551980179E+03  0.10930372206E+03  0.41800000000E+01 0.  1.
         -5    1    3    3    0  502 -0.13647105885E+03 -0.32533303889E+02 -0.19098123972E+03  0.23701070037E+03  0.41800000000E+01 0.  1.
        -11    1    1    2    0    0 -0.79977601087E+00  0.17686332611E+02 -0.15717201797E+02  0.23674383523E+02  0.00000000000E+00 0.  1.
         11    1    1    2    0    0  0.11815357290E+03  0.35581796631E+02 -0.53275560487E+03  0.54685909114E+03  0.00000000000E+00 0. -1.
</event>
<event>
 6    1  0.8661710E-006  0.1038644E+03  0.7561462E-02  0.1272373E+00
         -1   -1    0    0    0  501 -0.00000000000E+00  0.00000000000E+00  0.39666297796E+03  0.39666297796E+03  0.00000000000E+00 0.  1.
          1   -1    0    0  501    0  0.00000000000E+00 -0.00000000000E+00 -0.45238455489E+02  0.45238455489E+02  0.00000000000E+00 0. -1.
          5    1    1    2  502    0 -0.62724431286E+02 -0.14983320549E+02  0.58980233561E+02  0.87492825567E+02  0.41800000000E+01 0. -1.
         -5    1    1    2    0  502  0.42584808127E+02  0.20557511795E+02  0.23172539666E+03  0.23653796531E+03  0.41800000000E+01 0.  1.
        -11    1    1    2    0    0  0.27587637657E+02  0.40476308221E+02  0.50020996809E+02  0.70010780602E+02  0.00000000000E+00 0. -1.
         11    1    1    2    0    0 -0.74480144985E+01 -0.46050499467E+02  0.10697895441E+02  0.47859861972E+02  0.00000000000E+00 0.  1.
</event>
<event>
 7    1  0.8661710E-006  0.2163942E+03  0.7561462E-02  0.1136600E+00
         -1   -1    0    0    0  501 -0.00000000000E+00  0.00000000000E+00  0.26433107343E+03  0.26433107343E+03  0.00000000000E+00 0.  1.
          1   -1    0    0  501    0  0.00000000000E+00 -0.00000000000E+00 -0.25660595717E+03  0.25660595717E+03  0.00000000000E+00 0. -1.
         23    2    1    2    0    0  0.13369015531E+03  0.14755221515E+03  0.13323599138E+03  0.27026580951E+03  0.12508822714E+03 0.  0.
          5    1    3    3  502    0 -0.13578925126E+02  0.41028900412E+02  0.60461731757E+02  0.74436894640E+02  0.41800000000E+01 0. -1.
         -5    1    3    3    0  502  0.14726908044E+03  0.10652331474E+03  0.72774259626E+02  0.19582891487E+03  0.41800000000E+01 0. -1.
        -11    1    1    2    0    0 -0.17859944087E+02 -0.59339238560E+02 -0.59097288499E+01  0.62249881371E+02  0.00000000000E+00 0.  1.
         11    1    1    2    0    0 -0.11583021122E+03 -0.88212976588E+02 -0.11960114627E+03  0.18842133972E+03  0.00000000000E+00 0. -1.
</event>
<event>
 6    1  0.8661710E-006  0.1086643E+03  0.7561462E-02  0.1263064E+00
         -2   -1    0    0    0  501 -0.00000000000E+00  0.00000000000E+00  0.19332774730E+02  0.19332774730E+02  0.00000000000E+00 0.  1.
          2   -1    0    0  501    0  0.00000000000E+00 -0.00000000000E+00 -0.67525892722E+03  0.67525892722E+03  0.00000000000E+00 0. -1.
          5    1    1    2  502    0  0.40905859915E+02  0.10021228609E+03 -0.32472341302E+03  0.34231353906E+03  0.41800000000E+01 0. -1.
         -5    1    1    2    0  502 -0.20361173322E+02 -0.42484853897E+02 -0.76159588670E+02  0.89650965060E+02  0.41800000000E+01 0.  1.
        -11    1    1    2    0    0 -0.91294696190E+01 -0.15701976745E+02 -0.55847525059E+02  0.58726870719E+02  0.00000000000E+00 0. -1.
         11    1    1    2    0    0 -0.11415216974E+02 -0.42025455443E+02 -0.19919562574E+03  0.20390032712E+03  0.00000000000E+00 0.  1.
</event>
<event>
 7    1  0.8661710E-006  0.1052501E+03  0.7561462E-02  0.1269628E+00
         -1   -1    0    0    0  501 -0.00000000000E+00  0.00000000000E+00  0.58408025048E+02  0.58408025048E+02  0.00000000000E+00 0.  1.
          1   -1    0    0  501    0  0.00000000000E+00 -0.00000000000E+00 -0.35880535491E+03  0.35880535491E+03  0.00000000000E+00 0. -1.
         23    2    1    2    0    0  0.21814382049E+02  0.51315631559E+02 -0.49522446395E+02  0.14570913652E+03  0.12517794719E+03 0.  0.
          5    1    3    3  502    0 -0.22991387296E+02 -0.30101784853E+02  0.41123277481E+01  0.38328905289E+02  0.41800000000E+01 0.  1.
         -5    1    3    3    0  502  0.44805769345E+02  0.81417416412E+02 -0.53634774143E+02  0.10738023123E+03  0.41800000000E+01 0.  1.
        -11    1    1    2    0    0  0.11871908669E+02 -0.43083092010E+02 -0.47591773951E+02  0.65284546260E+02  0.00000000000E+00 0.  1.
         11    1    1    2    0    0 -0.33686290717E+02 -0.82325395490E+01 -0.20328310951E+03  0.20621969718E+03  0.00000000000E+00 0. -1.
</event>
<event>
 7    1  0.8661710E-006  0.1671188E+03  0.7561462E-02  0.1180886E+00
          2   -1    0    0  501    0  0.00000000000E+00  0.00000000000E+00  0.63620255515E+02  0.63620255515E+02  0.00000000000E+00 0. -1.
         -2   -1    0    0    0  501 -0.00000000000E+00 -0.00000000000E+00 -0.58138691579E+03  0.58138691579E+03  0.00000000000E+00 0.  1.
         23    2    1    2    0    0 -0.23940151159E+02  0.14260598319E+03 -0.37997458037E+03  0.42536788997E+03  0.12509021868E+03 0.  0.
          5    1    3    3  502    0  0.49357082535E+02  0.65073772289E+02 -0.13056494812E+03  0.15406295958E+03  0.41800000000E+01 0. -1.
         -5    1    3    3    0  502 -0.73297233694E+02  0.77532210903E+02 -0.24940963226E+03  0.27130493040E+03  0.41800000000E+01 0. -1.
        -11    1    1    2    0    0  0.78597281742E+01 -0.97074690068E+02 -0.30621812199E+02  0.10209292905E+03  0.00000000000E+00 0. -1.
         11    1    1    2    0    0  0.16080422985E+02 -0.45531293123E+02 -0.10717026770E+03  0.11754635229E+03  0.00000000000E+00 0.  1.
</event>
<event>
 7    1  0.8661710E-006  0.1008990E+03  0.7561462E-02  0.1278417E+00
          2   -1    0    0  501    0  0.00000000000E+00  0.00000000000E+00  0.13119518136E+03  0.13119518136E+03  0.00000000000E+00 0. -1.
         -2   -1    0    0    0  501 -0.00000000000E+00 -0.00000000000E+00 -0.10492354447E+03  0.10492354447E+03  0.00000000000E+00 0.  1.
         23    2    1    2    0    0 -0.28583251025E+02  0.16717863007E+02 -0.15813184682E+02  0.13036324793E+03  0.12509208775E+03 0.  0.
          5    1    3    3  502    0 -0.74306169365E+02  0.46880476153E+01  0.11728380177E+02  0.75487826155E+02  0.41800000000E+01 0.  1.
         -5    1    3    3    0  502  0.45722918340E+02  0.12029815392E+02 -0.27541564859E+02  0.54875421773E+02  0.41800000000E+01 0.  1.
        -11    1    1    2    0    0 -0.24500046188E+02 -0.15183986407E+01  0.44133798430E+02  0.50500989708E+02  0.00000000000E+00 0.  1.
         11    1    1    2    0    0  0.53083297213E+02 -0.15199464366E+02 -0.20489768608E+01  0.55254488199E+02  0.00000000000E+00 0. -1.
</event>
<event>
 7    1  0.8661710E-006  0.1134698E+03  0.7561462E-02  0.1254276E+00
          1   -1    0    0  501    0  0.00000000000E+00  0.00000000000E+00  0.31782851609E+03  0.31782851609E+03  0.00000000000E+00 0. -1.
         -1   -1    0    0    0  501 -0.00000000000E+00 -0.00000000000E+00 -0.55544578917E+02  0.55544578917E+02  0.00000000000E+00 0.  1.
         23    2    1    2    0    0  0.37205907738E+02  0.29340006925E+02  0.61716173204E+02  0.14731612212E+03  0.12509211895E+03 0.  0.
          5    1    3    3  502    0 -0.96204759575E+01  0.64859088169E+02  0.59043256460E+02  0.88333648227E+02  0.41800000000E+01 0. -1.
         -5    1    3    3    0  502  0.46826383696E+02 -0.35519081244E+02  0.26729167444E+01  0.58982473892E+02  0.41800000000E+01 0. -1.
        -11    1    1    2    0    0 -0.31130966732E+02 -0.61850218715E+02  0.15489127910E+03  0.16966406510E+03  0.00000000000E+00 0.  1.
         11    1    1    2    0    0 -0.60749410066E+01  0.32510211790E+02  0.45676484868E+02  0.56392907787E+02  0.00000000000E+00 0. -1.
</event>
<event>
 7    1  0.8661710E-006  0.9596845E+02  0.7561462E-02  0.1289010E+00
          1   -1    0    0  501    0  0.00000000000E+00  0.00000000000E+00  0.23816195809E+03  0.23816195809E+03  0.00000000000E+00 0. -1.
         -1   -1    0    0    0  501 -0.00000000000E+00 -0.00000000000E+00 -0.49078574966E+02  0.49078574966E+02  0.00000000000E+00 0.  1.
         23    2    1    2    0    0 -0.16796366764E+01  0.24381550473E+02  0.82792227208E+02  0.14480117071E+03  0.11625637604E+03 0.  0.
          5    1    3    3  502    0  0.52081877854E+02  0.23231749499E+01  0.13009367070E+02  0.53894667400E+02  0.41800000000E+01 0. -1.
         -5    1    3    3    0  502 -0.53761514530E+02  0.22058375523E+02  0.69782860139E+02  0.90906503312E+02  0.41800000000E+01 0.  1.
        -11    1    1    2    0    0  0.26346644597E+02 -0.43027818863E+02  0.98315811370E+02  0.11050582629E+03  0.00000000000E+00 0. -1.
         11    1    1    2    0    0 -0.24667007920E+02  0.18646268390E+02  0.79753445460E+01  0.31933536059E+02  0.00000000000E+00 0.  1.
</event>
<event>
 7    1  0.8661710E-006  0.1320982E+03  0.7561462E-02  0.1224375E+00
         -1   -1    0    0    0  501 -0.00000000000E+00  0.00000000000E+00  0.10032808901E+03  0.10032808901E+03  0.00000000000E+00 0.  1.
          1   -1    0    0  501    0  0.00000000000E+00 -0.00000000000E+00 -0.25811651795E+03  0.25811651795E+03  0.00000000000E+00 0. -1.
         23    2    1    2    0    0 -0.72171013824E+02  0.73288222067E+02 -0.19148570883E+02  0.16288668978E+03  0.12484224930E+03 0.  0.
          5    1    3    3  502    0  0.14400794179E+02  0.18195559441E+02 -0.50311587448E+02  0.55562482737E+02  0.41800000000E+01 0.  1.
         -5    1    3    3    0  502 -0.86571808002E+02  0.55092662625E+02  0.31163016565E+02  0.10732420704E+03  0.41800000000E+01 0.  1.
        -11    1    1    2    0    0  0.57560884118E+02 -0.95397216362E+02 -0.11241419043E+03  0.15827455411E+03  0.00000000000E+00 0.  1.
         11    1    1    2    0    0  0.14610129706E+02  0.22108994295E+02 -0.26225667631E+02  0.37283363065E+02  0.00000000000E+00 0. -1.
</event>
<event>
 7    1  0.8661710E-006  0.1149454E+03  0.7561462E-02  0.1251677E+00
          2   -1    0    0  501    0  0.00000000000E+00  0.00000000000E+00  0.16352180676E+03  0.16352180676E+03  0.00000000000E+00 0. -1.
         -2   -1    0    0    0  501 -0.00000000000E+00 -0.00000000000E+00 -0.24055865803E+03  0.24055865803E+03  0.00000000000E+00 0.  1.
         23    2    1    2    0    0 -0.57721210970E+02  0.98515994589E+02 -0.16294948950E+03  0.23502654645E+03  0.12509117484E+03 0.  0.
          5    1    3    3  502    0 -0.39257409164E+02  0.62957109687E+02 -0.17731529825E+03  0.19225745558E+03  0.41800000000E+01 0. -1.
         -5    1    3    3    0  502 -0.18463801806E+02  0.35558884902E+02  0.14365808747E+02  0.42769090867E+02  0.41800000000E+01 0. -1.
        -11    1    1    2    0    0  0.43095229147E+02 -0.58278282270E+02 -0.64771465173E+00  0.72484318951E+02  0.00000000000E+00 0.  1.
         11    1    1    2    0    0  0.14625981823E+02 -0.40237712319E+02  0.86560352875E+02  0.96569599392E+02  0.00000000000E+00 0. -1.
</event>
<event>
 7    1  0.8661710E-006  0.1166854E+03  0.7561462E-02  0.1248667E+00
         -1   -1    0    0    0  501 -0.00000000000E+00  0.00000000000E+00  0.34812199537E+03  0.34812199537E+03  0.00000000000E+00 0.  1.
          1   -1    0    0  501    0  0.00000000000E+00 -0.00000000000E+00 -0.53427624059E+02  0.53427624059E+02  0.00000000000E+00 0. -1.
         23    2    1    2    0    0  0.74436271036E+02  0.58440572959E+01  0.21327662988E+03  0.25827962663E+03  0.12508610326E+03 0.  0.
          5    1    3    3  502    0  0.12000196998E+02 -0.52796236976E+02  0.11916814905E+03  0.13095788451E+03  0.41800000000E+01 0.  1.
         -5    1    3    3    0  502  0.62436074038E+02  0.58640294272E+02  0.94108480825E+02  0.12732174212E+03  0.41800000000E+01 0.  1.
        -11    1    1    2    0    0 -0.61542647187E+02 -0.28048118181E+02  0.93090246839E+02  0.11506514856E+03  0.00000000000E+00 0.  1.
         11    1    1    2    0    0 -0.12893623849E+02  0.22204060885E+02 -0.11672505410E+02  0.28204844234E+02  0.00000000000E+00 0. -1.
</event>
<event>
 7    1  0.8661710E-006  0.1039342E+03  0.7561462E-02  0.1272234E+00
          2   -1    0    0  501    0  0.00000000000E+00  0.00000000000E+00  0.22962532334E+02  0.22962532334E+02  0.00000000000E+00 0. -1.
         -2   -1    0    0    0  501 -0.00000000000E+00 -0.00000000000E+00 -0.72568253765E+03  0.72568253765E+03  0.00000000000E+00 0.  1.
         23    2    1    2    0    0  0.48106250095E+02 -0.27763016311E+02 -0.51163602512E+03  0.52962565069E+03  0.12508761447E+03 0.  0.
          5    1    3    3  502    0  0.71250498573E+02  0.27377028923E+02 -0.30842493644E+03  0.31775705984E+03  0.41800000000E+01 0. -1.
         -5    1    3    3    0  502 -0.23144248478E+02 -0.55140045234E+02 -0.20321108868E+03  0.21186859085E+03  0.41800000000E+01 0. -1.
        -11    1    1    2    0    0 -0.94112068792E+00  0.24157586967E+02 -0.21697476837E+01  0.24273082236E+02  0.00000000000E+00 0. -1.
         11    1    1    2    0    0 -0.47165129407E+02  0.36054293442E+01 -0.18891423251E+03  0.19474633706E+03  0.00000000000E+00 0.  1.
</event>
<event>
 7    1  0.8661710E-006  0.8658878E+02  0.7561462E-02  0.1311329E+00
          1   -1    0    0  501    0  0.00000000000E+00  0.00000000000E+00  0.11284866343E+03  0.11284866343E+03  0.00000000000E+00 0. -1.
         -1   -1    0    0    0  501 -0.00000000000E+00 -0.00000000000E+00 -0.47326918041E+03  0.47326918041E+03  0.00000000000E+00 0.  1.
         23    2    1    2    0    0  0.37648087342E+02  0.13064281464E+02 -0.44167292746E+03  0.45780084552E+03  0.11365995500E+03 0.  0.
          5    1    3    3  502    0  0.47998351372E+00  0.44598776118E+02 -0.71257864237E+02  0.84169096651E+02  0.41800000000E+01 0. -1.
         -5    1    3    3    0  502  0.37168103828E+02 -0.31534494654E+02 -0.37041506323E+03  0.37363174887E+03  0.41800000000E+01 0.  1.
        -11    1    1    2    0    0 -0.53860992993E+02 -0.24946664810E+02  0.18120114215E+02  0.62061914171E+02  0.00000000000E+00 0. -1.
         11    1    1    2    0    0  0.16212905651E+02  0.11882383347E+02  0.63132296270E+02  0.66255084152E+02  0.00000000000E+00 0.  1.
</event>
<event>
 7    1  0.8661710E-006  0.3113368E+03  0.7561462E-02  0.1079707E+00
         -1   -1    0    0    0  501 -0.00000000000E+00  0.00000000000E+00  0.75815122997E+03  0.75815122997E+03  0.00000000000E+00 0.  1.
          1   -1    0    0  501    0  0.00000000000E+00 -0.00000000000E+00 -0.14476388706E+03  0.14476388706E+03  0.00000000000E+00 0. -1.
         23    2    1    2    0    0 -0.29191536267E+03  0.87480675471E+02  0.21553113679E+03  0.39366334060E+03  0.12509878999E+03 0.  0.
          5    1    3    3  502    0 -0.21401693297E+03  0.23305400258E+02  0.92170043802E+02  0.23422036345E+03  0.41800000000E+01 0.  1.
         -5    1    3    3    0  502 -0.77898429702E+02  0.64175275214E+02  0.12336109298E+03  0.15944297715E+03  0.41800000000E+01 0.  1.
        -11    1    1    2    0    0  0.11723557627E+03 -0.51198301975E+02  0.23561998023E+03  0.26810860029E+03  0.00000000000E+00 0.  1.
         11    1    1    2    0    0  0.17467978640E+03 -0.36282373497E+02  0.16223622590E+03  0.24114317614E+03  0.00000000000E+00 0. -1.
</event>
<event>
 7    1  0.8661710E-006  0.9541843E+02  0.7561462E-02  0.1290236E+00
         -2   -1    0    0    0  501 -0.00000000000E+00  0.00000000000E+00  0.47568293244E+02  0.47568293244E+02  0.00000000000E+00 0.  1.
          2   -1    0    0  501    0  0.00000000000E+00 -0.00000000000E+00 -0.41240286828E+03  0.41240286828E+03  0.00000000000E+00 0. -1.
         23    2    1    2    0    0  0.36216409876E+02 -0.63623830599E+02 -0.11740576560E+03  0.18652450794E+03  0.12509059958E+03 0.  0.
          5    1    3    3  502    0  0.26955825613E+02 -0.31125575035E+02 -0.13978221659E+03  0.14578051458E+03  0.41800000000E+01 0. -1.
         -5    1    3    3    0  502  0.92605842633E+01 -0.32498255564E+02  0.22376450999E+02  0.40743993360E+02  0.41800000000E+01 0. -1.
        -11    1    1    2    0    0 -0.65097369338E+02  0.31880557130E+02 -0.17227198630E+03  0.18690017304E+03  0.00000000000E+00 0.  1.
         11    1    1    2    0    0  0.28880959462E+02  0.31743273469E+02 -0.75156823134E+02  0.86546480538E+02  0.00000000000E+00 0. -1.
</event>
<event>
 7    1  0.8661710E-006  0.1062330E+03  0.7561462E-02  0.1267709E+00
          1   -1    0    0  501    0  0.00000000000E+00  0.00000000000E+00  0.72562615414E+02  0.72562615414E+02  0.00000000000E+00 0. -1.
         -1   -1    0    0    0  501 -0.00000000000E+00 -0.00000000000E+00 -0.24543558961E+03  0.24543558961E+03  0.00000000000E+00 0.  1.
         23    2    1    2    0    0  0.20049217522E+02  0.23409711551E+02 -0.18169303710E+03  0.21865029919E+03  0.11766736119E+03 0.  0.
          5    1    3    3  502    0  0.12832688148E+02  0.69122652707E+02 -0.78409174343E+02  0.10539492409E+03  0.41800000000E+01 0. -1.
         -5    1    3    3    0  502  0.72165293741E+01 -0.45712941156E+02 -0.10328386275E+03  0.11325537511E+03  0.41800000000E+01 0.  1.
        -11    1    1    2    0    0 -0.27885690942E+02 -0.55728132709E+02  0.17974162704E+02  0.64856048750E+02  0.00000000000E+00 0.  1.
         11    1    1    2    0    0  0.78364734202E+01  0.32318421158E+02 -0.91540998083E+01  0.34491857084E+02  0.00000000000E+00 0. -1.
</event>
<event>
 7    1  0.8661710E-006  0.1095794E+03  0.7561462E-02  0.1261351E+00
         -1   -1    0    0    0  501 -0.00000000000E+00  0.00000000000E+00  0.14235291402E+02  0.14235291402E+02  0.00000000000E+00 0.  1.
          1   -1    0    0  501    0  0.00000000000E+00 -0.00000000000E+00 -0.90184749664E+03  0.90184749664E+03  0.00000000000E+00 0. -1.
         23    2    1    2    0    0 -0.32773422865E+02 -0.11291077196E+00 -0.48576552664E+03  0.50267498706E+03  0.12505952881E+03 0.  0.
          5    1    3    3  502    0  0.33116688692E+02  0.34205656842E+02 -0.27589326966E+03  0.28000234048E+03  0.41800000000E+01 0.  1.
         -5    1    3    3    0  502 -0.65890111557E+02 -0.34318567614E+02 -0.20987225698E+03  0.22267264658E+03  0.41800000000E+01 0.  1.
        -11    1    1    2    0    0  0.33537442348E+02  0.42737081890E+02 -0.21457514459E+03  0.22134523009E+03  0.00000000000E+00 0. -1.
         11    1    1    2    0    0 -0.76401948336E+00 -0.42624171118E+02 -0.18727153401E+03  0.19206257090E+03  0.00000000000E+00 0.  1.
</event>
<event>
 6    1  0.8661710E-006  0.1530997E+03  0.7561462E-02  0.1196715E+00
         -2   -1    0    0    0  501 -0.00000000000E+00  0.00000000000E+00  0.84734901420E+03  0.84734901420E+03  0.00000000000E+00 0.  1.
          2   -1    0    0  501    0  0.00000000000E+00 -0.00000000000E+00 -0.73789529621E+02  0.73789529621E+02  0.00000000000E+00 0. -1.
          5    1    1    2  502    0  0.59428454619E+02  0.61671050077E+01  0.22472391192E+03  0.23256844883E+03  0.41800000000E+01 0. -1.
         -5    1    1    2    0  502 -0.84312241350E+02  0.83917655783E+02  0.54526138233E+03  0.55810229748E+03  0.41800000000E+01 0.  1.
        -11    1    1    2    0    0 -0.23437861863E+02  0.17505672063E+01  0.11933656417E+02  0.26359249036E+02  0.00000000000E+00 0.  1.
         11    1    1    2    0    0  0.48321648594E+02 -0.91835327997E+02 -0.83594660914E+01  0.10410854847E+03  0.00000000000E+00 0. -1.
</event>
<event>
 7    1  0.8661710E-006  0.1045948E+03  0.7561462E-02  0.1270920E+00
         -1   -1    0    0    0  501 -0.00000000000E+00  0.00000000000E+00  0.97390431371E+02  0.97390431371E+02  0.00000000000E+00 0.  1.
          1   -1    0    0  501    0  0.00000000000E+00 -0.00000000000E+00 -0.22495724736E+03  0.22495724736E+03  0.00000000000E+00 0. -1.
         23    2    1    2    0    0 -0.37830321342E+02 -0.37844270648E+02  0.23412240900E+02  0.13805241075E+03  0.12508802124E+03 0.  0.
          5    1    3    3  502    0 -0.76193146035E+02 -0.19920532230E+02  0.44511353607E+02  0.90559130445E+02  0.41800000000E+01 0.  1.
         -5    1    3    3    0  502  0.38362824693E+02 -0.17923738418E+02 -0.21099112707E+02  0.47493280307E+02  0.41800000000E+01 0.  1.
        -11    1    1    2    0    0  0.40026228477E+02  0.56361489239E+02 -0.60341752375E+02  0.91759705290E+02  0.00000000000E+00 0.  1.
         11    1    1    2    0    0 -0.21959071343E+01 -0.18517218591E+02 -0.90637304512E+02  0.92535562686E+02  0.00000000000E+00 0. -1.
</event>
<event>
 7    1  0.8661710E-006  0.1047816E+03  0.7561462E-02  0.1270550E+00
         -1   -1    0    0    0  501 -0.00000000000E+00  0.00000000000E+00  0.15273392458E+02  0.15273392458E+02  0.00000000000E+00 0.  1.
          1   -1    0    0  501    0  0.00000000000E+00 -0.00000000000E+00 -0.80008719492E+03  0.80008719492E+03  0.00000000000E+00 0. -1.
         23    2    1    2    0    0 -0.18115095091E+02  0.10848054979E+02 -0.48208116234E+03  0.49849285802E+03  0.12508815072E+03 0.  0.
          5    1    3    3  502    0  0.48938863633E+02 -0.86479451511E+01 -0.28578098836E+03  0.29010006039E+03  0.41800000000E+01 0.  1.
         -5    1    3    3    0  502 -0.67053958725E+02  0.19496000130E+02 -0.19630017398E+03  0.20839279763E+03  0.41800000000E+01 0.  1.
        -11    1    1    2    0    0 -0.35372796789E+02 -0.12650577530E+01 -0.77942727656E+02  0.85603177034E+02  0.00000000000E+00 0.  1.
         11    1    1    2    0    0  0.53487891881E+02 -0.95829972263E+01 -0.22478991247E+03  0.23126455232E+03  0.00000000000E+00 0. -1.
</event>
<event>
 7    1  0.8661710E-006  0.1045224E+03  0.7561462E-02  0.1271064E+00
          2   -1    0    0  501    0  0.00000000000E+00  0.00000000000E+00  0.25284046868E+03  0.25284046868E+03  0.00000000000E+00 0.  1.
         -2   -1    0    0    0  501 -0.00000000000E+00 -0.00000000000E+00 -0.77869829833E+02  0.77869829833E+02  0.00000000000E+00 0. -1.
         23    2    1    2    0    0  0.11088252455E+02 -0.65131665325E+02  0.24888949823E+02  0.14363218904E+03  0.12508262363E+03 0.  0.
          5    1    3    3  502    0  0.47562232185E+02  0.36217619849E+00 -0.24596140563E+02  0.53709772226E+02  0.41800000000E+01 0.  1.
         -5    1    3    3    0  502 -0.36473979730E+02 -0.65493841524E+02  0.49485090386E+02  0.89922416812E+02  0.41800000000E+01 0.  1.
        -11    1    1    2    0    0  0.10542821954E+02 -0.58184395677E+01 -0.65956926035E+01  0.13729839572E+02  0.00000000000E+00 0. -1.
         11    1    1    2    0    0 -0.21631074409E+02  0.70950104893E+02  0.15667738163E+03  0.17334826990E+03  0.00000000000E+00 0.  1.
</event>
<event>
 7    1  0.8661710E-006  0.1097302E+03  0.7561462E-02  0.1261070E+00
          1   -1    0    0  501    0  0.00000000000E+00  0.00000000000E+00  0.20115769090E+03  0.20115769090E+03  0.00000000000E+00 0. -1.
         -1   -1    0    0    0  501 -0.00000000000E+00 -0.00000000000E+00 -0.68627976073E+02  0.68627976073E+02  0.00000000000E+00 0.  1.
         23    2    1    2    0    0 -0.22418238194E+02 -0.39397709535E+02  0.73768212199E+02  0.15217053722E+03  0.12513738989E+03 0.  0.
          5    1    3    3  502    0 -0.40452353908E+02 -0.70498290627E+02  0.14416993336E+02  0.82654243780E+02  0.41800000000E+01 0.  1.
         -5    1    3    3    0  502  0.18034115713E+02  0.31100581092E+02  0.59351218863E+02  0.69516293445E+02  0.41800000000E+01 0.  1.
        -11    1    1    2    0    0 -0.15732476864E+02 -0.23521623975E+02  0.15844477498E+02  0.32431853014E+02  0.00000000000E+00 0.  1.
         11    1    1    2    0    0  0.38150715059E+02  0.62919333511E+02  0.42917025128E+02  0.85183276731E+02  0.00000000000E+00 0. -1.
</event>
<event>
 7    1  0.8661710E-006  0.9983986E+02  0.7561462E-02  0.1280633E+00
          1   -1    0    0  501    0  0.00000000000E+00  0.00000000000E+00  0.64730059028E+02  0.64730059028E+02  0.00000000000E+00 0. -1.
         -1   -1    0    0    0  501 -0.00000000000E+00 -0.00000000000E+00 -0.23844133627E+03  0.23844133627E+03  0.00000000000E+00 0.  1.
         23    2    1    2    0    0 -0.16735149538E+02 -0.54375265746E+02 -0.70314492138E+02  0.15436445741E+03  0.12509006017E+03 0.  0.
          5    1    3    3  502    0 -0.41883860985E+02  0.61702415413E+01 -0.77368232079E+02  0.88292952305E+02  0.41800000000E+01 0. -1.
         -5    1    3    3    0  502  0.25148711447E+02 -0.60545507287E+02  0.70537399411E+01  0.66071505108E+02  0.41800000000E+01 0. -1.
        -11    1    1    2    0    0  0.23630102300E+02  0.70260101583E+02 -0.42393870269E+02  0.85393816202E+02  0.00000000000E+00 0. -1.
         11    1    1    2    0    0 -0.68949527626E+01 -0.15884835837E+02 -0.61002914834E+02  0.63413121682E+02  0.00000000000E+00 0.  1.
</event>
<event>
 7    1  0.8661710E-006  0.1082928E+03  0.7561462E-02  0.1263764E+00
          1   -1    0    0  501    0  0.00000000000E+00  0.00000000000E+00  0.47297156351E+03  0.47297156351E+03  0.00000000000E+00 0. -1.
         -1   -1    0    0    0  501 -0.00000000000E+00 -0.00000000000E+00 -0.46703158062E+02  0.46703158062E+02  0.00000000000E+00 0.  1.
         23    2    1    2    0    0 -0.48619732294E+02  0.80193823271E+02  0.16689815295E+03  0.22868546107E+03  0.12508844467E+03 0.  0.
          5    1    3    3  502    0 -0.27294838634E+02  0.70296103781E+02  0.18427628500E+03  0.19915263502E+03  0.41800000000E+01 0. -1.
         -5    1    3    3    0  502 -0.21324893660E+02  0.98977194900E+01 -0.17378132056E+02  0.29532826050E+02  0.41800000000E+01 0. -1.
        -11    1    1    2    0    0  0.47647990180E+02 -0.12205196299E+02  0.47123716828E+02  0.68117123196E+02  0.00000000000E+00 0.  1.
         11    1    1    2    0    0  0.97174211472E+00 -0.67988626972E+02  0.21224653567E+03  0.22287213730E+03  0.00000000000E+00 0. -1.
</event>
<event>
 7    1  0.8661710E-006  0.9535087E+02  0.7561462E-02  0.1290388E+00
          1   -1    0    0  501    0  0.00000000000E+00  0.00000000000E+00  0.19071915578E+03  0.19071915578E+03  0.00000000000E+00 0. -1.
         -1   -1    0    0    0  501 -0.00000000000E+00 -0.00000000000E+00 -0.67651045154E+02  0.67651045154E+02  0.00000000000E+00 0.  1.
         23    2    1    2    0    0 -0.37592518441E+00 -0.32779554348E+02  0.63359341862E+02  0.14400287008E+03  0.12509108636E+03 0.  0.
          5    1    3    3  502    0 -0.33370588263E+02  0.18267622412E+02  0.72898974571E+02  0.82334895902E+02  0.41800000000E+01 0. -1.
         -5    1    3    3    0  502  0.32994663078E+02 -0.51047176760E+02 -0.95396327093E+01  0.61667974177E+02  0.41800000000E+01 0. -1.
        -11    1    1    2    0    0  0.42504011477E+02  0.22702940750E+02  0.51037563029E+02  0.70191504830E+02  0.00000000000E+00 0. -1.
         11    1    1    2    0    0 -0.42128086292E+02  0.10076613598E+02  0.86712057366E+01  0.44175826027E+02  0.00000000000E+00 0.  1.
</event>
<event>
 7    1  0.8661710E-006  0.8524151E+02  0.7561462E-02  0.1314802E+00
          2   -1    0    0  501    0  0.00000000000E+00  0.00000000000E+00  0.22054032846E+03  0.22054032846E+03  0.00000000000E+00 0. -1.
         -2   -1    0    0    0  501 -0.00000000000E+00 -0.00000000000E+00 -0.61524400878E+02  0.61524400878E+02  0.00000000000E+00 0.  1.
         23    2    1    2    0    0  0.38384261939E+02 -0.78142801280E+01  0.72302298869E+02  0.14970090859E+03  0.12509326550E+03 0.  0.
          5    1    3    3  502    0 -0.32032578465E+02  0.34202685290E+02  0.38955809453E+02  0.61081398595E+02  0.41800000000E+01 0. -1.
         -5    1    3    3    0  502  0.70416840404E+02 -0.42016965418E+02  0.33346489415E+02  0.88619509994E+02  0.41800000000E+01 0. -1.
        -11    1    1    2    0    0 -0.18137128797E+02  0.10418157928E+02 -0.16817814005E+02  0.26839007499E+02  0.00000000000E+00 0.  1.
         11    1    1    2    0    0 -0.20247133142E+02 -0.26038777997E+01  0.10353144272E+03  0.10552481325E+03  0.00000000000E+00 0. -1.
</event>
<event>
 7    1  0.8661710E-006  0.1973291E+03  0.7561462E-02  0.1152012E+00
         -3   -1    0    0    0  501 -0.00000000000E+00  0.00000000000E+00  0.34180057732E+03  0.34180057732E+03  0.00000000000E+00 0.  1.
          3   -1    0    0  501    0  0.00000000000E+00 -0.00000000000E+00 -0.11698347222E+03  0.11698347222E+03  0.00000000000E+00 0. -1.
         23    2    1    2    0    0 -0.12120230709E+03 -0.11290922048E+03  0.14520849176E+03  0.25333151928E+03  0.12511139544E+03 0.  0.
          5    1    3    3  502    0 -0.42164688880E+02 -0.11971558356E+03  0.10211345739E+03  0.16295494014E+03  0.41800000000E+01 0. -1.
         -5    1    3    3    0  502 -0.79037618206E+02  0.68063630773E+01  0.43095034375E+02  0.90376579145E+02  0.41800000000E+01 0. -1.
        -11    1    1    2    0    0  0.12627448595E+03  0.68752488654E+02  0.50813817252E+02  0.15249326058E+03  0.00000000000E+00 0. -1.
         11    1    1    2    0    0 -0.50721788640E+01  0.44156731827E+02  0.28794796081E+02  0.52959269684E+02  0.00000000000E+00 0.  1.
</event>
<event>
 7    1  0.8661710E-006  0.1049257E+03  0.7561462E-02  0.1270266E+00
          4   -1    0    0  501    0  0.00000000000E+00  0.00000000000E+00  0.20056902563E+02  0.20056902563E+02  0.00000000000E+00 0. -1.
         -4   -1    0    0    0  501 -0.00000000000E+00 -0.00000000000E+00 -0.88531117938E+03  0.88531117938E+03  0.00000000000E+00 0.  1.
         23    2    1    2    0    0  0.25349976242E+02 -0.38979885284E+02 -0.67034125307E+03  0.68349600743E+03  0.12508934349E+03 0.  0.
          5    1    3    3  502    0  0.69306946306E+02 -0.20603264793E+02 -0.24518563947E+03  0.25565879122E+03  0.41800000000E+01 0.  1.
         -5    1    3    3    0  502 -0.43956970065E+02 -0.18376620491E+02 -0.42515561360E+03  0.42783721621E+03  0.41800000000E+01 0.  1.
        -11    1    1    2    0    0  0.27338024773E+02  0.18803374798E+02 -0.13723164433E+03  0.14118590123E+03  0.00000000000E+00 0.  1.
         11    1    1    2    0    0 -0.52688001015E+02  0.20176510486E+02 -0.57681379413E+02  0.80686173273E+02  0.00000000000E+00 0. -1.
</event>
<event>
 7    1  0.8661710E-006  0.1083253E+03  0.7561462E-02  0.1263703E+00
         -4   -1    0    0    0  501 -0.00000000000E+00  0.00000000000E+00  0.18447187530E+02  0.18447187530E+02  0.00000000000E+00 0.  1.
          4   -1    0    0  501    0  0.00000000000E+00 -0.00000000000E+00 -0.85084462886E+03  0.85084462886E+03  0.00000000000E+00 0. -1.
         23    2    1    2    0    0  0.26490086521E+02 -0.49518923875E+02 -0.37485229823E+03  0.39914357337E+03  0.12508996031E+03 0.  0.
          5    1    3    3  502    0  0.51314888449E+02  0.14129626880E+02 -0.26014787038E+03  0.26556967258E+03  0.41800000000E+01 0.  1.
         -5    1    3    3    0  502 -0.24824801928E+02 -0.63648550755E+02 -0.11470442785E+03  0.13357390079E+03  0.41800000000E+01 0.  1.
        -11    1    1    2    0    0  0.61189745817E+01 -0.18445259811E+02 -0.28274777559E+02  0.34309364690E+02  0.00000000000E+00 0.  1.
         11    1    1    2    0    0 -0.32609061102E+02  0.67964183686E+02 -0.42927036554E+03  0.43583887833E+03  0.00000000000E+00 0. -1.
</event>
<event>
 7    1  0.8661710E-006  0.1480085E+03  0.7561462E-02  0.1202942E+00
         -1   -1    0    0    0  501 -0.00000000000E+00  0.00000000000E+00  0.24965951657E+02  0.24965951657E+02  0.00000000000E+00 0.  1.
          1   -1    0    0  501    0  0.00000000000E+00 -0.00000000000E+00 -0.99421141545E+03  0.99421141545E+03  0.00000000000E+00 0. -1.
         23    2    1    2    0    0  0.83353694364E+02 -0.73264465591E+02 -0.42620082528E+03  0.45775115476E+03  0.12479365341E+03 0.  0.
          5    1    3    3  502    0  0.11526023448E+03 -0.58823535697E+02 -0.30070180284E+03  0.32738994584E+03  0.41800000000E+01 0.  1.
         -5    1    3    3    0  502 -0.31906540112E+02 -0.14440929894E+02 -0.12549902244E+03  0.13036120892E+03  0.41800000000E+01 0.  1.
        -11    1    1    2    0    0  0.73968288664E+01  0.29705475317E+02 -0.53498529518E+02  0.61637821195E+02  0.00000000000E+00 0.  1.
         11    1    1    2    0    0 -0.90750523230E+02  0.43558990273E+02 -0.48954610900E+03  0.49978839115E+03  0.00000000000E+00 0. -1.
</event>
<event>
 7    1  0.8661710E-006  0.1658380E+03  0.7561462E-02  0.1182259E+00
          1   -1    0    0  501    0  0.00000000000E+00  0.00000000000E+00  0.16495338111E+04  0.16495338111E+04  0.00000000000E+00 0. -1.
         -1   -1    0    0    0  501 -0.00000000000E+00 -0.00000000000E+00 -0.22225977296E+02  0.22225977296E+02  0.00000000000E+00 0.  1.
         23    2    1    2    0    0  0.11128821788E+03  0.11019669689E+03  0.91839961002E+03  0.94001793584E+03  0.12508995397E+03 0.  0.
          5    1    3    3  502    0  0.78161814412E+02  0.23150108605E+02  0.66538827910E+03  0.67037618628E+03  0.41800000000E+01 0.  1.
         -5    1    3    3    0  502  0.33126403463E+02  0.87046588280E+02  0.25301133091E+03  0.26964174956E+03  0.41800000000E+01 0.  1.
        -11    1    1    2    0    0 -0.94000868115E+02 -0.96971486457E+02  0.68942817080E+03  0.70253173244E+03  0.00000000000E+00 0. -1.
         11    1    1    2    0    0 -0.17287349760E+02 -0.13225210428E+02  0.19480052987E+02  0.29210120112E+02  0.00000000000E+00 0.  1.
</event>
<event>
 6    1  0.8661710E-006  0.8559937E+02  0.7561462E-02  0.1313873E+00
          2   -1    0    0  501    0  0.00000000000E+00  0.00000000000E+00  0.13141348983E+03  0.13141348983E+03  0.00000000000E+00 0. -1.
         -2   -1    0    0    0  501 -0.00000000000E+00 -0.00000000000E+00 -0.21125014689E+03  0.21125014689E+03  0.00000000000E+00 0.  1.
          5    1    1    2  502    0 -0.22057546215E+02  0.19145464038E+02  0.46571333269E+02  0.55131167417E+02  0.41800000000E+01 0. -1.
         -5    1    1    2    0  502 -0.18990776586E+02 -0.37985309640E+02 -0.17233076827E+03  0.17753562864E+03  0.41800000000E+01 0.  1.
        -11    1    1    2    0    0 -0.26220937388E+02 -0.67041438952E+01  0.19438643929E+02  0.33321824390E+02  0.00000000000E+00 0.  1.
         11    1    1    2    0    0  0.67269260190E+02  0.25543989497E+02  0.26484134009E+02  0.76675016271E+02  0.00000000000E+00 0. -1.
</event>
<event>
 7    1  0.8661710E-006  0.1147588E+03  0.7561462E-02  0.1252003E+00
         -2   -1    0    0    0  501 -0.00000000000E+00  0.00000000000E+00  0.35659775179E+02  0.35659775179E+02  0.00000000000E+00 0.  1.
          2   -1    0    0  501    0  0.00000000000E+00 -0.00000000000E+00 -0.45105149272E+03  0.45105149272E+03  0.00000000000E+00 0. -1.
         23    2    1    2    0    0 -0.45977309911E+02 -0.19799777452E+02 -0.15341359913E+03  0.20417473729E+03  0.12508255967E+03 0.  0.
          5    1    3    3  502    0 -0.80458670576E+02  0.60070415085E+01 -0.13461117653E+03  0.15699466062E+03  0.41800000000E+01 0. -1.
         -5    1    3    3    0  502  0.34481360665E+02 -0.25806818960E+02 -0.18802422605E+02  0.47180076664E+02  0.41800000000E+01 0. -1.
        -11    1    1    2    0    0 -0.28708381910E+02  0.83412467743E+01 -0.64311155700E+02  0.70920182861E+02  0.00000000000E+00 0.  1.
         11    1    1    2    0    0  0.74685691821E+02  0.11458530677E+02 -0.19766696271E+03  0.21161634775E+03  0.00000000000E+00 0. -1.
</event>
<event>
 7    1  0.8661710E-006  0.1145413E+03  0.7561462E-02  0.1252384E+00
          1   -1    0    0  501    0  0.00000000000E+00  0.00000000000E+00  0.40835981184E+03  0.40835981184E+03  0.00000000000E+00 0. -1.
         -1   -1    0    0    0  501 -0.00000000000E+00 -0.00000000000E+00 -0.63849276948E+02  0.63849276948E+02  0.00000000000E+00 0.  1.
         23    2    1    2    0    0  0.31422096390E+02  0.10324887706E+03  0.11175987676E+03  0.19946239445E+03  0.12508916016E+03 0.  0.
          5    1    3    3  502    0  0.28459492959E+02  0.38082456086E+02  0.12408192050E+03  0.13294364067E+03  0.41800000000E+01 0. -1.
         -5    1    3    3    0  502  0.29626034306E+01  0.65166420977E+02 -0.12322043738E+02  0.66518753777E+02  0.41800000000E+01 0. -1.
        -11    1    1    2    0    0 -0.40758146802E+02 -0.65848714613E+02  0.66470616710E+02  0.10205695779E+03  0.00000000000E+00 0.  1.
         11    1    1    2    0    0  0.93360504118E+01 -0.37400162451E+02  0.16628004142E+03  0.17068973655E+03  0.00000000000E+00 0. -1.
</event>
<event>
 6    1  0.8661710E-006  0.1185042E+03  0.7561462E-02  0.1245585E+00
         -2   -1    0    0    0  501 -0.00000000000E+00  0.00000000000E+00  0.13342419424E+04  0.13342419424E+04  0.00000000000E+00 0.  1.
          2   -1    0    0  501    0  0.00000000000E+00 -0.00000000000E+00 -0.73797165148E+02  0.73797165148E+02  0.00000000000E+00 0. -1.
          5    1    1    2  502    0 -0.34454066510E+02  0.67966187831E+02  0.41511960669E+03  0.42207611356E+03  0.41800000000E+01 0. -1.
         -5    1    1    2    0  502  0.20101687915E+02 -0.75122102537E+02  0.88258155592E+03  0.88601076934E+03  0.41800000000E+01 0.  1.
        -11    1    1    2    0    0  0.27492017352E+02 -0.31604865632E+02  0.36996229805E+01  0.42051941215E+02  0.00000000000E+00 0.  1.
         11    1    1    2    0    0 -0.13139638758E+02  0.38760780338E+02 -0.40956008348E+02  0.57900283409E+02  0.00000000000E+00 0. -1.
</event>
<event>
 7    1  0.8661710E-006  0.1276858E+03  0.7561462E-02  0.1230931E+00
         -2   -1    0    0    0  501 -0.00000000000E+00  0.00000000000E+00  0.14846680369E+03  0.14846680369E+03  0.00000000000E+00 0.  1.
          2   -1    0    0  501    0  0.00000000000E+00 -0.00000000000E+00 -0.36923491487E+03  0.36923491487E+03  0.00000000000E+00 0. -1.
         23    2    1    2    0    0 -0.66976657803E+02 -0.68482086319E+02  0.94918691493E+02  0.18576147964E+03  0.12775797621E+03 0.  0.
          5    1    3    3  502    0  0.59067673562E+01  0.33051094658E+02  0.12896584472E+02  0.36208549401E+02  0.41800000000E+01 0. -1.
         -5    1    3    3    0  502 -0.72883425159E+02 -0.10153318098E+03  0.82022107022E+02  0.14955293024E+03  0.41800000000E+01 0.  1.
        -11    1    1    2    0    0  0.40910441133E+02  0.33608673146E+02 -0.22765020884E+03  0.23372596067E+03  0.00000000000E+00 0. -1.
         11    1    1    2    0    0  0.26066216670E+02  0.34873413173E+02 -0.88036593836E+02  0.98214278250E+02  0.00000000000E+00 0.  1.
</event>
<event>
 7    1  0.8661710E-006  0.1075461E+03  0.7561462E-02  0.1265183E+00
         -2   -1    0    0    0  501 -0.00000000000E+00  0.00000000000E+00  0.19815895944E+03  0.19815895944E+03  0.00000000000E+00 0.  1.
          2   -1    0    0  501    0  0.00000000000E+00 -0.00000000000E+00 -0.84912202857E+02  0.84912202857E+02  0.00000000000E+00 0. -1.
         23    2    1    2    0    0  0.59905232371E+02 -0.42942774968E+02  0.60237032872E+02  0.15719235436E+03  0.12509283493E+03 0.  0.
          5    1    3    3  502    0  0.71305758346E+02  0.22206490719E+02  0.13276865741E+02  0.75969645038E+02  0.41800000000E+01 0.  1.
         -5    1    3    3    0  502 -0.11400525975E+02 -0.65149265686E+02  0.46960167131E+02  0.81222709318E+02  0.41800000000E+01 0.  1.
        -11    1    1    2    0    0 -0.27936199518E+02  0.24213174509E+02  0.74412466344E+02  0.83089856244E+02  0.00000000000E+00 0.  1.
         11    1    1    2    0    0 -0.31969032853E+02  0.18729600458E+02 -0.21402742635E+02  0.42788951695E+02  0.00000000000E+00 0. -1.
</event>
<event>
 7    1  0.8661710E-006  0.2156753E+03  0.7561462E-02  0.1137149E+00
          2   -1    0    0  501    0  0.00000000000E+00  0.00000000000E+00  0.74652424374E+03  0.74652424374E+03  0.00000000000E+00 0. -1.
         -2   -1    0    0    0  501 -0.00000000000E+00 -0.00000000000E+00 -0.74239669558E+02  0.74239669558E+02  0.00000000000E+00 0.  1.
         23    2    1    2    0    0  0.73947852422E+02 -0.19040228442E+03  0.28112322926E+03  0.36932327895E+03  0.12509236410E+03 0.  0.
          5    1    3    3  502    0  0.79499101674E+02 -0.69644632317E+02  0.19153962332E+03  0.21880443707E+03  0.41800000000E+01 0.  1.
         -5    1    3    3    0  502 -0.55512492518E+01 -0.12075765211E+03  0.89583605937E+02  0.15051884189E+03  0.41800000000E+01 0.  1.
        -11    1    1    2    0    0 -0.39497782287E+02  0.84955873611E+02  0.87668279280E+02  0.12830940129E+03  0.00000000000E+00 0.  1.
         11    1    1    2    0    0 -0.34450070135E+02  0.10544641081E+03  0.30349306565E+03  0.32313123306E+03  0.00000000000E+00 0. -1.
</event>
<event>
 7    1  0.8661710E-006  0.1019971E+03  0.7561462E-02  0.1276151E+00
         -4   -1    0    0    0  501 -0.00000000000E+00  0.00000000000E+00  0.61231769955E+02  0.61231769955E+02  0.00000000000E+00 0.  1.
          4   -1    0    0  501    0  0.00000000000E+00 -0.00000000000E+00 -0.22029792225E+03  0.22029792225E+03  0.00000000000E+00 0. -1.
         23    2    1    2    0    0 -0.28734483593E+02  0.29869596922E+01 -0.57233329479E+02  0.14059378925E+03  0.12512540548E+03 0.  0.
          5    1    3    3  502    0 -0.74196835507E+02 -0.96974926361E+01 -0.55358554395E+02  0.93173245663E+02  0.41800000000E+01 0. -1.
         -5    1    3    3    0  502  0.45462351914E+02  0.12684452328E+02 -0.18747750835E+01  0.47420543587E+02  0.41800000000E+01 0. -1.
        -11    1    1    2    0    0  0.43541882643E+01 -0.38414398358E+02 -0.10619157782E+02  0.40092286897E+02  0.00000000000E+00 0.  1.
         11    1    1    2    0    0  0.24380295329E+02  0.35427438666E+02 -0.91213665036E+02  0.10084361606E+03  0.00000000000E+00 0. -1.
</event>
<event>
 7    1  0.8661710E-006  0.8224045E+02  0.7561462E-02  0.1322811E+00
         -1   -1    0    0    0  501 -0.00000000000E+00  0.00000000000E+00  0.42478415937E+02  0.42478415937E+02  0.00000000000E+00 0.  1.
          1   -1    0    0  501    0  0.00000000000E+00 -0.00000000000E+00 -0.35092769014E+03  0.35092769014E+03  0.00000000000E+00 0. -1.
         23    2    1    2    0    0 -0.33450954236E+02 -0.25988450749E+02 -0.12279389946E+03  0.18033078418E+03  0.12508590674E+03 0.  0.
          5    1    3    3  502    0 -0.22766498345E+02  0.21287979223E+02 -0.12762541818E+03  0.13144280609E+03  0.41800000000E+01 0. -1.
         -5    1    3    3    0  502 -0.10684455892E+02 -0.47276429973E+02  0.48315187176E+01  0.48887978090E+02  0.41800000000E+01 0. -1.
        -11    1    1    2    0    0  0.55558606205E+02  0.85195195728E+01 -0.52302455449E+02  0.76778172570E+02  0.00000000000E+00 0.  1.
         11    1    1    2    0    0 -0.22107651969E+02  0.17468931176E+02 -0.13335291930E+03  0.13629714933E+03  0.00000000000E+00 0. -1.
</event>
<event>
 7    1  0.8661710E-006  0.1341747E+03  0.7561462E-02  0.1221389E+00
          2   -1    0    0  501    0  0.00000000000E+00  0.00000000000E+00  0.22577634192E+03  0.22577634192E+03  0.00000000000E+00 0.  1.
         -2   -1    0    0    0  501 -0.00000000000E+00 -0.00000000000E+00 -0.10849426265E+03  0.10849426265E+03  0.00000000000E+00 0. -1.
         23    2    1    2    0    0  0.84168473761E+02 -0.69129986661E+01 -0.21003254343E+02  0.15238065751E+03  0.12508639640E+03 0.  0.
          5    1    3    3  502    0  0.37714024327E+02 -0.65598098364E+02 -0.14291429475E+02  0.77117932391E+02  0.41800000000E+01 0. -1.
         -5    1    3    3    0  502  0.46454449434E+02  0.58685099698E+02 -0.67118248681E+01  0.75262725115E+02  0.41800000000E+01 0. -1.
        -11    1    1    2    0    0 -0.43810989789E+02 -0.37446460646E+02  0.58996382563E+02  0.82475532109E+02  0.00000000000E+00 0. -1.
         11    1    1    2    0    0 -0.40357483972E+02  0.44359459312E+02  0.79288951046E+02  0.99414414956E+02  0.00000000000E+00 0.  1.
</event>
<event>
 7    1  0.8661710E-006  0.1060296E+03  0.7561462E-02  0.1268104E+00
          1   -1    0    0  501    0  0.00000000000E+00  0.00000000000E+00  0.16189617493E+03  0.16189617493E+03  0.00000000000E+00 0. -1.
         -1   -1    0    0    0  501 -0.00000000000E+00 -0.00000000000E+00 -0.15070002745E+03  0.15070002745E+03  0.00000000000E+00 0.  1.
         23    2    1    2    0    0  0.38344929406E+01  0.49811421361E+02 -0.93816866359E+02  0.16416412485E+03  0.12510944984E+03 0.  0.
          5    1    3    3  502    0  0.50173122025E+02  0.42667841284E+02 -0.82561249329E+01  0.66509569631E+02  0.41800000000E+01 0.  1.
         -5    1    3    3    0  502 -0.46338629084E+02  0.71435800777E+01 -0.85560741426E+02  0.97654555219E+02  0.41800000000E+01 0.  1.
        -11    1    1    2    0    0  0.40566201455E+02 -0.29544540377E+02  0.28601051572E+02  0.57762589256E+02  0.00000000000E+00 0.  1.
         11    1    1    2    0    0 -0.44400694395E+02 -0.20266880984E+02  0.76411962259E+02  0.90669488274E+02  0.00000000000E+00 0. -1.
</event>
<event>
 7    1  0.8661710E-006  0.1181813E+03  0.7561462E-02  0.1246128E+00
          1   -1    0    0  501    0  0.00000000000E+00  0.00000000000E+00  0.82648999453E+02  0.82648999453E+02  0.00000000000E+00 0. -1.
         -1   -1    0    0    0  501 -0.00000000000E+00 -0.00000000000E+00 -0.17255636666E+03  0.17255636666E+03  0.00000000000E+00 0.  1.
         23    2    1    2    0    0  0.39915506850E+02  0.26166995361E+02 -0.61751649306E+02  0.14419601313E+03  0.12124877186E+03 0.  0.
          5    1    3    3  502    0  0.79452980729E+02  0.37706259610E+02 -0.34132872298E+02  0.94430204553E+02  0.41800000000E+01 0. -1.
         -5    1    3    3    0  502 -0.39537473879E+02 -0.11539264249E+02 -0.27618777009E+02  0.49765808580E+02  0.41800000000E+01 0.  1.
        -11    1    1    2    0    0 -0.68343667407E+02 -0.35479144557E+02 -0.24841457689E+02  0.80911832220E+02  0.00000000000E+00 0.  1.
         11    1    1    2    0    0  0.28428160557E+02  0.93121491951E+01 -0.33142602156E+01  0.30097520763E+02  0.00000000000E+00 0. -1.
</event>
<event>
 7    1  0.8661710E-006  0.8184214E+02  0.7561462E-02  0.1323904E+00
          2   -1    0    0  501    0  0.00000000000E+00  0.00000000000E+00  0.13457965837E+03  0.13457965837E+03  0.00000000000E+00 0. -1.
         -2   -1    0    0    0  501 -0.00000000000E+00 -0.00000000000E+00 -0.92009569259E+02  0.92009569259E+02  0.00000000000E+00 0.  1.
         23    2    1    2    0    0 -0.20776551056E+01  0.73954099191E+01 -0.61806605032E+01  0.12547800500E+03  0.12509004931E+03 0.  0.
          5    1    3    3  502    0 -0.28061616298E+02  0.54656044791E+02 -0.27359898824E+02  0.67385265490E+02  0.41800000000E+01 0.  1.
         -5    1    3    3    0  502  0.25983961192E+02 -0.47260634872E+02  0.21179238321E+02  0.58092739508E+02  0.41800000000E+01 0.  1.
        -11    1    1    2    0    0 -0.22214747977E+02 -0.82612035364E+01 -0.18200965356E+02  0.29883400934E+02  0.00000000000E+00 0.  1.
         11    1    1    2    0    0  0.24292403082E+02  0.86579361729E+00  0.66951714970E+02  0.71227821695E+02  0.00000000000E+00 0. -1.
</event>
<event>
 7    1  0.8661710E-006  0.1094575E+03  0.7561462E-02  0.1261578E+00
         -2   -1    0    0    0  501 -0.00000000000E+00  0.00000000000E+00  0.58754879480E+02  0.58754879480E+02  0.00000000000E+00 0. -1.
          2   -1    0    0  501    0  0.00000000000E+00 -0.00000000000E+00 -0.21923966869E+03  0.21923966869E+03  0.00000000000E+00 0.  1.
         23    2    1    2    0    0 -0.30919089921E+02  0.69906763432E+01 -0.67271304119E+02  0.14552562423E+03  0.12508964494E+03 0.  0.
          5    1    3    3  502    0  0.46351869080E+02 -0.40502118891E+01 -0.43476054638E+02  0.63816453289E+02  0.41800000000E+01 0. -1.
         -5    1    3    3    0  502 -0.77270959000E+02  0.11040888232E+02 -0.23795249480E+02  0.81709170940E+02  0.41800000000E+01 0. -1.
        -11    1    1    2    0    0  0.56157346761E+02  0.17543294652E+02 -0.61133894519E+02  0.84845552868E+02  0.00000000000E+00 0. -1.
         11    1    1    2    0    0 -0.25238256840E+02 -0.24533970996E+02 -0.32079590574E+02  0.47623371075E+02  0.00000000000E+00 0.  1.
</event>
<event>
 7    1  0.8661710E-006  0.1010223E+03  0.7561462E-02  0.1278161E+00
         -2   -1    0    0    0  501 -0.00000000000E+00  0.00000000000E+00  0.10432638546E+04  0.10432638546E+04  0.00000000000E+00 0.  1.
          2   -1    0    0  501    0  0.00000000000E+00 -0.00000000000E+00 -0.11742287050E+02  0.11742287050E+02  0.00000000000E+00 0. -1.
         23    2    1    2    0    0 -0.16821389063E+01 -0.64504670208E+01  0.73773199989E+03  0.74814342520E+03  0.12420001163E+03 0.  0.
          5    1    3    3  502    0 -0.41636209469E+02 -0.45116104053E+02  0.50935858954E+03  0.51306206439E+03  0.41800000000E+01 0. -1.
         -5    1    3    3    0  502  0.39954070563E+02  0.38665637032E+02  0.22837341035E+03  0.23508136080E+03  0.41800000000E+01 0.  1.
        -11    1    1    2    0    0  0.12678581106E+02 -0.37428315533E+02  0.93126731706E+02  0.10116428906E+03  0.00000000000E+00 0.  1.
         11    1    1    2    0    0 -0.10996442200E+02  0.43878782554E+02  0.20066283597E+03  0.20569842741E+03  0.00000000000E+00 0. -1.
</event>
<event>
 7    1  0.8661710E-006  0.7457561E+02  0.7561462E-02  0.1345190E+00
          2   -1    0    0  501    0  0.00000000000E+00  0.00000000000E+00  0.69959324288E+02  0.69959324288E+02  0.00000000000E+00 0. -1.
         -2   -1    0    0    0  501 -0.00000000000E+00 -0.00000000000E+00 -0.23322850046E+03  0.23322850046E+03  0.00000000000E+00 0.  1.
         23    2    1    2    0    0  0.34942431320E+02  0.60105590873E+02 -0.99042813311E+02  0.17403975356E+03  0.12508677544E+03 0.  0.
          5    1    3    3  502    0  0.12661209469E+02  0.38127837321E+02 -0.12612923301E+03  0.13243902002E+03  0.41800000000E+01 0. -1.
         -5    1    3    3    0  502  0.22281221852E+02  0.21977753552E+02  0.27086419703E+02  0.41600733536E+02  0.41800000000E+01 0. -1.
        -11    1    1    2    0    0 -0.45322197266E+01 -0.41045864355E+02 -0.79934723008E+02  0.89971461802E+02  0.00000000000E+00 0.  1.
         11    1    1    2    0    0 -0.30410211594E+02 -0.19059726518E+02  0.15708360151E+02  0.39176609383E+02  0.00000000000E+00 0. -1.
</event>
<event>
 7    1  0.8661710E-006  0.1167391E+03  0.7561462E-02  0.1248576E+00
          1   -1    0    0  501    0  0.00000000000E+00  0.00000000000E+00  0.35820665696E+02  0.35820665696E+02  0.00000000000E+00 0. -1.
         -1   -1    0    0    0  501 -0.00000000000E+00 -0.00000000000E+00 -0.42564024593E+03  0.42564024593E+03  0.00000000000E+00 0.  1.
         23    2    1    2    0    0 -0.44203503202E+02 -0.26996413417E+02 -0.27101454732E+03  0.30295328459E+03  0.12509617001E+03 0.  0.
          5    1    3    3  502    0 -0.85141605337E+02 -0.15498416647E+02 -0.13522912662E+03  0.16060411877E+03  0.41800000000E+01 0.  1.
         -5    1    3    3    0  502  0.40938102136E+02 -0.11497996770E+02 -0.13578542069E+03  0.14234916582E+03  0.41800000000E+01 0.  1.
        -11    1    1    2    0    0  0.36068108515E+02 -0.29767537534E+02 -0.43626906417E+02  0.63955622944E+02  0.00000000000E+00 0.  1.
         11    1    1    2    0    0  0.81353946869E+01  0.56763950951E+02 -0.75178126501E+02  0.94552004095E+02  0.00000000000E+00 0. -1.
</event>
<event>
 7    1  0.8661710E-006  0.7226846E+02  0.7561462E-02  0.1352545E+00
         -2   -1    0    0    0  501 -0.00000000000E+00  0.00000000000E+00  0.11692171904E+03  0.11692171904E+03  0.00000000000E+00 0.  1.
          2   -1    0    0  501    0  0.00000000000E+00 -0.00000000000E+00 -0.16044457717E+03  0.16044457717E+03  0.00000000000E+00 0. -1.
         23    2    1    2    0    0  0.50844755554E+02  0.19067442974E+02  0.40440310390E+02  0.14223891993E+03  0.12509090730E+03 0.  0.
          5    1    3    3  502    0 -0.66991687383E+01 -0.95783894179E+01 -0.38442235296E+02  0.40396810025E+02  0.41800000000E+01 0. -1.
         -5    1    3    3    0  502  0.57543924292E+02  0.28645832392E+02  0.78882545686E+02  0.10184210991E+03  0.41800000000E+01 0. -1.
        -11    1    1    2    0    0 -0.13493403057E+02 -0.26395453471E+02  0.11930867057E+02  0.31955241804E+02  0.00000000000E+00 0.  1.
         11    1    1    2    0    0 -0.37351352497E+02  0.73280104971E+01 -0.95894035582E+02  0.10317213447E+03  0.00000000000E+00 0. -1.
</event>
<event>
 7    1  0.8661710E-006  0.1556936E+03  0.7561462E-02  0.1193646E+00
          1   -1    0    0  501    0  0.00000000000E+00  0.00000000000E+00  0.85028120324E+03  0.85028120324E+03  0.00000000000E+00 0. -1.
         -1   -1    0    0    0  501 -0.00000000000E+00 -0.00000000000E+00 -0.42724793353E+02  0.42724793353E+02  0.00000000000E+00 0.  1.
         23    2    1    2    0    0 -0.96689613162E+02 -0.11950692352E+03  0.40557841974E+03  0.45141144260E+03  0.12509056672E+03 0.  0.
          5    1    3    3  502    0 -0.56933649440E+02 -0.93001376015E+02  0.12149371848E+03  0.16330613096E+03  0.41800000000E+01 0. -1.
         -5    1    3    3    0  502 -0.39755963722E+02 -0.26505547501E+02  0.28408470127E+03  0.28810531164E+03  0.41800000000E+01 0. -1.
        -11    1    1    2    0    0  0.74789066661E+02  0.82984369513E+02  0.15551987574E+03  0.19148431222E+03  0.00000000000E+00 0.  1.
         11    1    1    2    0    0  0.21900546501E+02  0.36522554003E+02  0.24645811440E+03  0.25011024178E+03  0.00000000000E+00 0. -1.
</event>
<event>
 6    1  0.8661710E-006  0.1172452E+03  0.7561462E-02  0.1247712E+00
          4   -1    0    0  501    0  0.00000000000E+00  0.00000000000E+00  0.15540399679E+03  0.15540399679E+03  0.00000000000E+00 0. -1.
         -4   -1    0    0    0  501 -0.00000000000E+00 -0.00000000000E+00 -0.45227260052E+03  0.45227260052E+03  0.00000000000E+00 0.  1.
          5    1    1    2  502    0  0.62783724525E+02 -0.27030210986E+00  0.32348036936E+02  0.70751233361E+02  0.41800000000E+01 0. -1.
         -5    1    1    2    0  502 -0.51306464329E+02 -0.50980227012E+02 -0.40234717200E+03  0.40881787638E+03  0.41800000000E+01 0.  1.
        -11    1    1    2    0    0  0.19854050204E+02 -0.15626496403E+02  0.16372633374E+01  0.25318991499E+02  0.00000000000E+00 0.  1.
         11    1    1    2    0    0 -0.31331310400E+02  0.66877025524E+02  0.71493268000E+02  0.10278849607E+03  0.00000000000E+00 0. -1.
</event>
<event>
 7    1  0.8661710E-006  0.9384808E+02  0.7561462E-02  0.1293792E+00
         -2   -1    0    0    0  501 -0.00000000000E+00  0.00000000000E+00  0.21001619855E+02  0.21001619855E+02  0.00000000000E+00 0.  1.
          2   -1    0    0  501    0  0.00000000000E+00 -0.00000000000E+00 -0.58961272438E+03  0.58961272438E+03  0.00000000000E+00 0. -1.
         23    2    1    2    0    0 -0.20210493353E+02  0.31516948206E+02 -0.26238125507E+03  0.28936482778E+03  0.11613052345E+03 0.  0.
          5    1    3    3  502    0 -0.23011333926E+02 -0.27021031551E+02 -0.20192115420E+03  0.20505921717E+03  0.41800000000E+01 0. -1.
         -5    1    3    3    0  502  0.28008405730E+01  0.58537979757E+02 -0.60460100878E+02  0.84305610609E+02  0.41800000000E+01 0.  1.
        -11    1    1    2    0    0 -0.33304344268E+02 -0.56999517799E+01 -0.70974708953E+02  0.78607112327E+02  0.00000000000E+00 0. -1.
         11    1    1    2    0    0  0.53514837621E+02 -0.25816996426E+02 -0.23525514050E+03  0.24264240413E+03  0.00000000000E+00 0.  1.
</event>
<event>
 7    1  0.8661710E-006  0.1833989E+03  0.7561462E-02  0.1164554E+00
         -2   -1    0    0    0  501 -0.00000000000E+00  0.00000000000E+00  0.52552929607E+02  0.52552929607E+02  0.00000000000E+00 0. -1.
          2   -1    0    0  501    0  0.00000000000E+00 -0.00000000000E+00 -0.10488963832E+04  0.10488963832E+04  0.00000000000E+00 0.  1.
         23    2    1    2    0    0 -0.10956365341E+03 -0.12822148799E+03 -0.23093507899E+03  0.31212799699E+03  0.12509169303E+03 0.  0.
          5    1    3    3  502    0 -0.72796042816E+01 -0.68328622021E+02 -0.15937819327E+03  0.17361069701E+03  0.41800000000E+01 0. -1.
         -5    1    3    3    0  502 -0.10228404913E+03 -0.59892865974E+02 -0.71556885725E+02  0.13851729999E+03  0.41800000000E+01 0. -1.
        -11    1    1    2    0    0  0.27904873091E+02  0.68436869776E+00 -0.43396923718E+02  0.51598869086E+02  0.00000000000E+00 0. -1.
         11    1    1    2    0    0  0.81658780320E+02  0.12753711930E+03 -0.72201145088E+03  0.73772244672E+03  0.00000000000E+00 0.  1.
</event>
<event>
 7    1  0.8661710E-006  0.1079513E+03  0.7561462E-02  0.1264411E+00
          1   -1    0    0  501    0  0.00000000000E+00  0.00000000000E+00  0.25589035153E+03  0.25589035153E+03  0.00000000000E+00 0. -1.
         -1   -1    0    0    0  501 -0.00000000000E+00 -0.00000000000E+00 -0.63241736399E+02  0.63241736399E+02  0.00000000000E+00 0.  1.
         23    2    1    2    0    0 -0.16044905969E+02 -0.63031469594E+02  0.96240182960E+02  0.17070497746E+03  0.12509041269E+03 0.  0.
          5    1    3    3  502    0 -0.56282742987E+02  0.20840849086E+01  0.13814399349E+02  0.58141212555E+02  0.41800000000E+01 0.  1.
         -5    1    3    3    0  502  0.40237837017E+02 -0.65115554503E+02  0.82425783611E+02  0.11256376491E+03  0.41800000000E+01 0.  1.
        -11    1    1    2    0    0  0.34815145218E+02  0.39116007584E+02  0.55994088254E+01  0.52664122180E+02  0.00000000000E+00 0.  1.
         11    1    1    2    0    0 -0.18770239249E+02  0.23915462010E+02  0.90809023350E+02  0.95762988291E+02  0.00000000000E+00 0. -1.
</event>
<event>
 7    1  0.8661710E-006  0.9258418E+02  0.7561462E-02  0.1296712E+00
          2   -1    0    0  501    0  0.00000000000E+00  0.00000000000E+00  0.11410238490E+03  0.11410238490E+03  0.00000000000E+00 0. -1.
         -2   -1    0    0    0  501 -0.00000000000E+00 -0.00000000000E+00 -0.16495285787E+03  0.16495285787E+03  0.00000000000E+00 0.  1.
         23    2    1    2    0    0 -0.19637818512E+02  0.48850300375E+02 -0.92564082791E+02  0.16627555124E+03  0.12770064117E+03 0.  0.
          5    1    3    3  502    0  0.22010590106E+02  0.36071063371E+02  0.18936419591E+02  0.46493527253E+02  0.41800000000E+01 0. -1.
         -5    1    3    3    0  502 -0.41648408619E+02  0.12779237004E+02 -0.11150050238E+03  0.11978202399E+03  0.41800000000E+01 0.  1.
        -11    1    1    2    0    0 -0.30411815015E+02 -0.36273224747E+02  0.38602844216E+02  0.61080315222E+02  0.00000000000E+00 0. -1.
         11    1    1    2    0    0  0.50049633528E+02 -0.12577075628E+02  0.31107656068E+01  0.51699376304E+02  0.00000000000E+00 0.  1.
</event>
<event>
 7    1  0.8661710E-006  0.1276279E+03  0.7561462E-02  0.1231019E+00
         -2   -1    0    0    0  501 -0.00000000000E+00  0.00000000000E+00  0.17672648986E+03  0.17672648986E+03  0.00000000000E+00 0.  1.
          2   -1    0    0  501    0  0.00000000000E+00 -0.00000000000E+00 -0.13188064300E+03  0.13188064300E+03  0.00000000000E+00 0. -1.
         23    2    1    2    0    0 -0.69951399230E+01 -0.97193975520E+02  0.71249188599E+02  0.17383496638E+03  0.12508616151E+03 0.  0.
          5    1    3    3  502    0 -0.60915764254E+01  0.24917167772E+02  0.40024741294E+02  0.47722372832E+02  0.41800000000E+01 0.  1.
         -5    1    3    3    0  502 -0.90356349762E+00 -0.12211114329E+03  0.31224447305E+02  0.12611259355E+03  0.41800000000E+01 0.  1.
        -11    1    1    2    0    0  0.23377059766E+02  0.79941329323E+02  0.17249801054E+02  0.85056796869E+02  0.00000000000E+00 0.  1.
         11    1    1    2    0    0 -0.16381919843E+02  0.17252646197E+02 -0.43653142796E+02  0.49715369600E+02  0.00000000000E+00 0. -1.
</event>
<event>
 7    1  0.8661710E-006  0.1263672E+03  0.7561462E-02  0.1232948E+00
          2   -1    0    0  501    0  0.00000000000E+00  0.00000000000E+00  0.12985690769E+03  0.12985690769E+03  0.00000000000E+00 0. -1.
         -2   -1    0    0    0  501 -0.00000000000E+00 -0.00000000000E+00 -0.18329572441E+03  0.18329572441E+03  0.00000000000E+00 0.  1.
         23    2    1    2    0    0  0.28991624150E+02 -0.10326959857E+03 -0.61577688163E+01  0.16489654918E+03  0.12509128489E+03 0.  0.
          5    1    3    3  502    0  0.47756270013E+02 -0.84885786484E+02 -0.53048958887E+02  0.11098613657E+03  0.41800000000E+01 0.  1.
         -5    1    3    3    0  502 -0.18764645862E+02 -0.18383812087E+02  0.46891190070E+02  0.53910412606E+02  0.41800000000E+01 0.  1.
        -11    1    1    2    0    0 -0.46841424621E+02  0.36076036800E+02 -0.51772020211E+02  0.78587159056E+02  0.00000000000E+00 0.  1.
         11    1    1    2    0    0  0.17849800471E+02  0.67193561771E+02  0.44909723016E+01  0.69668923865E+02  0.00000000000E+00 0. -1.
</event>
<event>
 7    1  0.8661710E-006  0.9941422E+02  0.7561462E-02  0.1281533E+00
         -1   -1    0    0    0  501 -0.00000000000E+00  0.00000000000E+00  0.35463522101E+03  0.35463522101E+03  0.00000000000E+00 0.  1.
          1   -1    0    0  501    0  0.00000000000E+00 -0.00000000000E+00 -0.46614972475E+02  0.46614972475E+02  0.00000000000E+00 0. -1.
         23    2    1    2    0    0  0.47206578791E+02 -0.28176927843E+02  0.25942331066E+03  0.29320601248E+03  0.12508761448E+03 0.  0.
          5    1    3    3  502    0  0.82916869668E+02 -0.16733587483E+02  0.23079438298E+03  0.24584291700E+03  0.41800000000E+01 0. -1.
         -5    1    3    3    0  502 -0.35710290877E+02 -0.11443340360E+02  0.28628927679E+02  0.47363095477E+02  0.41800000000E+01 0. -1.
        -11    1    1    2    0    0 -0.45179070626E+02 -0.28909462000E+01 -0.55237713010E+01  0.45607214801E+02  0.00000000000E+00 0. -1.
         11    1    1    2    0    0 -0.20275081652E+01  0.31067874043E+02  0.54120709176E+02  0.62436966202E+02  0.00000000000E+00 0.  1.
</event>
<event>
 7    1  0.8661710E-006  0.1362834E+03  0.7561462E-02  0.1218419E+00
         -3   -1    0    0    0  501 -0.00000000000E+00  0.00000000000E+00  0.54952855188E+03  0.54952855188E+03  0.00000000000E+00 0.  1.
          3   -1    0    0  501    0  0.00000000000E+00 -0.00000000000E+00 -0.40236921315E+02  0.40236921315E+02  0.00000000000E+00 0. -1.
         23    2    1    2    0    0  0.98207642824E+02  0.26830378907E+02  0.20070770915E+03  0.25221938898E+03  0.11387021262E+03 0.  0.
          5    1    3    3  502    0  0.51891235804E+02  0.71140477799E+02  0.10752805020E+03  0.13904467596E+03  0.41800000000E+01 0. -1.
         -5    1    3    3    0  502  0.46316407020E+02 -0.44310098891E+02  0.93179658956E+02  0.11317471302E+03  0.41800000000E+01 0.  1.
        -11    1    1    2    0    0 -0.13039261001E+02  0.19321006581E+02  0.13427708838E+02  0.26900315749E+02  0.00000000000E+00 0. -1.
         11    1    1    2    0    0 -0.85168381823E+02 -0.46151385488E+02  0.29515621258E+03  0.31064576847E+03  0.00000000000E+00 0.  1.
</event>
<event>
 7    1  0.8661710E-006  0.9162665E+02  0.7561462E-02  0.1298960E+00
          4   -1    0    0  501    0  0.00000000000E+00  0.00000000000E+00  0.12081803040E+03  0.12081803040E+03  0.00000000000E+00 0. -1.
         -4   -1    0    0    0  501 -0.00000000000E+00 -0.00000000000E+00 -0.10149565960E+03  0.10149565960E+03  0.00000000000E+00 0.  1.
         23    2    1    2    0    0  0.13217962988E+02 -0.68530250961E+01 -0.15266998268E+01  0.12602185051E+03  0.12512992246E+03 0.  0.
          5    1    3    3  502    0 -0.14343443425E+02  0.35881714381E+02 -0.44663540033E+02  0.59207567122E+02  0.41800000000E+01 0.  1.
         -5    1    3    3    0  502  0.27561406413E+02 -0.42734739477E+02  0.43136840207E+02  0.66814283388E+02  0.41800000000E+01 0.  1.
        -11    1    1    2    0    0 -0.28896469350E+02  0.44228581185E+02  0.61962994576E+01  0.53193678774E+02  0.00000000000E+00 0.  1.
         11    1    1    2    0    0  0.15678506362E+02 -0.37375556089E+02  0.14652771169E+02  0.43098160722E+02  0.00000000000E+00 0. -1.
</event>
<event>
 7    1  0.8661710E-006  0.1167520E+03  0.7561462E-02  0.1248554E+00
         -1   -1    0    0    0  501 -0.00000000000E+00  0.00000000000E+00  0.75015327747E+02  0.75015327747E+02  0.00000000000E+00 0.  1.
          1   -1    0    0  501    0  0.00000000000E+00 -0.00000000000E+00 -0.29835058106E+03  0.29835058106E+03  0.00000000000E+00 0. -1.
         23    2    1    2    0    0 -0.63122960167E+02  0.38350824718E+02 -0.32578104842E+02  0.14887582451E+03  0.12508950536E+03 0.  0.
          5    1    3    3  502    0 -0.44230660147E+02  0.81347568940E+02 -0.20613397917E+01  0.92711918281E+02  0.41800000000E+01 0. -1.
         -5    1    3    3    0  502 -0.18892300020E+02 -0.42996744223E+02 -0.30516765050E+02  0.56163906229E+02  0.41800000000E+01 0. -1.
        -11    1    1    2    0    0  0.11971300088E+02 -0.40735194618E+02 -0.15822566908E+03  0.16382316827E+03  0.00000000000E+00 0. -1.
         11    1    1    2    0    0  0.51151660078E+02  0.23843699001E+01 -0.32531479386E+02  0.60666916022E+02  0.00000000000E+00 0.  1.
</event>
<event>
 7    1  0.8661710E-006  0.1058684E+03  0.7561462E-02  0.1268418E+00
          4   -1    0    0  501    0  0.00000000000E+00  0.00000000000E+00  0.48835490044E+02  0.48835490044E+02  0.00000000000E+00 0. -1.
         -4   -1    0    0    0  501 -0.00000000000E+00 -0.00000000000E+00 -0.24666830016E+03  0.24666830016E+03  0.00000000000E+00 0.  1.
         23    2    1    2    0    0 -0.16423828497E+02 -0.49817373239E+01 -0.98048501442E+02  0.15986030153E+03  0.12508895843E+03 0.  0.
          5    1    3    3  502    0  0.46889410044E+02  0.20746984036E+02 -0.67542129414E+02  0.84902684095E+02  0.41800000000E+01 0. -1.
         -5    1    3    3    0  502 -0.63313238541E+02 -0.25728721360E+02 -0.30506372028E+02  0.74957617436E+02  0.41800000000E+01 0. -1.
        -11    1    1    2    0    0 -0.34153528555E+02 -0.15180636771E+02 -0.43001549464E+02  0.56974103783E+02  0.00000000000E+00 0.  1.
         11    1    1    2    0    0  0.50577357052E+02  0.20162374095E+02 -0.56782759211E+02  0.78669384891E+02  0.00000000000E+00 0. -1.
</event>
<event>
 7    1  0.8661710E-006  0.1102196E+03  0.7561462E-02  0.1260164E+00
          2   -1    0    0  501    0  0.00000000000E+00  0.00000000000E+00  0.12710245068E+03  0.12710245068E+03  0.00000000000E+00 0. -1.
         -2   -1    0    0    0  501 -0.00000000000E+00 -0.00000000000E+00 -0.14239430241E+03  0.14239430241E+03  0.00000000000E+00 0.  1.
         23    2    1    2    0    0 -0.70675153600E+02  0.24878673666E+02 -0.39920663620E+02  0.15117810185E+03  0.12508890181E+03 0.  0.
          5    1    3    3  502    0 -0.15073460978E+02 -0.25982351714E+02 -0.64936322678E+02  0.71669311629E+02  0.41800000000E+01 0. -1.
         -5    1    3    3    0  502 -0.55601692621E+02  0.50861025379E+02  0.25015659058E+02  0.79508790225E+02  0.41800000000E+01 0. -1.
        -11    1    1    2    0    0 -0.11289065608E+02  0.18676076049E+02 -0.15552095939E+01  0.21878242520E+02  0.00000000000E+00 0.  1.
         11    1    1    2    0    0  0.81964219207E+02 -0.43554749715E+02  0.26184021485E+02  0.96440408720E+02  0.00000000000E+00 0. -1.
</event>
<event>
 7    1  0.8661710E-006  0.1098309E+03  0.7561462E-02  0.1260883E+00
         -1   -1    0    0    0  501 -0.00000000000E+00  0.00000000000E+00  0.41559029738E+02  0.41559029738E+02  0.00000000000E+00 0.  1.
          1   -1    0    0  501    0  0.00000000000E+00 -0.00000000000E+00 -0.42051112222E+03  0.42051112222E+03  0.00000000000E+00 0. -1.
         23    2    1    2    0    0  0.62123556253E+02  0.31708186013E+02 -0.24619899147E+03  0.28482557242E+03  0.12508764129E+03 0.  0.
          5    1    3    3  502    0  0.77227230542E+01 -0.29670027485E+02 -0.67291458479E+01  0.31665514146E+02  0.41800000000E+01 0. -1.
         -5    1    3    3    0  502  0.54400833199E+02  0.61378213498E+02 -0.23946984562E+03  0.25316005828E+03  0.41800000000E+01 0. -1.
        -11    1    1    2    0    0 -0.24325661355E+02 -0.56417681063E+02 -0.37893185274E+02  0.72184389081E+02  0.00000000000E+00 0.  1.
         11    1    1    2    0    0 -0.37797894898E+02  0.24709495049E+02 -0.94859915743E+02  0.10506019046E+03  0.00000000000E+00 0. -1.
</event>
<event>
 7    1  0.8661710E-006  0.1083219E+03  0.7561462E-02  0.1263709E+00
         -2   -1    0    0    0  501 -0.00000000000E+00  0.00000000000E+00  0.50641480933E+02  0.50641480933E+02  0.00000000000E+00 0.  1.
          2   -1    0    0  501    0  0.00000000000E+00 -0.00000000000E+00 -0.34860126836E+03  0.34860126836E+03  0.00000000000E+00 0. -1.
         23    2    1    2    0    0 -0.47393187134E+02  0.36025647457E+02 -0.89531453428E+02  0.16494720269E+03  0.12509091518E+03 0.  0.
          5    1    3    3  502    0 -0.72812214397E+02 -0.12911445746E+02 -0.79654957235E+02  0.10876906090E+03  0.41800000000E+01 0.  1.
         -5    1    3    3    0  502  0.25419027263E+02  0.48937093203E+02 -0.98764961928E+01  0.56178141793E+02  0.41800000000E+01 0.  1.
        -11    1    1    2    0    0  0.55659334213E+02 -0.58254037801E+01 -0.18976306514E+03  0.19784316441E+03  0.00000000000E+00 0. -1.
         11    1    1    2    0    0 -0.82661470789E+01 -0.30200243677E+02 -0.18665268863E+02  0.36452382191E+02  0.00000000000E+00 0.  1.
</event>
<event>
 7    1  0.8661710E-006  0.1922080E+03  0.7561462E-02  0.1156485E+00
         -1   -1    0    0    0  501 -0.00000000000E+00  0.00000000000E+00  0.31671038214E+03  0.31671038214E+03  0.00000000000E+00 0.  1.
          1   -1    0    0  501    0  0.00000000000E+00 -0.00000000000E+00 -0.13607928059E+03  0.13607928059E+03  0.00000000000E+00 0. -1.
         23    2    1    2    0    0  0.95239096097E+02 -0.14709953231E+03  0.11658356376E+03  0.24484280200E+03  0.12509001767E+03 0.  0.
          5    1    3    3  502    0 -0.18652477630E+02 -0.15722401385E+02 -0.12997690248E+02  0.27955700292E+02  0.41800000000E+01 0. -1.
         -5    1    3    3    0  502  0.11389157373E+03 -0.13137713093E+03  0.12958125400E+03  0.21688710170E+03  0.41800000000E+01 0. -1.
        -11    1    1    2    0    0 -0.37602728025E+02  0.13005860306E+02  0.46093393353E+02  0.60891037665E+02  0.00000000000E+00 0.  1.
         11    1    1    2    0    0 -0.57636368073E+02  0.13409367200E+03  0.17954144444E+02  0.14705582307E+03  0.00000000000E+00 0. -1.
</event>
<event>
 7    1  0.8661710E-006  0.1895978E+03  0.7561462E-02  0.1158825E+00
          1   -1    0    0  501    0  0.00000000000E+00  0.00000000000E+00  0.68571630949E+03  0.68571630949E+03  0.00000000000E+00 0. -1.
         -1   -1    0    0    0  501 -0.00000000000E+00 -0.00000000000E+00 -0.11115911258E+03  0.11115911258E+03  0.00000000000E+00 0.  1.
         23    2    1    2    0    0 -0.11706097495E+03 -0.11946828320E+03  0.18821504564E+02  0.20960780266E+03  0.12492093241E+03 0.  0.
          5    1    3    3  502    0  0.24926653004E+02 -0.10251097845E+02  0.13289806810E+02  0.30339980259E+02  0.41800000000E+01 0.  1.
         -5    1    3    3    0  502 -0.14198762795E+03 -0.10921718536E+03  0.55316977536E+01  0.17926782240E+03  0.41800000000E+01 0.  1.
        -11    1    1    2    0    0  0.99236245599E+02  0.73665479012E+02  0.26494975304E+03  0.29235732738E+03  0.00000000000E+00 0.  1.
         11    1    1    2    0    0  0.17824729350E+02  0.45802804190E+02  0.29078593930E+03  0.29491029203E+03  0.00000000000E+00 0. -1.
</event>
<event>
 6    1  0.8661710E-006  0.1562495E+03  0.7561462E-02  0.1192997E+00
         -2   -1    0    0    0  501 -0.00000000000E+00  0.00000000000E+00  0.57914675238E+02  0.57914675238E+02  0.00000000000E+00 0.  1.
          2   -1    0    0  501    0  0.00000000000E+00 -0.00000000000E+00 -0.64763887027E+03  0.64763887027E+03  0.00000000000E+00 0. -1.
          5    1    1    2  502    0  0.13914992865E+00  0.12129654802E+03 -0.30021112374E+03  0.32381640345E+03  0.41800000000E+01 0. -1.
         -5    1    1    2    0  502  0.42155975270E+02 -0.89877753480E+02 -0.34022710298E+02  0.10502454017E+03  0.41800000000E+01 0.  1.
        -11    1    1    2    0    0 -0.68173781098E+01 -0.50859498050E+02 -0.69602619737E+02  0.86473636794E+02  0.00000000000E+00 0.  1.
         11    1    1    2    0    0 -0.35477747089E+02  0.19440703509E+02 -0.18588774126E+03  0.19023896510E+03  0.00000000000E+00 0. -1.
</event>
<event>
 7    1  0.8661710E-006  0.1236426E+03  0.7561462E-02  0.1237206E+00
         -1   -1    0    0    0  501 -0.00000000000E+00  0.00000000000E+00  0.11805216916E+03  0.11805216916E+03  0.00000000000E+00 0.  1.
          1   -1    0    0  501    0  0.00000000000E+00 -0.00000000000E+00 -0.20074974937E+03  0.20074974937E+03  0.00000000000E+00 0. -1.
         23    2    1    2    0    0  0.82386239339E+02  0.65191042905E+02 -0.19604973158E+02  0.16452371870E+03  0.12508530902E+03 0.  0.
          5    1    3    3  502    0  0.64352329334E+02  0.60888629556E+02  0.43381527126E+02  0.98732349287E+02  0.41800000000E+01 0.  1.
         -5    1    3    3    0  502  0.18033910005E+02  0.43024133488E+01 -0.62986500284E+02  0.65791369409E+02  0.41800000000E+01 0.  1.
        -11    1    1    2    0    0 -0.59515795624E+02  0.10573245480E+02 -0.37349413888E+02  0.71055627269E+02  0.00000000000E+00 0. -1.
         11    1    1    2    0    0 -0.22870443715E+02 -0.75764288384E+02 -0.25743193157E+02  0.83222572563E+02  0.00000000000E+00 0.  1.
</event>
<event>
 7    1  0.8661710E-006  0.1060926E+03  0.7561462E-02  0.1267982E+00
          2   -1    0    0  501    0  0.00000000000E+00  0.00000000000E+00  0.74183012792E+03  0.74183012792E+03  0.00000000000E+00 0.  1.
         -2   -1    0    0    0  501 -0.00000000000E+00 -0.00000000000E+00 -0.16408816985E+02  0.16408816985E+02  0.00000000000E+00 0. -1.
         23    2    1    2    0    0  0.74037974842E+01  0.20485558167E+02  0.40828199971E+03  0.42756969449E+03  0.12508868074E+03 0.  0.
          5    1    3    3  502    0 -0.53179855585E+02 -0.68423601838E+01  0.25227776939E+03  0.25794662289E+03  0.41800000000E+01 0. -1.
         -5    1    3    3    0  502  0.60583653070E+02  0.27327918350E+02  0.15600423032E+03  0.16962307160E+03  0.41800000000E+01 0. -1.
        -11    1    1    2    0    0  0.40979744098E+02 -0.69019522124E+01  0.17633266016E+03  0.18116341631E+03  0.00000000000E+00 0.  1.
         11    1    1    2    0    0 -0.48383541582E+02 -0.13583605954E+02  0.14080665107E+03  0.14950583411E+03  0.00000000000E+00 0. -1.
</event>
<event>
 7    1  0.8661710E-006  0.1106105E+03  0.7561462E-02  0.1259443E+00
         -1   -1    0    0    0  501 -0.00000000000E+00  0.00000000000E+00  0.22117593496E+03  0.22117593496E+03  0.00000000000E+00 0.  1.
          1   -1    0    0  501    0  0.00000000000E+00 -0.00000000000E+00 -0.87430800467E+02  0.87430800467E+02  0.00000000000E+00 0. -1.
         23    2    1    2    0    0  0.34245912594E+02  0.71752913848E+02  0.35615259879E+02  0.15243664840E+03  0.12508885588E+03 0.  0.
          5    1    3    3  502    0  0.10667256583E+02  0.75512215738E+02 -0.30329488950E+02  0.82178071216E+02  0.41800000000E+01 0. -1.
         -5    1    3    3    0  502  0.23578656011E+02 -0.37593018902E+01  0.65944748829E+02  0.70258577185E+02  0.41800000000E+01 0. -1.
        -11    1    1    2    0    0  0.30379299874E+02 -0.12242064900E+02  0.18594036153E+02  0.37663087955E+02  0.00000000000E+00 0.  1.
         11    1    1    2    0    0 -0.64625212468E+02 -0.59510848948E+02  0.79535838465E+02  0.11850699907E+03  0.00000000000E+00 0. -1.
</event>
<event>
 7    1  0.8661710E-006  0.4523748E+02  0.7561462E-02  0.1472865E+00
          2   -1    0    0  501    0  0.00000000000E+00  0.00000000000E+00  0.12323845901E+03  0.12323845901E+03  0.00000000000E+00 0.  1.
         -2   -1    0    0    0  501 -0.00000000000E+00 -0.00000000000E+00 -0.98081411363E+02  0.98081411363E+02  0.00000000000E+00 0. -1.
         23    2    1    2    0    0 -0.14363205144E+02  0.14180629420E+02  0.11904087821E+02  0.12726572656E+03  0.12508983147E+03 0.  0.
          5    1    3    3  502    0  0.62419790523E+01 -0.11681726874E+02  0.63961717335E+02  0.65452262984E+02  0.41800000000E+01 0.  1.
         -5    1    3    3    0  502 -0.20605184197E+02  0.25862356294E+02 -0.52057629514E+02  0.61813463577E+02  0.41800000000E+01 0.  1.
        -11    1    1    2    0    0 -0.12874331422E+02 -0.77365587750E+00 -0.34856961370E+02  0.37166580538E+02  0.00000000000E+00 0. -1.
         11    1    1    2    0    0  0.27237536566E+02 -0.13406973542E+02  0.48109921192E+02  0.56887563271E+02  0.00000000000E+00 0.  1.
</event>
<event>
 7    1  0.8661710E-006  0.1629261E+03  0.7561462E-02  0.1185432E+00
         -1   -1    0    0    0  501 -0.00000000000E+00  0.00000000000E+00  0.17114316233E+03  0.17114316233E+03  0.00000000000E+00 0.  1.
          1   -1    0    0  501    0  0.00000000000E+00 -0.00000000000E+00 -0.26997647267E+03  0.26997647267E+03  0.00000000000E+00 0. -1.
         23    2    1    2    0    0  0.80111695781E+02  0.11357713880E+03  0.74264719890E+02  0.20119487395E+03  0.12508588420E+03 0.  0.
          5    1    3    3  502    0 -0.27752736501E+02  0.19393910848E+02 -0.92826587334E+01  0.35355032378E+02  0.41800000000E+01 0. -1.
         -5    1    3    3    0  502  0.10786443228E+03  0.94183227955E+02  0.83547378623E+02  0.16583984158E+03  0.41800000000E+01 0. -1.
        -11    1    1    2    0    0 -0.59837104934E+02 -0.39549263793E+02 -0.30416781403E+02  0.77908946754E+02  0.00000000000E+00 0. -1.
         11    1    1    2    0    0 -0.20274590847E+02 -0.74027875011E+02 -0.14268124882E+03  0.16201581429E+03  0.00000000000E+00 0.  1.
</event>
<event>
 7    1  0.8661710E-006  0.7685431E+02  0.7561462E-02  0.1338223E+00
          3   -1    0    0  501    0  0.00000000000E+00  0.00000000000E+00  0.36198632484E+03  0.36198632484E+03  0.00000000000E+00 0. -1.
         -3   -1    0    0    0  501 -0.00000000000E+00 -0.00000000000E+00 -0.40537101852E+02  0.40537101852E+02  0.00000000000E+00 0.  1.
         23    2    1    2    0    0  0.49456408178E+02 -0.21086298234E+02  0.15793838252E+03  0.20852819948E+03  0.12509559954E+03 0.  0.
          5    1    3    3  502    0  0.62568605872E+02 -0.24898121904E+02  0.17424547738E+03  0.18685209580E+03  0.41800000000E+01 0. -1.
         -5    1    3    3    0  502 -0.13112197695E+02  0.38118236701E+01 -0.16307094863E+02  0.21676103685E+02  0.41800000000E+01 0. -1.
        -11    1    1    2    0    0 -0.19355298134E+02  0.34063685283E+02  0.15535142653E+03  0.16021556712E+03  0.00000000000E+00 0. -1.
         11    1    1    2    0    0 -0.30101110044E+02 -0.12977387049E+02  0.81594139389E+01  0.33779660098E+02  0.00000000000E+00 0.  1.
</event>
<event>
 7    1  0.8661710E-006  0.1287436E+03  0.7561462E-02  0.1229332E+00
         -2   -1    0    0    0  501 -0.00000000000E+00  0.00000000000E+00  0.54961390028E+02  0.54961390028E+02  0.00000000000E+00 0.  1.
          2   -1    0    0  501    0  0.00000000000E+00 -0.00000000000E+00 -0.60842880060E+03  0.60842880060E+03  0.00000000000E+00 0. -1.
         23    2    1    2    0    0  0.89732240418E+02  0.19000992628E+02 -0.84298384506E+02  0.17653879442E+03  0.12508723202E+03 0.  0.
          5    1    3    3  502    0  0.98087325487E+02 -0.12226643688E+02 -0.15143238289E+02  0.10008698368E+03  0.41800000000E+01 0.  1.
         -5    1    3    3    0  502 -0.83550850685E+01  0.31227636316E+02 -0.69155146218E+02  0.76451810736E+02  0.41800000000E+01 0.  1.
        -11    1    1    2    0    0 -0.96660409215E+02 -0.39424145298E+02 -0.42588321352E+03  0.43849060366E+03  0.00000000000E+00 0. -1.
         11    1    1    2    0    0  0.69281687964E+01  0.20423152670E+02 -0.43285812544E+02  0.48360792544E+02  0.00000000000E+00 0.  1.
</event>
<event>
 7    1  0.8661710E-006  0.1411058E+03  0.7561462E-02  0.1211849E+00
         -3   -1    0    0    0  501 -0.00000000000E+00  0.00000000000E+00  0.47365021055E+02  0.47365021055E+02  0.00000000000E+00 0.  1.
          3   -1    0    0  501    0  0.00000000000E+00 -0.00000000000E+00 -0.55117775700E+03  0.55117775700E+03  0.00000000000E+00 0. -1.
         23    2    1    2    0    0  0.81581971659E+02  0.77009550059E+02 -0.19021395565E+03  0.25380037895E+03  0.12508874662E+03 0.  0.
          5    1    3    3  502    0  0.62086063206E+02 -0.22003233870E+02 -0.61730103611E+02  0.90370900388E+02  0.41800000000E+01 0. -1.
         -5    1    3    3    0  502  0.19495908453E+02  0.99012783929E+02 -0.12848385204E+03  0.16342947856E+03  0.41800000000E+01 0. -1.
        -11    1    1    2    0    0 -0.34783692516E+02 -0.50811116020E+02 -0.26599966198E+03  0.27303387143E+03  0.00000000000E+00 0. -1.
         11    1    1    2    0    0 -0.46798279143E+02 -0.26198434039E+02 -0.47599118318E+02  0.71708527676E+02  0.00000000000E+00 0.  1.
</event>
<event>
 7    1  0.1459871E-005  0.2751163E+03  0.7561462E-02  0.1098387E+00
         -1   -1    0    0    0  501 -0.00000000000E+00  0.00000000000E+00  0.78341786908E+02  0.78341786908E+02  0.00000000000E+00 0.  1.
          1   -1    0    0  501    0  0.00000000000E+00 -0.00000000000E+00 -0.10266573819E+04  0.10266573819E+04  0.00000000000E+00 0. -1.
         23    2    1    2    0    0 -0.65168395509E+02 -0.25391189749E+03 -0.47874774685E+03  0.55996884772E+03  0.12509010286E+03 0.  0.
          5    1    3    3  502    0 -0.32536781433E+01 -0.20845938479E+03 -0.39212134036E+03  0.44411993819E+03  0.41800000000E+01 0.  1.
         -5    1    3    3    0  502 -0.61914717366E+02 -0.45452512704E+02 -0.86626406490E+02  0.11584890953E+03  0.41800000000E+01 0.  1.
        -11    1    1    2    0    0  0.42115071157E+02  0.91278022157E+02 -0.26002151267E+03  0.27877687063E+03  0.00000000000E+00 0. -1.
         11    1    1    2    0    0  0.23053324352E+02  0.16263387533E+03 -0.20954633543E+03  0.26625345042E+03  0.00000000000E+00 0.  1.
</event>
<event>
 7    1  0.8661710E-006  0.1370435E+03  0.7561462E-02  0.1217363E+00
         -2   -1    0    0    0  501 -0.00000000000E+00  0.00000000000E+00  0.39871213185E+03  0.39871213185E+03  0.00000000000E+00 0. -1.
          2   -1    0    0  501    0  0.00000000000E+00 -0.00000000000E+00 -0.80195697069E+02  0.80195697069E+02  0.00000000000E+00 0.  1.
         23    2    1    2    0    0 -0.67537921470E+02 -0.11776754781E+03  0.21976754789E+03  0.28701151458E+03  0.12508904125E+03 0.  0.
          5    1    3    3  502    0 -0.38378243921E+02 -0.45675723263E+02  0.67261638342E+01  0.60182015436E+02  0.41800000000E+01 0.  1.
         -5    1    3    3    0  502 -0.29159677549E+02 -0.72091824551E+02  0.21304138405E+03  0.22682949914E+03  0.41800000000E+01 0.  1.
        -11    1    1    2    0    0  0.61548414129E+02  0.97781021988E+02  0.29041496286E+02  0.11913330370E+03  0.00000000000E+00 0.  1.
         11    1    1    2    0    0  0.59895073405E+01  0.19986525825E+02  0.69707390606E+02  0.72763010643E+02  0.00000000000E+00 0. -1.
</event>
<event>
 7    1  0.8661710E-006  0.1252790E+03  0.7561462E-02  0.1234634E+00
         -1   -1    0    0    0  501 -0.00000000000E+00  0.00000000000E+00  0.36653627779E+02  0.36653627779E+02  0.00000000000E+00 0.  1.
          1   -1    0    0  501    0  0.00000000000E+00 -0.00000000000E+00 -0.56644249867E+03  0.56644249867E+03  0.00000000000E+00 0. -1.
         23    2    1    2    0    0  0.45857013872E+02 -0.81928738559E+02 -0.24568422919E+03  0.29124489172E+03  0.12509061740E+03 0.  0.
          5    1    3    3  502    0 -0.37468522190E+02  0.17786730540E+01 -0.50092382070E+02  0.62719797309E+02  0.41800000000E+01 0.  1.
         -5    1    3    3    0  502  0.83325536063E+02 -0.83707411613E+02 -0.19559184712E+03  0.22852509442E+03  0.41800000000E+01 0.  1.
        -11    1    1    2    0    0 -0.20560903603E+02  0.48751696012E+02 -0.45973812035E+02  0.70093295072E+02  0.00000000000E+00 0.  1.
         11    1    1    2    0    0 -0.25296110269E+02  0.33177042547E+02 -0.23813082967E+03  0.24175793966E+03  0.00000000000E+00 0. -1.
</event>
<event>
 7    1  0.8661710E-006  0.1616877E+03  0.7561462E-02  0.1186804E+00
         -2   -1    0    0    0  501 -0.00000000000E+00  0.00000000000E+00  0.18470394436E+03  0.18470394436E+03  0.00000000000E+00 0.  1.
          2   -1    0    0  501    0  0.00000000000E+00 -0.00000000000E+00 -0.42615854648E+03  0.42615854648E+03  0.00000000000E+00 0. -1.
         23    2    1    2    0    0  0.51683122740E+02 -0.10617592501E+03  0.12612467774E+03  0.21330618173E+03  0.12509044968E+03 0.  0.
          5    1    3    3  502    0 -0.23496770639E+02  0.15807453499E+02  0.22870651899E+02  0.36640318433E+02  0.41800000000E+01 0. -1.
         -5    1    3    3    0  502  0.75179893379E+02 -0.12198337851E+03  0.10325402584E+03  0.17666586330E+03  0.41800000000E+01 0. -1.
        -11    1    1    2    0    0  0.13320944354E+02  0.80358894659E+02 -0.20281287120E+03  0.21855905434E+03  0.00000000000E+00 0.  1.
         11    1    1    2    0    0 -0.65004067095E+02  0.25817030350E+02 -0.16476640865E+03  0.17899725477E+03  0.00000000000E+00 0. -1.
</event>
<event>
 7    1  0.8661710E-006  0.1225848E+03  0.7561462E-02  0.1238893E+00
          1   -1    0    0  501    0  0.00000000000E+00  0.00000000000E+00  0.32506625847E+02  0.32506625847E+02  0.00000000000E+00 0. -1.
         -1   -1    0    0    0  501 -0.00000000000E+00 -0.00000000000E+00 -0.86363108403E+03  0.86363108403E+03  0.00000000000E+00 0.  1.
         23    2    1    2    0    0 -0.84499376875E+02 -0.85677737143E+02 -0.54717628194E+03  0.57404675155E+03  0.12508784955E+03 0.  0.
          5    1    3    3  502    0 -0.42569370343E+02 -0.28685409074E+02 -0.49786284459E+02  0.71632049429E+02  0.41800000000E+01 0.  1.
         -5    1    3    3    0  502 -0.41930006531E+02 -0.56992328069E+02 -0.49738999748E+03  0.50241470212E+03  0.41800000000E+01 0.  1.
        -11    1    1    2    0    0  0.71416142710E+02  0.57374779309E+02 -0.27469292305E+03  0.28956576579E+03  0.00000000000E+00 0.  1.
         11    1    1    2    0    0  0.13083234165E+02  0.28302957833E+02 -0.92552531849E+01  0.32525192541E+02  0.00000000000E+00 0. -1.
</event>
<event>
 7    1  0.8661710E-006  0.7787625E+02  0.7561462E-02  0.1335189E+00
          1   -1    0    0  501    0  0.00000000000E+00  0.00000000000E+00  0.16946924638E+03  0.16946924638E+03  0.00000000000E+00 0. -1.
         -1   -1    0    0    0  501 -0.00000000000E+00 -0.00000000000E+00 -0.11621394234E+03  0.11621394234E+03  0.00000000000E+00 0.  1.
         23    2    1    2    0    0 -0.55268781884E+02  0.30794531880E+02 -0.31398248196E+02  0.14365310648E+03  0.12508966211E+03 0.  0.
          5    1    3    3  502    0 -0.58018318152E+02  0.37054432099E+02 -0.73502463722E+02  0.10079305905E+03  0.41800000000E+01 0.  1.
         -5    1    3    3    0  502  0.27495362683E+01 -0.62599002188E+01  0.42104215526E+02  0.42860047428E+02  0.41800000000E+01 0.  1.
        -11    1    1    2    0    0  0.56153679407E+02 -0.88958201595E+01  0.23976641553E+01  0.56904482430E+02  0.00000000000E+00 0.  1.
         11    1    1    2    0    0 -0.88489752286E+00 -0.21898711721E+02  0.82255888086E+02  0.85125599813E+02  0.00000000000E+00 0. -1.
</event>
<event>
 7    1  0.8661710E-006  0.7676572E+02  0.7561462E-02  0.1338489E+00
         -2   -1    0    0    0  501 -0.00000000000E+00  0.00000000000E+00  0.14268301828E+03  0.14268301828E+03  0.00000000000E+00 0.  1.
          2   -1    0    0  501    0  0.00000000000E+00 -0.00000000000E+00 -0.85332530917E+02  0.85332530917E+02  0.00000000000E+00 0. -1.
         23    2    1    2    0    0 -0.10880283810E+02  0.11234356849E+02  0.24272447211E+02  0.12836388751E+03  0.12507415630E+03 0.  0.
          5    1    3    3  502    0  0.41658218502E+02 -0.18300023234E+01 -0.30041304510E+02  0.51562665310E+02  0.41800000000E+01 0. -1.
         -5    1    3    3    0  502 -0.52538502312E+02  0.13064359173E+02  0.54313751720E+02  0.76801222202E+02  0.41800000000E+01 0. -1.
        -11    1    1    2    0    0 -0.40856347149E+01 -0.31704648568E+02 -0.22142908707E+02  0.38886830134E+02  0.00000000000E+00 0. -1.
         11    1    1    2    0    0  0.14965918525E+02  0.20470291719E+02  0.55220948858E+02  0.60764831549E+02  0.00000000000E+00 0.  1.
</event>
<event>
 7    1  0.8661710E-006  0.1198095E+03  0.7561462E-02  0.1243412E+00
         -2   -1    0    0    0  501 -0.00000000000E+00  0.00000000000E+00  0.11247556457E+04  0.11247556457E+04  0.00000000000E+00 0.  1.
          2   -1    0    0  501    0  0.00000000000E+00 -0.00000000000E+00 -0.21583011184E+02  0.21583011184E+02  0.00000000000E+00 0. -1.
         23    2    1    2    0    0  0.40033993194E+02 -0.49969924981E+02  0.92955799654E+03  0.94012077824E+03  0.12509714118E+03 0.  0.
          5    1    3    3  502    0 -0.87966678016E+01  0.36822860740E+02  0.18166198678E+03  0.18561210704E+03  0.41800000000E+01 0.  1.
         -5    1    3    3    0  502  0.48830660996E+02 -0.86792785721E+02  0.74789600976E+03  0.75450867120E+03  0.41800000000E+01 0.  1.
        -11    1    1    2    0    0 -0.49524432224E+02 -0.14716443548E+01  0.12635262888E+03  0.13571964467E+03  0.00000000000E+00 0.  1.
         11    1    1    2    0    0  0.94904390299E+01  0.51441569336E+02  0.47262009071E+02  0.70498233951E+02  0.00000000000E+00 0. -1.
</event>
<event>
 7    1  0.8661710E-006  0.1401907E+03  0.7561462E-02  0.1213073E+00
          4   -1    0    0  501    0  0.00000000000E+00  0.00000000000E+00  0.21059508170E+03  0.21059508170E+03  0.00000000000E+00 0. -1.
         -4   -1    0    0    0  501 -0.00000000000E+00 -0.00000000000E+00 -0.97582516940E+02  0.97582516940E+02  0.00000000000E+00 0.  1.
         23    2    1    2    0    0 -0.22034183594E+02 -0.89975284216E+02  0.74435133376E+02  0.17253931262E+03  0.12509263888E+03 0.  0.
          5    1    3    3  502    0  0.16647383663E+02  0.27045563233E+02  0.19812528013E+02  0.37664393526E+02  0.41800000000E+01 0.  1.
         -5    1    3    3    0  502 -0.38681567256E+02 -0.11702084745E+03  0.54622605363E+02  0.13487491909E+03  0.41800000000E+01 0.  1.
        -11    1    1    2    0    0  0.53453831546E+02  0.43432082521E+02  0.25544378552E+01  0.68921571745E+02  0.00000000000E+00 0.  1.
         11    1    1    2    0    0 -0.31419647952E+02  0.46543201695E+02  0.36022993529E+02  0.66716714280E+02  0.00000000000E+00 0. -1.
</event>
<event>
 7    1  0.8661710E-006  0.1132484E+03  0.7561462E-02  0.1254670E+00
          1   -1    0    0  501    0  0.00000000000E+00  0.00000000000E+00  0.28400839540E+03  0.28400839540E+03  0.00000000000E+00 0. -1.
         -1   -1    0    0    0  501 -0.00000000000E+00 -0.00000000000E+00 -0.66904274851E+02  0.66904274851E+02  0.00000000000E+00 0.  1.
         23    2    1    2    0    0 -0.56008628308E+02  0.54002305500E+02  0.73083006281E+02  0.16444724415E+03  0.12509418395E+03 0.  0.
          5    1    3    3  502    0 -0.46068610330E+02 -0.32749350447E+02  0.12364910482E+02  0.58010345833E+02  0.41800000000E+01 0. -1.
         -5    1    3    3    0  502 -0.99400179780E+01  0.86751655947E+02  0.60718095799E+02  0.10643689832E+03  0.41800000000E+01 0. -1.
        -11    1    1    2    0    0  0.27653653801E+02 -0.87621123360E+01 -0.38383236440E+01  0.29261440661E+02  0.00000000000E+00 0.  1.
         11    1    1    2    0    0  0.28354974506E+02 -0.45240193164E+02  0.14785943791E+03  0.15720398544E+03  0.00000000000E+00 0. -1.
</event>
<event>
 7    1  0.8661710E-006  0.1003778E+03  0.7561462E-02  0.1279504E+00
          1   -1    0    0  501    0  0.00000000000E+00  0.00000000000E+00  0.30001073812E+03  0.30001073812E+03  0.00000000000E+00 0. -1.
         -1   -1    0    0    0  501 -0.00000000000E+00 -0.00000000000E+00 -0.46745382983E+02  0.46745382983E+02  0.00000000000E+00 0.  1.
         23    2    1    2    0    0 -0.70683902450E+01 -0.52116055578E+01  0.72562087858E+02  0.14487767666E+03  0.12508861510E+03 0.  0.
          5    1    3    3  502    0  0.51575706264E+02 -0.59565470834E+01  0.78505709631E+00  0.52092443256E+02  0.41800000000E+01 0.  1.
         -5    1    3    3    0  502 -0.58644096509E+02  0.74494152559E+00  0.71777030762E+02  0.92785233406E+02  0.41800000000E+01 0.  1.
        -11    1    1    2    0    0 -0.46207050370E+01  0.46618155678E+02  0.99712312882E+02  0.11016872829E+03  0.00000000000E+00 0.  1.
         11    1    1    2    0    0  0.11689095282E+02 -0.41406550120E+02  0.80990954397E+02  0.91709716145E+02  0.00000000000E+00 0. -1.
</event>
<event>
 7    1  0.8661710E-006  0.1445588E+03  0.7561462E-02  0.1207323E+00
         -1   -1    0    0    0  501 -0.00000000000E+00  0.00000000000E+00  0.87959079055E+02  0.87959079055E+02  0.00000000000E+00 0.  1.
          1   -1    0    0  501    0  0.00000000000E+00 -0.00000000000E+00 -0.26218217128E+03  0.26218217128E+03  0.00000000000E+00 0. -1.
         23    2    1    2    0    0  0.82159690723E+02 -0.61063945609E+02 -0.63743197146E+02  0.17377482851E+03  0.12512184305E+03 0.  0.
          5    1    3    3  502    0  0.11491590397E+03 -0.48315079751E+02 -0.59270763797E+02  0.13809600920E+03  0.41800000000E+01 0. -1.
         -5    1    3    3    0  502 -0.32756213249E+02 -0.12748865858E+02 -0.44724333493E+01  0.35678819307E+02  0.41800000000E+01 0. -1.
        -11    1    1    2    0    0 -0.12726853270E+02  0.58118178866E+02 -0.21051476672E+02  0.63109905553E+02  0.00000000000E+00 0.  1.
         11    1    1    2    0    0 -0.69432837454E+02  0.29457667428E+01 -0.89428418405E+02  0.11325651627E+03  0.00000000000E+00 0. -1.
</event>
<event>
 7    1  0.8661710E-006  0.6938855E+02  0.7561462E-02  0.1362185E+00
          2   -1    0    0  501    0  0.00000000000E+00  0.00000000000E+00  0.87933457440E+02  0.87933457440E+02  0.00000000000E+00 0.  1.
         -2   -1    0    0    0  501 -0.00000000000E+00 -0.00000000000E+00 -0.15185969084E+03  0.15185969084E+03  0.00000000000E+00 0. -1.
         23    2    1    2    0    0 -0.12632302616E+02 -0.28917397894E+02 -0.57418146914E+02  0.14120330702E+03  0.12508292989E+03 0.  0.
          5    1    3    3  502    0  0.15340411283E+02 -0.55810758236E+01 -0.90356119111E+02  0.91913966765E+02  0.41800000000E+01 0. -1.
         -5    1    3    3    0  502 -0.27972713899E+02 -0.23336322070E+02  0.32937972197E+02  0.49289340258E+02  0.41800000000E+01 0. -1.
        -11    1    1    2    0    0 -0.14811127763E+02  0.49040229376E+02 -0.27960704453E+02  0.58361927627E+02  0.00000000000E+00 0. -1.
         11    1    1    2    0    0  0.27443430379E+02 -0.20122831482E+02  0.21452617964E+02  0.40227913633E+02  0.00000000000E+00 0.  1.
</event>
<event>
 7    1  0.8661710E-006  0.1166443E+03  0.7561462E-02  0.1248738E+00
         -1   -1    0    0    0  501 -0.00000000000E+00  0.00000000000E+00  0.40654296946E+02  0.40654296946E+02  0.00000000000E+00 0.  1.
          1   -1    0    0  501    0  0.00000000000E+00 -0.00000000000E+00 -0.57347528807E+03  0.57347528807E+03  0.00000000000E+00 0. -1.
         23    2    1    2    0    0  0.80836501200E+02 -0.10290759981E+02 -0.14673432789E+03  0.20932906886E+03  0.12508899401E+03 0.  0.
          5    1    3    3  502    0  0.95799821274E+02 -0.12064478678E+00 -0.15998191411E+03  0.18651891473E+03  0.41800000000E+01 0. -1.
         -5    1    3    3    0  502 -0.14963320075E+02 -0.10170115195E+02  0.13247586220E+02  0.22810154129E+02  0.41800000000E+01 0. -1.
        -11    1    1    2    0    0 -0.92446736357E+02 -0.12463840440E+02 -0.33407373383E+03  0.34685300347E+03  0.00000000000E+00 0. -1.
         11    1    1    2    0    0  0.11610235157E+02  0.22754600421E+02 -0.52012929413E+02  0.57947512689E+02  0.00000000000E+00 0.  1.
</event>
<event>
 7    1  0.8661710E-006  0.1105724E+03  0.7561462E-02  0.1259513E+00
         -1   -1    0    0    0  501 -0.00000000000E+00  0.00000000000E+00  0.72298327987E+02  0.72298327987E+02  0.00000000000E+00 0.  1.
          1   -1    0    0  501    0  0.00000000000E+00 -0.00000000000E+00 -0.20953754189E+03  0.20953754189E+03  0.00000000000E+00 0. -1.
         23    2    1    2    0    0  0.48598891197E+02 -0.16555235132E+02 -0.34158055734E+02  0.13946509070E+03  0.12509120959E+03 0.  0.
          5    1    3    3  502    0  0.49333858067E+00 -0.58740139191E+02 -0.45411985458E+02  0.74366445111E+02  0.41800000000E+01 0.  1.
         -5    1    3    3    0  502  0.48105552617E+02  0.42184904059E+02  0.11253929725E+02  0.65098645587E+02  0.41800000000E+01 0.  1.
        -11    1    1    2    0    0 -0.71471952245E+02  0.21695201763E+02 -0.76180940273E+02  0.10668860013E+03  0.00000000000E+00 0.  1.
         11    1    1    2    0    0  0.22873061048E+02 -0.51399666315E+01 -0.26900217897E+02  0.35682179048E+02  0.00000000000E+00 0. -1.
</event>
<event>
 7    1  0.8661710E-006  0.5448165E+02  0.7561462E-02  0.1422566E+00
         -2   -1    0    0    0  501 -0.00000000000E+00  0.00000000000E+00  0.10711651932E+03  0.10711651932E+03  0.00000000000E+00 0.  1.
          2   -1    0    0  501    0  0.00000000000E+00 -0.00000000000E+00 -0.11809760855E+03  0.11809760855E+03  0.00000000000E+00 0. -1.
         23    2    1    2    0    0  0.20077488308E+02 -0.24634985272E+02 -0.53598794237E+01  0.12917575248E+03  0.12509060191E+03 0.  0.
          5    1    3    3  502    0  0.18186901241E+02 -0.34720060361E+02  0.55078596537E+02  0.67730127452E+02  0.41800000000E+01 0.  1.
         -5    1    3    3    0  502  0.18905870675E+01  0.10085075089E+02 -0.60438475961E+02  0.61445625031E+02  0.41800000000E+01 0.  1.
        -11    1    1    2    0    0  0.16466891699E+02  0.70816678694E+01  0.34576481273E+02  0.38946650681E+02  0.00000000000E+00 0.  1.
         11    1    1    2    0    0 -0.36544380007E+02  0.17553317403E+02 -0.40197691082E+02  0.57091724709E+02  0.00000000000E+00 0. -1.
</event>
<event>
 7    1  0.8661710E-006  0.1568134E+03  0.7561462E-02  0.1192342E+00
          2   -1    0    0  501    0  0.00000000000E+00  0.00000000000E+00  0.90766142345E+03  0.90766142345E+03  0.00000000000E+00 0. -1.
         -2   -1    0    0    0  501 -0.00000000000E+00 -0.00000000000E+00 -0.33341180746E+02  0.33341180746E+02  0.00000000000E+00 0.  1.
         23    2    1    2    0    0  0.88835221195E+02  0.99066015790E+02  0.37688702925E+03  0.41803157187E+03  0.12247771330E+03 0.  0.
          5    1    3    3  502    0  0.22948307852E+02 -0.28292386214E+02  0.92749190047E+02  0.99734490550E+02  0.41800000000E+01 0. -1.
         -5    1    3    3    0  502  0.65886913343E+02  0.12735840200E+03  0.28413783920E+03  0.31829708132E+03  0.41800000000E+01 0. -1.
        -11    1    1    2    0    0 -0.63453640395E+02 -0.77781683596E+02  0.46804668721E+03  0.47868993742E+03  0.00000000000E+00 0. -1.
         11    1    1    2    0    0 -0.25381580800E+02 -0.21284332194E+02  0.29386526241E+02  0.44281094898E+02  0.00000000000E+00 0.  1.
</event>
<event>
 7    1  0.8661710E-006  0.1804204E+03  0.7561462E-02  0.1167397E+00
         -3   -1    0    0    0  501 -0.00000000000E+00  0.00000000000E+00  0.18421248955E+03  0.18421248955E+03  0.00000000000E+00 0.  1.
          3   -1    0    0  501    0  0.00000000000E+00 -0.00000000000E+00 -0.29840691966E+03  0.29840691966E+03  0.00000000000E+00 0. -1.
         23    2    1    2    0    0  0.37754230664E+02  0.16052085142E+03  0.65790763753E+02  0.21718301341E+03  0.12509081120E+03 0.  0.
          5    1    3    3  502    0 -0.16708733616E+02 -0.51193076345E+01  0.36010631610E+02  0.40244590676E+02  0.41800000000E+01 0. -1.
         -5    1    3    3    0  502  0.54462964280E+02  0.16564015905E+03  0.29780132143E+02  0.17693842273E+03  0.41800000000E+01 0. -1.
        -11    1    1    2    0    0  0.65702364275E+01 -0.16119717598E+02  0.12007189411E+02  0.21146770432E+02  0.00000000000E+00 0.  1.
         11    1    1    2    0    0 -0.44324467092E+02 -0.14440113382E+03 -0.19199238327E+03  0.24428962537E+03  0.00000000000E+00 0. -1.
</event>
<event>
 7    1  0.8661710E-006  0.1406031E+03  0.7561462E-02  0.1212520E+00
          2   -1    0    0  501    0  0.00000000000E+00  0.00000000000E+00  0.95758913192E+02  0.95758913192E+02  0.00000000000E+00 0. -1.
         -2   -1    0    0    0  501 -0.00000000000E+00 -0.00000000000E+00 -0.33214671359E+03  0.33214671359E+03  0.00000000000E+00 0.  1.
         23    2    1    2    0    0  0.51413854912E+02 -0.12545273739E+03 -0.17781841083E+03  0.25622320493E+03  0.12509664152E+03 0.  0.
          5    1    3    3  502    0  0.47724219036E+02 -0.47761462456E+02 -0.16361423142E+03  0.17704758541E+03  0.41800000000E+01 0. -1.
         -5    1    3    3    0  502  0.36896358756E+01 -0.77691274934E+02 -0.14204179418E+02  0.79175619522E+02  0.41800000000E+01 0. -1.
        -11    1    1    2    0    0 -0.15535517805E+02  0.44024177074E+02 -0.67696478564E+02  0.82233166608E+02  0.00000000000E+00 0.  1.
         11    1    1    2    0    0 -0.35878337107E+02  0.81428560316E+02  0.91270890010E+01  0.89449255237E+02  0.00000000000E+00 0. -1.
</event>
<event>
 7    1  0.8661710E-006  0.1686121E+03  0.7561462E-02  0.1179303E+00
          1   -1    0    0  501    0  0.00000000000E+00  0.00000000000E+00  0.28382878957E+03  0.28382878957E+03  0.00000000000E+00 0. -1.
         -1   -1    0    0    0  501 -0.00000000000E+00 -0.00000000000E+00 -0.16528239613E+03  0.16528239613E+03  0.00000000000E+00 0.  1.
         23    2    1    2    0    0 -0.30129526352E+02 -0.14827699542E+03 -0.61450890540E+02  0.19816437664E+03  0.11224550100E+03 0.  0.
          5    1    3    3  502    0 -0.48843495474E+02 -0.89553939272E+02 -0.84198648129E+02  0.13233472649E+03  0.41800000000E+01 0. -1.
         -5    1    3    3    0  502  0.18713969122E+02 -0.58723056148E+02  0.22747757590E+02  0.65829650151E+02  0.41800000000E+01 0.  1.
        -11    1    1    2    0    0 -0.14046637106E+02  0.12018835994E+03  0.14012334401E+03  0.18514076108E+03  0.00000000000E+00 0. -1.
         11    1    1    2    0    0  0.44176163458E+02  0.28088635481E+02  0.39873939969E+02  0.65806047971E+02  0.00000000000E+00 0.  1.
</event>
<event>
 7    1  0.8661710E-006  0.8980670E+02  0.7561462E-02  0.1303320E+00
          1   -1    0    0  501    0  0.00000000000E+00  0.00000000000E+00  0.96982320732E+02  0.96982320732E+02  0.00000000000E+00 0. -1.
         -1   -1    0    0    0  501 -0.00000000000E+00 -0.00000000000E+00 -0.12251502566E+03  0.12251502566E+03  0.00000000000E+00 0.  1.
         23    2    1    2    0    0  0.17807899716E+02 -0.70333747103E+00  0.31164239696E+01  0.12638379482E+03  0.12508211510E+03 0.  0.
          5    1    3    3  502    0  0.45845388793E+02 -0.38358789749E+02 -0.31695809092E+02  0.67788591507E+02  0.41800000000E+01 0.  1.
         -5    1    3    3    0  502 -0.28037489077E+02  0.37655452278E+02  0.34812233061E+02  0.58595203308E+02  0.41800000000E+01 0.  1.
        -11    1    1    2    0    0  0.25866644749E+02  0.10299918237E+02 -0.38316769213E+02  0.47363978181E+02  0.00000000000E+00 0. -1.
         11    1    1    2    0    0 -0.43674544464E+02 -0.95965807660E+01  0.96676403156E+01  0.45749573395E+02  0.00000000000E+00 0.  1.
</event>
<event>
 6    1  0.8661710E-006  0.1619190E+03  0.7561462E-02  0.1186547E+00
         -1   -1    0    0    0  501 -0.00000000000E+00  0.00000000000E+00  0.30403433105E+02  0.30403433105E+02  0.00000000000E+00 0.  1.
          1   -1    0    0  501    0  0.00000000000E+00 -0.00000000000E+00 -0.87906450414E+03  0.87906450414E+03  0.00000000000E+00 0. -1.
          5    1    1    2  502    0 -0.10618680400E+03  0.90493024276E+02 -0.35439331363E+03  0.38088937755E+03  0.41800000000E+01 0. -1.
         -5    1    1    2    0  502  0.54084433176E+02 -0.10446509626E+02 -0.14213231308E+03  0.15249040067E+03  0.41800000000E+01 0.  1.
        -11    1    1    2    0    0  0.19295133061E+02  0.17532383609E+02 -0.10864818050E+03  0.11173233086E+03  0.00000000000E+00 0.  1.
         11    1    1    2    0    0  0.32807237760E+02 -0.97578898259E+02 -0.24348726383E+03  0.26435582816E+03  0.00000000000E+00 0. -1.
</event>
<event>
 7    1  0.8661710E-006  0.2055289E+03  0.7561462E-02  0.1145156E+00
          2   -1    0    0  501    0  0.00000000000E+00  0.00000000000E+00  0.10916975433E+04  0.10916975433E+04  0.00000000000E+00 0. -1.
         -2   -1    0    0    0  501 -0.00000000000E+00 -0.00000000000E+00 -0.46589896615E+02  0.46589896615E+02  0.00000000000E+00 0.  1.
         23    2    1    2    0    0 -0.15851900861E+03 -0.10177632147E+03  0.38447334185E+03  0.44604303186E+03  0.12509172624E+03 0.  0.
          5    1    3    3  502    0 -0.17352926439E+03 -0.82581138042E+02  0.37111344320E+03  0.41794103661E+03  0.41800000000E+01 0. -1.
         -5    1    3    3    0  502  0.15010255772E+02 -0.19195183432E+02  0.13359898656E+02  0.28101995257E+02  0.41800000000E+01 0. -1.
        -11    1    1    2    0    0  0.89420100749E+02  0.84175593426E+02  0.52312918882E+03  0.53735056820E+03  0.00000000000E+00 0. -1.
         11    1    1    2    0    0  0.69098907865E+02  0.17600728048E+02  0.13750511604E+03  0.15489383988E+03  0.00000000000E+00 0.  1.
</event>
<event>
 7    1  0.8661710E-006  0.1785007E+03  0.7561462E-02  0.1169262E+00
          2   -1    0    0  501    0  0.00000000000E+00  0.00000000000E+00  0.44504770043E+03  0.44504770043E+03  0.00000000000E+00 0. -1.
         -2   -1    0    0    0  501 -0.00000000000E+00 -0.00000000000E+00 -0.83661602464E+02  0.83661602464E+02  0.00000000000E+00 0.  1.
         23    2    1    2    0    0  0.59983560058E+02  0.14622458122E+03  0.16411861346E+03  0.25992683528E+03  0.12508950709E+03 0.  0.
          5    1    3    3  502    0  0.67650737949E+02  0.17746536315E+02  0.78845767730E+02  0.10547838350E+03  0.41800000000E+01 0. -1.
         -5    1    3    3    0  502 -0.76671778906E+01  0.12847804491E+03  0.85272845726E+02  0.15444845178E+03  0.41800000000E+01 0. -1.
        -11    1    1    2    0    0 -0.13624213805E+02 -0.27024996436E+02  0.10965381739E+03  0.11375381005E+03  0.00000000000E+00 0. -1.
         11    1    1    2    0    0 -0.46359346253E+02 -0.11919958479E+03  0.87613667129E+02  0.15502865757E+03  0.00000000000E+00 0.  1.
</event>
<event>
 7    1  0.8661710E-006  0.1077039E+03  0.7561462E-02  0.1264882E+00
         -1   -1    0    0    0  501 -0.00000000000E+00  0.00000000000E+00  0.30962002624E+02  0.30962002624E+02  0.00000000000E+00 0.  1.
          1   -1    0    0  501    0  0.00000000000E+00 -0.00000000000E+00 -0.58842550548E+03  0.58842550548E+03  0.00000000000E+00 0. -1.
         23    2    1    2    0    0 -0.62035267136E+02  0.21863797520E+02 -0.17489263770E+03  0.22114601894E+03  0.11828663051E+03 0.  0.
          5    1    3    3  502    0 -0.68635606591E+02 -0.29364103141E+02 -0.62760531998E+02  0.97618921435E+02  0.41800000000E+01 0.  1.
         -5    1    3    3    0  502  0.66003394557E+01  0.51227900661E+02 -0.11213210570E+03  0.12352709750E+03  0.41800000000E+01 0. -1.
        -11    1    1    2    0    0 -0.15095875467E+01 -0.25142800757E+02 -0.26618643374E+02  0.36646847880E+02  0.00000000000E+00 0.  1.
         11    1    1    2    0    0  0.63544854682E+02  0.32790032369E+01 -0.35595222178E+03  0.36159464129E+03  0.00000000000E+00 0. -1.
</event>
<event>
 7    1  0.8661710E-006  0.9533666E+02  0.7561462E-02  0.1290420E+00
         -2   -1    0    0    0  501 -0.00000000000E+00  0.00000000000E+00  0.13984619736E+03  0.13984619736E+03  0.00000000000E+00 0.  1.
          2   -1    0    0  501    0  0.00000000000E+00 -0.00000000000E+00 -0.15842110782E+03  0.15842110782E+03  0.00000000000E+00 0. -1.
         23    2    1    2    0    0  0.40257644872E+02  0.61374970398E+02  0.57473727596E+02  0.15600680341E+03  0.12508928166E+03 0.  0.
          5    1    3    3  502    0  0.12753379458E+02 -0.71415209315E+01 -0.34671270009E+02  0.37857883893E+02  0.41800000000E+01 0. -1.
         -5    1    3    3    0  502  0.27504265414E+02  0.68516491330E+02  0.92144997605E+02  0.11814891952E+03  0.41800000000E+01 0. -1.
        -11    1    1    2    0    0  0.17054358785E+02 -0.33934708647E+02 -0.68430170530E+02  0.78263042640E+02  0.00000000000E+00 0. -1.
         11    1    1    2    0    0 -0.57312003658E+02 -0.27440261751E+02 -0.76184675284E+01  0.63997459135E+02  0.00000000000E+00 0.  1.
</event>
<event>
 7    1  0.8661710E-006  0.7857304E+02  0.7561462E-02  0.1333150E+00
         -1   -1    0    0    0  501 -0.00000000000E+00  0.00000000000E+00  0.78621599774E+02  0.78621599774E+02  0.00000000000E+00 0.  1.
          1   -1    0    0  501    0  0.00000000000E+00 -0.00000000000E+00 -0.22123576629E+03  0.22123576629E+03  0.00000000000E+00 0. -1.
         23    2    1    2    0    0 -0.16257273419E+02 -0.68777461470E+02 -0.50878676698E+02  0.15241815382E+03  0.12509202903E+03 0.  0.
          5    1    3    3  502    0 -0.56332508116E+01  0.21093543732E+01  0.37693841856E+02  0.38398971399E+02  0.41800000000E+01 0. -1.
         -5    1    3    3    0  502 -0.10624022607E+02 -0.70886815843E+02 -0.88572518555E+02  0.11401918242E+03  0.41800000000E+01 0. -1.
        -11    1    1    2    0    0  0.14739777050E+02  0.71637901166E+01 -0.83695191006E+02  0.85284617100E+02  0.00000000000E+00 0. -1.
         11    1    1    2    0    0  0.15174963688E+01  0.61613671353E+02 -0.80402988133E+01  0.62154595147E+02  0.00000000000E+00 0.  1.
</event>
<event>
 6    1  0.8661710E-006  0.1084676E+03  0.7561462E-02  0.1263434E+00
          1   -1    0    0  501    0  0.00000000000E+00  0.00000000000E+00  0.22420929258E+02  0.22420929258E+02  0.00000000000E+00 0. -1.
         -1   -1    0    0    0  501 -0.00000000000E+00 -0.00000000000E+00 -0.59740462375E+03  0.59740462375E+03  0.00000000000E+00 0.  1.
          5    1    1    2  502    0  0.49263922072E+02 -0.36968437078E+02 -0.22756349392E+03  0.23578849744E+03  0.41800000000E+01 0. -1.
         -5    1    1    2    0  502 -0.49525380857E+02  0.45007522551E+02 -0.19878902532E+03  0.20979272967E+03  0.41800000000E+01 0.  1.
        -11    1    1    2    0    0 -0.17831912167E+02 -0.44229281196E+02 -0.10138423862E+03  0.11204003859E+03  0.00000000000E+00 0. -1.
         11    1    1    2    0    0  0.18093370952E+02  0.36190195724E+02 -0.47246936636E+02  0.62204287316E+02  0.00000000000E+00 0.  1.
</event>
<event>
 7    1  0.8661710E-006  0.8967688E+02  0.7561462E-02  0.1303636E+00
         -4   -1    0    0    0  501 -0.00000000000E+00  0.00000000000E+00  0.70315369222E+02  0.70315369222E+02  0.00000000000E+00 0. -1.
          4   -1    0    0  501    0  0.00000000000E+00 -0.00000000000E+00 -0.19439445267E+03  0.19439445267E+03  0.00000000000E+00 0.  1.
         23    2    1    2    0    0  0.11494298851E+02  0.14799566382E+02 -0.43752133337E+02  0.13387520515E+03  0.12512863506E+03 0.  0.
          5    1    3    3  502    0 -0.24751556845E+02 -0.16181518977E+02 -0.72242709809E+02  0.78172646388E+02  0.41800000000E+01 0. -1.
         -5    1    3    3    0  502  0.36245855696E+02  0.30981085359E+02  0.28490576473E+02  0.55702558764E+02  0.41800000000E+01 0. -1.
        -11    1    1    2    0    0  0.39661115314E+02 -0.28292379978E+02 -0.26924846023E+02  0.55663364667E+02  0.00000000000E+00 0. -1.
         11    1    1    2    0    0 -0.51155414165E+02  0.13492813596E+02 -0.53402104088E+02  0.75171252072E+02  0.00000000000E+00 0.  1.
</event>
<event>
 7    1  0.8661710E-006  0.1066462E+03  0.7561462E-02  0.1266910E+00
          1   -1    0    0  501    0  0.00000000000E+00  0.00000000000E+00  0.40105884861E+03  0.40105884861E+03  0.00000000000E+00 0. -1.
         -1   -1    0    0    0  501 -0.00000000000E+00 -0.00000000000E+00 -0.35729917359E+02  0.35729917359E+02  0.00000000000E+00 0.  1.
         23    2    1    2    0    0 -0.17661432049E+00  0.28050702824E+02  0.13117644579E+03  0.18341750259E+03  0.12509135543E+03 0.  0.
          5    1    3    3  502    0  0.47971853849E+02 -0.16689250399E+02  0.96154806120E+02  0.10882577351E+03  0.41800000000E+01 0. -1.
         -5    1    3    3    0  502 -0.48148468169E+02  0.44739953223E+02  0.35021639665E+02  0.74591729074E+02  0.41800000000E+01 0. -1.
        -11    1    1    2    0    0 -0.25475883089E+02  0.26148078303E+02  0.78706910704E+02  0.86761284054E+02  0.00000000000E+00 0.  1.
         11    1    1    2    0    0  0.25652497410E+02 -0.54198781127E+02  0.15544557476E+03  0.16660997933E+03  0.00000000000E+00 0. -1.
</event>
<event>
 7    1  0.8661710E-006  0.1149823E+03  0.7561462E-02  0.1251612E+00
          2   -1    0    0  501    0  0.00000000000E+00  0.00000000000E+00  0.10417157677E+04  0.10417157677E+04  0.00000000000E+00 0. -1.
         -2   -1    0    0    0  501 -0.00000000000E+00 -0.00000000000E+00 -0.13969102019E+02  0.13969102019E+02  0.00000000000E+00 0.  1.
         23    2    1    2    0    0 -0.34119188487E+02  0.26179402709E+02  0.48612921972E+03  0.50457285447E+03  0.12815095417E+03 0.  0.
          5    1    3    3  502    0 -0.41764478719E+02 -0.42500325568E+02  0.30218221611E+03  0.30802940361E+03  0.41800000000E+01 0. -1.
         -5    1    3    3    0  502  0.76452902313E+01  0.68679728277E+02  0.18394700360E+03  0.19654345085E+03  0.41800000000E+01 0.  1.
        -11    1    1    2    0    0  0.65784034178E+02 -0.19812412154E+02  0.40008358171E+03  0.40593958071E+03  0.00000000000E+00 0.  1.
         11    1    1    2    0    0 -0.31664845690E+02 -0.63669905551E+01  0.14153386427E+03  0.14517243456E+03  0.00000000000E+00 0. -1.
</event>
<event>
 7    1  0.8661710E-006  0.9846157E+02  0.7561462E-02  0.1283565E+00
         -1   -1    0    0    0  501 -0.00000000000E+00  0.00000000000E+00  0.32821029603E+03  0.32821029603E+03  0.00000000000E+00 0.  1.
          1   -1    0    0  501    0  0.00000000000E+00 -0.00000000000E+00 -0.51876492983E+02  0.51876492983E+02  0.00000000000E+00 0. -1.
         23    2    1    2    0    0 -0.16159016040E+02 -0.70112415311E+02  0.12793613701E+03  0.19285214501E+03  0.12508968823E+03 0.  0.
          5    1    3    3  502    0  0.38464717206E+02 -0.79431392042E+01 -0.10857301917E+01  0.39513024944E+02  0.41800000000E+01 0.  1.
         -5    1    3    3    0  502 -0.54623733246E+02 -0.62169276107E+02  0.12902186720E+03  0.15333912006E+03  0.41800000000E+01 0.  1.
        -11    1    1    2    0    0  0.73810440408E+01  0.62526242300E+02  0.15931449486E+03  0.17130417117E+03  0.00000000000E+00 0.  1.
         11    1    1    2    0    0  0.87779719990E+01  0.75861730117E+01 -0.10916828821E+02  0.15930472839E+02  0.00000000000E+00 0. -1.
</event>
<event>
 7    1  0.8661710E-006  0.1933431E+03  0.7561462E-02  0.1155480E+00
          2   -1    0    0  501    0  0.00000000000E+00  0.00000000000E+00  0.25199042344E+03  0.25199042344E+03  0.00000000000E+00 0. -1.
         -2   -1    0    0    0  501 -0.00000000000E+00 -0.00000000000E+00 -0.24837866028E+03  0.24837866028E+03  0.00000000000E+00 0.  1.
         23    2    1    2    0    0  0.98376244946E+02 -0.16119180532E+03 -0.11602817636E+03  0.25449992273E+03  0.12508792622E+03 0.  0.
          5    1    3    3  502    0  0.51587698599E+02 -0.92781289731E+02 -0.13256336812E+03  0.16988283415E+03  0.41800000000E+01 0. -1.
         -5    1    3    3    0  502  0.46788546347E+02 -0.68410515593E+02  0.16535191762E+02  0.84617088579E+02  0.41800000000E+01 0. -1.
        -11    1    1    2    0    0 -0.48013691936E+02  0.29223345966E+02 -0.63852962994E+01  0.56569343037E+02  0.00000000000E+00 0.  1.
         11    1    1    2    0    0 -0.50362553010E+02  0.13196845936E+03  0.12602523582E+03  0.18929981795E+03  0.00000000000E+00 0. -1.
</event>
<event>
 7    1  0.8661710E-006  0.9270427E+02  0.7561462E-02  0.1296432E+00
         -1   -1    0    0    0  501 -0.00000000000E+00  0.00000000000E+00  0.26542405571E+03  0.26542405571E+03  0.00000000000E+00 0.  1.
          1   -1    0    0  501    0  0.00000000000E+00 -0.00000000000E+00 -0.56732934234E+02  0.56732934234E+02  0.00000000000E+00 0. -1.
         23    2    1    2    0    0  0.10629257441E+02 -0.59252789776E+02  0.15186823723E+03  0.20575643256E+03  0.12509146194E+03 0.  0.
          5    1    3    3  502    0  0.58315466071E+02 -0.16024690637E+02  0.29472684351E+02  0.67406200130E+02  0.41800000000E+01 0. -1.
         -5    1    3    3    0  502 -0.47686208629E+02 -0.43228099139E+02  0.12239555288E+03  0.13835023243E+03  0.41800000000E+01 0. -1.
        -11    1    1    2    0    0 -0.49449454256E+01  0.18864998836E+02 -0.20924978796E+02  0.28604115158E+02  0.00000000000E+00 0. -1.
         11    1    1    2    0    0 -0.56843120157E+01  0.40387790940E+02  0.77747863047E+02  0.87796442231E+02  0.00000000000E+00 0.  1.
</event>
<event>
 7    1  0.8661710E-006  0.1181289E+03  0.7561462E-02  0.1246216E+00
          2   -1    0    0  501    0  0.00000000000E+00  0.00000000000E+00  0.64952582917E+02  0.64952582917E+02  0.00000000000E+00 0.  1.
         -2   -1    0    0    0  501 -0.00000000000E+00 -0.00000000000E+00 -0.23800113122E+03  0.23800113122E+03  0.00000000000E+00 0. -1.
         23    2    1    2    0    0 -0.38239854661E+02  0.45065218155E+02 -0.10450183752E+03  0.17338357075E+03  0.12509223872E+03 0.  0.
          5    1    3    3  502    0 -0.62157578545E+02  0.68477304602E+02 -0.10456176899E+03  0.13965436531E+03  0.41800000000E+01 0. -1.
         -5    1    3    3    0  502  0.23917723884E+02 -0.23412086447E+02  0.59931465150E-01  0.33729205437E+02  0.41800000000E+01 0. -1.
        -11    1    1    2    0    0 -0.40793764666E+01  0.26499873649E+02 -0.16805498389E+02  0.31643473133E+02  0.00000000000E+00 0.  1.
         11    1    1    2    0    0  0.42319231128E+02 -0.71565091804E+02 -0.51741212391E+02  0.97926670258E+02  0.00000000000E+00 0. -1.
</event>
<event>
 7    1  0.2329125E-005  0.1362183E+03  0.7561462E-02  0.1218510E+00
          2   -1    0    0  501    0  0.00000000000E+00  0.00000000000E+00  0.13869123368E+04  0.13869123368E+04  0.00000000000E+00 0. -1.
         -2   -1    0    0    0  501 -0.00000000000E+00 -0.00000000000E+00 -0.17727039700E+02  0.17727039700E+02  0.00000000000E+00 0.  1.
         23    2    1    2    0    0 -0.99324840442E+02  0.44924995632E+02  0.61475696041E+03  0.63675541560E+03  0.12509060619E+03 0.  0.
          5    1    3    3  502    0 -0.15762990779E+02  0.42845346759E+02  0.58925418638E+02  0.74658375142E+02  0.41800000000E+01 0. -1.
         -5    1    3    3    0  502 -0.83561849663E+02  0.20796488729E+01  0.55583154177E+03  0.56209704046E+03  0.41800000000E+01 0. -1.
        -11    1    1    2    0    0  0.87496052988E+02 -0.72027378836E+02  0.58034537918E+03  0.59130724816E+03  0.00000000000E+00 0.  1.
         11    1    1    2    0    0  0.11828787454E+02  0.27102383204E+02  0.17408295746E+03  0.17657671270E+03  0.00000000000E+00 0. -1.
</event>
<event>
 7    1  0.8661710E-006  0.6251923E+02  0.7561462E-02  0.1387554E+00
         -2   -1    0    0    0  501 -0.00000000000E+00  0.00000000000E+00  0.49267907054E+02  0.49267907054E+02  0.00000000000E+00 0.  1.
          2   -1    0    0  501    0  0.00000000000E+00 -0.00000000000E+00 -0.30066934626E+03  0.30066934626E+03  0.00000000000E+00 0. -1.
         23    2    1    2    0    0  0.45279322051E+02  0.17432090400E+02 -0.17952533096E+03  0.22412443608E+03  0.12509325965E+03 0.  0.
          5    1    3    3  502    0  0.71388684235E+00  0.72377788180E+01  0.18783400637E+02  0.20571427177E+02  0.41800000000E+01 0. -1.
         -5    1    3    3    0  502  0.44565435209E+02  0.10194311582E+02 -0.19830873160E+03  0.20355300890E+03  0.41800000000E+01 0. -1.
        -11    1    1    2    0    0 -0.58943439871E+01 -0.29080032599E+02  0.12324618284E+02  0.32129235952E+02  0.00000000000E+00 0.  1.
         11    1    1    2    0    0 -0.39384978064E+02  0.11647942199E+02 -0.84200726524E+02  0.93683581281E+02  0.00000000000E+00 0. -1.
</event>
<event>
 7    1  0.8661710E-006  0.2046232E+03  0.7561462E-02  0.1145896E+00
         -1   -1    0    0    0  501 -0.00000000000E+00  0.00000000000E+00  0.31070749801E+02  0.31070749801E+02  0.00000000000E+00 0.  1.
          1   -1    0    0  501    0  0.00000000000E+00 -0.00000000000E+00 -0.15490960046E+04  0.15490960046E+04  0.00000000000E+00 0. -1.
         23    2    1    2    0    0  0.35799803912E+02 -0.18628050638E+03 -0.85006443728E+03  0.87990924866E+03  0.12509470545E+03 0.  0.
          5    1    3    3  502    0  0.50573795519E+02 -0.19524023828E+03 -0.82417842962E+03  0.84850693320E+03  0.41800000000E+01 0.  1.
         -5    1    3    3    0  502 -0.14773991607E+02  0.89597319001E+01 -0.25886007663E+02  0.31402315464E+02  0.41800000000E+01 0.  1.
        -11    1    1    2    0    0 -0.30701531024E+02  0.16702022498E+03 -0.65459976613E+03  0.67626858080E+03  0.00000000000E+00 0.  1.
         11    1    1    2    0    0 -0.50982728875E+01  0.19260281393E+02 -0.13361051400E+02  0.23988924951E+02  0.00000000000E+00 0. -1.
</event>
<event>
 7    1  0.8661710E-006  0.2746684E+03  0.7561462E-02  0.1098637E+00
         -2   -1    0    0    0  501 -0.00000000000E+00  0.00000000000E+00  0.57623279039E+02  0.57623279039E+02  0.00000000000E+00 0.  1.
          2   -1    0    0  501    0  0.00000000000E+00 -0.00000000000E+00 -0.14861107562E+04  0.14861107562E+04  0.00000000000E+00 0. -1.
         23    2    1    2    0    0  0.19665634855E+03 -0.17836740710E+03 -0.58025498593E+03  0.65025579801E+03  0.12509237709E+03 0.  0.
          5    1    3    3  502    0  0.62064437699E+02 -0.51441017290E+01 -0.21779450573E+03  0.22656207833E+03  0.41800000000E+01 0.  1.
         -5    1    3    3    0  502  0.13459191085E+03 -0.17322330537E+03 -0.36246048020E+03  0.42369371968E+03  0.41800000000E+01 0.  1.
        -11    1    1    2    0    0 -0.15123147334E+03  0.11722525560E+03 -0.71343410759E+03  0.73864805216E+03  0.00000000000E+00 0. -1.
         11    1    1    2    0    0 -0.45424875216E+02  0.61142151497E+02 -0.13479838363E+03  0.15483018507E+03  0.00000000000E+00 0.  1.
</event>
<event>
 7    1  0.8661710E-006  0.1341655E+03  0.7561462E-02  0.1221403E+00
          3   -1    0    0  501    0  0.00000000000E+00  0.00000000000E+00  0.24157402823E+03  0.24157402823E+03  0.00000000000E+00 0. -1.
         -3   -1    0    0    0  501 -0.00000000000E+00 -0.00000000000E+00 -0.10908252832E+03  0.10908252832E+03  0.00000000000E+00 0.  1.
         23    2    1    2    0    0 -0.59601965294E+02  0.55789610508E+02 -0.23882991040E+02  0.15127104492E+03  0.12509059462E+03 0.  0.
          5    1    3    3  502    0 -0.49380165629E+02 -0.33189905784E+02 -0.73192080669E+01  0.60091711660E+02  0.41800000000E+01 0.  1.
         -5    1    3    3    0  502 -0.10221799666E+02  0.88979516292E+02 -0.16563782973E+02  0.91179333264E+02  0.41800000000E+01 0.  1.
        -11    1    1    2    0    0  0.65217853860E+01 -0.64849582012E+02  0.58042766782E+02  0.87275224133E+02  0.00000000000E+00 0. -1.
         11    1    1    2    0    0  0.53080179909E+02  0.90599715037E+01  0.98331724170E+02  0.11211028749E+03  0.00000000000E+00 0.  1.
</event>
<event>
 7    1  0.8661710E-006  0.1532682E+03  0.7561462E-02  0.1196514E+00
         -2   -1    0    0    0  501 -0.00000000000E+00  0.00000000000E+00  0.44150262925E+02  0.44150262925E+02  0.00000000000E+00 0.  1.
          2   -1    0    0  501    0  0.00000000000E+00 -0.00000000000E+00 -0.69480137287E+03  0.69480137287E+03  0.00000000000E+00 0. -1.
         23    2    1    2    0    0  0.11744947783E+03  0.25753195415E+02 -0.19237646860E+03  0.25906166658E+03  0.12508650808E+03 0.  0.
          5    1    3    3  502    0 -0.12635282578E+02  0.32311077921E+02 -0.78786056606E+02  0.86187999384E+02  0.41800000000E+01 0. -1.
         -5    1    3    3    0  502  0.13008476041E+03 -0.65578825059E+01 -0.11359041199E+03  0.17287366720E+03  0.41800000000E+01 0. -1.
        -11    1    1    2    0    0 -0.13329432996E+02  0.22784387656E+02 -0.11151862257E+03  0.11460019758E+03  0.00000000000E+00 0. -1.
         11    1    1    2    0    0 -0.10412004483E+03 -0.48537583071E+02 -0.34675601878E+03  0.36528977164E+03  0.00000000000E+00 0.  1.
</event>
<event>
 7    1  0.8661710E-006  0.7704047E+02  0.7561462E-02  0.1337666E+00
          2   -1    0    0  501    0  0.00000000000E+00  0.00000000000E+00  0.12204594900E+03  0.12204594900E+03  0.00000000000E+00 0. -1.
         -2   -1    0    0    0  501 -0.00000000000E+00 -0.00000000000E+00 -0.20275216005E+03  0.20275216005E+03  0.00000000000E+00 0.  1.
         23    2    1    2    0    0 -0.44494500163E+02  0.13317469224E+01 -0.15059527522E+03  0.20076703839E+03  0.12508770000E+03 0.  0.
          5    1    3    3  502    0 -0.21397382973E+02  0.41343012438E+02 -0.14698657964E+03  0.15423883969E+03  0.41800000000E+01 0.  1.
         -5    1    3    3    0  502 -0.23097117190E+02 -0.40011265516E+02 -0.36086955854E+01  0.46528198702E+02  0.41800000000E+01 0.  1.
        -11    1    1    2    0    0  0.21023223314E+01 -0.15968043560E+02 -0.18734630643E+02  0.24705962027E+02  0.00000000000E+00 0.  1.
         11    1    1    2    0    0  0.42392177831E+02  0.14636296638E+02  0.88623694818E+02  0.99325108627E+02  0.00000000000E+00 0. -1.
</event>
<event>
 7    1  0.8661710E-006  0.2157772E+03  0.7561462E-02  0.1137071E+00
         -1   -1    0    0    0  501 -0.00000000000E+00  0.00000000000E+00  0.80328848777E+03  0.80328848777E+03  0.00000000000E+00 0.  1.
          1   -1    0    0  501    0  0.00000000000E+00 -0.00000000000E+00 -0.78654158105E+02  0.78654158105E+02  0.00000000000E+00 0. -1.
         23    2    1    2    0    0  0.15758204030E+03 -0.13000946947E+03  0.54878850021E+03  0.59879103393E+03  0.12508925926E+03 0.  0.
          5    1    3    3  502    0  0.14111038838E+03 -0.14143315865E+03  0.38542305845E+03  0.43414730963E+03  0.41800000000E+01 0. -1.
         -5    1    3    3    0  502  0.16471651914E+02  0.11423689182E+02  0.16336544176E+03  0.16464372430E+03  0.41800000000E+01 0. -1.
        -11    1    1    2    0    0 -0.11631786598E+03  0.62295207535E+02  0.14993869113E+03  0.19973019282E+03  0.00000000000E+00 0.  1.
         11    1    1    2    0    0 -0.41264174320E+02  0.67714261931E+02  0.25907138326E+02  0.83421419117E+02  0.00000000000E+00 0. -1.
</event>
<event>
 7    1  0.8661710E-006  0.1704887E+03  0.7561462E-02  0.1177339E+00
         -4   -1    0    0    0  501 -0.00000000000E+00  0.00000000000E+00  0.11467613328E+03  0.11467613328E+03  0.00000000000E+00 0. -1.
          4   -1    0    0  501    0  0.00000000000E+00 -0.00000000000E+00 -0.33247493390E+03  0.33247493390E+03  0.00000000000E+00 0.  1.
         23    2    1    2    0    0 -0.81235859850E+02 -0.12095421870E+03 -0.32624738309E+02  0.19479213875E+03  0.12510162197E+03 0.  0.
          5    1    3    3  502    0 -0.80782916805E+02 -0.40848331403E+02  0.27324304542E+02  0.94649647885E+02  0.41800000000E+01 0.  1.
         -5    1    3    3    0  502 -0.45294304474E+00 -0.80105887298E+02 -0.59949042851E+02  0.10014249086E+03  0.41800000000E+01 0.  1.
        -11    1    1    2    0    0  0.99470322894E+02  0.11210597401E+03 -0.15185028831E+03  0.21335558255E+03  0.00000000000E+00 0. -1.
         11    1    1    2    0    0 -0.18234463044E+02  0.88482446921E+01 -0.33323774003E+02  0.39003345888E+02  0.00000000000E+00 0.  1.
</event>
<event>
 7    1  0.8661710E-006  0.1202301E+03  0.7561462E-02  0.1242718E+00
         -1   -1    0    0    0  501 -0.00000000000E+00  0.00000000000E+00  0.82412330088E+02  0.82412330088E+02  0.00000000000E+00 0.  1.
          1   -1    0    0  501    0  0.00000000000E+00 -0.00000000000E+00 -0.18787985155E+03  0.18787985155E+03  0.00000000000E+00 0. -1.
         23    2    1    2    0    0  0.40660408100E+02 -0.48582927257E+02 -0.51473411975E+02  0.14936496325E+03  0.12508721158E+03 0.  0.
          5    1    3    3  502    0 -0.39249737311E+02  0.24193376888E+01  0.34993617044E+01  0.39700289749E+02  0.41800000000E+01 0. -1.
         -5    1    3    3    0  502  0.79910145410E+02 -0.51002264946E+02 -0.54972773679E+02  0.10966467351E+03  0.41800000000E+01 0. -1.
        -11    1    1    2    0    0  0.26758953185E+02  0.12127911300E+02 -0.26305670110E+02  0.39434960225E+02  0.00000000000E+00 0.  1.
         11    1    1    2    0    0 -0.67419361285E+02  0.36455015957E+02 -0.27688439377E+02  0.81492258157E+02  0.00000000000E+00 0. -1.
</event>
<event>
 7    1  0.8661710E-006  0.1617320E+03  0.7561462E-02  0.1186755E+00
         -2   -1    0    0    0  501 -0.00000000000E+00  0.00000000000E+00  0.54450631896E+02  0.54450631896E+02  0.00000000000E+00 0.  1.
          2   -1    0    0  501    0  0.00000000000E+00 -0.00000000000E+00 -0.49546471261E+03  0.49546471261E+03  0.00000000000E+00 0. -1.
         23    2    1    2    0    0 -0.55733091328E+01 -0.12248083855E+03 -0.24799468914E+03  0.30361475748E+03  0.12509171648E+03 0.  0.
          5    1    3    3  502    0  0.50508790425E+02 -0.16396914880E+02 -0.97389349091E+02  0.11100520008E+03  0.41800000000E+01 0. -1.
         -5    1    3    3    0  502 -0.56082099558E+02 -0.10608392367E+03 -0.15060534005E+03  0.19260955741E+03  0.41800000000E+01 0. -1.
        -11    1    1    2    0    0 -0.36014790337E+02  0.24146405777E+02 -0.35664504638E+02  0.56143307046E+02  0.00000000000E+00 0.  1.
         11    1    1    2    0    0  0.41588099470E+02  0.98334432772E+02 -0.15735488693E+03  0.19015727998E+03  0.00000000000E+00 0. -1.
</event>
<event>
 7    1  0.8661710E-006  0.1532497E+03  0.7561462E-02  0.1196536E+00
         -1   -1    0    0    0  501 -0.00000000000E+00  0.00000000000E+00  0.58365499195E+02  0.58365499195E+02  0.00000000000E+00 0.  1.
          1   -1    0    0  501    0  0.00000000000E+00 -0.00000000000E+00 -0.45570320916E+03  0.45570320916E+03  0.00000000000E+00 0. -1.
         23    2    1    2    0    0 -0.80492608970E+02 -0.84357999824E+02 -0.15782038194E+03  0.23270478691E+03  0.12509561407E+03 0.  0.
          5    1    3    3  502    0 -0.68377259188E+02  0.88129500641E+01 -0.33352692223E+02  0.76700665848E+02  0.41800000000E+01 0. -1.
         -5    1    3    3    0  502 -0.12115349782E+02 -0.93170949888E+02 -0.12446768972E+03  0.15600412106E+03  0.41800000000E+01 0. -1.
        -11    1    1    2    0    0  0.15139020746E+02  0.76003110739E+02 -0.95471014049E+02  0.12296494344E+03  0.00000000000E+00 0. -1.
         11    1    1    2    0    0  0.65353588224E+02  0.83548890850E+01 -0.14404631398E+03  0.15839897801E+03  0.00000000000E+00 0.  1.
</event>
<event>
 7    1  0.8661710E-006  0.1859684E+03  0.7561462E-02  0.1162149E+00
         -2   -1    0    0    0  501 -0.00000000000E+00  0.00000000000E+00  0.27851604325E+02  0.27851604325E+02  0.00000000000E+00 0.  1.
          2   -1    0    0  501    0  0.00000000000E+00 -0.00000000000E+00 -0.15082913757E+04  0.15082913757E+04  0.00000000000E+00 0. -1.
         23    2    1    2    0    0 -0.65177442911E+02 -0.15988512983E+03 -0.70218792024E+03  0.73384351913E+03  0.12508829456E+03 0.  0.
          5    1    3    3  502    0 -0.35294974553E+02 -0.34305498197E+02 -0.42708149796E+03  0.42992869261E+03  0.41800000000E+01 0. -1.
         -5    1    3    3    0  502 -0.29882468358E+02 -0.12557963163E+03 -0.27510642228E+03  0.30391482652E+03  0.41800000000E+01 0. -1.
        -11    1    1    2    0    0  0.53536857086E+01 -0.11053211677E+02 -0.29455690837E+02  0.31913526313E+02  0.00000000000E+00 0. -1.
         11    1    1    2    0    0  0.59823757202E+02  0.17093834150E+03 -0.74879616028E+03  0.77038593456E+03  0.00000000000E+00 0.  1.
</event>
<event>
 7    1  0.8661710E-006  0.1210854E+03  0.7561462E-02  0.1241317E+00
          1   -1    0    0  501    0  0.00000000000E+00  0.00000000000E+00  0.59787847197E+03  0.59787847197E+03  0.00000000000E+00 0. -1.
         -1   -1    0    0    0  501 -0.00000000000E+00 -0.00000000000E+00 -0.32843595282E+02  0.32843595282E+02  0.00000000000E+00 0.  1.
         23    2    1    2    0    0 -0.12100533823E+02 -0.87154767715E+02  0.28459917712E+03  0.32309195148E+03  0.12509732628E+03 0.  0.
          5    1    3    3  502    0 -0.46237347638E+02 -0.67514094412E+02  0.79365786365E+02  0.11407210749E+03  0.41800000000E+01 0. -1.
         -5    1    3    3    0  502  0.34136813814E+02 -0.19640673304E+02  0.20523339075E+03  0.20901984400E+03  0.41800000000E+01 0. -1.
        -11    1    1    2    0    0 -0.34952310667E+02  0.48229487586E+02  0.18478924134E+03  0.19415151611E+03  0.00000000000E+00 0. -1.
         11    1    1    2    0    0  0.47052844490E+02  0.38925280129E+02  0.95646458228E+02  0.11347859965E+03  0.00000000000E+00 0.  1.
</event>
<event>
 7    1  0.8661710E-006  0.1510672E+03  0.7561462E-02  0.1199168E+00
          1   -1    0    0  501    0  0.00000000000E+00  0.00000000000E+00  0.19320751212E+03  0.19320751212E+03  0.00000000000E+00 0. -1.
         -1   -1    0    0    0  501 -0.00000000000E+00 -0.00000000000E+00 -0.17203486508E+03  0.17203486508E+03  0.00000000000E+00 0.  1.
         23    2    1    2    0    0  0.69217095487E+02 -0.94000029135E+02 -0.76419125339E+02  0.18738760429E+03  0.12508884739E+03 0.  0.
          5    1    3    3  502    0  0.90950829019E+02 -0.10981095672E+03 -0.55454742573E+02  0.15304639946E+03  0.41800000000E+01 0.  1.
         -5    1    3    3    0  502 -0.21733733533E+02  0.15810927585E+02 -0.20964382766E+02  0.34341204829E+02  0.41800000000E+01 0.  1.
        -11    1    1    2    0    0 -0.77041310427E+02  0.60697357320E+02  0.10410663823E+03  0.14303050312E+03  0.00000000000E+00 0. -1.
         11    1    1    2    0    0  0.78242149403E+01  0.33302671814E+02 -0.65148658529E+01  0.34824269791E+02  0.00000000000E+00 0.  1.
</event>
<event>
 7    1  0.8661710E-006  0.1084747E+03  0.7561462E-02  0.1263421E+00
          2   -1    0    0  501    0  0.00000000000E+00  0.00000000000E+00  0.29760880729E+03  0.29760880729E+03  0.00000000000E+00 0. -1.
         -2   -1    0    0    0  501 -0.00000000000E+00 -0.00000000000E+00 -0.68513189487E+02  0.68513189487E+02  0.00000000000E+00 0.  1.
         23    2    1    2    0    0 -0.80775157378E+02  0.40802523289E+02  0.13211746414E+03  0.20320413870E+03  0.12508967062E+03 0.  0.
          5    1    3    3  502    0 -0.72091900388E+02  0.24032151107E+02  0.68081022410E+01  0.76410791414E+02  0.41800000000E+01 0.  1.
         -5    1    3    3    0  502 -0.86832569896E+01  0.16770372182E+02  0.12530936190E+03  0.12679334728E+03  0.41800000000E+01 0.  1.
        -11    1    1    2    0    0  0.46624412471E+02 -0.64750198816E+02  0.32565574796E+02  0.86179700317E+02  0.00000000000E+00 0. -1.
         11    1    1    2    0    0  0.34150744906E+02  0.23947675526E+02  0.64412578864E+02  0.76738157761E+02  0.00000000000E+00 0.  1.
</event>
<event>
 7    1  0.8661710E-006  0.9972318E+02  0.7561462E-02  0.1280879E+00
          2   -1    0    0  501    0  0.00000000000E+00  0.00000000000E+00  0.19765183262E+03  0.19765183262E+03  0.00000000000E+00 0. -1.
         -2   -1    0    0    0  501 -0.00000000000E+00 -0.00000000000E+00 -0.10337293744E+03  0.10337293744E+03  0.00000000000E+00 0.  1.
         23    2    1    2    0    0 -0.70706662436E+02  0.46028255215E+02  0.10653424302E+02  0.15125653384E+03  0.12508801377E+03 0.  0.
          5    1    3    3  502    0 -0.68234528015E+02  0.12831099096E+02  0.59814649477E+02  0.91737956209E+02  0.41800000000E+01 0.  1.
         -5    1    3    3    0  502 -0.24721344212E+01  0.33197156119E+02 -0.49161225175E+02  0.59518577635E+02  0.41800000000E+01 0.  1.
        -11    1    1    2    0    0 -0.38901893850E+01 -0.15087039553E+02  0.65063915416E+02  0.66903403689E+02  0.00000000000E+00 0. -1.
         11    1    1    2    0    0  0.74596851821E+02 -0.30941215662E+02  0.18561555468E+02  0.82864832527E+02  0.00000000000E+00 0.  1.
</event>
<event>
 7    1  0.8661710E-006  0.1248906E+03  0.7561462E-02  0.1235240E+00
         -2   -1    0    0    0  501 -0.00000000000E+00  0.00000000000E+00  0.14878058199E+03  0.14878058199E+03  0.00000000000E+00 0.  1.
          2   -1    0    0  501    0  0.00000000000E+00 -0.00000000000E+00 -0.10788646878E+03  0.10788646878E+03  0.00000000000E+00 0. -1.
         23    2    1    2    0    0  0.84345036559E+01 -0.74053286671E+02  0.16947136656E+02  0.13488116563E+03  0.11113367303E+03 0.  0.
          5    1    3    3  502    0  0.11568215800E+02 -0.10181685791E+03  0.12551897610E+01  0.10256482863E+03  0.41800000000E+01 0. -1.
         -5    1    3    3    0  502 -0.31337121438E+01  0.27763571237E+02  0.15691946895E+02  0.32316336998E+02  0.41800000000E+01 0.  1.
        -11    1    1    2    0    0 -0.33301665208E+02  0.85382393406E+02  0.22775570958E+02  0.94434530982E+02  0.00000000000E+00 0.  1.
         11    1    1    2    0    0  0.24867161552E+02 -0.11329106735E+02  0.11714055954E+01  0.27351354155E+02  0.00000000000E+00 0. -1.
</event>
<event>
 7    1  0.8661710E-006  0.1185335E+03  0.7561462E-02  0.1245536E+00
         -1   -1    0    0    0  501 -0.00000000000E+00  0.00000000000E+00  0.48456314724E+02  0.48456314724E+02  0.00000000000E+00 0.  1.
          1   -1    0    0  501    0  0.00000000000E+00 -0.00000000000E+00 -0.39319160624E+03  0.39319160624E+03  0.00000000000E+00 0. -1.
         23    2    1    2    0    0 -0.71095304751E+02  0.19879092667E+02 -0.11989587610E+03  0.18834190381E+03  0.12509169015E+03 0.  0.
          5    1    3    3  502    0  0.59046691769E+01 -0.38457798424E+02 -0.70960722700E+01  0.39770516962E+02  0.41800000000E+01 0. -1.
         -5    1    3    3    0  502 -0.76999973928E+02  0.58336891092E+02 -0.11279980383E+03  0.14857138685E+03  0.41800000000E+01 0. -1.
        -11    1    1    2    0    0  0.13562201181E+02 -0.38460611306E+02 -0.33926971325E+02  0.53048951980E+02  0.00000000000E+00 0.  1.
         11    1    1    2    0    0  0.57533103571E+02  0.18581518638E+02 -0.19091244410E+03  0.20025706518E+03  0.00000000000E+00 0. -1.
</event>
<event>
 7    1  0.8661710E-006  0.1212007E+03  0.7561462E-02  0.1241129E+00
         -1   -1    0    0    0  501 -0.00000000000E+00  0.00000000000E+00  0.17164501951E+03  0.17164501951E+03  0.00000000000E+00 0.  1.
          1   -1    0    0  501    0  0.00000000000E+00 -0.00000000000E+00 -0.19389830301E+03  0.19389830301E+03  0.00000000000E+00 0. -1.
         23    2    1    2    0    0 -0.82054826187E+02 -0.58786906588E+02  0.93209866472E+02  0.18580614335E+03  0.12508776444E+03 0.  0.
          5    1    3    3  502    0  0.86969034222E-01 -0.10306722810E+02  0.89576239653E+02  0.90264119167E+02  0.41800000000E+01 0.  1.
         -5    1    3    3    0  502 -0.82141795221E+02 -0.48480183779E+02  0.36336268194E+01  0.95542024184E+02  0.41800000000E+01 0.  1.
        -11    1    1    2    0    0  0.27931256765E+01  0.56440547138E+02 -0.33496527723E+02  0.65691356218E+02  0.00000000000E+00 0.  1.
         11    1    1    2    0    0  0.79261700510E+02  0.23463594507E+01 -0.81966622250E+02  0.11404582296E+03  0.00000000000E+00 0. -1.
</event>
<event>
 7    1  0.8661710E-006  0.7184267E+02  0.7561462E-02  0.1353937E+00
          2   -1    0    0  501    0  0.00000000000E+00  0.00000000000E+00  0.15343087638E+03  0.15343087638E+03  0.00000000000E+00 0. -1.
         -2   -1    0    0    0  501 -0.00000000000E+00 -0.00000000000E+00 -0.78843270722E+02  0.78843270722E+02  0.00000000000E+00 0.  1.
         23    2    1    2    0    0  0.10239223634E+02 -0.11126752107E+02  0.24302810682E+02  0.12836451413E+03  0.12513263190E+03 0.  0.
          5    1    3    3  502    0 -0.30258754853E+02  0.11511712819E+02 -0.38304913705E+02  0.50327433784E+02  0.41800000000E+01 0. -1.
         -5    1    3    3    0  502  0.40497978487E+02 -0.22638464926E+02  0.62607724387E+02  0.78037080345E+02  0.41800000000E+01 0. -1.
        -11    1    1    2    0    0 -0.62343201549E+01  0.37382469400E+02 -0.89953518166E+01  0.38951663900E+02  0.00000000000E+00 0.  1.
         11    1    1    2    0    0 -0.40049034791E+01 -0.26255717293E+02  0.59280146787E+02  0.64957969069E+02  0.00000000000E+00 0. -1.
</event>
<event>
 7    1  0.8661710E-006  0.1109212E+03  0.7561462E-02  0.1258874E+00
         -1   -1    0    0    0  501 -0.00000000000E+00  0.00000000000E+00  0.86216627355E+02  0.86216627355E+02  0.00000000000E+00 0.  1.
          1   -1    0    0  501    0  0.00000000000E+00 -0.00000000000E+00 -0.14688302502E+03  0.14688302502E+03  0.00000000000E+00 0. -1.
         23    2    1    2    0    0 -0.11185178580E+02 -0.28381871766E+02 -0.32640429572E+02  0.13282818353E+03  0.12508912756E+03 0.  0.
          5    1    3    3  502    0  0.18070833971E+02 -0.71440087673E+02 -0.32390532338E+02  0.80603102622E+02  0.41800000000E+01 0. -1.
         -5    1    3    3    0  502 -0.29256012551E+02  0.43058215907E+02 -0.24989723370E+00  0.52225080910E+02  0.41800000000E+01 0. -1.
        -11    1    1    2    0    0 -0.36776089885E+02  0.30534036660E+02 -0.90557518535E+01  0.48649921106E+02  0.00000000000E+00 0.  1.
         11    1    1    2    0    0  0.47961268465E+02 -0.21521648940E+01 -0.18970216240E+02  0.51621547736E+02  0.00000000000E+00 0. -1.
</event>
<event>
 6    1  0.8661710E-006  0.1864201E+03  0.7561462E-02  0.1161730E+00
         -1   -1    0    0    0  501 -0.00000000000E+00  0.00000000000E+00  0.92215763708E+02  0.92215763708E+02  0.00000000000E+00 0.  1.
          1   -1    0    0  501    0  0.00000000000E+00 -0.00000000000E+00 -0.56924245787E+03  0.56924245787E+03  0.00000000000E+00 0. -1.
          5    1    1    2  502    0  0.97719711588E+02 -0.64720574774E+02 -0.36033198058E+03  0.37893865396E+03  0.41800000000E+01 0. -1.
         -5    1    1    2    0  502 -0.88892799635E+02  0.11839968027E+03 -0.51477716110E+02  0.15680510761E+03  0.41800000000E+01 0.  1.
        -11    1    1    2    0    0 -0.48796328532E+02 -0.45346443857E+02 -0.41930774857E+02  0.78711952897E+02  0.00000000000E+00 0.  1.
         11    1    1    2    0    0  0.39969416580E+02 -0.83326616416E+01 -0.23286222609E+02  0.47002507116E+02  0.00000000000E+00 0. -1.
</event>
<event>
 7    1  0.8661710E-006  0.2476895E+03  0.7561462E-02  0.1114774E+00
         -2   -1    0    0    0  501 -0.00000000000E+00  0.00000000000E+00  0.77153946473E+02  0.77153946473E+02  0.00000000000E+00 0.  1.
          2   -1    0    0  501    0  0.00000000000E+00 -0.00000000000E+00 -0.91264521968E+03  0.91264521968E+03  0.00000000000E+00 0. -1.
         23    2    1    2    0    0  0.23210068959E+03  0.55535677441E+02 -0.35579551949E+03  0.44630972350E+03  0.12508787319E+03 0.  0.
          5    1    3    3  502    0  0.78088422533E+01  0.29038289093E+02 -0.76608360465E+01  0.31310717969E+02  0.41800000000E+01 0. -1.
         -5    1    3    3    0  502  0.22429184734E+03  0.26497388348E+02 -0.34813468344E+03  0.41499900553E+03  0.41800000000E+01 0. -1.
        -11    1    1    2    0    0 -0.15494414643E+03 -0.29719453474E+02 -0.39827558182E+03  0.42838577649E+03  0.00000000000E+00 0. -1.
         11    1    1    2    0    0 -0.77156543163E+02 -0.25816223967E+02 -0.81420171903E+02  0.11510366617E+03  0.00000000000E+00 0.  1.
</event>
<event>
 7    1  0.8661710E-006  0.2178665E+03  0.7561462E-02  0.1135484E+00
          2   -1    0    0  501    0  0.00000000000E+00  0.00000000000E+00  0.13019638205E+04  0.13019638205E+04  0.00000000000E+00 0.  1.
         -2   -1    0    0    0  501 -0.00000000000E+00 -0.00000000000E+00 -0.40222594839E+02  0.40222594839E+02  0.00000000000E+00 0. -1.
         23    2    1    2    0    0  0.19629435534E+03  0.27989287039E+02  0.52938298480E+03  0.57897203036E+03  0.12508954079E+03 0.  0.
          5    1    3    3  502    0  0.90296838605E+02 -0.40988738285E+02  0.31242227563E+03  0.32780900908E+03  0.41800000000E+01 0.  1.
         -5    1    3    3    0  502  0.10599751674E+03  0.68978025324E+02  0.21696070917E+03  0.25116302128E+03  0.41800000000E+01 0.  1.
        -11    1    1    2    0    0 -0.15364699731E+03 -0.50486112308E+02  0.48665946846E+03  0.51282909976E+03  0.00000000000E+00 0. -1.
         11    1    1    2    0    0 -0.42647358033E+02  0.22496825269E+02  0.24569877243E+03  0.25038528524E+03  0.00000000000E+00 0.  1.
</event>
<event>
 7    1  0.8661710E-006  0.1108934E+03  0.7561462E-02  0.1258924E+00
          1   -1    0    0  501    0  0.00000000000E+00  0.00000000000E+00  0.93869820367E+01  0.93869820367E+01  0.00000000000E+00 0. -1.
         -1   -1    0    0    0  501 -0.00000000000E+00 -0.00000000000E+00 -0.19171143678E+04  0.19171143678E+04  0.00000000000E+00 0.  1.
         23    2    1    2    0    0 -0.39293602094E+02  0.60575003351E+02 -0.13353864555E+04  0.13431740201E+04  0.12508455002E+03 0.  0.
          5    1    3    3  502    0 -0.62893770939E+02  0.27878568849E+02 -0.33756213497E+03  0.34452649882E+03  0.41800000000E+01 0.  1.
         -5    1    3    3    0  502  0.23600168845E+02  0.32696434502E+02 -0.99782432054E+03  0.99864752133E+03  0.41800000000E+01 0.  1.
        -11    1    1    2    0    0  0.44582730191E+02  0.64886040941E+01 -0.20723670791E+03  0.21207728525E+03  0.00000000000E+00 0.  1.
         11    1    1    2    0    0 -0.52891280973E+01 -0.67063607446E+02 -0.36510422238E+03  0.37125004447E+03  0.00000000000E+00 0. -1.
</event>
<event>
 7    1  0.8661710E-006  0.1178553E+03  0.7561462E-02  0.1246678E+00
          1   -1    0    0  501    0  0.00000000000E+00  0.00000000000E+00  0.62054445384E+03  0.62054445384E+03  0.00000000000E+00 0. -1.
         -1   -1    0    0    0  501 -0.00000000000E+00 -0.00000000000E+00 -0.34739120566E+02  0.34739120566E+02  0.00000000000E+00 0.  1.
         23    2    1    2    0    0 -0.63346665259E+02  0.44643317151E+02  0.18378967335E+03  0.23543820549E+03  0.12508668517E+03 0.  0.
          5    1    3    3  502    0 -0.69390719261E+02  0.63688022016E+02  0.64067935764E+02  0.11398863479E+03  0.41800000000E+01 0.  1.
         -5    1    3    3    0  502  0.60440540026E+01 -0.19044704865E+02  0.11972173759E+03  0.12144957070E+03  0.41800000000E+01 0.  1.
        -11    1    1    2    0    0  0.49246776957E+02  0.21247389351E+02  0.18316851032E+03  0.19085963368E+03  0.00000000000E+00 0. -1.
         11    1    1    2    0    0  0.14099888301E+02 -0.65890706502E+02  0.21884714960E+03  0.22898573524E+03  0.00000000000E+00 0.  1.
</event>
<event>
 7    1  0.8661710E-006  0.3164107E+03  0.7561462E-02  0.1077313E+00
          1   -1    0    0  501    0  0.00000000000E+00  0.00000000000E+00  0.17752189579E+03  0.17752189579E+03  0.00000000000E+00 0. -1.
         -1   -1    0    0    0  501 -0.00000000000E+00 -0.00000000000E+00 -0.64985196619E+03  0.64985196619E+03  0.00000000000E+00 0.  1.
         23    2    1    2    0    0 -0.43824003173E+02  0.31148782721E+03 -0.32066531001E+03  0.46628104053E+03  0.12508620213E+03 0.  0.
          5    1    3    3  502    0 -0.23957059534E+02  0.46957962823E+02 -0.12771192844E+03  0.13822734910E+03  0.41800000000E+01 0.  1.
         -5    1    3    3    0  502 -0.19866943639E+02  0.26452986439E+03 -0.19295338157E+03  0.32805369143E+03  0.41800000000E+01 0.  1.
        -11    1    1    2    0    0  0.21803844540E+02 -0.13039454306E+03 -0.11455074213E+03  0.17492860549E+03  0.00000000000E+00 0.  1.
         11    1    1    2    0    0  0.22020158633E+02 -0.18109328415E+03 -0.37114018263E+02  0.18616421595E+03  0.00000000000E+00 0. -1.
</event>
<event>
 7    1  0.8661710E-006  0.1063405E+03  0.7561462E-02  0.1267501E+00
          1   -1    0    0  501    0  0.00000000000E+00  0.00000000000E+00  0.28503440369E+03  0.28503440369E+03  0.00000000000E+00 0. -1.
         -1   -1    0    0    0  501 -0.00000000000E+00 -0.00000000000E+00 -0.11991683846E+03  0.11991683846E+03  0.00000000000E+00 0.  1.
         23    2    1    2    0    0  0.28023890645E+02 -0.79654955421E+01 -0.76160525015E+02  0.14524314714E+03  0.12019300584E+03 0.  0.
          5    1    3    3  502    0 -0.43500019387E+02 -0.10897941540E+02 -0.69265638592E+01  0.45568262019E+02  0.41800000000E+01 0. -1.
         -5    1    3    3    0  502  0.71523910032E+02  0.29324459977E+01 -0.69233961156E+02  0.99674885118E+02  0.41800000000E+01 0.  1.
        -11    1    1    2    0    0 -0.26425810634E+00  0.47570630566E+02  0.11231587211E+03  0.12197495584E+03  0.00000000000E+00 0.  1.
         11    1    1    2    0    0 -0.27759632539E+02 -0.39605135024E+02  0.12896221814E+03  0.13773313917E+03  0.00000000000E+00 0. -1.
</event>
<event>
 7    1  0.8661710E-006  0.1091726E+03  0.7561462E-02  0.1262110E+00
          1   -1    0    0  501    0  0.00000000000E+00  0.00000000000E+00  0.54289873296E+03  0.54289873296E+03  0.00000000000E+00 0. -1.
         -1   -1    0    0    0  501 -0.00000000000E+00 -0.00000000000E+00 -0.34771321305E+02  0.34771321305E+02  0.00000000000E+00 0.  1.
         23    2    1    2    0    0  0.71530843083E+02 -0.44845477794E+02  0.26563372689E+03  0.30550932279E+03  0.12508753359E+03 0.  0.
          5    1    3    3  502    0  0.19792817225E+01 -0.25029388201E+02 -0.44854921537E+01  0.25845306531E+02  0.41800000000E+01 0. -1.
         -5    1    3    3    0  502  0.69551561360E+02 -0.19816089594E+02  0.27011921904E+03  0.27966401626E+03  0.41800000000E+01 0. -1.
        -11    1    1    2    0    0 -0.20568910178E+02  0.63062280678E+02  0.16313180201E+03  0.17610200492E+03  0.00000000000E+00 0. -1.
         11    1    1    2    0    0 -0.50961932905E+02 -0.18216802883E+02  0.79361882767E+02  0.96058726564E+02  0.00000000000E+00 0.  1.
</event>
<event>
 6    1  0.8661710E-006  0.1123099E+03  0.7561462E-02  0.1256351E+00
         -2   -1    0    0    0  501 -0.00000000000E+00  0.00000000000E+00  0.20501918369E+02  0.20501918369E+02  0.00000000000E+00 0.  1.
          2   -1    0    0  501    0  0.00000000000E+00 -0.00000000000E+00 -0.98054761198E+03  0.98054761198E+03  0.00000000000E+00 0. -1.
          5    1    1    2  502    0 -0.45957752208E+01  0.88329430841E+02 -0.43604363013E+03  0.44494351246E+03  0.41800000000E+01 0. -1.
         -5    1    1    2    0  502 -0.14482377597E+01 -0.30770671287E+02 -0.12956565138E+02  0.33679022911E+02  0.41800000000E+01 0.  1.
        -11    1    1    2    0    0  0.30603488237E+02 -0.70765780523E+02 -0.42617131214E+03  0.43308931697E+03  0.00000000000E+00 0.  1.
         11    1    1    2    0    0 -0.24559475256E+02  0.13207020968E+02 -0.84874186204E+02  0.89337678006E+02  0.00000000000E+00 0. -1.
</event>
<event>
 7    1  0.8661710E-006  0.1159719E+03  0.7561462E-02  0.1249894E+00
         -2   -1    0    0    0  501 -0.00000000000E+00  0.00000000000E+00  0.22951876962E+02  0.22951876962E+02  0.00000000000E+00 0.  1.
          2   -1    0    0  501    0  0.00000000000E+00 -0.00000000000E+00 -0.66385886094E+03  0.66385886094E+03  0.00000000000E+00 0. -1.
         23    2    1    2    0    0 -0.51690618033E+02 -0.42004137753E+01 -0.29725913796E+03  0.32665000731E+03  0.12509064196E+03 0.  0.
          5    1    3    3  502    0  0.26789194277E+02 -0.40547905102E+02 -0.11132237787E+03  0.12153986075E+03  0.41800000000E+01 0.  1.
         -5    1    3    3    0  502 -0.78479812310E+02  0.36347491327E+02 -0.18593676009E+03  0.20511014655E+03  0.41800000000E+01 0.  1.
        -11    1    1    2    0    0  0.43154576903E+02  0.40563091216E+02 -0.12470113756E+03  0.13805091664E+03  0.00000000000E+00 0.  1.
         11    1    1    2    0    0  0.85360411297E+01 -0.36362677441E+02 -0.21894670846E+03  0.22210981396E+03  0.00000000000E+00 0. -1.
</event>
<event>
 7    1  0.8661710E-006  0.1843583E+03  0.7561462E-02  0.1163650E+00
         -1   -1    0    0    0  501 -0.00000000000E+00  0.00000000000E+00  0.11013972748E+03  0.11013972748E+03  0.00000000000E+00 0.  1.
          1   -1    0    0  501    0  0.00000000000E+00 -0.00000000000E+00 -0.36605931978E+03  0.36605931978E+03  0.00000000000E+00 0. -1.
         23    2    1    2    0    0  0.15959632050E+03  0.28908524184E+02 -0.80166493569E+02  0.21996176132E+03  0.12509924645E+03 0.  0.
          5    1    3    3  502    0 -0.19002218114E+02  0.13530421191E+02 -0.37538611716E+00  0.23701685712E+02  0.41800000000E+01 0. -1.
         -5    1    3    3    0  502  0.17859853862E+03  0.15378102993E+02 -0.79791107452E+02  0.19626007560E+03  0.41800000000E+01 0. -1.
        -11    1    1    2    0    0 -0.72929817952E+02  0.39174478101E+01 -0.21236889249E+02  0.76059911970E+02  0.00000000000E+00 0.  1.
         11    1    1    2    0    0 -0.86666502551E+02 -0.32825971994E+02 -0.15451620948E+03  0.18017737398E+03  0.00000000000E+00 0. -1.
</event>
<event>
 7    1  0.8661710E-006  0.1090920E+03  0.7561462E-02  0.1262261E+00
          1   -1    0    0  501    0  0.00000000000E+00  0.00000000000E+00  0.72747013680E+02  0.72747013680E+02  0.00000000000E+00 0. -1.
         -1   -1    0    0    0  501 -0.00000000000E+00 -0.00000000000E+00 -0.30832620907E+03  0.30832620907E+03  0.00000000000E+00 0.  1.
         23    2    1    2    0    0  0.72900952711E+02  0.56456557582E+02 -0.18273237199E+03  0.23987583250E+03  0.12508958168E+03 0.  0.
          5    1    3    3  502    0  0.12347459575E+02  0.12828063898E+02  0.18009726994E+02  0.25667910856E+02  0.41800000000E+01 0.  1.
         -5    1    3    3    0  502  0.60553493136E+02  0.43628493684E+02 -0.20074209898E+03  0.21420792164E+03  0.41800000000E+01 0.  1.
        -11    1    1    2    0    0 -0.16546312557E+02 -0.65951556073E+02 -0.49206716994E+02  0.83932646837E+02  0.00000000000E+00 0.  1.
         11    1    1    2    0    0 -0.56354640154E+02  0.94949984912E+01 -0.36401064068E+01  0.57264743410E+02  0.00000000000E+00 0. -1.
</event>
<event>
 7    1  0.8661710E-006  0.7148660E+02  0.7561462E-02  0.1355110E+00
         -1   -1    0    0    0  501 -0.00000000000E+00  0.00000000000E+00  0.84796623500E+02  0.84796623500E+02  0.00000000000E+00 0.  1.
          1   -1    0    0  501    0  0.00000000000E+00 -0.00000000000E+00 -0.16227595792E+03  0.16227595792E+03  0.00000000000E+00 0. -1.
         23    2    1    2    0    0 -0.22815568767E+02 -0.28783362392E+02 -0.20040073231E+02  0.13190264884E+03  0.12509065555E+03 0.  0.
          5    1    3    3  502    0  0.61006995596E+01 -0.19978897853E+02 -0.70105455414E+02  0.73270882166E+02  0.41800000000E+01 0. -1.
         -5    1    3    3    0  502 -0.28916268326E+02 -0.88044645392E+01  0.50065382183E+02  0.58631766670E+02  0.41800000000E+01 0. -1.
        -11    1    1    2    0    0 -0.27110565252E+02 -0.89759974984E+01 -0.41842477622E+02  0.50659098027E+02  0.00000000000E+00 0. -1.
         11    1    1    2    0    0  0.49926134019E+02  0.37759359891E+02 -0.15596783565E+02  0.64510834555E+02  0.00000000000E+00 0.  1.
</event>
<event>
 7    1  0.8661710E-006  0.7740503E+02  0.7561462E-02  0.1336581E+00
         -1   -1    0    0    0  501 -0.00000000000E+00  0.00000000000E+00  0.14306377569E+03  0.14306377569E+03  0.00000000000E+00 0.  1.
          1   -1    0    0  501    0  0.00000000000E+00 -0.00000000000E+00 -0.12970498272E+03  0.12970498272E+03  0.00000000000E+00 0. -1.
         23    2    1    2    0    0  0.43584204270E+02  0.21034485265E+01  0.79101265066E+02  0.15232722110E+03  0.12264813409E+03 0.  0.
          5    1    3    3  502    0  0.22218500849E+02 -0.32389920886E+02 -0.20640356318E+02  0.44567538230E+02  0.41800000000E+01 0. -1.
         -5    1    3    3    0  502  0.21365703421E+02  0.34493369412E+02  0.99741621383E+02  0.10775968287E+03  0.41800000000E+01 0.  1.
        -11    1    1    2    0    0 -0.43362489263E+01  0.25929624577E+02  0.12042738915E+02  0.28916708769E+02  0.00000000000E+00 0.  1.
         11    1    1    2    0    0 -0.39247955343E+02 -0.28033073103E+02 -0.77785211012E+02  0.91524828535E+02  0.00000000000E+00 0. -1.
</event>
<event>
 7    1  0.8661710E-006  0.9833425E+02  0.7561462E-02  0.1283838E+00
         -2   -1    0    0    0  501 -0.00000000000E+00  0.00000000000E+00  0.42812198556E+02  0.42812198556E+02  0.00000000000E+00 0.  1.
          2   -1    0    0  501    0  0.00000000000E+00 -0.00000000000E+00 -0.36771226893E+03  0.36771226893E+03  0.00000000000E+00 0. -1.
         23    2    1    2    0    0  0.39799962540E+02  0.43892140926E+02 -0.13912680934E+03  0.19624887327E+03  0.12508714613E+03 0.  0.
          5    1    3    3  502    0  0.31582974136E+02 -0.11876136320E+02  0.11078885539E+02  0.35759487887E+02  0.41800000000E+01 0. -1.
         -5    1    3    3    0  502  0.82169884044E+01  0.55768277245E+02 -0.15020569488E+03  0.16048938538E+03  0.41800000000E+01 0. -1.
        -11    1    1    2    0    0 -0.52647598990E+02  0.74914823644E+01 -0.81373459227E+02  0.97208702563E+02  0.00000000000E+00 0.  1.
         11    1    1    2    0    0  0.12847636450E+02 -0.51383623290E+02 -0.10439980180E+03  0.11706689165E+03  0.00000000000E+00 0. -1.
</event>
<event>
 7    1  0.8661710E-006  0.1202717E+03  0.7561462E-02  0.1242650E+00
         -2   -1    0    0    0  501 -0.00000000000E+00  0.00000000000E+00  0.49798214604E+02  0.49798214604E+02  0.00000000000E+00 0.  1.
          2   -1    0    0  501    0  0.00000000000E+00 -0.00000000000E+00 -0.32778837874E+03  0.32778837874E+03  0.00000000000E+00 0. -1.
         23    2    1    2    0    0 -0.41987457990E+02 -0.47730011183E+02 -0.12019700694E+03  0.18475840719E+03  0.12508896016E+03 0.  0.
          5    1    3    3  502    0 -0.32631477558E+02  0.34898355089E+02 -0.14295418559E+02  0.50045378481E+02  0.41800000000E+01 0. -1.
         -5    1    3    3    0  502 -0.93559804314E+01 -0.82628366272E+02 -0.10590158838E+03  0.13471302871E+03  0.41800000000E+01 0. -1.
        -11    1    1    2    0    0  0.59770621239E+02  0.15000273925E+01 -0.70297687023E+02  0.92285112809E+02  0.00000000000E+00 0.  1.
         11    1    1    2    0    0 -0.17783163249E+02  0.46229983791E+02 -0.87495470175E+02  0.10054307334E+03  0.00000000000E+00 0. -1.
</event>
<event>
 7    1  0.8661710E-006  0.1142648E+03  0.7561462E-02  0.1252870E+00
         -1   -1    0    0    0  501 -0.00000000000E+00  0.00000000000E+00  0.26515904097E+03  0.26515904097E+03  0.00000000000E+00 0.  1.
          1   -1    0    0  501    0  0.00000000000E+00 -0.00000000000E+00 -0.55913249226E+02  0.55913249226E+02  0.00000000000E+00 0. -1.
         23    2    1    2    0    0  0.45519758163E+02  0.35864389346E+02  0.12404359295E+03  0.18549319287E+03  0.12515034496E+03 0.  0.
          5    1    3    3  502    0 -0.56948788932E+01 -0.37924287810E+02  0.71781565988E+02  0.81490790076E+02  0.41800000000E+01 0. -1.
         -5    1    3    3    0  502  0.51214637056E+02  0.73788677156E+02  0.52262026959E+02  0.10400240279E+03  0.41800000000E+01 0. -1.
        -11    1    1    2    0    0  0.11444534934E+02 -0.41258327759E+02  0.15817888870E+02  0.45644633832E+02  0.00000000000E+00 0.  1.
         11    1    1    2    0    0 -0.56964293098E+02  0.53939384126E+01  0.69384309923E+02  0.89934463490E+02  0.00000000000E+00 0. -1.
</event>
<event>
 7    1  0.8661710E-006  0.1352660E+03  0.7561462E-02  0.1219845E+00
         -1   -1    0    0    0  501 -0.00000000000E+00  0.00000000000E+00  0.27745299391E+02  0.27745299391E+02  0.00000000000E+00 0.  1.
          1   -1    0    0  501    0  0.00000000000E+00 -0.00000000000E+00 -0.89964358719E+03  0.89964358719E+03  0.00000000000E+00 0. -1.
         23    2    1    2    0    0 -0.26167166680E+02  0.10721249436E+03 -0.37389435011E+03  0.40941791411E+03  0.12508718477E+03 0.  0.
          5    1    3    3  502    0 -0.43406240615E+02  0.30985452816E+02 -0.40868776299E+02  0.67319605515E+02  0.41800000000E+01 0. -1.
         -5    1    3    3    0  502  0.17239073936E+02  0.76227041545E+02 -0.33302557381E+03  0.34209830860E+03  0.41800000000E+01 0. -1.
        -11    1    1    2    0    0  0.40635906901E+02 -0.11862355659E+02 -0.10290533506E+03  0.11127219058E+03  0.00000000000E+00 0.  1.
         11    1    1    2    0    0 -0.14468740221E+02 -0.95350138702E+02 -0.39509860262E+03  0.40669878189E+03  0.00000000000E+00 0. -1.
</event>
<event>
 7    1  0.2123216E-005  0.2876926E+03  0.7561462E-02  0.1091560E+00
          1   -1    0    0  501    0  0.00000000000E+00  0.00000000000E+00  0.37137347671E+03  0.37137347671E+03  0.00000000000E+00 0. -1.
         -1   -1    0    0    0  501 -0.00000000000E+00 -0.00000000000E+00 -0.24374991231E+03  0.24374991231E+03  0.00000000000E+00 0.  1.
         23    2    1    2    0    0  0.10796167300E+02 -0.27467969515E+03  0.85727949226E+01  0.30213657962E+03  0.12509007863E+03 0.  0.
          5    1    3    3  502    0 -0.27965483284E+02 -0.23411106648E+03  0.37654979903E+02  0.23879997826E+03  0.41800000000E+01 0. -1.
         -5    1    3    3    0  502  0.38761650584E+02 -0.40568628672E+02 -0.29082184980E+02  0.63336601358E+02  0.41800000000E+01 0. -1.
        -11    1    1    2    0    0 -0.30898251594E+02  0.24792334875E+03  0.12439506496E+03  0.27909643673E+03  0.00000000000E+00 0. -1.
         11    1    1    2    0    0  0.20102084294E+02  0.26756346402E+02 -0.53442954824E+01  0.33890372674E+02  0.00000000000E+00 0.  1.
</event>
<event>
 7    1  0.8661710E-006  0.2573161E+03  0.7561462E-02  0.1108767E+00
          2   -1    0    0  501    0  0.00000000000E+00  0.00000000000E+00  0.61433217979E+03  0.61433217979E+03  0.00000000000E+00 0. -1.
         -2   -1    0    0    0  501 -0.00000000000E+00 -0.00000000000E+00 -0.10885803117E+03  0.10885803117E+03  0.00000000000E+00 0.  1.
         23    2    1    2    0    0 -0.12347839405E+03 -0.19727038728E+03  0.27055920494E+03  0.37817085906E+03  0.12509354807E+03 0.  0.
          5    1    3    3  502    0  0.92380186917E+01 -0.94416574244E+02  0.11609039380E+03  0.14998094017E+03  0.41800000000E+01 0. -1.
         -5    1    3    3    0  502 -0.13271641275E+03 -0.10285381303E+03  0.15446881113E+03  0.22818991888E+03  0.41800000000E+01 0. -1.
        -11    1    1    2    0    0  0.63380983353E+02  0.23086986980E+02  0.49929484326E+02  0.83923247219E+02  0.00000000000E+00 0.  1.
         11    1    1    2    0    0  0.60097410701E+02  0.17418340029E+03  0.18498545936E+03  0.26109610469E+03  0.00000000000E+00 0. -1.
</event>
<event>
 7    1  0.8661710E-006  0.1034474E+03  0.7561462E-02  0.1273209E+00
         -1   -1    0    0    0  501 -0.00000000000E+00  0.00000000000E+00  0.23430206685E+02  0.23430206685E+02  0.00000000000E+00 0.  1.
          1   -1    0    0  501    0  0.00000000000E+00 -0.00000000000E+00 -0.80546529898E+03  0.80546529898E+03  0.00000000000E+00 0. -1.
         23    2    1    2    0    0 -0.80204099681E+02 -0.27610936681E+02 -0.31156152687E+03  0.34208402614E+03  0.11294173050E+03 0.  0.
          5    1    3    3  502    0 -0.58392359975E+01 -0.37332574047E+01 -0.22605547310E+03  0.22620031655E+03  0.41800000000E+01 0. -1.
         -5    1    3    3    0  502 -0.74364863684E+02 -0.23877679276E+02 -0.85506053767E+02  0.11588370959E+03  0.41800000000E+01 0.  1.
        -11    1    1    2    0    0  0.18337750002E+02 -0.30576913601E+02 -0.20517389156E+03  0.20824876110E+03  0.00000000000E+00 0.  1.
         11    1    1    2    0    0  0.61866349679E+02  0.58187850282E+02 -0.26529967387E+03  0.27856271843E+03  0.00000000000E+00 0. -1.
</event>
<event>
 7    1  0.8661710E-006  0.1081030E+03  0.7561462E-02  0.1264124E+00
          2   -1    0    0  501    0  0.00000000000E+00  0.00000000000E+00  0.10390849282E+04  0.10390849282E+04  0.00000000000E+00 0. -1.
         -2   -1    0    0    0  501 -0.00000000000E+00 -0.00000000000E+00 -0.12188859893E+02  0.12188859893E+02  0.00000000000E+00 0.  1.
         23    2    1    2    0    0  0.25858270750E+02 -0.16670539884E+02  0.52616662658E+03  0.54170619645E+03  0.12509087608E+03 0.  0.
          5    1    3    3  502    0 -0.11449727472E+02  0.46596011623E+02  0.30092852130E+03  0.30475848125E+03  0.41800000000E+01 0.  1.
         -5    1    3    3    0  502  0.37307998223E+02 -0.63266551507E+02  0.22523810527E+03  0.23694771520E+03  0.41800000000E+01 0.  1.
        -11    1    1    2    0    0  0.33524718706E+02  0.79654933024E+01  0.18751631650E+03  0.19065603794E+03  0.00000000000E+00 0. -1.
         11    1    1    2    0    0 -0.59382989457E+02  0.87050465812E+01  0.31321312521E+03  0.31891155369E+03  0.00000000000E+00 0.  1.
</event>
<event>
 7    1  0.1106058E-005  0.1604955E+03  0.7561462E-02  0.1188139E+00
         -2   -1    0    0    0  501 -0.00000000000E+00  0.00000000000E+00  0.37773079921E+02  0.37773079921E+02  0.00000000000E+00 0. -1.
          2   -1    0    0  501    0  0.00000000000E+00 -0.00000000000E+00 -0.94999854139E+03  0.94999854139E+03  0.00000000000E+00 0.  1.
         23    2    1    2    0    0  0.14471932917E+03 -0.28796184940E+02 -0.36005390053E+03  0.40872872015E+03  0.12508977129E+03 0.  0.
          5    1    3    3  502    0  0.12617652208E+03 -0.29878594772E+02 -0.15213277104E+03  0.19993773424E+03  0.41800000000E+01 0.  1.
         -5    1    3    3    0  502  0.18542807092E+02  0.10824098318E+01 -0.20792112949E+03  0.20879098590E+03  0.41800000000E+01 0.  1.
        -11    1    1    2    0    0 -0.10748047678E+03 -0.21527536848E+02 -0.39306039620E+03  0.40805877370E+03  0.00000000000E+00 0. -1.
         11    1    1    2    0    0 -0.37238852390E+02  0.50323721788E+02 -0.15911116473E+03  0.17098412746E+03  0.00000000000E+00 0.  1.
</event>
<event>
 7    1  0.8661710E-006  0.1108512E+03  0.7561462E-02  0.1259002E+00
         -1   -1    0    0    0  501 -0.00000000000E+00  0.00000000000E+00  0.68786962938E+02  0.68786962938E+02  0.00000000000E+00 0.  1.
          1   -1    0    0  501    0  0.00000000000E+00 -0.00000000000E+00 -0.25673314670E+03  0.25673314670E+03  0.00000000000E+00 0. -1.
         23    2    1    2    0    0  0.32715153799E+02  0.64123446383E+02 -0.84552593524E+02  0.16726698133E+03  0.12508798626E+03 0.  0.
          5    1    3    3  502    0  0.67984827314E+01 -0.36849994581E+02 -0.36228233592E+02  0.52288610397E+02  0.41800000000E+01 0.  1.
         -5    1    3    3    0  502  0.25916671068E+02  0.10097344096E+03 -0.48324359932E+02  0.11497837093E+03  0.41800000000E+01 0.  1.
        -11    1    1    2    0    0 -0.51228825485E+01 -0.46818861087E+02 -0.11452688870E+03  0.12383318583E+03  0.00000000000E+00 0. -1.
         11    1    1    2    0    0 -0.27592271251E+02 -0.17304585296E+02  0.11133298463E+02  0.34419942471E+02  0.00000000000E+00 0.  1.
</event>
<event>
 7    1  0.8661710E-006  0.1236741E+03  0.7561462E-02  0.1237156E+00
          2   -1    0    0  501    0  0.00000000000E+00  0.00000000000E+00  0.54149580478E+02  0.54149580478E+02  0.00000000000E+00 0. -1.
         -2   -1    0    0    0  501 -0.00000000000E+00 -0.00000000000E+00 -0.29271355219E+03  0.29271355219E+03  0.00000000000E+00 0.  1.
         23    2    1    2    0    0  0.69626904714E+02 -0.39865068749E+01 -0.14593594986E+03  0.19800093858E+03  0.11420714565E+03 0.  0.
          5    1    3    3  502    0  0.36521531296E+02  0.54565213101E+02 -0.81711848683E+02  0.10490702238E+03  0.41800000000E+01 0. -1.
         -5    1    3    3    0  502  0.33105373418E+02 -0.58551719976E+02 -0.64224101177E+02  0.93093916199E+02  0.41800000000E+01 0.  1.
        -11    1    1    2    0    0 -0.90678325165E+02 -0.59727510641E+01 -0.84795239216E+02  0.12429185413E+03  0.00000000000E+00 0.  1.
         11    1    1    2    0    0  0.21051420452E+02  0.99592579390E+01 -0.78327826318E+01  0.24570339955E+02  0.00000000000E+00 0. -1.
</event>
<event>
 7    1  0.8661710E-006  0.1036658E+03  0.7561462E-02  0.1272771E+00
         -1   -1    0    0    0  501 -0.00000000000E+00  0.00000000000E+00  0.40666799732E+02  0.40666799732E+02  0.00000000000E+00 0.  1.
          1   -1    0    0  501    0  0.00000000000E+00 -0.00000000000E+00 -0.38419316317E+03  0.38419316317E+03  0.00000000000E+00 0. -1.
         23    2    1    2    0    0  0.16085562303E+02  0.60495525464E+02 -0.18495219830E+03  0.23189122042E+03  0.12509104099E+03 0.  0.
          5    1    3    3  502    0  0.32058965860E+02 -0.25175151030E+01  0.33875783804E+01  0.32604650920E+02  0.41800000000E+01 0.  1.
         -5    1    3    3    0  502 -0.15973403557E+02  0.63013040567E+02 -0.18833977668E+03  0.19928656950E+03  0.41800000000E+01 0.  1.
        -11    1    1    2    0    0 -0.29005345914E+02 -0.80714951128E+02 -0.11897645135E+03  0.14666836538E+03  0.00000000000E+00 0.  1.
         11    1    1    2    0    0  0.12919783611E+02  0.20219425664E+02 -0.39597713785E+02  0.46300377102E+02  0.00000000000E+00 0. -1.
</event>
<event>
 7    1  0.8661710E-006  0.6806130E+02  0.7561462E-02  0.1366813E+00
         -1   -1    0    0    0  501 -0.00000000000E+00  0.00000000000E+00  0.66471801936E+03  0.66471801936E+03  0.00000000000E+00 0.  1.
          1   -1    0    0  501    0  0.00000000000E+00 -0.00000000000E+00 -0.21354094581E+02  0.21354094581E+02  0.00000000000E+00 0. -1.
         23    2    1    2    0    0 -0.15421716522E+02  0.39449262146E+02  0.42059734216E+03  0.43683942396E+03  0.11014755769E+03 0.  0.
          5    1    3    3  502    0  0.39404156132E+01  0.25342507727E+02  0.14002461529E+02  0.29517975913E+02  0.41800000000E+01 0. -1.
         -5    1    3    3    0  502 -0.19362132135E+02  0.14106754419E+02  0.40659488063E+03  0.40732144804E+03  0.41800000000E+01 0.  1.
        -11    1    1    2    0    0  0.40982374551E+02 -0.27218360147E+01  0.28780239206E+02  0.50152423509E+02  0.00000000000E+00 0. -1.
         11    1    1    2    0    0 -0.25560658029E+02 -0.36727426132E+02  0.19398634342E+03  0.19908026648E+03  0.00000000000E+00 0.  1.
</event>
<event>
 7    1  0.8661710E-006  0.1019002E+03  0.7561462E-02  0.1276350E+00
         -1   -1    0    0    0  501 -0.00000000000E+00  0.00000000000E+00  0.14712247960E+03  0.14712247960E+03  0.00000000000E+00 0.  1.
          1   -1    0    0  501    0  0.00000000000E+00 -0.00000000000E+00 -0.12072671843E+03  0.12072671843E+03  0.00000000000E+00 0. -1.
         23    2    1    2    0    0  0.54966153244E+02 -0.48436246699E+02  0.34060258432E+02  0.14891496344E+03  0.12509283407E+03 0.  0.
          5    1    3    3  502    0 -0.22056911433E+02 -0.39988331750E+02 -0.24226369476E+02  0.51864857043E+02  0.41800000000E+01 0. -1.
         -5    1    3    3    0  502  0.77023064676E+02 -0.84479149485E+01  0.58286627908E+02  0.97050106399E+02  0.41800000000E+01 0. -1.
        -11    1    1    2    0    0 -0.39987552983E+02  0.51351181649E+02  0.34805294448E+02  0.73806210931E+02  0.00000000000E+00 0.  1.
         11    1    1    2    0    0 -0.14978600260E+02 -0.29149349505E+01 -0.42469791709E+02  0.45128023658E+02  0.00000000000E+00 0. -1.
</event>
<event>
 7    1  0.8661710E-006  0.2096109E+03  0.7561462E-02  0.1141874E+00
          1   -1    0    0  501    0  0.00000000000E+00  0.00000000000E+00  0.89876838719E+03  0.89876838719E+03  0.00000000000E+00 0. -1.
         -1   -1    0    0    0  501 -0.00000000000E+00 -0.00000000000E+00 -0.61688371916E+02  0.61688371916E+02  0.00000000000E+00 0.  1.
         23    2    1    2    0    0  0.46658303451E+02 -0.20005239750E+03  0.35949584277E+03  0.43253058715E+03  0.12508992296E+03 0.  0.
          5    1    3    3  502    0  0.38576080144E+02 -0.11513096047E+03  0.93931758582E+02  0.15357050396E+03  0.41800000000E+01 0.  1.
         -5    1    3    3    0  502  0.80822233070E+01 -0.84921437034E+02  0.26556408419E+03  0.27896008319E+03  0.41800000000E+01 0.  1.
        -11    1    1    2    0    0 -0.36826506338E+02  0.50797138060E+02  0.23237027991E+03  0.24069168617E+03  0.00000000000E+00 0. -1.
         11    1    1    2    0    0 -0.98317971134E+01  0.14925525944E+03  0.24521389260E+03  0.28723448579E+03  0.00000000000E+00 0.  1.
</event>
<event>
 7    1  0.8661710E-006  0.6044742E+02  0.7561462E-02  0.1395964E+00
         -2   -1    0    0    0  501 -0.00000000000E+00  0.00000000000E+00  0.75981344289E+02  0.75981344289E+02  0.00000000000E+00 0.  1.
          2   -1    0    0  501    0  0.00000000000E+00 -0.00000000000E+00 -0.11019666088E+03  0.11019666088E+03  0.00000000000E+00 0. -1.
         23    2    1    2    0    0  0.76884616758E+01 -0.11163525044E+02  0.23355178962E+02  0.12016292340E+03  0.11708939765E+03 0.  0.
          5    1    3    3  502    0 -0.33294522055E+02 -0.29476812276E+02 -0.27303767154E+02  0.52348598469E+02  0.41800000000E+01 0. -1.
         -5    1    3    3    0  502  0.40982983731E+02  0.18313287232E+02  0.50658946116E+02  0.67814324934E+02  0.41800000000E+01 0.  1.
        -11    1    1    2    0    0 -0.22365265619E+01  0.20346233469E+02 -0.45539443702E+02  0.49928070263E+02  0.00000000000E+00 0. -1.
         11    1    1    2    0    0 -0.54519351140E+01 -0.91827084246E+01 -0.12031051853E+02  0.16087011506E+02  0.00000000000E+00 0.  1.
</event>
<event>
 7    1  0.8661710E-006  0.9078124E+02  0.7561462E-02  0.1300971E+00
          1   -1    0    0  501    0  0.00000000000E+00  0.00000000000E+00  0.10960974339E+03  0.10960974339E+03  0.00000000000E+00 0. -1.
         -1   -1    0    0    0  501 -0.00000000000E+00 -0.00000000000E+00 -0.20118720258E+03  0.20118720258E+03  0.00000000000E+00 0.  1.
         23    2    1    2    0    0 -0.31784609801E+02  0.73800082688E+02 -0.11386830305E+03  0.18727097461E+03  0.12509082247E+03 0.  0.
          5    1    3    3  502    0 -0.35798206351E+02  0.78665311759E+02 -0.14644627036E+02  0.87759218052E+02  0.41800000000E+01 0.  1.
         -5    1    3    3    0  502  0.40135965502E+01 -0.48652290712E+01 -0.99223676018E+02  0.99511756560E+02  0.41800000000E+01 0.  1.
        -11    1    1    2    0    0  0.26651723428E+01 -0.49412872526E+02  0.54580369066E+02  0.73673277396E+02  0.00000000000E+00 0. -1.
         11    1    1    2    0    0  0.29119437458E+02 -0.24387210162E+02 -0.32289525203E+02  0.49852693961E+02  0.00000000000E+00 0.  1.
</event>
<event>
 7    1  0.8661710E-006  0.1304313E+03  0.7561462E-02  0.1226817E+00
         -1   -1    0    0    0  501 -0.00000000000E+00  0.00000000000E+00  0.35388406705E+03  0.35388406705E+03  0.00000000000E+00 0.  1.
          1   -1    0    0  501    0  0.00000000000E+00 -0.00000000000E+00 -0.67685004763E+02  0.67685004763E+02  0.00000000000E+00 0. -1.
         23    2    1    2    0    0 -0.86269882270E+02  0.49564276226E+02  0.21738385933E+03  0.26981799183E+03  0.12508755476E+03 0.  0.
          5    1    3    3  502    0 -0.72950081791E+02  0.82654032715E+02  0.20317629186E+03  0.23119576452E+03  0.41800000000E+01 0. -1.
         -5    1    3    3    0  502 -0.13319800479E+02 -0.33089756490E+02  0.14207567472E+02  0.38622227315E+02  0.41800000000E+01 0. -1.
        -11    1    1    2    0    0  0.41414541779E+01 -0.29889018934E+02 -0.14182654190E+02  0.33341457308E+02  0.00000000000E+00 0. -1.
         11    1    1    2    0    0  0.82128428092E+02 -0.19675257292E+02  0.82997857141E+02  0.11840962267E+03  0.00000000000E+00 0.  1.
</event>
<event>
 7    1  0.8661710E-006  0.5715615E+02  0.7561462E-02  0.1410169E+00
         -2   -1    0    0    0  501 -0.00000000000E+00  0.00000000000E+00  0.43998626280E+02  0.43998626280E+02  0.00000000000E+00 0.  1.
          2   -1    0    0  501    0  0.00000000000E+00 -0.00000000000E+00 -0.28742903284E+03  0.28742903284E+03  0.00000000000E+00 0. -1.
         23    2    1    2    0    0  0.54420496925E+01 -0.18624647564E+02 -0.99470325971E+02  0.16099444081E+03  0.12509344836E+03 0.  0.
          5    1    3    3  502    0 -0.31721011488E+02 -0.15840509113E+02  0.16340314841E+02  0.39263501982E+02  0.41800000000E+01 0. -1.
         -5    1    3    3    0  502  0.37163061181E+02 -0.27841384515E+01 -0.11581064081E+03  0.12173093883E+03  0.41800000000E+01 0. -1.
        -11    1    1    2    0    0 -0.12720167465E+02 -0.69670116759E+01  0.77250954051E+01  0.16432255203E+02  0.00000000000E+00 0.  1.
         11    1    1    2    0    0  0.72781177727E+01  0.25591659240E+02 -0.15168517599E+03  0.15400096311E+03  0.00000000000E+00 0. -1.
</event>
<event>
 7    1  0.8661710E-006  0.1259033E+03  0.7561462E-02  0.1233664E+00
          4   -1    0    0  501    0  0.00000000000E+00  0.00000000000E+00  0.77421104457E+02  0.77421104457E+02  0.00000000000E+00 0. -1.
         -4   -1    0    0    0  501 -0.00000000000E+00 -0.00000000000E+00 -0.33146655504E+03  0.33146655504E+03  0.00000000000E+00 0.  1.
         23    2    1    2    0    0 -0.30692968831E+02  0.80309299466E+02 -0.23835308561E+03  0.28258131523E+03  0.12509342262E+03 0.  0.
          5    1    3    3  502    0 -0.36101799493E+02  0.10262848506E+03 -0.23500544192E+03  0.25899995368E+03  0.41800000000E+01 0.  1.
         -5    1    3    3    0  502  0.54088306615E+01 -0.22319185589E+02 -0.33476436837E+01  0.23581361554E+02  0.41800000000E+01 0.  1.
        -11    1    1    2    0    0 -0.22801804546E+02  0.34964085549E+00  0.11820145763E+02  0.25685801236E+02  0.00000000000E+00 0. -1.
         11    1    1    2    0    0  0.53494773377E+02 -0.80658940321E+02 -0.27512510739E+02  0.10062054303E+03  0.00000000000E+00 0.  1.
</event>
<event>
 6    1  0.8661710E-006  0.2388351E+03  0.7561462E-02  0.1120571E+00
          1   -1    0    0  501    0  0.00000000000E+00  0.00000000000E+00  0.16122848788E+03  0.16122848788E+03  0.00000000000E+00 0. -1.
         -1   -1    0    0    0  501 -0.00000000000E+00 -0.00000000000E+00 -0.54181428421E+03  0.54181428421E+03  0.00000000000E+00 0.  1.
          5    1    1    2  502    0  0.15263002459E+03  0.37991208148E+01  0.15149324842E+02  0.15348398017E+03  0.41800000000E+01 0. -1.
         -5    1    1    2    0  502 -0.18226187430E+03  0.79851673345E+02 -0.37115075079E+03  0.42114846880E+03  0.41800000000E+01 0.  1.
        -11    1    1    2    0    0  0.30896793448E+02 -0.10247855518E+03 -0.18799400051E+02  0.10867328816E+03  0.00000000000E+00 0. -1.
         11    1    1    2    0    0 -0.12649437393E+01  0.18827761020E+02 -0.57849703297E+01  0.19737034970E+02  0.00000000000E+00 0.  1.
</event>
<event>
 7    1  0.8661710E-006  0.8205067E+02  0.7561462E-02  0.1323331E+00
         -1   -1    0    0    0  501 -0.00000000000E+00  0.00000000000E+00  0.49786185039E+03  0.49786185039E+03  0.00000000000E+00 0.  1.
          1   -1    0    0  501    0  0.00000000000E+00 -0.00000000000E+00 -0.42674830470E+02  0.42674830470E+02  0.00000000000E+00 0. -1.
         23    2    1    2    0    0 -0.59503397327E+02 -0.15529622219E+02  0.38739050251E+03  0.41162353595E+03  0.12482271610E+03 0.  0.
          5    1    3    3  502    0 -0.34694804087E+02 -0.13295812141E+02  0.38437235591E+03  0.38618659795E+03  0.41800000000E+01 0.  1.
         -5    1    3    3    0  502 -0.24808593240E+02 -0.22338100777E+01  0.30181466037E+01  0.25436938002E+02  0.41800000000E+01 0.  1.
        -11    1    1    2    0    0  0.63883733036E+01  0.41738943492E+02  0.48841337816E+01  0.42506534557E+02  0.00000000000E+00 0. -1.
         11    1    1    2    0    0  0.53115024024E+02 -0.26209321273E+02  0.62912383632E+02  0.86406610354E+02  0.00000000000E+00 0.  1.
</event>
<event>
 7    1  0.8661710E-006  0.4076747E+03  0.7561462E-02  0.1041154E+00
          2   -1    0    0  501    0  0.00000000000E+00  0.00000000000E+00  0.21930905854E+04  0.21930905854E+04  0.00000000000E+00 0. -1.
         -2   -1    0    0    0  501 -0.00000000000E+00 -0.00000000000E+00 -0.84078335273E+02  0.84078335273E+02  0.00000000000E+00 0.  1.
         23    2    1    2    0    0 -0.39576318224E+03  0.38627505913E+02  0.74667731714E+03  0.85515770939E+03  0.12508841417E+03 0.  0.
          5    1    3    3  502    0 -0.40218083404E+03  0.27592492381E+02  0.72764499610E+03  0.83186265792E+03  0.41800000000E+01 0.  1.
         -5    1    3    3    0  502  0.64176518007E+01  0.11035013531E+02  0.19032321045E+02  0.23295051462E+02  0.41800000000E+01 0.  1.
        -11    1    1    2    0    0  0.27725347250E+03 -0.40799604806E+02  0.81020287982E+03  0.85729971552E+03  0.00000000000E+00 0.  1.
         11    1    1    2    0    0  0.11850970975E+03  0.21720988931E+01  0.55213205319E+03  0.56471149579E+03  0.00000000000E+00 0. -1.
</event>
<event>
 7    1  0.8661710E-006  0.1092036E+03  0.7561462E-02  0.1262052E+00
         -2   -1    0    0    0  501 -0.00000000000E+00  0.00000000000E+00  0.15269429955E+03  0.15269429955E+03  0.00000000000E+00 0.  1.
          2   -1    0    0  501    0  0.00000000000E+00 -0.00000000000E+00 -0.27538992696E+03  0.27538992696E+03  0.00000000000E+00 0. -1.
         23    2    1    2    0    0 -0.61633810231E+02  0.19970941624E+01  0.11140729126E+03  0.16885915447E+03  0.11090137310E+03 0.  0.
          5    1    3    3  502    0  0.25836146486E+02 -0.16131092175E+02  0.72655533497E+01  0.31590809826E+02  0.41800000000E+01 0. -1.
         -5    1    3    3    0  502 -0.87469956717E+02  0.18128186337E+02  0.10414173791E+03  0.13726834465E+03  0.41800000000E+01 0.  1.
        -11    1    1    2    0    0  0.55345751228E+02 -0.34442505525E+02 -0.20525022420E+03  0.21535341395E+03  0.00000000000E+00 0. -1.
         11    1    1    2    0    0  0.62880590037E+01  0.32445411362E+02 -0.28852694472E+02  0.43871658081E+02  0.00000000000E+00 0.  1.
</event>
<event>
 7    1  0.8661710E-006  0.7030513E+02  0.7561462E-02  0.1359059E+00
         -1   -1    0    0    0  501 -0.00000000000E+00  0.00000000000E+00  0.11767379795E+03  0.11767379795E+03  0.00000000000E+00 0.  1.
          1   -1    0    0  501    0  0.00000000000E+00 -0.00000000000E+00 -0.10378286823E+03  0.10378286823E+03  0.00000000000E+00 0. -1.
         23    2    1    2    0    0 -0.21767060267E+02 -0.67014523452E+01  0.33837373994E+02  0.13156972124E+03  0.12508760647E+03 0.  0.
          5    1    3    3  502    0 -0.48767455451E+02  0.27338434060E+02  0.58835428500E+02  0.81269519100E+02  0.41800000000E+01 0.  1.
         -5    1    3    3    0  502  0.27000395183E+02 -0.34039886405E+02 -0.24998054506E+02  0.50300202143E+02  0.41800000000E+01 0.  1.
        -11    1    1    2    0    0  0.24612454290E+02 -0.80338515642E+01 -0.49993887065E+02  0.56300128072E+02  0.00000000000E+00 0. -1.
         11    1    1    2    0    0 -0.28453940227E+01  0.14735303909E+02  0.30047442795E+02  0.33586816862E+02  0.00000000000E+00 0.  1.
</event>
<event>
 7    1  0.8661710E-006  0.1464257E+03  0.7561462E-02  0.1204935E+00
         -2   -1    0    0    0  501 -0.00000000000E+00  0.00000000000E+00  0.71083227502E+03  0.71083227502E+03  0.00000000000E+00 0.  1.
          2   -1    0    0  501    0  0.00000000000E+00 -0.00000000000E+00 -0.92392710105E+02  0.92392710105E+02  0.00000000000E+00 0. -1.
         23    2    1    2    0    0  0.12398926560E+03  0.62151354714E+02  0.60677216147E+03  0.63486832558E+03  0.12509678659E+03 0.  0.
          5    1    3    3  502    0  0.77094085476E+02  0.31338970200E+02  0.54491139508E+03  0.55124543531E+03  0.41800000000E+01 0. -1.
         -5    1    3    3    0  502  0.46895180123E+02  0.30812384514E+02  0.61860766392E+02  0.83622890268E+02  0.41800000000E+01 0. -1.
        -11    1    1    2    0    0 -0.33591478242E+02 -0.52527444793E+02  0.38859659084E+02  0.73468312701E+02  0.00000000000E+00 0.  1.
         11    1    1    2    0    0 -0.90397787358E+02 -0.96239099211E+01 -0.27192255633E+02  0.94888346849E+02  0.00000000000E+00 0. -1.
</event>
<event>
 7    1  0.8661710E-006  0.9385805E+02  0.7561462E-02  0.1293769E+00
         -1   -1    0    0    0  501 -0.00000000000E+00  0.00000000000E+00  0.23159548247E+03  0.23159548247E+03  0.00000000000E+00 0.  1.
          1   -1    0    0  501    0  0.00000000000E+00 -0.00000000000E+00 -0.64332424127E+02  0.64332424127E+02  0.00000000000E+00 0. -1.
         23    2    1    2    0    0 -0.25914650602E+02  0.26364536059E+02  0.13292735088E+03  0.18623574409E+03  0.12508962342E+03 0.  0.
          5    1    3    3  502    0 -0.72050380712E+02 -0.81313173053E+01  0.76655695318E+02  0.10559802889E+03  0.41800000000E+01 0. -1.
         -5    1    3    3    0  502  0.46135730110E+02  0.34495853364E+02  0.56271655566E+02  0.80637715197E+02  0.41800000000E+01 0. -1.
        -11    1    1    2    0    0  0.33088700421E+02 -0.33588579684E+02 -0.22294130554E+02  0.52154415325E+02  0.00000000000E+00 0. -1.
         11    1    1    2    0    0 -0.71740498186E+01  0.72240436251E+01  0.56629838015E+02  0.57537747181E+02  0.00000000000E+00 0.  1.
</event>
<event>
 7    1  0.8661710E-006  0.1156838E+03  0.7561462E-02  0.1250392E+00
         -2   -1    0    0    0  501 -0.00000000000E+00  0.00000000000E+00  0.41032780899E+02  0.41032780899E+02  0.00000000000E+00 0.  1.
          2   -1    0    0  501    0  0.00000000000E+00 -0.00000000000E+00 -0.50301010839E+03  0.50301010839E+03  0.00000000000E+00 0. -1.
         23    2    1    2    0    0 -0.52812486928E+02  0.16753379257E+02 -0.11736951609E+03  0.18197604689E+03  0.12755329804E+03 0.  0.
          5    1    3    3  502    0 -0.40731103144E+02  0.61439168380E+02 -0.11341438314E+03  0.13532955655E+03  0.41800000000E+01 0.  1.
         -5    1    3    3    0  502 -0.12081383784E+02 -0.44685789123E+02 -0.39551329488E+01  0.46646490332E+02  0.41800000000E+01 0. -1.
        -11    1    1    2    0    0 -0.19563974719E+02 -0.31606552684E+02 -0.11856645216E+03  0.12425669744E+03  0.00000000000E+00 0. -1.
         11    1    1    2    0    0  0.72376461647E+02  0.14853173427E+02 -0.22604135924E+03  0.23781014497E+03  0.00000000000E+00 0.  1.
</event>
<event>
 7    1  0.8661710E-006  0.1363477E+03  0.7561462E-02  0.1218330E+00
         -2   -1    0    0    0  501 -0.00000000000E+00  0.00000000000E+00  0.43897471499E+02  0.43897471499E+02  0.00000000000E+00 0. -1.
          2   -1    0    0  501    0  0.00000000000E+00 -0.00000000000E+00 -0.63099851688E+03  0.63099851688E+03  0.00000000000E+00 0.  1.
         23    2    1    2    0    0 -0.10290905134E+03  0.71633455358E+02 -0.32799911021E+03  0.37276466999E+03  0.12509379728E+03 0.  0.
          5    1    3    3  502    0 -0.85420729798E+02  0.61095319359E+02 -0.33474587518E+03  0.35085839377E+03  0.41800000000E+01 0.  1.
         -5    1    3    3    0  502 -0.17488321537E+02  0.10538135999E+02  0.67467649645E+01  0.21906276224E+02  0.41800000000E+01 0.  1.
        -11    1    1    2    0    0 -0.86505990120E+01 -0.23882057290E+02 -0.14919993377E+02  0.29458304874E+02  0.00000000000E+00 0. -1.
         11    1    1    2    0    0  0.11155965035E+03 -0.47751398068E+02 -0.24418194179E+03  0.27267301352E+03  0.00000000000E+00 0.  1.
</event>
<event>
 7    1  0.8661710E-006  0.2215060E+03  0.7561462E-02  0.1132765E+00
          2   -1    0    0  501    0  0.00000000000E+00  0.00000000000E+00  0.56044884758E+03  0.56044884758E+03  0.00000000000E+00 0. -1.
         -2   -1    0    0    0  501 -0.00000000000E+00 -0.00000000000E+00 -0.14367885738E+03  0.14367885738E+03  0.00000000000E+00 0.  1.
         23    2    1    2    0    0 -0.97614495772E+01  0.20831759872E+03  0.16675196587E+02  0.24375787183E+03  0.12509328544E+03 0.  0.
          5    1    3    3  502    0  0.10942479570E+02  0.18927160874E+03 -0.27094527996E+02  0.19155956145E+03  0.41800000000E+01 0. -1.
         -5    1    3    3    0  502 -0.20703929147E+02  0.19045989981E+02  0.43769724583E+02  0.52198310380E+02  0.41800000000E+01 0. -1.
        -11    1    1    2    0    0  0.39785916337E+02 -0.17752997184E+03  0.34909849592E+03  0.39366174553E+03  0.00000000000E+00 0. -1.
         11    1    1    2    0    0 -0.30024466760E+02 -0.30787626885E+02  0.50996297698E+02  0.66708087608E+02  0.00000000000E+00 0.  1.
</event>
<event>
 7    1  0.1086271E-005  0.1294797E+03  0.7561462E-02  0.1228230E+00
          4   -1    0    0  501    0  0.00000000000E+00  0.00000000000E+00  0.44205157334E+03  0.44205157334E+03  0.00000000000E+00 0. -1.
         -4   -1    0    0    0  501 -0.00000000000E+00 -0.00000000000E+00 -0.49817041907E+02  0.49817041907E+02  0.00000000000E+00 0.  1.
         23    2    1    2    0    0  0.36810786533E+02 -0.92760471407E+02  0.18224322525E+03  0.24252787076E+03  0.12509051076E+03 0.  0.
          5    1    3    3  502    0  0.62362764378E+02 -0.20114296882E+02  0.30685188623E+02  0.72475875440E+02  0.41800000000E+01 0. -1.
         -5    1    3    3    0  502 -0.25551977845E+02 -0.72646174524E+02  0.15155803663E+03  0.17005199532E+03  0.41800000000E+01 0. -1.
        -11    1    1    2    0    0  0.44885123061E+01  0.67743692735E+02  0.18029547449E+03  0.19265464638E+03  0.00000000000E+00 0. -1.
         11    1    1    2    0    0 -0.41299298839E+02  0.25016778671E+02  0.29695831695E+02  0.56686098117E+02  0.00000000000E+00 0.  1.
</event>
<event>
 7    1  0.8661710E-006  0.1342229E+03  0.7561462E-02  0.1221321E+00
          3   -1    0    0  501    0  0.00000000000E+00  0.00000000000E+00  0.67858701296E+02  0.67858701296E+02  0.00000000000E+00 0.  1.
         -3   -1    0    0    0  501 -0.00000000000E+00 -0.00000000000E+00 -0.28576207184E+03  0.28576207184E+03  0.00000000000E+00 0. -1.
         23    2    1    2    0    0  0.10749537851E+02  0.82630774742E+02 -0.15735400538E+03  0.21760294051E+03  0.12508940487E+03 0.  0.
          5    1    3    3  502    0  0.65805991955E+02  0.43022521286E+02 -0.60519024906E+02  0.99304535095E+02  0.41800000000E+01 0.  1.
         -5    1    3    3    0  502 -0.55056454104E+02  0.39608253456E+02 -0.96834980472E+02  0.11829840541E+03  0.41800000000E+01 0.  1.
        -11    1    1    2    0    0  0.34172941027E+02 -0.65128382434E+02 -0.38200470777E+02  0.82878055385E+02  0.00000000000E+00 0. -1.
         11    1    1    2    0    0 -0.44922478878E+02 -0.17502392308E+02 -0.22348894390E+02  0.53139777243E+02  0.00000000000E+00 0.  1.
</event>
<event>
 7    1  0.8661710E-006  0.1068907E+03  0.7561462E-02  0.1266439E+00
          4   -1    0    0  501    0  0.00000000000E+00  0.00000000000E+00  0.20928785339E+03  0.20928785339E+03  0.00000000000E+00 0. -1.
         -4   -1    0    0    0  501 -0.00000000000E+00 -0.00000000000E+00 -0.70456430215E+02  0.70456430215E+02  0.00000000000E+00 0.  1.
         23    2    1    2    0    0 -0.54819601741E+02  0.54109768865E+01  0.85645385746E+02  0.16129890336E+03  0.12509091382E+03 0.  0.
          5    1    3    3  502    0  0.37193339917E+02  0.20628028302E+01  0.31721563945E+01  0.37618275690E+02  0.41800000000E+01 0. -1.
         -5    1    3    3    0  502 -0.92012941658E+02  0.33481740563E+01  0.82473229352E+02  0.12368062767E+03  0.41800000000E+01 0. -1.
        -11    1    1    2    0    0  0.53713152000E+02  0.21016006117E+02  0.67162138630E+02  0.88529814617E+02  0.00000000000E+00 0. -1.
         11    1    1    2    0    0  0.11064497416E+01 -0.26426983003E+02 -0.13976101202E+02  0.29915565622E+02  0.00000000000E+00 0.  1.
</event>
<event>
 7    1  0.8661710E-006  0.1918305E+03  0.7561462E-02  0.1156821E+00
          1   -1    0    0  501    0  0.00000000000E+00  0.00000000000E+00  0.59442896366E+02  0.59442896366E+02  0.00000000000E+00 0. -1.
         -1   -1    0    0    0  501 -0.00000000000E+00 -0.00000000000E+00 -0.64457430602E+03  0.64457430602E+03  0.00000000000E+00 0.  1.
         23    2    1    2    0    0 -0.15811665250E+03  0.12148828589E+02 -0.36188021963E+03  0.41443148484E+03  0.12509073681E+03 0.  0.
          5    1    3    3  502    0  0.10131677819E+02  0.29656633871E+02 -0.42186033725E+02  0.52719073109E+02  0.41800000000E+01 0. -1.
         -5    1    3    3    0  502 -0.16824833032E+03 -0.17507805282E+02 -0.31969418591E+03  0.36171241173E+03  0.41800000000E+01 0. -1.
        -11    1    1    2    0    0  0.43332967442E+02 -0.45968518808E+02 -0.95887452321E+02  0.11482706258E+03  0.00000000000E+00 0.  1.
         11    1    1    2    0    0  0.11478368506E+03  0.33819690219E+02 -0.12736373770E+03  0.17475865496E+03  0.00000000000E+00 0. -1.
</event>
<event>
 7    1  0.8661710E-006  0.1060839E+03  0.7561462E-02  0.1267999E+00
         -1   -1    0    0    0  501 -0.00000000000E+00  0.00000000000E+00  0.73732903090E+02  0.73732903090E+02  0.00000000000E+00 0. -1.
          1   -1    0    0  501    0  0.00000000000E+00 -0.00000000000E+00 -0.50387280367E+03  0.50387280367E+03  0.00000000000E+00 0.  1.
         23    2    1    2    0    0  0.19775104474E+02  0.33812680851E+02  0.49520530507E+01  0.13117397264E+03  0.12509091144E+03 0.  0.
          5    1    3    3  502    0  0.66675156359E+02  0.19093822608E+02  0.30194243587E+02  0.75758268744E+02  0.41800000000E+01 0. -1.
         -5    1    3    3    0  502 -0.46900051885E+02  0.14718858243E+02 -0.25242190536E+02  0.55415703892E+02  0.41800000000E+01 0. -1.
        -11    1    1    2    0    0 -0.14389299499E+02  0.27907683322E+02 -0.79374000123E+02  0.85358787620E+02  0.00000000000E+00 0. -1.
         11    1    1    2    0    0 -0.53858049753E+01 -0.61720364173E+02 -0.35571795351E+03  0.36107294650E+03  0.00000000000E+00 0.  1.
</event>
<event>
 7    1  0.8661710E-006  0.2598704E+03  0.7561462E-02  0.1107221E+00
         -1   -1    0    0    0  501 -0.00000000000E+00  0.00000000000E+00  0.13384722235E+03  0.13384722235E+03  0.00000000000E+00 0.  1.
          1   -1    0    0  501    0  0.00000000000E+00 -0.00000000000E+00 -0.54912199132E+03  0.54912199132E+03  0.00000000000E+00 0. -1.
         23    2    1    2    0    0 -0.18332394529E+03 -0.15808577246E+03 -0.14314008919E+03  0.30779186210E+03  0.12509182576E+03 0.  0.
          5    1    3    3  502    0 -0.94218319241E+02 -0.14258011719E+03 -0.13318118425E+03  0.21670459555E+03  0.41800000000E+01 0. -1.
         -5    1    3    3    0  502 -0.89105626052E+02 -0.15505655272E+02 -0.99589049482E+01  0.91087266549E+02  0.41800000000E+01 0. -1.
        -11    1    1    2    0    0  0.11630545948E+03  0.15137585226E+03 -0.19940689367E+03  0.27605202009E+03  0.00000000000E+00 0.  1.
         11    1    1    2    0    0  0.67018485812E+02  0.67099201980E+01 -0.72727786106E+02  0.99125331482E+02  0.00000000000E+00 0. -1.
</event>
<event>
 7    1  0.8661710E-006  0.1186927E+03  0.7561462E-02  0.1245269E+00
         -2   -1    0    0    0  501 -0.00000000000E+00  0.00000000000E+00  0.72967507512E+02  0.72967507512E+02  0.00000000000E+00 0.  1.
          2   -1    0    0  501    0  0.00000000000E+00 -0.00000000000E+00 -0.25236456315E+03  0.25236456315E+03  0.00000000000E+00 0. -1.
         23    2    1    2    0    0 -0.77650742341E+02 -0.20679802382E+02 -0.87377850218E+02  0.17245189940E+03  0.12508987523E+03 0.  0.
          5    1    3    3  502    0  0.25289481463E+02 -0.31222207331E+02 -0.45222943982E+02  0.60638033986E+02  0.41800000000E+01 0. -1.
         -5    1    3    3    0  502 -0.10294022380E+03  0.10542404949E+02 -0.42154906237E+02  0.11181386541E+03  0.41800000000E+01 0. -1.
        -11    1    1    2    0    0  0.30633663838E+02 -0.15280885506E+02 -0.86978861845E+02  0.93473254089E+02  0.00000000000E+00 0. -1.
         11    1    1    2    0    0  0.47017078503E+02  0.35960687888E+02 -0.50403435700E+01  0.59406917170E+02  0.00000000000E+00 0.  1.
</event>
<event>
 7    1  0.8661710E-006  0.1106186E+03  0.7561462E-02  0.1259429E+00
         -3   -1    0    0    0  501 -0.00000000000E+00  0.00000000000E+00  0.42097201186E+02  0.42097201186E+02  0.00000000000E+00 0.  1.
          3   -1    0    0  501    0  0.00000000000E+00 -0.00000000000E+00 -0.46214099483E+03  0.46214099483E+03  0.00000000000E+00 0. -1.
         23    2    1    2    0    0 -0.46789326099E+02  0.59401889109E+02 -0.16978547121E+03  0.22403725865E+03  0.12509101311E+03 0.  0.
          5    1    3    3  502    0 -0.32068844205E+01 -0.31844006238E+02 -0.80813916465E+01  0.33273204413E+02  0.41800000000E+01 0.  1.
         -5    1    3    3    0  502 -0.43582441679E+02  0.91245895347E+02 -0.16170407956E+03  0.19076405423E+03  0.41800000000E+01 0.  1.
        -11    1    1    2    0    0  0.55581438719E+02 -0.48655458493E+02 -0.25503505218E+03  0.26551747176E+03  0.00000000000E+00 0. -1.
         11    1    1    2    0    0 -0.87921126203E+01 -0.10746430616E+02  0.47767297409E+01  0.14683465610E+02  0.00000000000E+00 0.  1.
</event>
<event>
 7    1  0.8661710E-006  0.1159075E+03  0.7561462E-02  0.1250005E+00
         -1   -1    0    0    0  501 -0.00000000000E+00  0.00000000000E+00  0.27556291063E+03  0.27556291063E+03  0.00000000000E+00 0.  1.
          1   -1    0    0  501    0  0.00000000000E+00 -0.00000000000E+00 -0.10864020023E+03  0.10864020023E+03  0.00000000000E+00 0. -1.
         23    2    1    2    0    0 -0.48681613117E+02  0.71133583575E+02  0.20306360121E+03  0.25359982081E+03  0.12509259295E+03 0.  0.
          5    1    3    3  502    0 -0.53448268853E+02  0.19161842085E+02  0.15699568363E+02  0.59057958670E+02  0.41800000000E+01 0. -1.
         -5    1    3    3    0  502  0.47666557361E+01  0.51971741489E+02  0.18736403284E+03  0.19454186214E+03  0.41800000000E+01 0. -1.
        -11    1    1    2    0    0  0.60856320773E+02 -0.84700738513E+02 -0.19876503011E+02  0.10617335944E+03  0.00000000000E+00 0.  1.
         11    1    1    2    0    0 -0.12174707656E+02  0.13567154939E+02 -0.16264387789E+02  0.24429930614E+02  0.00000000000E+00 0. -1.
</event>
<event>
 7    1  0.8661710E-006  0.1468863E+03  0.7561462E-02  0.1204352E+00
         -3   -1    0    0    0  501 -0.00000000000E+00  0.00000000000E+00  0.11332408241E+03  0.11332408241E+03  0.00000000000E+00 0.  1.
          3   -1    0    0  501    0  0.00000000000E+00 -0.00000000000E+00 -0.24230017018E+03  0.24230017018E+03  0.00000000000E+00 0. -1.
         23    2    1    2    0    0  0.11525225647E+03 -0.29243488537E+02 -0.26144322787E+02  0.17455393930E+03  0.12508911971E+03 0.  0.
          5    1    3    3  502    0  0.61683659182E+02  0.42644644069E+02 -0.37746250805E+02  0.84057666680E+02  0.41800000000E+01 0. -1.
         -5    1    3    3    0  502  0.53568597284E+02 -0.71888132607E+02  0.11601928018E+02  0.90496272621E+02  0.41800000000E+01 0. -1.
        -11    1    1    2    0    0 -0.23852070673E+02 -0.14155999111E+02 -0.69028353024E+02  0.74392386085E+02  0.00000000000E+00 0. -1.
         11    1    1    2    0    0 -0.91400185792E+02  0.43399487649E+02 -0.33803411957E+02  0.10667792720E+03  0.00000000000E+00 0.  1.
</event>
<event>
 7    1  0.8661710E-006  0.2325427E+03  0.7561462E-02  0.1124863E+00
          2   -1    0    0  501    0  0.00000000000E+00  0.00000000000E+00  0.42726670378E+03  0.42726670378E+03  0.00000000000E+00 0. -1.
         -2   -1    0    0    0  501 -0.00000000000E+00 -0.00000000000E+00 -0.14973645960E+03  0.14973645960E+03  0.00000000000E+00 0.  1.
         23    2    1    2    0    0 -0.78984400660E+02 -0.19059471830E+03  0.31570724691E+02  0.24333311456E+03  0.12509760905E+03 0.  0.
          5    1    3    3  502    0  0.25261776690E+02 -0.96092675572E+02  0.24337018414E+02  0.10238028387E+03  0.41800000000E+01 0. -1.
         -5    1    3    3    0  502 -0.10424617735E+03 -0.94502042730E+02  0.72337062771E+01  0.14095283069E+03  0.41800000000E+01 0. -1.
        -11    1    1    2    0    0 -0.61556054959E+01  0.10132519172E+03  0.98952039930E+02  0.14176103894E+03  0.00000000000E+00 0.  1.
         11    1    1    2    0    0  0.85140006155E+02  0.89269526583E+02  0.14700747956E+03  0.19190900987E+03  0.00000000000E+00 0. -1.
</event>
<event>
 7    1  0.8661710E-006  0.1073727E+03  0.7561462E-02  0.1265514E+00
         -2   -1    0    0    0  501 -0.00000000000E+00  0.00000000000E+00  0.24566282904E+02  0.24566282904E+02  0.00000000000E+00 0.  1.
          2   -1    0    0  501    0  0.00000000000E+00 -0.00000000000E+00 -0.52058867476E+03  0.52058867476E+03  0.00000000000E+00 0. -1.
         23    2    1    2    0    0 -0.10979094273E+02 -0.28944253948E+02 -0.25189950981E+03  0.28294776479E+03  0.12509102368E+03 0.  0.
          5    1    3    3  502    0 -0.46905728513E+02 -0.60363717283E+02 -0.11728179875E+03  0.14005862505E+03  0.41800000000E+01 0. -1.
         -5    1    3    3    0  502  0.35926634241E+02  0.31419463334E+02 -0.13461771106E+03  0.14288913974E+03  0.41800000000E+01 0. -1.
        -11    1    1    2    0    0 -0.33973099844E+02  0.29982396582E+02 -0.16595533603E+03  0.17202990779E+03  0.00000000000E+00 0. -1.
         11    1    1    2    0    0  0.44952194116E+02 -0.10381426341E+01 -0.78167546010E+02  0.90177285085E+02  0.00000000000E+00 0.  1.
</event>
<event>
 7    1  0.8661710E-006  0.1110446E+03  0.7561462E-02  0.1258648E+00
         -1   -1    0    0    0  501 -0.00000000000E+00  0.00000000000E+00  0.30643623678E+03  0.30643623678E+03  0.00000000000E+00 0.  1.
          1   -1    0    0  501    0  0.00000000000E+00 -0.00000000000E+00 -0.54751408093E+02  0.54751408093E+02  0.00000000000E+00 0. -1.
         23    2    1    2    0    0  0.15850258054E+02  0.64556592323E+02  0.20250275371E+03  0.24017170180E+03  0.11070816047E+03 0.  0.
          5    1    3    3  502    0 -0.41481624954E+02  0.57173218318E+01  0.40117922163E+02  0.58140631717E+02  0.41800000000E+01 0. -1.
         -5    1    3    3    0  502  0.57331883008E+02  0.58839270492E+02  0.16238483154E+03  0.18203107009E+03  0.41800000000E+01 0.  1.
        -11    1    1    2    0    0  0.69263268949E+01 -0.73096459526E+02  0.59585688480E+02  0.94559614377E+02  0.00000000000E+00 0.  1.
         11    1    1    2    0    0 -0.22776584948E+02  0.85398672029E+01 -0.10403613503E+02  0.26456328689E+02  0.00000000000E+00 0. -1.
</event>
<event>
 7    1  0.8661710E-006  0.1709364E+03  0.7561462E-02  0.1176875E+00
          3   -1    0    0  501    0  0.00000000000E+00  0.00000000000E+00  0.12247101072E+03  0.12247101072E+03  0.00000000000E+00 0. -1.
         -3   -1    0    0    0  501 -0.00000000000E+00 -0.00000000000E+00 -0.39813663677E+03  0.39813663677E+03  0.00000000000E+00 0.  1.
         23    2    1    2    0    0 -0.10420800675E+03 -0.12466996592E+03 -0.26360904202E+03  0.33397095189E+03  0.12507981692E+03 0.  0.
          5    1    3    3  502    0 -0.36648019448E+02 -0.98494447354E+02 -0.67771803075E+02  0.12511883624E+03  0.41800000000E+01 0.  1.
         -5    1    3    3    0  502 -0.67559987298E+02 -0.26175518564E+02 -0.19583723894E+03  0.20885211565E+03  0.41800000000E+01 0.  1.
        -11    1    1    2    0    0  0.42107639634E+02  0.68401716496E+02  0.38175642560E+02  0.88933839567E+02  0.00000000000E+00 0. -1.
         11    1    1    2    0    0  0.62100367112E+02  0.56268249422E+02 -0.50232226593E+02  0.97702856032E+02  0.00000000000E+00 0.  1.
</event>
<event>
 7    1  0.8661710E-006  0.1616337E+03  0.7561462E-02  0.1186865E+00
          1   -1    0    0  501    0  0.00000000000E+00  0.00000000000E+00  0.97031234349E+03  0.97031234349E+03  0.00000000000E+00 0. -1.
         -1   -1    0    0    0  501 -0.00000000000E+00 -0.00000000000E+00 -0.30895847322E+02  0.30895847322E+02  0.00000000000E+00 0.  1.
         23    2    1    2    0    0  0.21765797679E+01 -0.13316710216E+03  0.54889544288E+03  0.57850908693E+03  0.12509333254E+03 0.  0.
          5    1    3    3  502    0  0.55046516196E+02 -0.10822748251E+03  0.32172795272E+03  0.34390355462E+03  0.41800000000E+01 0.  1.
         -5    1    3    3    0  502 -0.52869936428E+02 -0.24939619652E+02  0.22716749016E+03  0.23460553231E+03  0.41800000000E+01 0.  1.
        -11    1    1    2    0    0 -0.26554150949E+02  0.51550370507E+02  0.69222445306E+02  0.90301221288E+02  0.00000000000E+00 0.  1.
         11    1    1    2    0    0  0.24377571181E+02  0.81616731656E+02  0.32129860799E+03  0.33239788260E+03  0.00000000000E+00 0. -1.
</event>
<event>
 7    1  0.8661710E-006  0.8347178E+02  0.7561462E-02  0.1319478E+00
         -1   -1    0    0    0  501 -0.00000000000E+00  0.00000000000E+00  0.23661415680E+02  0.23661415680E+02  0.00000000000E+00 0. -1.
          1   -1    0    0  501    0  0.00000000000E+00 -0.00000000000E+00 -0.55806525678E+03  0.55806525678E+03  0.00000000000E+00 0.  1.
         23    2    1    2    0    0 -0.33024389302E+00  0.26237672076E+02 -0.22579603029E+03  0.25946131346E+03  0.12509117233E+03 0.  0.
          5    1    3    3  502    0 -0.12198520929E+02 -0.27196188380E+02 -0.32830804260E+01  0.30276849115E+02  0.41800000000E+01 0.  1.
         -5    1    3    3    0  502  0.11868277036E+02  0.53433860456E+02 -0.22251294986E+03  0.22918446435E+03  0.41800000000E+01 0.  1.
        -11    1    1    2    0    0  0.38960956026E+02 -0.11789054946E+02 -0.77839914795E+02  0.87840709504E+02  0.00000000000E+00 0. -1.
         11    1    1    2    0    0 -0.38630712133E+02 -0.14448617130E+02 -0.23076789602E+03  0.23442464949E+03  0.00000000000E+00 0.  1.
</event>
<event>
 7    1  0.8661710E-006  0.7952627E+02  0.7561462E-02  0.1330401E+00
          2   -1    0    0  501    0  0.00000000000E+00  0.00000000000E+00  0.48119451185E+03  0.48119451185E+03  0.00000000000E+00 0.  1.
         -2   -1    0    0    0  501 -0.00000000000E+00 -0.00000000000E+00 -0.32170678676E+02  0.32170678676E+02  0.00000000000E+00 0. -1.
         23    2    1    2    0    0  0.24580310863E+02  0.17712520928E+02  0.13751850879E+03  0.18835196296E+03  0.12508875494E+03 0.  0.
          5    1    3    3  502    0 -0.24696843315E+02  0.10412867199E+02  0.13564091990E+03  0.13832676323E+03  0.41800000000E+01 0. -1.
         -5    1    3    3    0  502  0.49277154178E+02  0.72996537291E+01  0.18775888834E+01  0.50025199735E+02  0.41800000000E+01 0. -1.
        -11    1    1    2    0    0 -0.15917372083E+02  0.29722730132E+02  0.59082996123E+02  0.68026493746E+02  0.00000000000E+00 0. -1.
         11    1    1    2    0    0 -0.86629387805E+01 -0.47435251060E+02  0.25242232827E+03  0.25698673382E+03  0.00000000000E+00 0.  1.
</event>
<event>
 7    1  0.8661710E-006  0.1017671E+03  0.7561462E-02  0.1276623E+00
          1   -1    0    0  501    0  0.00000000000E+00  0.00000000000E+00  0.63531142841E+03  0.63531142841E+03  0.00000000000E+00 0. -1.
         -1   -1    0    0    0  501 -0.00000000000E+00 -0.00000000000E+00 -0.24285369351E+02  0.24285369351E+02  0.00000000000E+00 0.  1.
         23    2    1    2    0    0 -0.45569395959E+02 -0.71051594911E+01  0.26049636474E+03  0.29263045239E+03  0.12508865849E+03 0.  0.
          5    1    3    3  502    0 -0.34335210171E+02 -0.46075230917E+02  0.44441791692E+02  0.72762482162E+02  0.41800000000E+01 0.  1.
         -5    1    3    3    0  502 -0.11234185788E+02  0.38970071426E+02  0.21605457304E+03  0.21986797022E+03  0.41800000000E+01 0.  1.
        -11    1    1    2    0    0  0.49377284006E+02 -0.36484021173E+02  0.24808503176E+03  0.25556874410E+03  0.00000000000E+00 0.  1.
         11    1    1    2    0    0 -0.38078880466E+01  0.43589180665E+02  0.10244466256E+03  0.11139760127E+03  0.00000000000E+00 0. -1.
</event>
<event>
 7    1  0.1050721E-005  0.2845413E+03  0.7561462E-02  0.1093234E+00
         -2   -1    0    0    0  501 -0.00000000000E+00  0.00000000000E+00  0.20544208318E+03  0.20544208318E+03  0.00000000000E+00 0.  1.
          2   -1    0    0  501    0  0.00000000000E+00 -0.00000000000E+00 -0.49534999536E+03  0.49534999536E+03  0.00000000000E+00 0. -1.
         23    2    1    2    0    0 -0.88765296965E+02  0.25703669558E+03 -0.93051757925E+01  0.29946837004E+03  0.12509027756E+03 0.  0.
          5    1    3    3  502    0 -0.79261540924E+02  0.89217661669E+02 -0.44946461128E+02  0.12759247545E+03  0.41800000000E+01 0. -1.
         -5    1    3    3    0  502 -0.95037560415E+01  0.16781903391E+03  0.35641285336E+02  0.17187589459E+03  0.41800000000E+01 0. -1.
        -11    1    1    2    0    0  0.63797986770E+02 -0.78038381916E+02 -0.64767279291E+02  0.11981223909E+03  0.00000000000E+00 0. -1.
         11    1    1    2    0    0  0.24967310195E+02 -0.17899831366E+03 -0.21583545710E+03  0.28151146941E+03  0.00000000000E+00 0.  1.
</event>
<event>
 7    1  0.8661710E-006  0.1804412E+03  0.7561462E-02  0.1167377E+00
         -2   -1    0    0    0  501 -0.00000000000E+00  0.00000000000E+00  0.38699167401E+02  0.38699167401E+02  0.00000000000E+00 0. -1.
          2   -1    0    0  501    0  0.00000000000E+00 -0.00000000000E+00 -0.90302409715E+03  0.90302409715E+03  0.00000000000E+00 0.  1.
         23    2    1    2    0    0  0.14871886337E+03  0.11754126718E+02 -0.38223932262E+03  0.42896299558E+03  0.12508753735E+03 0.  0.
          5    1    3    3  502    0  0.17088027546E+03  0.12537030782E+02 -0.34862644407E+03  0.38847794737E+03  0.41800000000E+01 0. -1.
         -5    1    3    3    0  502 -0.22161412088E+02 -0.78290406362E+00 -0.33612878550E+02  0.40485048215E+02  0.41800000000E+01 0. -1.
        -11    1    1    2    0    0 -0.64395319100E+02 -0.42518462017E+02 -0.29982281293E+03  0.30959375945E+03  0.00000000000E+00 0.  1.
         11    1    1    2    0    0 -0.84323544271E+02  0.30764335299E+02 -0.18226279420E+03  0.20316650953E+03  0.00000000000E+00 0. -1.
</event>
<event>
 7    1  0.8661710E-006  0.1639433E+03  0.7561462E-02  0.1184315E+00
          2   -1    0    0  501    0  0.00000000000E+00  0.00000000000E+00  0.15049978459E+03  0.15049978459E+03  0.00000000000E+00 0. -1.
         -2   -1    0    0    0  501 -0.00000000000E+00 -0.00000000000E+00 -0.24459792814E+03  0.24459792814E+03  0.00000000000E+00 0.  1.
         23    2    1    2    0    0 -0.89434435562E+02  0.12906422100E+03 -0.71335151192E+02  0.21305456945E+03  0.12508978519E+03 0.  0.
          5    1    3    3  502    0 -0.68952417464E+01  0.41772764018E+02 -0.81994620621E+02  0.92374771357E+02  0.41800000000E+01 0. -1.
         -5    1    3    3    0  502 -0.82539193816E+02  0.87291456987E+02  0.10659469429E+02  0.12067979809E+03  0.41800000000E+01 0. -1.
        -11    1    1    2    0    0  0.83994822049E+02 -0.80748814350E+02 -0.49457627162E+02  0.12657629334E+03  0.00000000000E+00 0.  1.
         11    1    1    2    0    0  0.54396135129E+01 -0.48315406655E+02  0.26694634804E+02  0.55466849944E+02  0.00000000000E+00 0. -1.
</event>
<event>
 7    1  0.8661710E-006  0.9805897E+02  0.7561462E-02  0.1284431E+00
         -1   -1    0    0    0  501 -0.00000000000E+00  0.00000000000E+00  0.91175986232E+02  0.91175986232E+02  0.00000000000E+00 0.  1.
          1   -1    0    0  501    0  0.00000000000E+00 -0.00000000000E+00 -0.19176543935E+03  0.19176543935E+03  0.00000000000E+00 0. -1.
         23    2    1    2    0    0  0.67731544942E+01 -0.68830188410E+02 -0.22548916037E+02  0.14470495604E+03  0.12509036825E+03 0.  0.
          5    1    3    3  502    0 -0.16224557707E+02 -0.58532498787E+02  0.42879539026E+02  0.74467556386E+02  0.41800000000E+01 0. -1.
         -5    1    3    3    0  502  0.22997712201E+02 -0.10297689623E+02 -0.65428455063E+02  0.70237399653E+02  0.41800000000E+01 0. -1.
        -11    1    1    2    0    0  0.27720753905E+02 -0.50311025760E+01 -0.38301390789E+02  0.47547331435E+02  0.00000000000E+00 0. -1.
         11    1    1    2    0    0 -0.34493908399E+02  0.73861290986E+02 -0.39739146289E+02  0.90689138107E+02  0.00000000000E+00 0.  1.
</event>
<event>
 7    1  0.8661710E-006  0.1093073E+03  0.7561462E-02  0.1261858E+00
          1   -1    0    0  501    0  0.00000000000E+00  0.00000000000E+00  0.19336207820E+03  0.19336207820E+03  0.00000000000E+00 0. -1.
         -1   -1    0    0    0  501 -0.00000000000E+00 -0.00000000000E+00 -0.12672929036E+03  0.12672929036E+03  0.00000000000E+00 0.  1.
         23    2    1    2    0    0 -0.32542314358E+02 -0.10248430284E+03  0.33012917251E+01  0.16498444675E+03  0.12508770759E+03 0.  0.
          5    1    3    3  502    0 -0.20624661894E+02 -0.27466573925E+02  0.60575254085E+02  0.69761186693E+02  0.41800000000E+01 0.  1.
         -5    1    3    3    0  502 -0.11917652465E+02 -0.75017728915E+02 -0.57273962360E+02  0.95223260059E+02  0.41800000000E+01 0.  1.
        -11    1    1    2    0    0  0.22420702581E+01  0.18903936361E+02  0.63407729587E+02  0.66203669538E+02  0.00000000000E+00 0. -1.
         11    1    1    2    0    0  0.30300244100E+02  0.83580366479E+02 -0.76233469642E-01  0.88903252273E+02  0.00000000000E+00 0.  1.
</event>
<event>
 7    1  0.8661710E-006  0.3177279E+03  0.7561462E-02  0.1076700E+00
         -2   -1    0    0    0  501 -0.00000000000E+00  0.00000000000E+00  0.14063857793E+03  0.14063857793E+03  0.00000000000E+00 0. -1.
          2   -1    0    0  501    0  0.00000000000E+00 -0.00000000000E+00 -0.74099306465E+03  0.74099306465E+03  0.00000000000E+00 0.  1.
         23    2    1    2    0    0  0.19062969107E+03 -0.23481029502E+03 -0.33621179313E+03  0.46921448170E+03  0.12509319020E+03 0.  0.
          5    1    3    3  502    0  0.90251952871E+02 -0.19975405586E+03 -0.24789080636E+03  0.33092963317E+03  0.41800000000E+01 0.  1.
         -5    1    3    3    0  502  0.10037773820E+03 -0.35056239159E+02 -0.88320986764E+02  0.13828484853E+03  0.41800000000E+01 0.  1.
        -11    1    1    2    0    0 -0.51350231066E+02  0.11557087036E+03 -0.15102271608E+03  0.19698053985E+03  0.00000000000E+00 0.  1.
         11    1    1    2    0    0 -0.13927946001E+03  0.11923942466E+03 -0.11311997752E+03  0.21543662104E+03  0.00000000000E+00 0. -1.
</event>
<event>
 7    1  0.8661710E-006  0.1157413E+03  0.7561462E-02  0.1250293E+00
         -1   -1    0    0    0  501 -0.00000000000E+00  0.00000000000E+00  0.68805197082E+02  0.68805197082E+02  0.00000000000E+00 0.  1.
          1   -1    0    0  501    0  0.00000000000E+00 -0.00000000000E+00 -0.25724962667E+03  0.25724962667E+03  0.00000000000E+00 0. -1.
         23    2    1    2    0    0 -0.50601259948E+02  0.46767307316E+02 -0.67078889415E+02  0.15778225392E+03  0.12509194100E+03 0.  0.
          5    1    3    3  502    0 -0.57461451529E+02  0.85485252931E+02 -0.52022971538E+02  0.11547038083E+03  0.41800000000E+01 0. -1.
         -5    1    3    3    0  502  0.68601915809E+01 -0.38717945615E+02 -0.15055917878E+02  0.42311873090E+02  0.41800000000E+01 0. -1.
        -11    1    1    2    0    0  0.39303121548E+02  0.14494245171E+01 -0.11088444678E+03  0.11765286539E+03  0.00000000000E+00 0. -1.
         11    1    1    2    0    0  0.11298138400E+02 -0.48216731833E+02 -0.10481093389E+02  0.50619704450E+02  0.00000000000E+00 0.  1.
</event>
<event>
 7    1  0.8661710E-006  0.1970975E+03  0.7561462E-02  0.1152211E+00
          2   -1    0    0  501    0  0.00000000000E+00  0.00000000000E+00  0.10376178175E+04  0.10376178175E+04  0.00000000000E+00 0. -1.
         -2   -1    0    0    0  501 -0.00000000000E+00 -0.00000000000E+00 -0.86615924100E+02  0.86615924100E+02  0.00000000000E+00 0.  1.
         23    2    1    2    0    0 -0.82312781385E+02 -0.14810649061E+03  0.75615583522E+02  0.22377962449E+03  0.12509467344E+03 0.  0.
          5    1    3    3  502    0 -0.10574928642E+03 -0.14092158998E+03  0.86871374385E+02  0.19648387769E+03  0.41800000000E+01 0. -1.
         -5    1    3    3    0  502  0.23436505040E+02 -0.71849006257E+01 -0.11255790862E+02  0.27295746801E+02  0.41800000000E+01 0. -1.
        -11    1    1    2    0    0  0.10278620066E+03  0.13027547115E+03  0.83787002264E+03  0.85414452891E+03  0.00000000000E+00 0. -1.
         11    1    1    2    0    0 -0.20473419279E+02  0.17831019458E+02  0.37516287277E+02  0.46309588239E+02  0.00000000000E+00 0.  1.
</event>
<event>
 7    1  0.8661710E-006  0.7919922E+02  0.7561462E-02  0.1331339E+00
         -3   -1    0    0    0  501 -0.00000000000E+00  0.00000000000E+00  0.71376723498E+02  0.71376723498E+02  0.00000000000E+00 0.  1.
          3   -1    0    0  501    0  0.00000000000E+00 -0.00000000000E+00 -0.24399632567E+03  0.24399632567E+03  0.00000000000E+00 0. -1.
         23    2    1    2    0    0  0.63046467021E+00  0.20572653972E+02 -0.84445569169E+01  0.12704861827E+03  0.12508560783E+03 0.  0.
          5    1    3    3  502    0  0.27412195798E+02 -0.11177367082E+02  0.48177730471E+02  0.56700336214E+02  0.41800000000E+01 0.  1.
         -5    1    3    3    0  502 -0.26781731128E+02  0.31750021054E+02 -0.56622287388E+02  0.70348282056E+02  0.41800000000E+01 0.  1.
        -11    1    1    2    0    0  0.17012262825E+02 -0.49794141723E+02 -0.66150583984E+02  0.84526761429E+02  0.00000000000E+00 0. -1.
         11    1    1    2    0    0 -0.17642727495E+02  0.29221487750E+02 -0.98024461273E+02  0.10379766947E+03  0.00000000000E+00 0.  1.
</event>
<event>
 7    1  0.8661710E-006  0.1072551E+03  0.7561462E-02  0.1265739E+00
         -2   -1    0    0    0  501 -0.00000000000E+00  0.00000000000E+00  0.24827346813E+03  0.24827346813E+03  0.00000000000E+00 0.  1.
          2   -1    0    0  501    0  0.00000000000E+00 -0.00000000000E+00 -0.80510145071E+02  0.80510145071E+02  0.00000000000E+00 0. -1.
         23    2    1    2    0    0 -0.12127332881E+02  0.69455470968E+02  0.15974702318E+03  0.21479811095E+03  0.12509189582E+03 0.  0.
          5    1    3    3  502    0  0.49113095700E+02 -0.20614859520E+01  0.56245327671E+02  0.74815474190E+02  0.41800000000E+01 0.  1.
         -5    1    3    3    0  502 -0.61240428581E+02  0.71516956920E+02  0.10350169551E+03  0.13998263676E+03  0.41800000000E+01 0.  1.
        -11    1    1    2    0    0  0.45292487870E+01 -0.98496617988E+01 -0.37224084512E+02  0.38770638374E+02  0.00000000000E+00 0. -1.
         11    1    1    2    0    0  0.75980840944E+01 -0.59605809170E+02  0.45240384391E+02  0.75214863880E+02  0.00000000000E+00 0.  1.
</event>
<event>
 7    1  0.8661710E-006  0.1201820E+03  0.7561462E-02  0.1242797E+00
          1   -1    0    0  501    0  0.00000000000E+00  0.00000000000E+00  0.74432202348E+02  0.74432202348E+02  0.00000000000E+00 0. -1.
         -1   -1    0    0    0  501 -0.00000000000E+00 -0.00000000000E+00 -0.23205322230E+03  0.23205322230E+03  0.00000000000E+00 0.  1.
         23    2    1    2    0    0  0.52417295597E+02  0.40082601283E+02 -0.12343163307E+03  0.18771464572E+03  0.12508889789E+03 0.  0.
          5    1    3    3  502    0  0.70675035785E+02  0.66707515721E+02 -0.54544611196E+02  0.11152327267E+03  0.41800000000E+01 0. -1.
         -5    1    3    3    0  502 -0.18257740188E+02 -0.26624914438E+02 -0.68887021870E+02  0.76191373053E+02  0.41800000000E+01 0. -1.
        -11    1    1    2    0    0  0.21071866788E+02  0.81936963435E+01 -0.19017993034E+02  0.29543938274E+02  0.00000000000E+00 0.  1.
         11    1    1    2    0    0 -0.73489162385E+02 -0.48276297626E+02 -0.15171393850E+02  0.89226840647E+02  0.00000000000E+00 0. -1.
</event>
<event>
 7    1  0.8661710E-006  0.1011504E+03  0.7561462E-02  0.1277895E+00
          1   -1    0    0  501    0  0.00000000000E+00  0.00000000000E+00  0.32266573557E+02  0.32266573557E+02  0.00000000000E+00 0. -1.
         -1   -1    0    0    0  501 -0.00000000000E+00 -0.00000000000E+00 -0.43100916657E+03  0.43100916657E+03  0.00000000000E+00 0.  1.
         23    2    1    2    0    0 -0.60786873097E+01  0.27347025555E+02 -0.29705122289E+03  0.32352912931E+03  0.12508740243E+03 0.  0.
          5    1    3    3  502    0  0.37566013273E+02 -0.19990176580E+02 -0.21467440299E+03  0.21889126116E+03  0.41800000000E+01 0. -1.
         -5    1    3    3    0  502 -0.43644700582E+02  0.47337202135E+02 -0.82376819900E+02  0.10463786815E+03  0.41800000000E+01 0. -1.
        -11    1    1    2    0    0  0.35475487786E+02  0.18918736815E+02 -0.52253122576E+02  0.65930400084E+02  0.00000000000E+00 0.  1.
         11    1    1    2    0    0 -0.29396800477E+02 -0.46265762369E+02 -0.49438247546E+02  0.73816210728E+02  0.00000000000E+00 0. -1.
</event>
<event>
 6    1  0.8661710E-006  0.1090744E+03  0.7561462E-02  0.1262294E+00
         -2   -1    0    0    0  501 -0.00000000000E+00  0.00000000000E+00  0.21499121285E+03  0.21499121285E+03  0.00000000000E+00 0.  1.
          2   -1    0    0  501    0  0.00000000000E+00 -0.00000000000E+00 -0.14285917943E+03  0.14285917943E+03  0.00000000000E+00 0. -1.
          5    1    1    2  502    0  0.68788939932E+02  0.36395557456E+02  0.47560111128E+02  0.91301650752E+02  0.41800000000E+01 0. -1.
         -5    1    1    2    0  502 -0.33217516967E+02 -0.50558388675E+02  0.11714613686E+03  0.13190998401E+03  0.41800000000E+01 0.  1.
        -11    1    1    2    0    0 -0.56923303506E+02  0.93410349431E+01 -0.23689118034E+02  0.62359375631E+02  0.00000000000E+00 0. -1.
         11    1    1    2    0    0  0.21351880541E+02  0.48217962765E+01 -0.68885096535E+02  0.72279381892E+02  0.00000000000E+00 0.  1.
</event>
<event>
 7    1  0.8661710E-006  0.8612599E+02  0.7561462E-02  0.1312514E+00
          1   -1    0    0  501    0  0.00000000000E+00  0.00000000000E+00  0.12125165969E+03  0.12125165969E+03  0.00000000000E+00 0. -1.
         -1   -1    0    0    0  501 -0.00000000000E+00 -0.00000000000E+00 -0.14149104299E+03  0.14149104299E+03  0.00000000000E+00 0.  1.
         23    2    1    2    0    0 -0.20122452352E+02  0.14593795658E+01 -0.81787369003E+02  0.15081117998E+03  0.12509114837E+03 0.  0.
          5    1    3    3  502    0 -0.41766196132E+02 -0.22641801255E+02 -0.10186159730E+03  0.11247365784E+03  0.41800000000E+01 0.  1.
         -5    1    3    3    0  502  0.21643743779E+02  0.24101180820E+02  0.20074228301E+02  0.38337522137E+02  0.41800000000E+01 0.  1.
        -11    1    1    2    0    0  0.55355824997E+02 -0.83943820953E+01  0.47316907866E+02  0.73304998342E+02  0.00000000000E+00 0. -1.
         11    1    1    2    0    0 -0.35233372645E+02  0.69350025295E+01  0.14231077831E+02  0.38626524362E+02  0.00000000000E+00 0.  1.
</event>
<event>
 7    1  0.8661710E-006  0.1104147E+03  0.7561462E-02  0.1259804E+00
          2   -1    0    0  501    0  0.00000000000E+00  0.00000000000E+00  0.78162621325E+02  0.78162621325E+02  0.00000000000E+00 0.  1.
         -2   -1    0    0    0  501 -0.00000000000E+00 -0.00000000000E+00 -0.21072229860E+03  0.21072229860E+03  0.00000000000E+00 0. -1.
         23    2    1    2    0    0 -0.20925936434E+02  0.40673825890E+02 -0.13142953321E+03  0.18712392428E+03  0.12509750561E+03 0.  0.
          5    1    3    3  502    0  0.30918290188E+02  0.67691324973E+02 -0.76148622259E+02  0.10655581268E+03  0.41800000000E+01 0.  1.
         -5    1    3    3    0  502 -0.51844226621E+02 -0.27017499083E+02 -0.55280910947E+02  0.80568111594E+02  0.41800000000E+01 0.  1.
        -11    1    1    2    0    0 -0.10017729111E+02  0.18425614729E+02  0.22715649971E+02  0.30916968291E+02  0.00000000000E+00 0.  1.
         11    1    1    2    0    0  0.30943665545E+02 -0.59099440619E+02 -0.23845794042E+02  0.70844027358E+02  0.00000000000E+00 0. -1.
</event>
<event>
 7    1  0.8661710E-006  0.6287916E+02  0.7561462E-02  0.1386132E+00
         -1   -1    0    0    0  501 -0.00000000000E+00  0.00000000000E+00  0.20122899690E+03  0.20122899690E+03  0.00000000000E+00 0.  1.
          1   -1    0    0  501    0  0.00000000000E+00 -0.00000000000E+00 -0.63252987879E+02  0.63252987879E+02  0.00000000000E+00 0. -1.
         23    2    1    2    0    0 -0.18406503776E+01  0.20968623033E+02  0.11908688295E+03  0.17399049950E+03  0.12509171466E+03 0.  0.
          5    1    3    3  502    0 -0.77913985998E-01  0.29821988718E+02 -0.18960248672E+02  0.35585397446E+02  0.41800000000E+01 0. -1.
         -5    1    3    3    0  502 -0.17627363916E+01 -0.88533656849E+01  0.13804713163E+03  0.13840510205E+03  0.41800000000E+01 0. -1.
        -11    1    1    2    0    0  0.28769303320E+02  0.21148866005E+02  0.19114221145E+02  0.40500627116E+02  0.00000000000E+00 0.  1.
         11    1    1    2    0    0 -0.26928652942E+02 -0.42117489038E+02 -0.22509508182E+00  0.49990858164E+02  0.00000000000E+00 0. -1.
</event>
<event>
 7    1  0.8661710E-006  0.9078322E+02  0.7561462E-02  0.1300966E+00
         -1   -1    0    0    0  501 -0.00000000000E+00  0.00000000000E+00  0.43799617752E+02  0.43799617752E+02  0.00000000000E+00 0.  1.
          1   -1    0    0  501    0  0.00000000000E+00 -0.00000000000E+00 -0.30501028998E+03  0.30501028998E+03  0.00000000000E+00 0. -1.
         23    2    1    2    0    0  0.14507868661E+02 -0.34546446742E+02 -0.12706989569E+03  0.18219873386E+03  0.12508271261E+03 0.  0.
          5    1    3    3  502    0 -0.37961135815E+02 -0.49216602623E+02 -0.10733412003E+03  0.12410240743E+03  0.41800000000E+01 0.  1.
         -5    1    3    3    0  502  0.52469004476E+02  0.14670155881E+02 -0.19735775654E+02  0.58096326432E+02  0.41800000000E+01 0.  1.
        -11    1    1    2    0    0 -0.24811988291E+02 -0.36393010251E+01 -0.12298604569E+03  0.12551671884E+03  0.00000000000E+00 0. -1.
         11    1    1    2    0    0  0.10304119631E+02  0.38185747767E+02 -0.11154730855E+02  0.41094455031E+02  0.00000000000E+00 0.  1.
</event>
<event>
 7    1  0.8661710E-006  0.1906416E+03  0.7561462E-02  0.1157884E+00
          2   -1    0    0  501    0  0.00000000000E+00  0.00000000000E+00  0.10761784898E+04  0.10761784898E+04  0.00000000000E+00 0. -1.
         -2   -1    0    0    0  501 -0.00000000000E+00 -0.00000000000E+00 -0.39167844089E+02  0.39167844089E+02  0.00000000000E+00 0.  1.
         23    2    1    2    0    0  0.64645081641E+00  0.17476432599E+03  0.53990650647E+03  0.58111047956E+03  0.12508943276E+03 0.  0.
          5    1    3    3  502    0 -0.54037251892E+01  0.17774668814E+03  0.36512347717E+03  0.40614740104E+03  0.41800000000E+01 0.  1.
         -5    1    3    3    0  502  0.60501760056E+01 -0.29823621492E+01  0.17478302930E+03  0.17496307852E+03  0.41800000000E+01 0.  1.
        -11    1    1    2    0    0 -0.36633228880E+02 -0.33321843638E+02  0.13729445149E+03  0.14595240708E+03  0.00000000000E+00 0.  1.
         11    1    1    2    0    0  0.35986778064E+02 -0.14144248235E+03  0.35980968773E+03  0.38828344723E+03  0.00000000000E+00 0. -1.
</event>
<event>
 7    1  0.8661710E-006  0.1481444E+03  0.7561462E-02  0.1202772E+00
         -2   -1    0    0    0  501 -0.00000000000E+00  0.00000000000E+00  0.83076635231E+02  0.83076635231E+02  0.00000000000E+00 0.  1.
          2   -1    0    0  501    0  0.00000000000E+00 -0.00000000000E+00 -0.35718374075E+03  0.35718374075E+03  0.00000000000E+00 0. -1.
         23    2    1    2    0    0  0.11398377438E+03  0.59298868320E+02 -0.11221538473E+03  0.21153908036E+03  0.12509130004E+03 0.  0.
          5    1    3    3  502    0  0.15684255621E+01 -0.56026353016E+01 -0.76514185801E+02  0.76848828943E+02  0.41800000000E+01 0. -1.
         -5    1    3    3    0  502  0.11241534882E+03  0.64901503622E+02 -0.35701198924E+02  0.13469025142E+03  0.41800000000E+01 0. -1.
        -11    1    1    2    0    0 -0.10841518273E+03 -0.81964946088E+02 -0.15037753080E+03  0.20269559937E+03  0.00000000000E+00 0. -1.
         11    1    1    2    0    0 -0.55685916478E+01  0.22666077768E+02 -0.11514190002E+02  0.26025696258E+02  0.00000000000E+00 0.  1.
</event>
<event>
 7    1  0.8661710E-006  0.1667933E+03  0.7561462E-02  0.1181234E+00
          1   -1    0    0  501    0  0.00000000000E+00  0.00000000000E+00  0.52159309613E+03  0.52159309613E+03  0.00000000000E+00 0. -1.
         -1   -1    0    0    0  501 -0.00000000000E+00 -0.00000000000E+00 -0.77526435805E+02  0.77526435805E+02  0.00000000000E+00 0.  1.
         23    2    1    2    0    0 -0.14733726380E+03 -0.38284511079E+02  0.12343190202E+03  0.23250210796E+03  0.12509125739E+03 0.  0.
          5    1    3    3  502    0 -0.13307103341E+03 -0.23659186887E+02  0.14786946313E+03  0.20037591568E+03  0.41800000000E+01 0. -1.
         -5    1    3    3    0  502 -0.14266230388E+02 -0.14625324192E+02 -0.24437561112E+02  0.32126192278E+02  0.41800000000E+01 0. -1.
        -11    1    1    2    0    0  0.11826585176E+03 -0.12570397668E+02  0.20536843573E+03  0.23732050266E+03  0.00000000000E+00 0. -1.
         11    1    1    2    0    0  0.29071412040E+02  0.50854908747E+02  0.11526632257E+03  0.12929692131E+03  0.00000000000E+00 0.  1.
</event>
<event>
 7    1  0.8661710E-006  0.7158841E+02  0.7561462E-02  0.1354773E+00
         -1   -1    0    0    0  501 -0.00000000000E+00  0.00000000000E+00  0.15730133984E+03  0.15730133984E+03  0.00000000000E+00 0.  1.
          1   -1    0    0  501    0  0.00000000000E+00 -0.00000000000E+00 -0.81624275038E+02  0.81624275038E+02  0.00000000000E+00 0. -1.
         23    2    1    2    0    0 -0.11659862107E+02 -0.10974006044E+02  0.76494109446E+02  0.14749477809E+03  0.12508788746E+03 0.  0.
          5    1    3    3  502    0 -0.37696445744E+02 -0.30876307649E+02 -0.14236481406E+02  0.50936413287E+02  0.41800000000E+01 0.  1.
         -5    1    3    3    0  502  0.26036583637E+02  0.19902301605E+02  0.90730590852E+02  0.96558364801E+02  0.41800000000E+01 0.  1.
        -11    1    1    2    0    0  0.32949669862E+02  0.19513408703E+02  0.33011160259E+02  0.50558783262E+02  0.00000000000E+00 0.  1.
         11    1    1    2    0    0 -0.21289807755E+02 -0.85394026594E+01 -0.33828204908E+02  0.40872053524E+02  0.00000000000E+00 0. -1.
</event>
<event>
 7    1  0.8661710E-006  0.1317333E+03  0.7561462E-02  0.1224906E+00
         -4   -1    0    0    0  501 -0.00000000000E+00  0.00000000000E+00  0.35188837146E+02  0.35188837146E+02  0.00000000000E+00 0. -1.
          4   -1    0    0  501    0  0.00000000000E+00 -0.00000000000E+00 -0.66836195071E+03  0.66836195071E+03  0.00000000000E+00 0.  1.
         23    2    1    2    0    0  0.82794829251E+02  0.23747730822E+02 -0.19342680800E+03  0.24592826047E+03  0.12509132973E+03 0.  0.
          5    1    3    3  502    0  0.71277093097E+02 -0.34836254603E+02 -0.59562990236E+02  0.99293558910E+02  0.41800000000E+01 0.  1.
         -5    1    3    3    0  502  0.11517736154E+02  0.58583985425E+02 -0.13386381777E+03  0.14663470156E+03  0.41800000000E+01 0.  1.
        -11    1    1    2    0    0  0.19461272038E+02 -0.14774840719E+01 -0.10837000592E+03  0.11011349714E+03  0.00000000000E+00 0.  1.
         11    1    1    2    0    0 -0.10225610129E+03 -0.22270246750E+02 -0.33137629963E+03  0.34750903024E+03  0.00000000000E+00 0. -1.
</event>
<event>
 7    1  0.8661710E-006  0.1075637E+03  0.7561462E-02  0.1265149E+00
         -2   -1    0    0    0  501 -0.00000000000E+00  0.00000000000E+00  0.40939969256E+02  0.40939969256E+02  0.00000000000E+00 0.  1.
          2   -1    0    0  501    0  0.00000000000E+00 -0.00000000000E+00 -0.34144392922E+03  0.34144392922E+03  0.00000000000E+00 0. -1.
         23    2    1    2    0    0 -0.44019618300E+02 -0.21484425265E+00 -0.13716540816E+03  0.19078648569E+03  0.12508941191E+03 0.  0.
          5    1    3    3  502    0  0.16412149596E+02  0.40044317938E+02 -0.10013825112E+03  0.10916981172E+03  0.41800000000E+01 0.  1.
         -5    1    3    3    0  502 -0.60431767895E+02 -0.40259162191E+02 -0.37027157036E+02  0.81616673967E+02  0.41800000000E+01 0.  1.
        -11    1    1    2    0    0  0.38535345920E+02  0.41867679961E+02 -0.78826370173E+02  0.97218682079E+02  0.00000000000E+00 0.  1.
         11    1    1    2    0    0  0.54842723800E+01 -0.41652835708E+02 -0.84512181637E+02  0.94378730713E+02  0.00000000000E+00 0. -1.
</event>
<event>
 7    1  0.8661710E-006  0.1152894E+03  0.7561462E-02  0.1251077E+00
          3   -1    0    0  501    0  0.00000000000E+00  0.00000000000E+00  0.15940666007E+02  0.15940666007E+02  0.00000000000E+00 0. -1.
         -3   -1    0    0    0  501 -0.00000000000E+00 -0.00000000000E+00 -0.12230226371E+04  0.12230226371E+04  0.00000000000E+00 0.  1.
         23    2    1    2    0    0  0.27271034338E+02  0.75985499928E+02 -0.80940922465E+03  0.82298709323E+03  0.12508779782E+03 0.  0.
          5    1    3    3  502    0  0.50736316835E+02  0.94559222760E+02 -0.73290981895E+03  0.74073604987E+03  0.41800000000E+01 0. -1.
         -5    1    3    3    0  502 -0.23465282497E+02 -0.18573722833E+02 -0.76499405691E+02  0.82251043359E+02  0.41800000000E+01 0. -1.
        -11    1    1    2    0    0  0.12932980465E+02 -0.13742580555E+02 -0.10139624218E+02  0.21422709523E+02  0.00000000000E+00 0. -1.
         11    1    1    2    0    0 -0.40204014802E+02 -0.62242919372E+02 -0.38753312222E+03  0.39455350035E+03  0.00000000000E+00 0.  1.
</event>
<event>
 7    1  0.8661710E-006  0.9441165E+02  0.7561462E-02  0.1292507E+00
         -3   -1    0    0    0  501 -0.00000000000E+00  0.00000000000E+00  0.14012422400E+03  0.14012422400E+03  0.00000000000E+00 0.  1.
          3   -1    0    0  501    0  0.00000000000E+00 -0.00000000000E+00 -0.12454980367E+03  0.12454980367E+03  0.00000000000E+00 0. -1.
         23    2    1    2    0    0  0.24695353472E+02 -0.65943349158E+02  0.34312703942E+02  0.14759133818E+03  0.12508979045E+03 0.  0.
          5    1    3    3  502    0  0.20946731599E+02 -0.17488198452E+02 -0.45987105869E+02  0.53636638187E+02  0.41800000000E+01 0. -1.
         -5    1    3    3    0  502  0.37486218723E+01 -0.48455150706E+02  0.80299809811E+02  0.93954699998E+02  0.41800000000E+01 0. -1.
        -11    1    1    2    0    0 -0.44810701754E+02  0.77292022800E+02 -0.25691326554E+02  0.92962896041E+02  0.00000000000E+00 0. -1.
         11    1    1    2    0    0  0.20115348283E+02 -0.11348673642E+02  0.69530429390E+01  0.24119793450E+02  0.00000000000E+00 0.  1.
</event>
<event>
 7    1  0.8661710E-006  0.1096755E+03  0.7561462E-02  0.1261172E+00
          2   -1    0    0  501    0  0.00000000000E+00  0.00000000000E+00  0.35669721981E+03  0.35669721981E+03  0.00000000000E+00 0. -1.
         -2   -1    0    0    0  501 -0.00000000000E+00 -0.00000000000E+00 -0.39138469884E+02  0.39138469884E+02  0.00000000000E+00 0.  1.
         23    2    1    2    0    0  0.43345358385E+02 -0.16929069226E+02  0.19507354234E+03  0.23635844601E+03  0.12508482962E+03 0.  0.
          5    1    3    3  502    0 -0.55313254664E+01 -0.58961860966E+02  0.13772376432E+03  0.14997467875E+03  0.41800000000E+01 0. -1.
         -5    1    3    3    0  502  0.48876683851E+02  0.42032791740E+02  0.57349778024E+02  0.86383767255E+02  0.41800000000E+01 0. -1.
        -11    1    1    2    0    0 -0.87176980834E+01  0.48044619256E+02  0.91010034844E+02  0.10328170284E+03  0.00000000000E+00 0. -1.
         11    1    1    2    0    0 -0.34627660301E+02 -0.31115550030E+02  0.31475172738E+02  0.56195540842E+02  0.00000000000E+00 0.  1.
</event>
<event>
 7    1  0.8661710E-006  0.8983907E+02  0.7561462E-02  0.1303242E+00
          1   -1    0    0  501    0  0.00000000000E+00  0.00000000000E+00  0.46862932026E+03  0.46862932026E+03  0.00000000000E+00 0. -1.
         -1   -1    0    0    0  501 -0.00000000000E+00 -0.00000000000E+00 -0.33839157595E+02  0.33839157595E+02  0.00000000000E+00 0.  1.
         23    2    1    2    0    0  0.30391990019E+02 -0.49548168949E+02  0.18449287860E+03  0.23035654118E+03  0.12509124554E+03 0.  0.
          5    1    3    3  502    0  0.41505582494E+02 -0.11408126316E+00  0.29394596294E+01  0.41819124998E+02  0.41800000000E+01 0. -1.
         -5    1    3    3    0  502 -0.11113592475E+02 -0.49434087686E+02  0.18155341897E+03  0.18853741619E+03  0.41800000000E+01 0. -1.
        -11    1    1    2    0    0 -0.10856689241E+02 -0.15657510052E+02  0.84050890438E+01  0.20824765164E+02  0.00000000000E+00 0.  1.
         11    1    1    2    0    0 -0.19535300777E+02  0.65205679001E+02  0.24189219503E+03  0.25128717151E+03  0.00000000000E+00 0. -1.
</event>
<event>
 7    1  0.8661710E-006  0.1051195E+03  0.7561462E-02  0.1269884E+00
         -1   -1    0    0    0  501 -0.00000000000E+00  0.00000000000E+00  0.11698193458E+03  0.11698193458E+03  0.00000000000E+00 0.  1.
          1   -1    0    0  501    0  0.00000000000E+00 -0.00000000000E+00 -0.29076335516E+03  0.29076335516E+03  0.00000000000E+00 0. -1.
         23    2    1    2    0    0  0.70260585102E+02  0.96712387923E+00  0.53681332119E+02  0.15318942332E+03  0.12509128207E+03 0.  0.
          5    1    3    3  502    0  0.28958669212E+02  0.49590839211E+02  0.66520244007E+02  0.87978810625E+02  0.41800000000E+01 0.  1.
         -5    1    3    3    0  502  0.41301915891E+02 -0.48623715332E+02 -0.12838911888E+02  0.65210612690E+02  0.41800000000E+01 0.  1.
        -11    1    1    2    0    0 -0.38153730231E+02 -0.27535152088E+02 -0.19801292880E+03  0.20352643981E+03  0.00000000000E+00 0. -1.
         11    1    1    2    0    0 -0.32106854872E+02  0.26568028208E+02 -0.29449823901E+02  0.51029426613E+02  0.00000000000E+00 0.  1.
</event>
<event>
 7    1  0.8661710E-006  0.8048849E+02  0.7561462E-02  0.1327671E+00
         -1   -1    0    0    0  501 -0.00000000000E+00  0.00000000000E+00  0.92496274064E+02  0.92496274064E+02  0.00000000000E+00 0.  1.
          1   -1    0    0  501    0  0.00000000000E+00 -0.00000000000E+00 -0.17606675578E+03  0.17606675578E+03  0.00000000000E+00 0. -1.
         23    2    1    2    0    0 -0.36424933636E+02 -0.21849985168E+02  0.88469071583E+01  0.13239368169E+03  0.12508245897E+03 0.  0.
          5    1    3    3  502    0  0.30227704755E+01  0.41697793162E+02 -0.26381110117E+02  0.49611273587E+02  0.41800000000E+01 0. -1.
         -5    1    3    3    0  502 -0.39447704112E+02 -0.63547778329E+02  0.35228017275E+02  0.82782408103E+02  0.41800000000E+01 0. -1.
        -11    1    1    2    0    0  0.20592986850E+02  0.18885295082E+02 -0.10931221095E+03  0.11282679176E+03  0.00000000000E+00 0. -1.
         11    1    1    2    0    0  0.15831946786E+02  0.29646900860E+01  0.16894822068E+02  0.23342556394E+02  0.00000000000E+00 0.  1.
</event>
<event>
 7    1  0.8661710E-006  0.1633890E+03  0.7561462E-02  0.1184923E+00
         -1   -1    0    0    0  501 -0.00000000000E+00  0.00000000000E+00  0.55718628360E+02  0.55718628360E+02  0.00000000000E+00 0.  1.
          1   -1    0    0  501    0  0.00000000000E+00 -0.00000000000E+00 -0.63306073151E+03  0.63306073151E+03  0.00000000000E+00 0. -1.
         23    2    1    2    0    0 -0.13891177916E+03 -0.38948495905E+02 -0.20791429998E+03  0.28228891770E+03  0.12508081067E+03 0.  0.
          5    1    3    3  502    0 -0.18222665393E+02 -0.44049787506E+02 -0.77712677415E+01  0.48480040384E+02  0.41800000000E+01 0.  1.
         -5    1    3    3    0  502 -0.12068911377E+03  0.51012916001E+01 -0.20014303224E+03  0.23380887732E+03  0.41800000000E+01 0.  1.
        -11    1    1    2    0    0  0.10786239916E+03 -0.48755369283E+00 -0.31252018760E+03  0.33061065094E+03  0.00000000000E+00 0.  1.
         11    1    1    2    0    0  0.31049379999E+02  0.39436049598E+02 -0.56907615580E+02  0.75879791230E+02  0.00000000000E+00 0. -1.
</event>
<event>
 7    1  0.8661710E-006  0.1274491E+03  0.7561462E-02  0.1231291E+00
          2   -1    0    0  501    0  0.00000000000E+00  0.00000000000E+00  0.61370254989E+03  0.61370254989E+03  0.00000000000E+00 0. -1.
         -2   -1    0    0    0  501 -0.00000000000E+00 -0.00000000000E+00 -0.35967219523E+02  0.35967219523E+02  0.00000000000E+00 0.  1.
         23    2    1    2    0    0 -0.94354434340E+02  0.18483149863E+02  0.24278375267E+03  0.28954426672E+03  0.12509015037E+03 0.  0.
          5    1    3    3  502    0 -0.31078209904E+02  0.67736806231E+02  0.14441891665E+03  0.16256821933E+03  0.41800000000E+01 0.  1.
         -5    1    3    3    0  502 -0.63276224436E+02 -0.49253656369E+02  0.98364836021E+02  0.12697604739E+03  0.41800000000E+01 0.  1.
        -11    1    1    2    0    0  0.19116049941E+02  0.72470178508E+01  0.54395245188E+01  0.21154929924E+02  0.00000000000E+00 0.  1.
         11    1    1    2    0    0  0.75238384399E+02 -0.25730167713E+02  0.32951205318E+03  0.33897057277E+03  0.00000000000E+00 0. -1.
</event>
<event>
 7    1  0.8661710E-006  0.1480502E+03  0.7561462E-02  0.1202890E+00
          3   -1    0    0  501    0  0.00000000000E+00  0.00000000000E+00  0.16875964820E+02  0.16875964820E+02  0.00000000000E+00 0. -1.
         -3   -1    0    0    0  501 -0.00000000000E+00 -0.00000000000E+00 -0.14903629816E+04  0.14903629816E+04  0.00000000000E+00 0.  1.
         23    2    1    2    0    0  0.39294706801E+02  0.10350235611E+03 -0.88952426581E+03  0.90507360048E+03  0.12509193067E+03 0.  0.
          5    1    3    3  502    0 -0.43396443417E+02  0.36713332999E+02 -0.40634628586E+03  0.41032413596E+03  0.41800000000E+01 0. -1.
         -5    1    3    3    0  502  0.82691150218E+02  0.66789023107E+02 -0.48317797995E+03  0.49474946452E+03  0.41800000000E+01 0. -1.
        -11    1    1    2    0    0  0.21526586784E+02 -0.35285464127E+02 -0.80680342331E+02  0.90651947336E+02  0.00000000000E+00 0. -1.
         11    1    1    2    0    0 -0.60821293586E+02 -0.68216891979E+02 -0.50328240864E+03  0.51151339860E+03  0.00000000000E+00 0.  1.
</event>
<event>
 7    1  0.8661710E-006  0.1043742E+03  0.7561462E-02  0.1271357E+00
         -2   -1    0    0    0  501 -0.00000000000E+00  0.00000000000E+00  0.18877025095E+04  0.18877025095E+04  0.00000000000E+00 0.  1.
          2   -1    0    0  501    0  0.00000000000E+00 -0.00000000000E+00 -0.16059603261E+03  0.16059603261E+03  0.00000000000E+00 0. -1.
         23    2    1    2    0    0  0.16486802505E+02 -0.23997750232E+02  0.18706354880E+04  0.18748819238E+04  0.12270856690E+03 0.  0.
          5    1    3    3  502    0  0.34511215825E+02  0.38341605297E+02  0.11961222900E+04  0.11972414576E+04  0.41800000000E+01 0. -1.
         -5    1    3    3    0  502 -0.18024413321E+02 -0.62339355528E+02  0.67451319801E+03  0.67764046619E+03  0.41800000000E+01 0.  1.
        -11    1    1    2    0    0 -0.11972269216E+02 -0.32837532356E+02 -0.84036486840E+02  0.91015217859E+02  0.00000000000E+00 0. -1.
         11    1    1    2    0    0 -0.45145332888E+01  0.56835282587E+02 -0.59492524272E+02  0.82401400485E+02  0.00000000000E+00 0.  1.
</event>
<event>
 7    1  0.8661710E-006  0.1553984E+03  0.7561462E-02  0.1193992E+00
          2   -1    0    0  501    0  0.00000000000E+00  0.00000000000E+00  0.92022885274E+03  0.92022885274E+03  0.00000000000E+00 0. -1.
         -2   -1    0    0    0  501 -0.00000000000E+00 -0.00000000000E+00 -0.40074002046E+02  0.40074002046E+02  0.00000000000E+00 0.  1.
         23    2    1    2    0    0  0.11950525290E+03 -0.18208918359E+02  0.20676295590E+03  0.27021001165E+03  0.12509780288E+03 0.  0.
          5    1    3    3  502    0  0.12056888087E+03 -0.48019874442E+02  0.20137842546E+03  0.23961115587E+03  0.41800000000E+01 0.  1.
         -5    1    3    3    0  502 -0.10636279759E+01  0.29810956084E+02  0.53845304433E+01  0.30598855782E+02  0.41800000000E+01 0.  1.
        -11    1    1    2    0    0 -0.12644289982E+03  0.36219247705E+02  0.57976441087E+03  0.59449677285E+03  0.00000000000E+00 0. -1.
         11    1    1    2    0    0  0.69376469229E+01 -0.18010329347E+02  0.93627483917E+02  0.95596070279E+02  0.00000000000E+00 0.  1.
</event>
<event>
 7    1  0.8661710E-006  0.1028737E+03  0.7561462E-02  0.1274366E+00
         -3   -1    0    0    0  501 -0.00000000000E+00  0.00000000000E+00  0.45945943841E+03  0.45945943841E+03  0.00000000000E+00 0.  1.
          3   -1    0    0  501    0  0.00000000000E+00 -0.00000000000E+00 -0.36729586427E+02  0.36729586427E+02  0.00000000000E+00 0. -1.
         23    2    1    2    0    0  0.34436523627E+02  0.47763905586E+02  0.29396533266E+03  0.32485465890E+03  0.12509063819E+03 0.  0.
          5    1    3    3  502    0  0.75421930995E+02  0.31883496762E+02  0.11973646342E+03  0.14511829007E+03  0.41800000000E+01 0.  1.
         -5    1    3    3    0  502 -0.40985407367E+02  0.15880408825E+02  0.17422886924E+03  0.17973636883E+03  0.41800000000E+01 0.  1.
        -11    1    1    2    0    0 -0.35632212574E+01 -0.48589060094E+02  0.11482942224E+02  0.50054483002E+02  0.00000000000E+00 0. -1.
         11    1    1    2    0    0 -0.30873302370E+02  0.82515450707E+00  0.11728157709E+03  0.12127988294E+03  0.00000000000E+00 0.  1.
</event>
<event>
 7    1  0.8661710E-006  0.1590581E+03  0.7561462E-02  0.1189764E+00
          2   -1    0    0  501    0  0.00000000000E+00  0.00000000000E+00  0.68873685048E+03  0.68873685048E+03  0.00000000000E+00 0. -1.
         -2   -1    0    0    0  501 -0.00000000000E+00 -0.00000000000E+00 -0.46392158455E+02  0.46392158455E+02  0.00000000000E+00 0.  1.
         23    2    1    2    0    0 -0.14133301053E+01  0.13011419900E+03  0.22051838070E+03  0.28496998262E+03  0.12509129659E+03 0.  0.
          5    1    3    3  502    0 -0.46044088941E+02  0.40016093936E+02  0.15029561495E+03  0.16225778926E+03  0.41800000000E+01 0.  1.
         -5    1    3    3    0  502  0.44630758835E+02  0.90098105059E+02  0.70222765750E+02  0.12271219336E+03  0.41800000000E+01 0.  1.
        -11    1    1    2    0    0 -0.32065716883E+02 -0.13118248378E+02  0.75348055059E+02  0.82931465928E+02  0.00000000000E+00 0.  1.
         11    1    1    2    0    0  0.33479046989E+02 -0.11699595062E+03  0.34647825626E+03  0.36722756039E+03  0.00000000000E+00 0. -1.
</event>
<event>
 7    1  0.8661710E-006  0.1045420E+03  0.7561462E-02  0.1271025E+00
          2   -1    0    0  501    0  0.00000000000E+00  0.00000000000E+00  0.16279474657E+02  0.16279474657E+02  0.00000000000E+00 0. -1.
         -2   -1    0    0    0  501 -0.00000000000E+00 -0.00000000000E+00 -0.10349274865E+04  0.10349274865E+04  0.00000000000E+00 0.  1.
         23    2    1    2    0    0  0.32463011312E+02 -0.39795255947E+02 -0.76287860073E+03  0.77476971191E+03  0.12508731965E+03 0.  0.
          5    1    3    3  502    0 -0.25041294410E+02  0.24228103962E+02 -0.41104650299E+03  0.41254183724E+03  0.41800000000E+01 0. -1.
         -5    1    3    3    0  502  0.57504305722E+02 -0.64023359909E+02 -0.35183209774E+03  0.36222787467E+03  0.41800000000E+01 0. -1.
        -11    1    1    2    0    0 -0.78453322918E+01  0.57166940892E+02 -0.22891900322E+03  0.23607947476E+03  0.00000000000E+00 0.  1.
         11    1    1    2    0    0 -0.24617679020E+02 -0.17371684945E+02 -0.26850407918E+02  0.40357774512E+02  0.00000000000E+00 0. -1.
</event>
<event>
 7    1  0.8661710E-006  0.1234193E+03  0.7561462E-02  0.1237561E+00
         -1   -1    0    0    0  501 -0.00000000000E+00  0.00000000000E+00  0.65634072282E+03  0.65634072282E+03  0.00000000000E+00 0.  1.
          1   -1    0    0  501    0  0.00000000000E+00 -0.00000000000E+00 -0.52682828548E+02  0.52682828548E+02  0.00000000000E+00 0. -1.
         23    2    1    2    0    0  0.94077929134E+02 -0.25736069580E+01  0.54070779108E+03  0.56291158635E+03  0.12508900236E+03 0.  0.
          5    1    3    3  502    0  0.26009506486E+02  0.43520189769E+02  0.79270627822E+02  0.94190265848E+02  0.41800000000E+01 0.  1.
         -5    1    3    3    0  502  0.68068422648E+02 -0.46093796727E+02  0.46143716325E+03  0.46872132050E+03  0.41800000000E+01 0.  1.
        -11    1    1    2    0    0 -0.75591367185E+02  0.29372020191E+02  0.75900066505E+02  0.11107470665E+03  0.00000000000E+00 0.  1.
         11    1    1    2    0    0 -0.18486561949E+02 -0.26798413233E+02 -0.12949963306E+02  0.35037258370E+02  0.00000000000E+00 0. -1.
</event>
<event>
 7    1  0.8661710E-006  0.1718071E+03  0.7561462E-02  0.1175976E+00
         -2   -1    0    0    0  501 -0.00000000000E+00  0.00000000000E+00  0.62212846731E+02  0.62212846731E+02  0.00000000000E+00 0. -1.
          2   -1    0    0  501    0  0.00000000000E+00 -0.00000000000E+00 -0.49268760760E+03  0.49268760760E+03  0.00000000000E+00 0.  1.
         23    2    1    2    0    0 -0.13250947863E+03 -0.16772367765E+02 -0.17651215281E+03  0.25425664627E+03  0.12509927193E+03 0.  0.
          5    1    3    3  502    0 -0.58218651761E+02  0.54490502728E+02 -0.72464752045E+02  0.10782967583E+03  0.41800000000E+01 0.  1.
         -5    1    3    3    0  502 -0.74290826865E+02 -0.71262870493E+02 -0.10404740076E+03  0.14642697044E+03  0.41800000000E+01 0.  1.
        -11    1    1    2    0    0  0.26063101716E+02  0.43748061892E+02 -0.86951352959E+02  0.10076564877E+03  0.00000000000E+00 0. -1.
         11    1    1    2    0    0  0.10644637691E+03 -0.26975694127E+02 -0.16701125510E+03  0.19987815929E+03  0.00000000000E+00 0.  1.
</event>
<event>
 7    1  0.8661710E-006  0.9789553E+02  0.7561462E-02  0.1284785E+00
          2   -1    0    0  501    0  0.00000000000E+00  0.00000000000E+00  0.29349079417E+03  0.29349079417E+03  0.00000000000E+00 0. -1.
         -2   -1    0    0    0  501 -0.00000000000E+00 -0.00000000000E+00 -0.11703129957E+03  0.11703129957E+03  0.00000000000E+00 0.  1.
         23    2    1    2    0    0  0.34973300659E+02  0.69243322192E+02 -0.48654760192E+02  0.15502065699E+03  0.12508536676E+03 0.  0.
          5    1    3    3  502    0  0.54105761141E+02  0.55184954398E+02  0.21920834140E+02  0.80441332348E+02  0.41800000000E+01 0.  1.
         -5    1    3    3    0  502 -0.19132460482E+02  0.14058367794E+02 -0.70575594332E+02  0.74579324645E+02  0.41800000000E+01 0.  1.
        -11    1    1    2    0    0 -0.49470625132E+02 -0.52384578988E+02  0.22156366352E+03  0.23298485758E+03  0.00000000000E+00 0. -1.
         11    1    1    2    0    0  0.14497324473E+02 -0.16858743203E+02  0.35505912700E+01  0.22516579173E+02  0.00000000000E+00 0.  1.
</event>
<event>
 6    1  0.8661710E-006  0.1024116E+03  0.7561462E-02  0.1275305E+00
          2   -1    0    0  501    0  0.00000000000E+00  0.00000000000E+00  0.49983858667E+03  0.49983858667E+03  0.00000000000E+00 0. -1.
         -2   -1    0    0    0  501 -0.00000000000E+00 -0.00000000000E+00 -0.87486842868E+02  0.87486842868E+02  0.00000000000E+00 0.  1.
          5    1    1    2  502    0 -0.31012145612E+02 -0.47224385459E+02  0.38204144391E+02  0.68329530996E+02  0.41800000000E+01 0. -1.
         -5    1    1    2    0  502  0.45142162749E+02 -0.33439467262E+01 -0.58338206433E+02  0.73958201487E+02  0.41800000000E+01 0.  1.
        -11    1    1    2    0    0  0.31458891195E+02 -0.38827184548E+01  0.94588690111E+02  0.99758496554E+02  0.00000000000E+00 0.  1.
         11    1    1    2    0    0 -0.45588908332E+02  0.54451050640E+02  0.33789711573E+03  0.34527920050E+03  0.00000000000E+00 0. -1.
</event>
<event>
 7    1  0.8661710E-006  0.6258587E+02  0.7561462E-02  0.1387290E+00
         -4   -1    0    0    0  501 -0.00000000000E+00  0.00000000000E+00  0.29410800791E+03  0.29410800791E+03  0.00000000000E+00 0.  1.
          4   -1    0    0  501    0  0.00000000000E+00 -0.00000000000E+00 -0.48654833731E+02  0.48654833731E+02  0.00000000000E+00 0. -1.
         23    2    1    2    0    0  0.23071412178E+02 -0.86728084070E+00  0.20360652127E+03  0.24007597724E+03  0.12509123513E+03 0.  0.
          5    1    3    3  502    0  0.32483295974E+02 -0.41125263454E+02  0.18876729478E+03  0.19595156491E+03  0.41800000000E+01 0.  1.
         -5    1    3    3    0  502 -0.94118837963E+01  0.40257982613E+02  0.14839226493E+02  0.44124412331E+02  0.41800000000E+01 0.  1.
        -11    1    1    2    0    0 -0.75593389489E+01  0.10385188653E+02 -0.27841347748E+02  0.30661643679E+02  0.00000000000E+00 0. -1.
         11    1    1    2    0    0 -0.15512073229E+02 -0.95179078121E+01  0.69688000658E+02  0.72025220726E+02  0.00000000000E+00 0.  1.
</event>
<event>
 7    1  0.8661710E-006  0.1407942E+03  0.7561462E-02  0.1212264E+00
          2   -1    0    0  501    0  0.00000000000E+00  0.00000000000E+00  0.54279625681E+02  0.54279625681E+02  0.00000000000E+00 0. -1.
         -2   -1    0    0    0  501 -0.00000000000E+00 -0.00000000000E+00 -0.77103198888E+03  0.77103198888E+03  0.00000000000E+00 0.  1.
         23    2    1    2    0    0  0.86436855225E+02 -0.29235374434E+02 -0.67054830091E+03  0.68819197666E+03  0.12508851194E+03 0.  0.
          5    1    3    3  502    0  0.26481984692E+02  0.49126859696E+02 -0.25519069138E+03  0.26125563195E+03  0.41800000000E+01 0.  1.
         -5    1    3    3    0  502  0.59954870533E+02 -0.78362234130E+02 -0.41535760953E+03  0.42693634471E+03  0.41800000000E+01 0.  1.
        -11    1    1    2    0    0 -0.69195606511E+02 -0.22159139289E+02 -0.13776812759E+02  0.73951740914E+02  0.00000000000E+00 0.  1.
         11    1    1    2    0    0 -0.17241248714E+02  0.51394513723E+02 -0.32427249523E+02  0.63167896986E+02  0.00000000000E+00 0. -1.
</event>
<event>
 7    1  0.8661710E-006  0.1047588E+03  0.7561462E-02  0.1270595E+00
          2   -1    0    0  501    0  0.00000000000E+00  0.00000000000E+00  0.97886069763E+03  0.97886069763E+03  0.00000000000E+00 0. -1.
         -2   -1    0    0    0  501 -0.00000000000E+00 -0.00000000000E+00 -0.13382343431E+02  0.13382343431E+02  0.00000000000E+00 0.  1.
         23    2    1    2    0    0 -0.36914238327E+02  0.12962370503E+02  0.52621777898E+03  0.54229231612E+03  0.12508045879E+03 0.  0.
          5    1    3    3  502    0  0.22999001115E+02 -0.30850382416E+02  0.33340608554E+03  0.33564533428E+03  0.41800000000E+01 0.  1.
         -5    1    3    3    0  502 -0.59913239442E+02  0.43812752919E+02  0.19281169343E+03  0.20664698184E+03  0.41800000000E+01 0.  1.
        -11    1    1    2    0    0  0.48497910617E+02  0.26553577008E+02  0.21885325032E+03  0.22572967231E+03  0.00000000000E+00 0. -1.
         11    1    1    2    0    0 -0.11583672290E+02 -0.39515947510E+02  0.22040732491E+03  0.22422105263E+03  0.00000000000E+00 0.  1.
</event>
<event>
 7    1  0.8661710E-006  0.7542640E+02  0.7561462E-02  0.1342556E+00
         -4   -1    0    0    0  501 -0.00000000000E+00  0.00000000000E+00  0.35446419057E+03  0.35446419057E+03  0.00000000000E+00 0.  1.
          4   -1    0    0  501    0  0.00000000000E+00 -0.00000000000E+00 -0.22301078377E+02  0.22301078377E+02  0.00000000000E+00 0. -1.
         23    2    1    2    0    0 -0.15710567731E+02 -0.99065552030E+01  0.32222157813E+03  0.34515210085E+03  0.12230398822E+03 0.  0.
          5    1    3    3  502    0 -0.68673314288E+02 -0.90393965934E+01  0.15850833773E+03  0.17303207886E+03  0.41800000000E+01 0. -1.
         -5    1    3    3    0  502  0.52962746557E+02 -0.86715860953E+00  0.16371324040E+03  0.17212002199E+03  0.41800000000E+01 0.  1.
        -11    1    1    2    0    0  0.42522934073E+01  0.15142833930E+02  0.27010064472E+00  0.15730873244E+02  0.00000000000E+00 0. -1.
         11    1    1    2    0    0  0.11458274324E+02 -0.52362787272E+01  0.96714334209E+01  0.15882294853E+02  0.00000000000E+00 0.  1.
</event>
<event>
 7    1  0.8661710E-006  0.5734228E+02  0.7561462E-02  0.1409336E+00
          3   -1    0    0  501    0  0.00000000000E+00  0.00000000000E+00  0.25664830373E+02  0.25664830373E+02  0.00000000000E+00 0. -1.
         -3   -1    0    0    0  501 -0.00000000000E+00 -0.00000000000E+00 -0.57739242543E+03  0.57739242543E+03  0.00000000000E+00 0.  1.
         23    2    1    2    0    0 -0.28842408394E+02  0.36557038958E+02 -0.38684630062E+03  0.40922669065E+03  0.12509245550E+03 0.  0.
          5    1    3    3  502    0  0.10700400370E+02  0.15147911561E+02  0.73280444506E+00  0.19025435477E+02  0.41800000000E+01 0. -1.
         -5    1    3    3    0  502 -0.39542808764E+02  0.21409127397E+02 -0.38757910506E+03  0.39020125518E+03  0.41800000000E+01 0. -1.
        -11    1    1    2    0    0  0.15852418199E+02 -0.33656604531E+02 -0.17384666637E+03  0.17778281582E+03  0.00000000000E+00 0.  1.
         11    1    1    2    0    0  0.12989990195E+02 -0.29004344266E+01  0.89653719234E+01  0.16047749340E+02  0.00000000000E+00 0. -1.
</event>
<event>
 7    1  0.8661710E-006  0.7921517E+02  0.7561462E-02  0.1331294E+00
         -2   -1    0    0    0  501 -0.00000000000E+00  0.00000000000E+00  0.62236401969E+02  0.62236401969E+02  0.00000000000E+00 0.  1.
          2   -1    0    0  501    0  0.00000000000E+00 -0.00000000000E+00 -0.19030316316E+03  0.19030316316E+03  0.00000000000E+00 0. -1.
         23    2    1    2    0    0 -0.10160237143E+02  0.56627790621E+01 -0.31131086572E+02  0.11858631940E+03  0.11383441093E+03 0.  0.
          5    1    3    3  502    0  0.10346408575E+02 -0.29148500338E+02  0.31237067110E+02  0.44157785316E+02  0.41800000000E+01 0. -1.
         -5    1    3    3    0  502 -0.20506645718E+02  0.34811279401E+02 -0.62368153682E+02  0.74428534083E+02  0.41800000000E+01 0.  1.
        -11    1    1    2    0    0  0.13833002343E+02  0.39209752324E+02 -0.23348269100E+02  0.47685409729E+02  0.00000000000E+00 0.  1.
         11    1    1    2    0    0 -0.36727652005E+01 -0.44872531386E+02 -0.73587405524E+02  0.86267836005E+02  0.00000000000E+00 0. -1.
</event>
<event>
 7    1  0.8661710E-006  0.1397211E+03  0.7561462E-02  0.1213705E+00
          1   -1    0    0  501    0  0.00000000000E+00  0.00000000000E+00  0.74103732039E+02  0.74103732039E+02  0.00000000000E+00 0. -1.
         -1   -1    0    0    0  501 -0.00000000000E+00 -0.00000000000E+00 -0.29654820728E+03  0.29654820728E+03  0.00000000000E+00 0.  1.
         23    2    1    2    0    0 -0.80959243985E+02 -0.51832993989E+02 -0.15500417059E+03  0.22116646988E+03  0.12508899251E+03 0.  0.
          5    1    3    3  502    0 -0.18846967470E+02 -0.76967144639E+02 -0.12400391201E+03  0.14721953719E+03  0.41800000000E+01 0. -1.
         -5    1    3    3    0  502 -0.62112276515E+02  0.25134150650E+02 -0.31000258588E+02  0.73946932697E+02  0.41800000000E+01 0. -1.
        -11    1    1    2    0    0  0.76747838616E+02 -0.41068704019E+01 -0.32875273677E+02  0.83593544823E+02  0.00000000000E+00 0.  1.
         11    1    1    2    0    0  0.42114053691E+01  0.55939864391E+02 -0.34565030972E+02  0.65891924614E+02  0.00000000000E+00 0. -1.
</event>
<event>
 7    1  0.1788382E-005  0.1943371E+03  0.7561462E-02  0.1154607E+00
          3   -1    0    0  501    0  0.00000000000E+00  0.00000000000E+00  0.31542164645E+03  0.31542164645E+03  0.00000000000E+00 0. -1.
         -3   -1    0    0    0  501 -0.00000000000E+00 -0.00000000000E+00 -0.14914546302E+03  0.14914546302E+03  0.00000000000E+00 0.  1.
         23    2    1    2    0    0  0.23540558378E+02 -0.16782885465E+03  0.23575559660E+00  0.21063833777E+03  0.12509105250E+03 0.  0.
          5    1    3    3  502    0  0.63303298171E+02 -0.11533724664E+03 -0.34485892659E+02  0.13607621840E+03  0.41800000000E+01 0.  1.
         -5    1    3    3    0  502 -0.39762739793E+02 -0.52491608013E+02  0.34721648256E+02  0.74562119372E+02  0.41800000000E+01 0.  1.
        -11    1    1    2    0    0 -0.57415899988E+02  0.10692180951E+03  0.92368057169E+02  0.15251464489E+03  0.00000000000E+00 0. -1.
         11    1    1    2    0    0  0.33875341610E+02  0.60907045140E+02  0.73672370663E+02  0.10141412681E+03  0.00000000000E+00 0.  1.
</event>
<event>
 7    1  0.8661710E-006  0.2468696E+03  0.7561462E-02  0.1115299E+00
         -2   -1    0    0    0  501 -0.00000000000E+00  0.00000000000E+00  0.52254040990E+02  0.52254040990E+02  0.00000000000E+00 0.  1.
          2   -1    0    0  501    0  0.00000000000E+00 -0.00000000000E+00 -0.12521318697E+04  0.12521318697E+04  0.00000000000E+00 0. -1.
         23    2    1    2    0    0  0.22237214613E+03 -0.24670704713E+02 -0.46315900657E+03  0.52935810617E+03  0.12508286919E+03 0.  0.
          5    1    3    3  502    0  0.12657710729E+03 -0.75638995805E+02 -0.25581995135E+03  0.29530381251E+03  0.41800000000E+01 0.  1.
         -5    1    3    3    0  502  0.95795038836E+02  0.50968291092E+02 -0.20733905522E+03  0.23405429366E+03  0.41800000000E+01 0.  1.
        -11    1    1    2    0    0 -0.55653343293E+02  0.42414965346E+02 -0.27662035433E+03  0.28533339155E+03  0.00000000000E+00 0.  1.
         11    1    1    2    0    0 -0.16671880283E+03 -0.17744260633E+02 -0.46009846779E+03  0.48969441294E+03  0.00000000000E+00 0. -1.
</event>
<event>
 7    1  0.8661710E-006  0.1459511E+03  0.7561462E-02  0.1205538E+00
          2   -1    0    0  501    0  0.00000000000E+00  0.00000000000E+00  0.20356034237E+04  0.20356034237E+04  0.00000000000E+00 0. -1.
         -2   -1    0    0    0  501 -0.00000000000E+00 -0.00000000000E+00 -0.12748323564E+02  0.12748323564E+02  0.00000000000E+00 0.  1.
         23    2    1    2    0    0  0.30139199264E+02 -0.10788853737E+03  0.13268490496E+04  0.13374318298E+04  0.12508873277E+03 0.  0.
          5    1    3    3  502    0 -0.12857307866E+02 -0.10272881978E+03  0.57052778404E+03  0.57986028105E+03  0.41800000000E+01 0.  1.
         -5    1    3    3    0  502  0.42996507130E+02 -0.51597175892E+01  0.75632126555E+03  0.75757154872E+03  0.41800000000E+01 0.  1.
        -11    1    1    2    0    0  0.78300278982E+01 -0.14586724073E+02  0.72675565588E+02  0.74537371094E+02  0.00000000000E+00 0.  1.
         11    1    1    2    0    0 -0.37969227162E+02  0.12247526145E+03  0.62333048494E+03  0.63638254638E+03  0.00000000000E+00 0. -1.
</event>
<event>
 7    1  0.8661710E-006  0.2628482E+03  0.7561462E-02  0.1105444E+00
          2   -1    0    0  501    0  0.00000000000E+00  0.00000000000E+00  0.21041119405E+03  0.21041119405E+03  0.00000000000E+00 0. -1.
         -2   -1    0    0    0  501 -0.00000000000E+00 -0.00000000000E+00 -0.53319149270E+03  0.53319149270E+03  0.00000000000E+00 0.  1.
         23    2    1    2    0    0 -0.23857695795E+03 -0.67161968128E+02 -0.38240986887E+03  0.47256118649E+03  0.12508825820E+03 0.  0.
          5    1    3    3  502    0 -0.20391565199E+03 -0.31461182268E+01 -0.26616935537E+03  0.33534324106E+03  0.41800000000E+01 0.  1.
         -5    1    3    3    0  502 -0.34661305961E+02 -0.64015849902E+02 -0.11624051349E+03  0.13721794542E+03  0.41800000000E+01 0.  1.
        -11    1    1    2    0    0  0.14631627634E+03  0.52094224107E+02  0.80971630927E+02  0.17515326409E+03  0.00000000000E+00 0.  1.
         11    1    1    2    0    0  0.92260681610E+02  0.15067744021E+02 -0.21342060709E+02  0.95888236173E+02  0.00000000000E+00 0. -1.
</event>
<event>
 7    1  0.8661710E-006  0.1315680E+03  0.7561462E-02  0.1225147E+00
          1   -1    0    0  501    0  0.00000000000E+00  0.00000000000E+00  0.77302270839E+03  0.77302270839E+03  0.00000000000E+00 0. -1.
         -1   -1    0    0    0  501 -0.00000000000E+00 -0.00000000000E+00 -0.31821953902E+02  0.31821953902E+02  0.00000000000E+00 0.  1.
         23    2    1    2    0    0 -0.15967424110E+02 -0.10244362920E+03  0.29103532921E+03  0.33331467415E+03  0.12508978120E+03 0.  0.
          5    1    3    3  502    0 -0.38590427235E+02 -0.33757962815E+01  0.17379236236E+03  0.17810635780E+03  0.41800000000E+01 0.  1.
         -5    1    3    3    0  502  0.22623003125E+02 -0.99067832915E+02  0.11724296685E+03  0.15520831635E+03  0.41800000000E+01 0.  1.
        -11    1    1    2    0    0  0.35964925921E+02  0.28554875219E+02  0.69890802184E+02  0.83627633143E+02  0.00000000000E+00 0.  1.
         11    1    1    2    0    0 -0.19997501811E+02  0.73888753977E+02  0.38027462310E+03  0.38790235500E+03  0.00000000000E+00 0. -1.
</event>
<event>
 7    1  0.8661710E-006  0.1597984E+03  0.7561462E-02  0.1188925E+00
          3   -1    0    0  501    0  0.00000000000E+00  0.00000000000E+00  0.29600783527E+02  0.29600783527E+02  0.00000000000E+00 0. -1.
         -3   -1    0    0    0  501 -0.00000000000E+00 -0.00000000000E+00 -0.12388183559E+04  0.12388183559E+04  0.00000000000E+00 0.  1.
         23    2    1    2    0    0  0.91203942485E+02 -0.10451840580E+03 -0.87261749929E+03  0.89238457848E+03  0.12508668817E+03 0.  0.
          5    1    3    3  502    0  0.56440670620E+02 -0.12589579289E+03 -0.54497125678E+03  0.56218008066E+03  0.41800000000E+01 0. -1.
         -5    1    3    3    0  502  0.34763271865E+02  0.21377387094E+02 -0.32764624251E+03  0.33020449782E+03  0.41800000000E+01 0. -1.
        -11    1    1    2    0    0 -0.12093540674E+02  0.42424437413E+01  0.30404169729E+01  0.13171795257E+02  0.00000000000E+00 0. -1.
         11    1    1    2    0    0 -0.79110401812E+02  0.10027596206E+03 -0.33964049002E+03  0.36286276566E+03  0.00000000000E+00 0.  1.
</event>
<event>
 7    1  0.8661710E-006  0.1063679E+03  0.7561462E-02  0.1267448E+00
         -1   -1    0    0    0  501 -0.00000000000E+00  0.00000000000E+00  0.59279798888E+02  0.59279798888E+02  0.00000000000E+00 0. -1.
          1   -1    0    0  501    0  0.00000000000E+00 -0.00000000000E+00 -0.27413515540E+03  0.27413515540E+03  0.00000000000E+00 0.  1.
         23    2    1    2    0    0 -0.47340344179E+02 -0.41549359585E+02 -0.88288877297E+02  0.16556084622E+03  0.12509200805E+03 0.  0.
          5    1    3    3  502    0  0.40360482822E+02 -0.26161370708E+02 -0.46802572896E+02  0.67240903628E+02  0.41800000000E+01 0.  1.
         -5    1    3    3    0  502 -0.87700827001E+02 -0.15387988878E+02 -0.41486304401E+02  0.98319942592E+02  0.41800000000E+01 0.  1.
        -11    1    1    2    0    0  0.35466441494E+02  0.37105200193E+01 -0.46448864127E+00  0.35663036617E+02  0.00000000000E+00 0. -1.
         11    1    1    2    0    0  0.11873902685E+02  0.37838839566E+02 -0.12610199057E+03  0.13219107145E+03  0.00000000000E+00 0.  1.
</event>
<event>
 7    1  0.8661710E-006  0.1728725E+03  0.7561462E-02  0.1174885E+00
         -1   -1    0    0    0  501 -0.00000000000E+00  0.00000000000E+00  0.73387818387E+02  0.73387818387E+02  0.00000000000E+00 0.  1.
          1   -1    0    0  501    0  0.00000000000E+00 -0.00000000000E+00 -0.41395063682E+03  0.41395063682E+03  0.00000000000E+00 0. -1.
         23    2    1    2    0    0 -0.11518503243E+03  0.70616416724E+02 -0.18483909398E+03  0.26089630502E+03  0.12508845393E+03 0.  0.
          5    1    3    3  502    0 -0.13791501541E+03  0.76134964160E+02 -0.17407195591E+03  0.23480971547E+03  0.41800000000E+01 0.  1.
         -5    1    3    3    0  502  0.22729982987E+02 -0.55185474355E+01 -0.10767138071E+02  0.26086589555E+02  0.41800000000E+01 0.  1.
        -11    1    1    2    0    0  0.17263909514E+02  0.23110090735E+02 -0.27763037502E+02  0.40036297491E+02  0.00000000000E+00 0. -1.
         11    1    1    2    0    0  0.97921122913E+02 -0.93726507459E+02 -0.12796068695E+03  0.18640585269E+03  0.00000000000E+00 0.  1.
</event>
<event>
 7    1  0.8661710E-006  0.8041569E+02  0.7561462E-02  0.1327876E+00
         -2   -1    0    0    0  501 -0.00000000000E+00  0.00000000000E+00  0.10014723727E+03  0.10014723727E+03  0.00000000000E+00 0. -1.
          2   -1    0    0  501    0  0.00000000000E+00 -0.00000000000E+00 -0.14726530466E+03  0.14726530466E+03  0.00000000000E+00 0.  1.
         23    2    1    2    0    0 -0.39757136280E+02 -0.28351351132E+02 -0.26338777424E+01  0.13431064148E+03  0.12509189465E+03 0.  0.
          5    1    3    3  502    0 -0.45209174253E+02 -0.36666944338E+02  0.52277351896E+02  0.78350036152E+02  0.41800000000E+01 0.  1.
         -5    1    3    3    0  502  0.54520379730E+01  0.83155932053E+01 -0.54911229639E+02  0.55960605329E+02  0.41800000000E+01 0.  1.
        -11    1    1    2    0    0 -0.23690527013E+02  0.62809318505E+01 -0.38526398863E+02  0.45661521924E+02  0.00000000000E+00 0.  1.
         11    1    1    2    0    0  0.63447663293E+02  0.22070419282E+02 -0.59577907900E+01  0.67440378526E+02  0.00000000000E+00 0. -1.
</event>
<event>
 7    1  0.1066728E-005  0.1687423E+03  0.7561462E-02  0.1179166E+00
          2   -1    0    0  501    0  0.00000000000E+00  0.00000000000E+00  0.47190084567E+03  0.47190084567E+03  0.00000000000E+00 0. -1.
         -2   -1    0    0    0  501 -0.00000000000E+00 -0.00000000000E+00 -0.61527692840E+02  0.61527692840E+02  0.00000000000E+00 0.  1.
         23    2    1    2    0    0  0.48392933258E+01 -0.13057274072E+03  0.19918489161E+03  0.26906308614E+03  0.12509062276E+03 0.  0.
          5    1    3    3  502    0  0.56507010469E+02 -0.26301218913E+02  0.51280949765E+02  0.80820817598E+02  0.41800000000E+01 0.  1.
         -5    1    3    3    0  502 -0.51667717143E+02 -0.10427152181E+03  0.14790394184E+03  0.18824226855E+03  0.41800000000E+01 0.  1.
        -11    1    1    2    0    0  0.35211388327E+02  0.10573456818E+03  0.15729835445E+03  0.19277555106E+03  0.00000000000E+00 0. -1.
         11    1    1    2    0    0 -0.40050681653E+02  0.24838172547E+02  0.53889906775E+02  0.71589901303E+02  0.00000000000E+00 0.  1.
</event>
<event>
 7    1  0.8661710E-006  0.1093097E+03  0.7561462E-02  0.1261854E+00
          1   -1    0    0  501    0  0.00000000000E+00  0.00000000000E+00  0.76994255472E+02  0.76994255472E+02  0.00000000000E+00 0. -1.
         -1   -1    0    0    0  501 -0.00000000000E+00 -0.00000000000E+00 -0.20905413872E+03  0.20905413872E+03  0.00000000000E+00 0.  1.
         23    2    1    2    0    0 -0.11872343837E+02  0.44875335122E+02 -0.12662640411E+03  0.18394854698E+03  0.12509225982E+03 0.  0.
          5    1    3    3  502    0 -0.10327234282E+02  0.83384759567E+02 -0.11682444629E+03  0.14396212539E+03  0.41800000000E+01 0. -1.
         -5    1    3    3    0  502 -0.15451095558E+01 -0.38509424444E+02 -0.98019578240E+01  0.39986421592E+02  0.41800000000E+01 0. -1.
        -11    1    1    2    0    0  0.14030202346E+02  0.23472104576E+02 -0.17773056280E+02  0.32613920351E+02  0.00000000000E+00 0.  1.
         11    1    1    2    0    0 -0.21578585089E+01 -0.68347439699E+02  0.12339577149E+02  0.69485926855E+02  0.00000000000E+00 0. -1.
</event>
<event>
 6    1  0.8661710E-006  0.7074254E+02  0.7561462E-02  0.1357586E+00
          3   -1    0    0  501    0  0.00000000000E+00  0.00000000000E+00  0.17407432656E+03  0.17407432656E+03  0.00000000000E+00 0. -1.
         -3   -1    0    0    0  501 -0.00000000000E+00 -0.00000000000E+00 -0.16093147351E+03  0.16093147351E+03  0.00000000000E+00 0.  1.
          5    1    1    2  502    0 -0.35354663585E+02 -0.51174123767E+01  0.17649806782E+02  0.40064051543E+02  0.41800000000E+01 0. -1.
         -5    1    1    2    0  502  0.28607707394E+02  0.50435609261E+01 -0.13474492045E+03  0.13790396809E+03  0.41800000000E+01 0.  1.
        -11    1    1    2    0    0  0.25705820898E+02  0.30767850491E+02  0.10664142728E+03  0.11392911772E+03  0.00000000000E+00 0.  1.
         11    1    1    2    0    0 -0.18958864707E+02 -0.30693999041E+02  0.23596539434E+02  0.43108662718E+02  0.00000000000E+00 0. -1.
</event>
<event>
 7    1  0.8661710E-006  0.9917797E+02  0.7561462E-02  0.1282034E+00
         -3   -1    0    0    0  501 -0.00000000000E+00  0.00000000000E+00  0.32896175217E+02  0.32896175217E+02  0.00000000000E+00 0.  1.
          3   -1    0    0  501    0  0.00000000000E+00 -0.00000000000E+00 -0.50006927400E+03  0.50006927400E+03  0.00000000000E+00 0. -1.
         23    2    1    2    0    0  0.20435844205E+02 -0.81635402587E+01 -0.12083706100E+03  0.17530611665E+03  0.12508545922E+03 0.  0.
          5    1    3    3  502    0 -0.24981759211E+02  0.38470831872E+02 -0.94178234325E+02  0.10483847299E+03  0.41800000000E+01 0. -1.
         -5    1    3    3    0  502  0.45417603416E+02 -0.46634372130E+02 -0.26658826674E+02  0.70467643664E+02  0.41800000000E+01 0. -1.
        -11    1    1    2    0    0  0.32889974778E+02 -0.12552350225E+01 -0.17148004461E+03  0.17461022810E+03  0.00000000000E+00 0. -1.
         11    1    1    2    0    0 -0.53325818982E+02  0.94187752812E+01 -0.17485599318E+03  0.18304910447E+03  0.00000000000E+00 0.  1.
</event>
<event>
 7    1  0.8661710E-006  0.1489753E+03  0.7561462E-02  0.1201738E+00
          2   -1    0    0  501    0  0.00000000000E+00  0.00000000000E+00  0.86830248674E+03  0.86830248674E+03  0.00000000000E+00 0.  1.
         -2   -1    0    0    0  501 -0.00000000000E+00 -0.00000000000E+00 -0.26179959004E+02  0.26179959004E+02  0.00000000000E+00 0. -1.
         23    2    1    2    0    0 -0.10065324259E+03 -0.41751050394E+02  0.41075816279E+03  0.44299762102E+03  0.12510155268E+03 0.  0.
          5    1    3    3  502    0 -0.93060227595E+02 -0.81641455644E+02  0.33061600767E+03  0.35305799831E+03  0.41800000000E+01 0.  1.
         -5    1    3    3    0  502 -0.75930149934E+01  0.39890405250E+02  0.80142155114E+02  0.89939622715E+02  0.41800000000E+01 0.  1.
        -11    1    1    2    0    0  0.98111177885E+01 -0.20779632862E+02  0.71725243269E+02  0.75316410537E+02  0.00000000000E+00 0.  1.
         11    1    1    2    0    0  0.90842124800E+02  0.62530683257E+02  0.35963912168E+03  0.37616841418E+03  0.00000000000E+00 0. -1.
</event>
<event>
 7    1  0.8661710E-006  0.1232253E+03  0.7561462E-02  0.1237869E+00
         -1   -1    0    0    0  501 -0.00000000000E+00  0.00000000000E+00  0.36569278645E+03  0.36569278645E+03  0.00000000000E+00 0.  1.
          1   -1    0    0  501    0  0.00000000000E+00 -0.00000000000E+00 -0.46213227953E+02  0.46213227953E+02  0.00000000000E+00 0. -1.
         23    2    1    2    0    0  0.58296941941E+02 -0.23200603474E+02  0.23600534027E+03  0.27437796211E+03  0.12509174240E+03 0.  0.
          5    1    3    3  502    0  0.81642417500E+02 -0.55103241500E+02  0.18584837554E+03  0.21037809451E+03  0.41800000000E+01 0. -1.
         -5    1    3    3    0  502 -0.23345475559E+02  0.31902638026E+02  0.50156964731E+02  0.63999867602E+02  0.41800000000E+01 0. -1.
        -11    1    1    2    0    0 -0.81318108429E+02  0.24852433781E+02  0.56812560692E+02  0.10226409573E+03  0.00000000000E+00 0. -1.
         11    1    1    2    0    0  0.23021166488E+02 -0.16518303068E+01  0.26661657541E+02  0.35263956566E+02  0.00000000000E+00 0.  1.
</event>
<event>
 7    1  0.8661710E-006  0.1025529E+03  0.7561462E-02  0.1275017E+00
          2   -1    0    0  501    0  0.00000000000E+00  0.00000000000E+00  0.16065446568E+03  0.16065446568E+03  0.00000000000E+00 0. -1.
         -2   -1    0    0    0  501 -0.00000000000E+00 -0.00000000000E+00 -0.73454506347E+02  0.73454506347E+02  0.00000000000E+00 0.  1.
         23    2    1    2    0    0 -0.49585360824E+01  0.22564751480E+01  0.60098252329E+02  0.13888704491E+03  0.12509249598E+03 0.  0.
          5    1    3    3  502    0 -0.59955283623E+02  0.56887716572E+01  0.57798530542E+02  0.83577154116E+02  0.41800000000E+01 0. -1.
         -5    1    3    3    0  502  0.54996747541E+02 -0.34322965092E+01  0.22997217870E+01  0.55309890795E+02  0.41800000000E+01 0. -1.
        -11    1    1    2    0    0 -0.19088713187E+02 -0.40228910901E+02  0.22922212703E+02  0.50081654112E+02  0.00000000000E+00 0.  1.
         11    1    1    2    0    0  0.24047249269E+02  0.37972435753E+02  0.41794943040E+01  0.45140273006E+02  0.00000000000E+00 0. -1.
</event>
<event>
 7    1  0.8661710E-006  0.2329458E+03  0.7561462E-02  0.1124583E+00
          1   -1    0    0  501    0  0.00000000000E+00  0.00000000000E+00  0.94110432232E+03  0.94110432232E+03  0.00000000000E+00 0. -1.
         -1   -1    0    0    0  501 -0.00000000000E+00 -0.00000000000E+00 -0.89868466345E+02  0.89868466345E+02  0.00000000000E+00 0.  1.
         23    2    1    2    0    0  0.19920061365E+03 -0.10277303431E+03  0.16926160640E+03  0.30747497762E+03  0.12509272321E+03 0.  0.
          5    1    3    3  502    0  0.16012719879E+03 -0.66985031197E+02  0.18332628479E+03  0.25249497677E+03  0.41800000000E+01 0.  1.
         -5    1    3    3    0  502  0.39073414854E+02 -0.35788003117E+02 -0.14064678387E+02  0.54980000851E+02  0.41800000000E+01 0.  1.
        -11    1    1    2    0    0 -0.94547926317E+02  0.31065981960E+01  0.22084982297E+03  0.24025737373E+03  0.00000000000E+00 0. -1.
         11    1    1    2    0    0 -0.10465268733E+03  0.99666436118E+02  0.46112442660E+03  0.48324043732E+03  0.00000000000E+00 0.  1.
</event>
<event>
 7    1  0.8661710E-006  0.1088966E+03  0.7561462E-02  0.1262627E+00
          4   -1    0    0  501    0  0.00000000000E+00  0.00000000000E+00  0.27106832317E+02  0.27106832317E+02  0.00000000000E+00 0. -1.
         -4   -1    0    0    0  501 -0.00000000000E+00 -0.00000000000E+00 -0.70652052916E+03  0.70652052916E+03  0.00000000000E+00 0.  1.
         23    2    1    2    0    0  0.70874608997E+02 -0.38227696685E+02 -0.43388412257E+03  0.45868015032E+03  0.12508989364E+03 0.  0.
          5    1    3    3  502    0  0.30093099789E+02 -0.43251517682E+02 -0.50582514491E+02  0.73159767693E+02  0.41800000000E+01 0.  1.
         -5    1    3    3    0  502  0.40781509207E+02  0.50238209965E+01 -0.38330160807E+03  0.38552038263E+03  0.41800000000E+01 0.  1.
        -11    1    1    2    0    0 -0.21932265585E+01  0.53278959747E+02 -0.10036815820E+03  0.11365397035E+03  0.00000000000E+00 0.  1.
         11    1    1    2    0    0 -0.68681382438E+02 -0.15051263062E+02 -0.14516141607E+03  0.16129324081E+03  0.00000000000E+00 0. -1.
</event>
<event>
 7    1  0.8661710E-006  0.1026000E+03  0.7561462E-02  0.1274922E+00
          2   -1    0    0  501    0  0.00000000000E+00  0.00000000000E+00  0.30548883441E+03  0.30548883441E+03  0.00000000000E+00 0. -1.
         -2   -1    0    0    0  501 -0.00000000000E+00 -0.00000000000E+00 -0.43950628976E+02  0.43950628976E+02  0.00000000000E+00 0.  1.
         23    2    1    2    0    0 -0.22858536533E+02  0.43218258760E+02  0.11166250454E+03  0.17608929351E+03  0.12707711748E+03 0.  0.
          5    1    3    3  502    0 -0.22035525079E+02  0.79140687267E+02  0.11314360888E+03  0.13988481468E+03  0.41800000000E+01 0. -1.
         -5    1    3    3    0  502 -0.82301145393E+00 -0.35922428507E+02 -0.14811043385E+01  0.36204478835E+02  0.41800000000E+01 0.  1.
        -11    1    1    2    0    0 -0.21703979727E+02 -0.35402247402E+02  0.64129726621E+02  0.76400285952E+02  0.00000000000E+00 0. -1.
         11    1    1    2    0    0  0.44562516260E+02 -0.78160113587E+01  0.85745974276E+02  0.96949883927E+02  0.00000000000E+00 0.  1.
</event>
<event>
 7    1  0.8661710E-006  0.1382211E+03  0.7561462E-02  0.1215743E+00
          1   -1    0    0  501    0  0.00000000000E+00  0.00000000000E+00  0.14379559331E+03  0.14379559331E+03  0.00000000000E+00 0. -1.
         -1   -1    0    0    0  501 -0.00000000000E+00 -0.00000000000E+00 -0.14387525349E+03  0.14387525349E+03  0.00000000000E+00 0.  1.
         23    2    1    2    0    0  0.47055573119E+02  0.82865736510E+02 -0.10635859946E+02  0.15761349880E+03  0.12509171130E+03 0.  0.
          5    1    3    3  502    0  0.44734982620E+01 -0.27722481978E+02 -0.25433780423E+02  0.38116896258E+02  0.41800000000E+01 0.  1.
         -5    1    3    3    0  502  0.42582074857E+02  0.11058821849E+03  0.14797920478E+02  0.11949660254E+03  0.41800000000E+01 0.  1.
        -11    1    1    2    0    0 -0.59127033178E+02 -0.95295394186E+02  0.11290066525E+02  0.11271505582E+03  0.00000000000E+00 0.  1.
         11    1    1    2    0    0  0.12071460059E+02  0.12429657675E+02 -0.73386676307E+00  0.17342292187E+02  0.00000000000E+00 0. -1.
</event>
<event>
 7    1  0.8661710E-006  0.1021578E+03  0.7561462E-02  0.1275823E+00
          2   -1    0    0  501    0  0.00000000000E+00  0.00000000000E+00  0.10725491844E+03  0.10725491844E+03  0.00000000000E+00 0. -1.
         -2   -1    0    0    0  501 -0.00000000000E+00 -0.00000000000E+00 -0.16576628684E+03  0.16576628684E+03  0.00000000000E+00 0.  1.
         23    2    1    2    0    0 -0.14237839325E+02  0.18363054916E+01 -0.11032685895E+03  0.16741104719E+03  0.12509338443E+03 0.  0.
          5    1    3    3  502    0  0.51499350842E+02  0.22676649047E+02 -0.56269673093E+02  0.79687904096E+02  0.41800000000E+01 0. -1.
         -5    1    3    3    0  502 -0.65737190168E+02 -0.20840343555E+02 -0.54057185858E+02  0.87723143090E+02  0.41800000000E+01 0. -1.
        -11    1    1    2    0    0 -0.27130570207E+02 -0.19915111690E+02 -0.39213796057E+01  0.33882985868E+02  0.00000000000E+00 0.  1.
         11    1    1    2    0    0  0.41368409532E+02  0.18078806198E+02  0.55736870151E+02  0.71727172222E+02  0.00000000000E+00 0. -1.
</event>
<event>
 7    1  0.8661710E-006  0.1610183E+03  0.7561462E-02  0.1187552E+00
          1   -1    0    0  501    0  0.00000000000E+00  0.00000000000E+00  0.49625102530E+02  0.49625102530E+02  0.00000000000E+00 0. -1.
         -1   -1    0    0    0  501 -0.00000000000E+00 -0.00000000000E+00 -0.56048859646E+03  0.56048859646E+03  0.00000000000E+00 0.  1.
         23    2    1    2    0    0  0.97430290003E+02  0.72562498798E+02 -0.33337654470E+03  0.37622447607E+03  0.12508780195E+03 0.  0.
          5    1    3    3  502    0  0.79095673179E+02 -0.16630366745E+02 -0.12675552651E+03  0.15038992823E+03  0.41800000000E+01 0.  1.
         -5    1    3    3    0  502  0.18334616824E+02  0.89192865543E+02 -0.20662101819E+03  0.22583454784E+03  0.41800000000E+01 0.  1.
        -11    1    1    2    0    0 -0.35248250502E+02 -0.79906488958E+02 -0.12321561688E+03  0.15102838933E+03  0.00000000000E+00 0.  1.
         11    1    1    2    0    0 -0.62182039501E+02  0.73439901594E+01 -0.54271332353E+02  0.82860833591E+02  0.00000000000E+00 0. -1.
</event>
<event>
 7    1  0.8661710E-006  0.2338933E+03  0.7561462E-02  0.1123929E+00
          2   -1    0    0  501    0  0.00000000000E+00  0.00000000000E+00  0.38489682431E+03  0.38489682431E+03  0.00000000000E+00 0. -1.
         -2   -1    0    0    0  501 -0.00000000000E+00 -0.00000000000E+00 -0.17083047437E+03  0.17083047437E+03  0.00000000000E+00 0.  1.
         23    2    1    2    0    0 -0.20356433551E+03 -0.10469888257E+03  0.60651985097E+02  0.26566777147E+03  0.12041763492E+03 0.  0.
          5    1    3    3  502    0 -0.50983127244E+02 -0.27443420207E+01 -0.31643547218E+02  0.60212931811E+02  0.41800000000E+01 0. -1.
         -5    1    3    3    0  502 -0.15258120826E+03 -0.10195454055E+03  0.92295532315E+02  0.20545483966E+03  0.41800000000E+01 0.  1.
        -11    1    1    2    0    0  0.12991802362E+03  0.42766535107E+02  0.13482262089E+03  0.19205418113E+03  0.00000000000E+00 0. -1.
         11    1    1    2    0    0  0.73646311893E+02  0.61932347466E+02  0.18591743950E+02  0.98005346085E+02  0.00000000000E+00 0.  1.
</event>
<event>
 6    1  0.8661710E-006  0.2018162E+03  0.7561462E-02  0.1148216E+00
          2   -1    0    0  501    0  0.00000000000E+00  0.00000000000E+00  0.12455276633E+04  0.12455276633E+04  0.00000000000E+00 0. -1.
         -2   -1    0    0    0  501 -0.00000000000E+00 -0.00000000000E+00 -0.45201687658E+02  0.45201687658E+02  0.00000000000E+00 0.  1.
          5    1    1    2  502    0  0.53757848992E+02  0.44092299058E+02  0.66488487418E+02  0.96292411558E+02  0.41800000000E+01 0. -1.
         -5    1    1    2    0  502  0.71497773890E+02 -0.14177243396E+03  0.28770759230E+03  0.32864035931E+03  0.41800000000E+01 0.  1.
        -11    1    1    2    0    0 -0.54043781021E+02 -0.26836909536E+00  0.15535301958E+03  0.16448514517E+03  0.00000000000E+00 0.  1.
         11    1    1    2    0    0 -0.71211841861E+02  0.97948503994E+02  0.69077687631E+03  0.70131143489E+03  0.00000000000E+00 0. -1.
</event>
<event>
 7    1  0.8661710E-006  0.7949979E+02  0.7561462E-02  0.1330477E+00
         -4   -1    0    0    0  501 -0.00000000000E+00  0.00000000000E+00  0.17006172478E+04  0.17006172478E+04  0.00000000000E+00 0.  1.
          4   -1    0    0  501    0  0.00000000000E+00 -0.00000000000E+00 -0.16746120284E+02  0.16746120284E+02  0.00000000000E+00 0. -1.
         23    2    1    2    0    0 -0.14688376563E+02 -0.17507923113E+02  0.15413297925E+04  0.15460508327E+04  0.11854692124E+03 0.  0.
          5    1    3    3  502    0  0.11793043754E+02  0.32880992231E+02  0.11542001547E+04  0.11547362058E+04  0.41800000000E+01 0. -1.
         -5    1    3    3    0  502 -0.26481420316E+02 -0.50388915344E+02  0.38712963774E+03  0.39131462691E+03  0.41800000000E+01 0.  1.
        -11    1    1    2    0    0 -0.17747393381E+02 -0.13166812560E+02  0.11862666624E+03  0.12066739770E+03  0.00000000000E+00 0.  1.
         11    1    1    2    0    0  0.32435769944E+02  0.30674735673E+02  0.23914668795E+02  0.50645137615E+02  0.00000000000E+00 0. -1.
</event>
<event>
 7    1  0.8661710E-006  0.1066526E+03  0.7561462E-02  0.1266897E+00
         -1   -1    0    0    0  501 -0.00000000000E+00  0.00000000000E+00  0.22044231362E+02  0.22044231362E+02  0.00000000000E+00 0.  1.
          1   -1    0    0  501    0  0.00000000000E+00 -0.00000000000E+00 -0.55099954053E+03  0.55099954053E+03  0.00000000000E+00 0. -1.
         23    2    1    2    0    0 -0.16981915896E+02  0.30906086403E+02 -0.32724884351E+03  0.35210413259E+03  0.12506775349E+03 0.  0.
          5    1    3    3  502    0  0.10026314135E+02 -0.43475020475E+02 -0.71705230151E+02  0.84555998081E+02  0.41800000000E+01 0.  1.
         -5    1    3    3    0  502 -0.27008230031E+02  0.74381106877E+02 -0.25554361336E+03  0.26754813451E+03  0.41800000000E+01 0.  1.
        -11    1    1    2    0    0 -0.33287129035E+02 -0.15128812690E+02 -0.67601902399E+02  0.76856562119E+02  0.00000000000E+00 0.  1.
         11    1    1    2    0    0  0.50269044931E+02 -0.15777273713E+02 -0.13410456325E+03  0.14408307718E+03  0.00000000000E+00 0. -1.
</event>
<event>
 7    1  0.8661710E-006  0.2768710E+03  0.7561462E-02  0.1097410E+00
          1   -1    0    0  501    0  0.00000000000E+00  0.00000000000E+00  0.73754830041E+03  0.73754830041E+03  0.00000000000E+00 0. -1.
         -1   -1    0    0    0  501 -0.00000000000E+00 -0.00000000000E+00 -0.11102494081E+03  0.11102494081E+03  0.00000000000E+00 0.  1.
         23    2    1    2    0    0  0.23448260542E+03 -0.11663273357E+03  0.28171985145E+03  0.40447358265E+03  0.12509003789E+03 0.  0.
          5    1    3    3  502    0  0.21880691050E+03 -0.78108835576E+02  0.17819507533E+03  0.29282829705E+03  0.41800000000E+01 0.  1.
         -5    1    3    3    0  502  0.15675694915E+02 -0.38523897994E+02  0.10352477612E+03  0.11164528561E+03  0.41800000000E+01 0.  1.
        -11    1    1    2    0    0 -0.13839901063E+02  0.45791282954E+02  0.51365852973E+02  0.70191419046E+02  0.00000000000E+00 0. -1.
         11    1    1    2    0    0 -0.22064270436E+03  0.70841450616E+02  0.29343765518E+03  0.37390823953E+03  0.00000000000E+00 0.  1.
</event>
<event>
 7    1  0.8661710E-006  0.9264258E+02  0.7561462E-02  0.1296576E+00
          2   -1    0    0  501    0  0.00000000000E+00  0.00000000000E+00  0.14815998101E+03  0.14815998101E+03  0.00000000000E+00 0.  1.
         -2   -1    0    0    0  501 -0.00000000000E+00 -0.00000000000E+00 -0.11037716365E+03  0.11037716365E+03  0.00000000000E+00 0. -1.
         23    2    1    2    0    0  0.34616914395E+02  0.24991802325E+02 -0.12346074571E+02  0.13274719508E+03  0.12508585571E+03 0.  0.
          5    1    3    3  502    0 -0.22451102609E+02 -0.28165274542E+01  0.42773984042E+02  0.48570268129E+02  0.41800000000E+01 0.  1.
         -5    1    3    3    0  502  0.57068017003E+02  0.27808329779E+02 -0.55120058613E+02  0.84176926954E+02  0.41800000000E+01 0.  1.
        -11    1    1    2    0    0  0.69066543737E+01 -0.49805565113E+02  0.58021427011E+02  0.76777484872E+02  0.00000000000E+00 0.  1.
         11    1    1    2    0    0 -0.41523568768E+02  0.24813762788E+02 -0.78925350794E+01  0.49012464710E+02  0.00000000000E+00 0. -1.
</event>
<event>
 7    1  0.8661710E-006  0.9898887E+02  0.7561462E-02  0.1282437E+00
          1   -1    0    0  501    0  0.00000000000E+00  0.00000000000E+00  0.45450316417E+02  0.45450316417E+02  0.00000000000E+00 0. -1.
         -1   -1    0    0    0  501 -0.00000000000E+00 -0.00000000000E+00 -0.27750238162E+03  0.27750238162E+03  0.00000000000E+00 0.  1.
         23    2    1    2    0    0 -0.26966168380E+02 -0.76536492182E+01 -0.15458111208E+03  0.20081256485E+03  0.12507842902E+03 0.  0.
          5    1    3    3  502    0 -0.58768100001E+02  0.35597608153E+02 -0.57048672711E+02  0.89403035418E+02  0.41800000000E+01 0. -1.
         -5    1    3    3    0  502  0.31801931620E+02 -0.43251257371E+02 -0.97532439367E+02  0.11140952943E+03  0.41800000000E+01 0. -1.
        -11    1    1    2    0    0  0.11113390206E+01 -0.29779862705E+02 -0.69943210754E+02  0.76027153227E+02  0.00000000000E+00 0.  1.
         11    1    1    2    0    0  0.25854829360E+02  0.37433511924E+02 -0.75277423758E+01  0.46112979967E+02  0.00000000000E+00 0. -1.
</event>
<event>
 7    1  0.8661710E-006  0.1853103E+03  0.7561462E-02  0.1162760E+00
          2   -1    0    0  501    0  0.00000000000E+00  0.00000000000E+00  0.51193894029E+02  0.51193894029E+02  0.00000000000E+00 0. -1.
         -2   -1    0    0    0  501 -0.00000000000E+00 -0.00000000000E+00 -0.70765928146E+03  0.70765928146E+03  0.00000000000E+00 0.  1.
         23    2    1    2    0    0  0.51119913001E+02  0.13686302544E+03 -0.39503505746E+03  0.43626329362E+03  0.11370238126E+03 0.  0.
          5    1    3    3  502    0  0.53722279056E+02  0.75157917552E+01 -0.14144716709E+03  0.15154980657E+03  0.41800000000E+01 0. -1.
         -5    1    3    3    0  502 -0.26023660548E+01  0.12934723368E+03 -0.25358789036E+03  0.28471348705E+03  0.41800000000E+01 0.  1.
        -11    1    1    2    0    0  0.34080213237E+02 -0.72114642814E+02 -0.87698691862E+02  0.11854553217E+03  0.00000000000E+00 0.  1.
         11    1    1    2    0    0 -0.85200126238E+02 -0.64748382623E+02 -0.17373163811E+03  0.20404434969E+03  0.00000000000E+00 0. -1.
</event>
<event>
 7    1  0.8661710E-006  0.2214130E+03  0.7561462E-02  0.1132834E+00
          1   -1    0    0  501    0  0.00000000000E+00  0.00000000000E+00  0.47430873030E+03  0.47430873030E+03  0.00000000000E+00 0. -1.
         -1   -1    0    0    0  501 -0.00000000000E+00 -0.00000000000E+00 -0.12329025776E+03  0.12329025776E+03  0.00000000000E+00 0.  1.
         23    2    1    2    0    0  0.16949389129E+03 -0.96406188279E+02  0.66898292803E+02  0.24113830606E+03  0.12509983511E+03 0.  0.
          5    1    3    3  502    0  0.65928554685E+02 -0.10483031935E+03  0.14688866372E+02  0.12477662190E+03  0.41800000000E+01 0. -1.
         -5    1    3    3    0  502  0.10356533660E+03  0.84241310744E+01  0.52209426431E+02  0.11636168415E+03  0.41800000000E+01 0. -1.
        -11    1    1    2    0    0 -0.78779482725E+02  0.96031247185E+02  0.15421444944E+03  0.19801591792E+03  0.00000000000E+00 0. -1.
         11    1    1    2    0    0 -0.90714408564E+02  0.37494109388E+00  0.12990573029E+03  0.15844476408E+03  0.00000000000E+00 0.  1.
</event>
<event>
 7    1  0.8661710E-006  0.1101446E+03  0.7561462E-02  0.1260302E+00
          1   -1    0    0  501    0  0.00000000000E+00  0.00000000000E+00  0.14851518335E+03  0.14851518335E+03  0.00000000000E+00 0. -1.
         -1   -1    0    0    0  501 -0.00000000000E+00 -0.00000000000E+00 -0.91903533468E+02  0.91903533468E+02  0.00000000000E+00 0.  1.
         23    2    1    2    0    0 -0.37869422191E+02  0.18019694342E+02  0.40674229267E+02  0.13806340901E+03  0.12509320309E+03 0.  0.
          5    1    3    3  502    0 -0.33065005741E+02 -0.46718348154E+02 -0.64331065263E+01  0.57747345553E+02  0.41800000000E+01 0. -1.
         -5    1    3    3    0  502 -0.48044164501E+01  0.64738042496E+02  0.47107335793E+02  0.80316063457E+02  0.41800000000E+01 0. -1.
        -11    1    1    2    0    0  0.62179171119E+02  0.74712836749E+01  0.22460106395E+02  0.66532140955E+02  0.00000000000E+00 0. -1.
         11    1    1    2    0    0 -0.24309748929E+02 -0.25490978017E+02 -0.65226857834E+01  0.35823166849E+02  0.00000000000E+00 0.  1.
</event>
<event>
 7    1  0.8661710E-006  0.2422811E+03  0.7561462E-02  0.1118282E+00
          2   -1    0    0  501    0  0.00000000000E+00  0.00000000000E+00  0.42198678724E+03  0.42198678724E+03  0.00000000000E+00 0. -1.
         -2   -1    0    0    0  501 -0.00000000000E+00 -0.00000000000E+00 -0.17142207492E+03  0.17142207492E+03  0.00000000000E+00 0.  1.
         23    2    1    2    0    0  0.20177140183E+03 -0.11424645787E+03  0.38453957480E+02  0.26625094530E+03  0.12508759849E+03 0.  0.
          5    1    3    3  502    0  0.18383268808E+03 -0.76497507851E+02  0.72745570531E+02  0.21202763109E+03  0.41800000000E+01 0. -1.
         -5    1    3    3    0  502  0.17938713752E+02 -0.37748950021E+02 -0.34291613050E+02  0.54223314214E+02  0.41800000000E+01 0. -1.
        -11    1    1    2    0    0 -0.98737380474E+02  0.14140196459E+02  0.12197292088E+03  0.15756398347E+03  0.00000000000E+00 0. -1.
         11    1    1    2    0    0 -0.10303402136E+03  0.10010626141E+03  0.90137833960E+02  0.16959393339E+03  0.00000000000E+00 0.  1.
</event>
<event>
 6    1  0.8661710E-006  0.9660238E+02  0.7561462E-02  0.1287607E+00
          2   -1    0    0  501    0  0.00000000000E+00  0.00000000000E+00  0.27327555655E+03  0.27327555655E+03  0.00000000000E+00 0. -1.
         -2   -1    0    0    0  501 -0.00000000000E+00 -0.00000000000E+00 -0.56091405760E+02  0.56091405760E+02  0.00000000000E+00 0.  1.
          5    1    1    2  502    0  0.54708194698E+02  0.99969062223E+01  0.94966019142E+02  0.11013147549E+03  0.41800000000E+01 0. -1.
         -5    1    1    2    0  502 -0.47319877546E+02  0.17007345116E+02 -0.13370652641E+02  0.52198346247E+02  0.41800000000E+01 0.  1.
        -11    1    1    2    0    0  0.22639636564E+02 -0.46122555283E+02  0.40245456067E+02  0.65265151373E+02  0.00000000000E+00 0.  1.
         11    1    1    2    0    0 -0.30027953716E+02  0.19118303945E+02  0.95343328220E+02  0.10177198920E+03  0.00000000000E+00 0. -1.
</event>
<event>
 7    1  0.8661710E-006  0.1310212E+03  0.7561462E-02  0.1225948E+00
          2   -1    0    0  501    0  0.00000000000E+00  0.00000000000E+00  0.75292508180E+03  0.75292508180E+03  0.00000000000E+00 0. -1.
         -2   -1    0    0    0  501 -0.00000000000E+00 -0.00000000000E+00 -0.57288229161E+02  0.57288229161E+02  0.00000000000E+00 0.  1.
         23    2    1    2    0    0 -0.49261948525E+02  0.11794313444E+03  0.12530669084E+03  0.21844772565E+03  0.12522108264E+03 0.  0.
          5    1    3    3  502    0 -0.30874180627E+02  0.89498756707E+02  0.14922502924E+03  0.17677336969E+03  0.41800000000E+01 0.  1.
         -5    1    3    3    0  502 -0.18387767898E+02  0.28444377729E+02 -0.23918338396E+02  0.41674355955E+02  0.41800000000E+01 0.  1.
        -11    1    1    2    0    0 -0.35923802855E+01 -0.32369247831E+02  0.38134803429E+02  0.50149143899E+02  0.00000000000E+00 0. -1.
         11    1    1    2    0    0  0.52854328810E+02 -0.85573886604E+02  0.53219535836E+03  0.54161644141E+03  0.00000000000E+00 0.  1.
</event>
<event>
 7    1  0.8661710E-006  0.1212164E+03  0.7561462E-02  0.1241104E+00
         -2   -1    0    0    0  501 -0.00000000000E+00  0.00000000000E+00  0.18821979914E+02  0.18821979914E+02  0.00000000000E+00 0.  1.
          2   -1    0    0  501    0  0.00000000000E+00 -0.00000000000E+00 -0.78207984857E+03  0.78207984857E+03  0.00000000000E+00 0. -1.
         23    2    1    2    0    0 -0.48942781981E+02 -0.22730947222E+02 -0.42923181100E+03  0.45033284386E+03  0.12509049052E+03 0.  0.
          5    1    3    3  502    0 -0.91195912807E+02 -0.96248112704E+01 -0.28967798919E+03  0.30387520683E+03  0.41800000000E+01 0. -1.
         -5    1    3    3    0  502  0.42253130826E+02 -0.13106135952E+02 -0.13955382181E+03  0.14645763703E+03  0.41800000000E+01 0. -1.
        -11    1    1    2    0    0  0.69702963884E+02 -0.68734548151E+01 -0.20937862507E+03  0.22078305232E+03  0.00000000000E+00 0.  1.
         11    1    1    2    0    0 -0.20760181903E+02  0.29604402037E+02 -0.12464743258E+03  0.12978593230E+03  0.00000000000E+00 0. -1.
</event>
<event>
 7    1  0.8661710E-006  0.1289129E+03  0.7561462E-02  0.1229078E+00
          2   -1    0    0  501    0  0.00000000000E+00  0.00000000000E+00  0.51063208525E+03  0.51063208525E+03  0.00000000000E+00 0. -1.
         -2   -1    0    0    0  501 -0.00000000000E+00 -0.00000000000E+00 -0.37109130257E+02  0.37109130257E+02  0.00000000000E+00 0.  1.
         23    2    1    2    0    0  0.73791110562E+02 -0.35255380004E+02  0.21433584911E+03  0.26129853120E+03  0.12509594868E+03 0.  0.
          5    1    3    3  502    0  0.10397731086E+03 -0.11516792474E+02  0.18581821144E+03  0.21328337438E+03  0.41800000000E+01 0.  1.
         -5    1    3    3    0  502 -0.30186200299E+02 -0.23738587530E+02  0.28517637670E+02  0.48015156822E+02  0.41800000000E+01 0.  1.
        -11    1    1    2    0    0 -0.25060638524E+02  0.56142596437E+02  0.18720647903E+03  0.19704388478E+03  0.00000000000E+00 0. -1.
         11    1    1    2    0    0 -0.48730472038E+02 -0.20887216432E+02  0.71980626858E+02  0.89398799535E+02  0.00000000000E+00 0.  1.
</event>
<event>
 7    1  0.8661710E-006  0.1912912E+03  0.7561462E-02  0.1157302E+00
         -1   -1    0    0    0  501 -0.00000000000E+00  0.00000000000E+00  0.25905510058E+03  0.25905510058E+03  0.00000000000E+00 0.  1.
          1   -1    0    0  501    0  0.00000000000E+00 -0.00000000000E+00 -0.17831705918E+03  0.17831705918E+03  0.00000000000E+00 0. -1.
         23    2    1    2    0    0  0.17207812653E+03 -0.24734927955E+02  0.10576708689E+03  0.23886543125E+03  0.12508924529E+03 0.  0.
          5    1    3    3  502    0  0.17775768590E+02  0.37036179993E+02  0.46909086063E+02  0.62494730439E+02  0.41800000000E+01 0.  1.
         -5    1    3    3    0  502  0.15430235794E+03 -0.61771107947E+02  0.58858000822E+02  0.17637070081E+03  0.41800000000E+01 0.  1.
        -11    1    1    2    0    0 -0.21451547408E+02  0.10048483222E+02  0.29328368485E+02  0.37700054367E+02  0.00000000000E+00 0.  1.
         11    1    1    2    0    0 -0.15062657912E+03  0.14686444733E+02 -0.54357413973E+02  0.16080667415E+03  0.00000000000E+00 0. -1.
</event>
<event>
 7    1  0.8661710E-006  0.1155350E+03  0.7561462E-02  0.1250650E+00
         -2   -1    0    0    0  501 -0.00000000000E+00  0.00000000000E+00  0.91091092804E+02  0.91091092804E+02  0.00000000000E+00 0.  1.
          2   -1    0    0  501    0  0.00000000000E+00 -0.00000000000E+00 -0.23410818522E+03  0.23410818522E+03  0.00000000000E+00 0. -1.
         23    2    1    2    0    0 -0.78748744935E+02  0.14140910299E+02 -0.20425920326E+02  0.14988359669E+03  0.12508614697E+03 0.  0.
          5    1    3    3  502    0 -0.14697138506E+02 -0.51709889423E+02  0.58705792933E+01  0.54238866559E+02  0.41800000000E+01 0. -1.
         -5    1    3    3    0  502 -0.64051606429E+02  0.65850799722E+02 -0.26296499619E+02  0.95644730133E+02  0.41800000000E+01 0. -1.
        -11    1    1    2    0    0  0.19379931380E+02 -0.16963191703E+02  0.11828800378E+02  0.28341703044E+02  0.00000000000E+00 0.  1.
         11    1    1    2    0    0  0.59368813555E+02  0.28222814044E+01 -0.13441997247E+03  0.14697397829E+03  0.00000000000E+00 0. -1.
</event>
<event>
 7    1  0.8661710E-006  0.2733590E+03  0.7561462E-02  0.1099372E+00
          1   -1    0    0  501    0  0.00000000000E+00  0.00000000000E+00  0.26335009895E+03  0.26335009895E+03  0.00000000000E+00 0. -1.
         -1   -1    0    0    0  501 -0.00000000000E+00 -0.00000000000E+00 -0.96159395870E+03  0.96159395870E+03  0.00000000000E+00 0.  1.
         23    2    1    2    0    0  0.17849308989E+03  0.19258311892E+03 -0.85708804030E+03  0.90509405156E+03  0.12508913826E+03 0.  0.
          5    1    3    3  502    0  0.14692504444E+03  0.19987781841E+03 -0.65561695390E+03  0.70099156459E+03  0.41800000000E+01 0.  1.
         -5    1    3    3    0  502  0.31568045450E+02 -0.72946994897E+01 -0.20147108640E+03  0.20410248697E+03  0.41800000000E+01 0.  1.
        -11    1    1    2    0    0 -0.14801693845E+03 -0.17982238079E+03  0.10234746189E+03  0.25440146551E+03  0.00000000000E+00 0. -1.
         11    1    1    2    0    0 -0.30476151443E+02 -0.12760738131E+02  0.56496718657E+02  0.65448540575E+02  0.00000000000E+00 0.  1.
</event>
<event>
 6    1  0.8661710E-006  0.1363716E+03  0.7561462E-02  0.1218296E+00
          3   -1    0    0  501    0  0.00000000000E+00  0.00000000000E+00  0.12829817511E+03  0.12829817511E+03  0.00000000000E+00 0. -1.
         -3   -1    0    0    0  501 -0.00000000000E+00 -0.00000000000E+00 -0.19871480308E+03  0.19871480308E+03  0.00000000000E+00 0.  1.
          5    1    1    2  502    0 -0.90616020131E+02 -0.37575096213E+02  0.40457292712E+02  0.10619517830E+03  0.41800000000E+01 0. -1.
         -5    1    1    2    0  502  0.79502514601E+02  0.54046546677E+02 -0.69031457424E+02  0.11842505457E+03  0.41800000000E+01 0.  1.
        -11    1    1    2    0    0 -0.14077159142E+02  0.25646378772E+02 -0.44487655237E+02  0.53245230980E+02  0.00000000000E+00 0.  1.
         11    1    1    2    0    0  0.25190664672E+02 -0.42117829236E+02  0.26451919825E+01  0.49147514350E+02  0.00000000000E+00 0. -1.
</event>
<event>
 6    1  0.8661710E-006  0.8497627E+02  0.7561462E-02  0.1315495E+00
         -1   -1    0    0    0  501 -0.00000000000E+00  0.00000000000E+00  0.42028784570E+03  0.42028784570E+03  0.00000000000E+00 0.  1.
          1   -1    0    0  501    0  0.00000000000E+00 -0.00000000000E+00 -0.37609500251E+02  0.37609500251E+02  0.00000000000E+00 0. -1.
          5    1    1    2  502    0  0.36806560557E+02 -0.24108026091E+02  0.19116753607E+02  0.48154361074E+02  0.41800000000E+01 0. -1.
         -5    1    1    2    0  502 -0.55676720101E+02 -0.17800340352E+01  0.27553855632E+03  0.28114415181E+03  0.41800000000E+01 0.  1.
        -11    1    1    2    0    0  0.20192278383E+02  0.45739423355E+02  0.13960600102E+02  0.51910705161E+02  0.00000000000E+00 0. -1.
         11    1    1    2    0    0 -0.13221188381E+01 -0.19851363228E+02  0.74062435428E+02  0.76688127906E+02  0.00000000000E+00 0.  1.
</event>
<event>
 7    1  0.8661710E-006  0.9504941E+02  0.7561462E-02  0.1291065E+00
          1   -1    0    0  501    0  0.00000000000E+00  0.00000000000E+00  0.65181648540E+03  0.65181648540E+03  0.00000000000E+00 0. -1.
         -1   -1    0    0    0  501 -0.00000000000E+00 -0.00000000000E+00 -0.25334659238E+02  0.25334659238E+02  0.00000000000E+00 0.  1.
         23    2    1    2    0    0 -0.48485097668E+02  0.36657872438E+02  0.26465691274E+03  0.29897267780E+03  0.12508707489E+03 0.  0.
          5    1    3    3  502    0 -0.12336036363E+02 -0.28640793815E+02  0.19257003138E+03  0.19512345387E+03  0.41800000000E+01 0.  1.
         -5    1    3    3    0  502 -0.36149061305E+02  0.65298666253E+02  0.72086881358E+02  0.10384922393E+03  0.41800000000E+01 0.  1.
        -11    1    1    2    0    0  0.58693655867E+02 -0.15994425560E+02  0.34318929149E+03  0.34853931870E+03  0.00000000000E+00 0. -1.
         11    1    1    2    0    0 -0.10208558200E+02 -0.20663446878E+02  0.18635621941E+02  0.29639148141E+02  0.00000000000E+00 0.  1.
</event>
<event>
 7    1  0.8661710E-006  0.1737670E+03  0.7561462E-02  0.1173975E+00
          2   -1    0    0  501    0  0.00000000000E+00  0.00000000000E+00  0.42047809654E+03  0.42047809654E+03  0.00000000000E+00 0. -1.
         -2   -1    0    0    0  501 -0.00000000000E+00 -0.00000000000E+00 -0.10184933628E+03  0.10184933628E+03  0.00000000000E+00 0.  1.
         23    2    1    2    0    0  0.15519117284E+00 -0.14980858099E+03  0.49650800004E+02  0.20138553538E+03  0.12509315287E+03 0.  0.
          5    1    3    3  502    0 -0.54864154114E+02 -0.35507640064E+02  0.11016821406E+01  0.65494686907E+02  0.41800000000E+01 0.  1.
         -5    1    3    3    0  502  0.55019345287E+02 -0.11430094093E+03  0.48549117864E+02  0.13589084847E+03  0.41800000000E+01 0.  1.
        -11    1    1    2    0    0 -0.16039193093E+02  0.27857404793E+02  0.90594380416E+01  0.33397067753E+02  0.00000000000E+00 0.  1.
         11    1    1    2    0    0  0.15884001921E+02  0.12195117620E+03  0.25991852221E+03  0.28754482969E+03  0.00000000000E+00 0. -1.
</event>
<event>
 7    1  0.8661710E-006  0.1147094E+03  0.7561462E-02  0.1252089E+00
          2   -1    0    0  501    0  0.00000000000E+00  0.00000000000E+00  0.12380165519E+03  0.12380165519E+03  0.00000000000E+00 0. -1.
         -2   -1    0    0    0  501 -0.00000000000E+00 -0.00000000000E+00 -0.17476355287E+03  0.17476355287E+03  0.00000000000E+00 0.  1.
         23    2    1    2    0    0  0.35563179328E+01 -0.44033698959E+02 -0.11828903051E+03  0.17775347379E+03  0.12510950670E+03 0.  0.
          5    1    3    3  502    0 -0.30506425465E+02  0.33614649575E+02 -0.57307649029E+02  0.73227219652E+02  0.41800000000E+01 0.  1.
         -5    1    3    3    0  502  0.34062743398E+02 -0.77648348534E+02 -0.60981381478E+02  0.10452625414E+03  0.41800000000E+01 0.  1.
        -11    1    1    2    0    0 -0.33813243898E+02  0.56797098153E+02  0.35275955523E+02  0.74924220780E+02  0.00000000000E+00 0.  1.
         11    1    1    2    0    0  0.30256925965E+02 -0.12763399195E+02  0.32051177298E+02  0.45887513487E+02  0.00000000000E+00 0. -1.
</event>
<event>
 7    1  0.8661710E-006  0.1057960E+03  0.7561462E-02  0.1268559E+00
         -1   -1    0    0    0  501 -0.00000000000E+00  0.00000000000E+00  0.38908341235E+02  0.38908341235E+02  0.00000000000E+00 0.  1.
          1   -1    0    0  501    0  0.00000000000E+00 -0.00000000000E+00 -0.30858338858E+03  0.30858338858E+03  0.00000000000E+00 0. -1.
         23    2    1    2    0    0 -0.17212840555E+02 -0.35224022203E+01 -0.16306686037E+03  0.20626538040E+03  0.12508364003E+03 0.  0.
          5    1    3    3  502    0  0.14651714060E+02 -0.57911341780E+02 -0.10271819033E+03  0.11889867642E+03  0.41800000000E+01 0. -1.
         -5    1    3    3    0  502 -0.31864554615E+02  0.54388939560E+02 -0.60348670044E+02  0.87366703974E+02  0.41800000000E+01 0. -1.
        -11    1    1    2    0    0  0.52565393419E+02 -0.27226975853E+01 -0.42099504244E+02  0.67401052848E+02  0.00000000000E+00 0.  1.
         11    1    1    2    0    0 -0.35352552863E+02  0.62450998056E+01 -0.64508682727E+02  0.73825296563E+02  0.00000000000E+00 0. -1.
</event>
<event>
 7    1  0.8661710E-006  0.7837230E+02  0.7561462E-02  0.1333735E+00
         -3   -1    0    0    0  501 -0.00000000000E+00  0.00000000000E+00  0.13833952652E+03  0.13833952652E+03  0.00000000000E+00 0.  1.
          3   -1    0    0  501    0  0.00000000000E+00 -0.00000000000E+00 -0.94406012139E+02  0.94406012139E+02  0.00000000000E+00 0. -1.
         23    2    1    2    0    0  0.24007287046E+02  0.20075193999E+02  0.42972154594E+02  0.13591337178E+03  0.12508587175E+03 0.  0.
          5    1    3    3  502    0  0.32088037273E+02  0.43799409773E+02 -0.27495946170E+02  0.61004343192E+02  0.41800000000E+01 0.  1.
         -5    1    3    3    0  502 -0.80807502273E+01 -0.23724215774E+02  0.70468100765E+02  0.74909028586E+02  0.41800000000E+01 0.  1.
        -11    1    1    2    0    0 -0.17497803619E+02 -0.46490206332E+02  0.29199865749E+02  0.57620695727E+02  0.00000000000E+00 0.  1.
         11    1    1    2    0    0 -0.65094834269E+01  0.26415012333E+02 -0.28238505963E+02  0.39211471154E+02  0.00000000000E+00 0. -1.
</event>
<event>
 7    1  0.8661710E-006  0.8839079E+02  0.7561462E-02  0.1306796E+00
          2   -1    0    0  501    0  0.00000000000E+00  0.00000000000E+00  0.91505096037E+02  0.91505096037E+02  0.00000000000E+00 0. -1.
         -2   -1    0    0    0  501 -0.00000000000E+00 -0.00000000000E+00 -0.16424648842E+03  0.16424648842E+03  0.00000000000E+00 0.  1.
         23    2    1    2    0    0  0.52363753357E+02  0.15169236389E+02 -0.60172467112E+02  0.14913172682E+03  0.12508987868E+03 0.  0.
          5    1    3    3  502    0 -0.31872691314E+02 -0.10083025300E+02 -0.50300713824E+02  0.60540648014E+02  0.41800000000E+01 0.  1.
         -5    1    3    3    0  502  0.84236444670E+02  0.25252261689E+02 -0.98717532877E+01  0.88591078806E+02  0.41800000000E+01 0.  1.
        -11    1    1    2    0    0 -0.38425703004E+02 -0.75246264973E+01  0.37421928256E+02  0.54162305801E+02  0.00000000000E+00 0. -1.
         11    1    1    2    0    0 -0.13938050353E+02 -0.76446098918E+01 -0.49990853523E+02  0.52457551830E+02  0.00000000000E+00 0.  1.
</event>
<event>
 7    1  0.8661710E-006  0.1559654E+03  0.7561462E-02  0.1193329E+00
          1   -1    0    0  501    0  0.00000000000E+00  0.00000000000E+00  0.31602753938E+03  0.31602753938E+03  0.00000000000E+00 0. -1.
         -1   -1    0    0    0  501 -0.00000000000E+00 -0.00000000000E+00 -0.16633822308E+03  0.16633822308E+03  0.00000000000E+00 0.  1.
         23    2    1    2    0    0 -0.44164534666E+02 -0.11299691983E+03 -0.94669869797E+02  0.19466374862E+03  0.11921736772E+03 0.  0.
          5    1    3    3  502    0  0.40358879900E+02 -0.49172977369E+02 -0.29601018016E+02  0.70288786856E+02  0.41800000000E+01 0. -1.
         -5    1    3    3    0  502 -0.84523414566E+02 -0.63823942458E+02 -0.65068851781E+02  0.12437496176E+03  0.41800000000E+01 0.  1.
        -11    1    1    2    0    0  0.22918365078E+02 -0.40065665159E+01  0.89370215253E+02  0.92349008698E+02  0.00000000000E+00 0.  1.
         11    1    1    2    0    0  0.21246169588E+02  0.11700348634E+03  0.15498897084E+03  0.19535300515E+03  0.00000000000E+00 0. -1.
</event>
<event>
 7    1  0.8661710E-006  0.9465983E+02  0.7561462E-02  0.1291944E+00
         -1   -1    0    0    0  501 -0.00000000000E+00  0.00000000000E+00  0.62343921429E+03  0.62343921429E+03  0.00000000000E+00 0.  1.
          1   -1    0    0  501    0  0.00000000000E+00 -0.00000000000E+00 -0.21749767063E+02  0.21749767063E+02  0.00000000000E+00 0. -1.
         23    2    1    2    0    0 -0.31406513411E+02 -0.27373306515E+02  0.38549569532E+03  0.40741916909E+03  0.12509109175E+03 0.  0.
          5    1    3    3  502    0 -0.36300887320E+02  0.31253322357E+02  0.61329863957E+02  0.77931695680E+02  0.41800000000E+01 0.  1.
         -5    1    3    3    0  502  0.48943739092E+01 -0.58626628872E+02  0.32416583137E+03  0.32948747341E+03  0.41800000000E+01 0.  1.
        -11    1    1    2    0    0  0.54487920150E+02  0.19195548569E+02  0.20056706382E+03  0.20872122464E+03  0.00000000000E+00 0.  1.
         11    1    1    2    0    0 -0.23081406740E+02  0.81777579465E+01  0.15626688081E+02  0.29048587616E+02  0.00000000000E+00 0. -1.
</event>
<event>
 7    1  0.8661710E-006  0.8106788E+02  0.7561462E-02  0.1326048E+00
         -1   -1    0    0    0  501 -0.00000000000E+00  0.00000000000E+00  0.10190770773E+04  0.10190770773E+04  0.00000000000E+00 0.  1.
          1   -1    0    0  501    0  0.00000000000E+00 -0.00000000000E+00 -0.13026729613E+02  0.13026729613E+02  0.00000000000E+00 0. -1.
         23    2    1    2    0    0  0.10691630056E+02  0.26701189837E+01  0.74848145736E+03  0.75894208548E+03  0.12508859506E+03 0.  0.
          5    1    3    3  502    0 -0.28312912593E+02  0.15783373240E+02  0.53241906563E+02  0.62473265521E+02  0.41800000000E+01 0. -1.
         -5    1    3    3    0  502  0.39004542649E+02 -0.13113254257E+02  0.69523955079E+03  0.69646881996E+03  0.41800000000E+01 0. -1.
        -11    1    1    2    0    0 -0.43240426820E+02 -0.23729001913E+02  0.17711752870E+03  0.18385706137E+03  0.00000000000E+00 0.  1.
         11    1    1    2    0    0  0.32548796764E+02  0.21058882929E+02  0.80451361643E+02  0.89304660076E+02  0.00000000000E+00 0. -1.
</event>
<event>
 7    1  0.8661710E-006  0.1140088E+03  0.7561462E-02  0.1253321E+00
         -3   -1    0    0    0  501 -0.00000000000E+00  0.00000000000E+00  0.18414772008E+03  0.18414772008E+03  0.00000000000E+00 0.  1.
          3   -1    0    0  501    0  0.00000000000E+00 -0.00000000000E+00 -0.75244659776E+02  0.75244659776E+02  0.00000000000E+00 0. -1.
         23    2    1    2    0    0 -0.76305177762E+00 -0.48684337073E+02  0.60744761713E+02  0.14733899527E+03  0.12509239196E+03 0.  0.
          5    1    3    3  502    0 -0.31947721590E+02  0.32009042200E+02  0.33866397871E+02  0.56653693631E+02  0.41800000000E+01 0. -1.
         -5    1    3    3    0  502  0.31184669812E+02 -0.80693379273E+02  0.26878363842E+02  0.90685301635E+02  0.41800000000E+01 0. -1.
        -11    1    1    2    0    0  0.42073755557E+01 -0.23424303426E+02 -0.23987887071E+01  0.23919744717E+02  0.00000000000E+00 0.  1.
         11    1    1    2    0    0 -0.34443237781E+01  0.72108640499E+02  0.50557087296E+02  0.88133639870E+02  0.00000000000E+00 0. -1.
</event>
<event>
 7    1  0.8661710E-006  0.1922545E+03  0.7561462E-02  0.1156444E+00
         -1   -1    0    0    0  501 -0.00000000000E+00  0.00000000000E+00  0.11859120633E+03  0.11859120633E+03  0.00000000000E+00 0.  1.
          1   -1    0    0  501    0  0.00000000000E+00 -0.00000000000E+00 -0.42105964838E+03  0.42105964838E+03  0.00000000000E+00 0. -1.
         23    2    1    2    0    0  0.78645892290E+02 -0.16934003258E+03 -0.91872726701E+02  0.24279032598E+03  0.12508125946E+03 0.  0.
          5    1    3    3  502    0  0.38473395644E+02 -0.79125581866E+02 -0.11142149568E+03  0.14203267926E+03  0.41800000000E+01 0. -1.
         -5    1    3    3    0  502  0.40172496646E+02 -0.90214450710E+02  0.19548768977E+02  0.10075764672E+03  0.41800000000E+01 0. -1.
        -11    1    1    2    0    0  0.10445637125E+02  0.33862004846E+02 -0.83928647044E+02  0.91103043318E+02  0.00000000000E+00 0. -1.
         11    1    1    2    0    0 -0.89091529415E+02  0.13547802773E+03 -0.12666706831E+03  0.20575748541E+03  0.00000000000E+00 0.  1.
</event>
<event>
 7    1  0.8661710E-006  0.1630063E+03  0.7561462E-02  0.1185344E+00
          1   -1    0    0  501    0  0.00000000000E+00  0.00000000000E+00  0.57065300793E+02  0.57065300793E+02  0.00000000000E+00 0. -1.
         -1   -1    0    0    0  501 -0.00000000000E+00 -0.00000000000E+00 -0.63030765068E+03  0.63030765068E+03  0.00000000000E+00 0.  1.
         23    2    1    2    0    0  0.54467409669E+02 -0.12209178088E+03 -0.43064484892E+03  0.46794805752E+03  0.12508915604E+03 0.  0.
          5    1    3    3  502    0 -0.73361126459E+01  0.10400500044E+02 -0.26887562813E+00  0.13399016532E+02  0.41800000000E+01 0.  1.
         -5    1    3    3    0  502  0.61803522315E+02 -0.13249228092E+03 -0.43037597330E+03  0.45454904099E+03  0.41800000000E+01 0.  1.
        -11    1    1    2    0    0  0.16998391732E+02  0.83352930110E+02 -0.80638537390E+02  0.11721446153E+03  0.00000000000E+00 0.  1.
         11    1    1    2    0    0 -0.71465801401E+02  0.38738850768E+02 -0.61958963572E+02  0.10221043242E+03  0.00000000000E+00 0. -1.
</event>
<event>
 7    1  0.8661710E-006  0.8891179E+02  0.7561462E-02  0.1305509E+00
         -2   -1    0    0    0  501 -0.00000000000E+00  0.00000000000E+00  0.12813164747E+02  0.12813164747E+02  0.00000000000E+00 0.  1.
          2   -1    0    0  501    0  0.00000000000E+00 -0.00000000000E+00 -0.98450307533E+03  0.98450307533E+03  0.00000000000E+00 0. -1.
         23    2    1    2    0    0 -0.26447488910E+02  0.18895306445E+02 -0.48939845866E+03  0.50617677809E+03  0.12509027567E+03 0.  0.
          5    1    3    3  502    0 -0.50640589675E+02  0.29185408640E+02 -0.10025657372E+03  0.11612540796E+03  0.41800000000E+01 0. -1.
         -5    1    3    3    0  502  0.24193100765E+02 -0.10290102195E+02 -0.38914188493E+03  0.39005137013E+03  0.41800000000E+01 0. -1.
        -11    1    1    2    0    0 -0.29933592420E+01  0.32895212328E+02 -0.18780853031E+03  0.19069110953E+03  0.00000000000E+00 0. -1.
         11    1    1    2    0    0  0.29440848152E+02 -0.51790518774E+02 -0.29448292161E+03  0.30044835246E+03  0.00000000000E+00 0.  1.
</event>
<event>
 7    1  0.8661710E-006  0.1010878E+03  0.7561462E-02  0.1278025E+00
          2   -1    0    0  501    0  0.00000000000E+00  0.00000000000E+00  0.38940899598E+02  0.38940899598E+02  0.00000000000E+00 0. -1.
         -2   -1    0    0    0  501 -0.00000000000E+00 -0.00000000000E+00 -0.31103236387E+03  0.31103236387E+03  0.00000000000E+00 0.  1.
         23    2    1    2    0    0 -0.28062701178E+01  0.20319502397E+02 -0.16251376318E+03  0.20610697910E+03  0.12509438948E+03 0.  0.
          5    1    3    3  502    0 -0.39796989699E+02  0.55112497807E+02 -0.12663474464E+03  0.14378810366E+03  0.41800000000E+01 0.  1.
         -5    1    3    3    0  502  0.36990719581E+02 -0.34792995410E+02 -0.35879018543E+02  0.62318875442E+02  0.41800000000E+01 0.  1.
        -11    1    1    2    0    0  0.26234683005E+02 -0.43086587299E+02 -0.96083027433E+02  0.10852032417E+03  0.00000000000E+00 0.  1.
         11    1    1    2    0    0 -0.23428412887E+02  0.22767084901E+02 -0.13494673659E+02  0.35345960200E+02  0.00000000000E+00 0. -1.
</event>
<event>
 7    1  0.8661710E-006  0.8997019E+02  0.7561462E-02  0.1302924E+00
          2   -1    0    0  501    0  0.00000000000E+00  0.00000000000E+00  0.25716620677E+03  0.25716620677E+03  0.00000000000E+00 0. -1.
         -2   -1    0    0    0  501 -0.00000000000E+00 -0.00000000000E+00 -0.65915422881E+02  0.65915422881E+02  0.00000000000E+00 0.  1.
         23    2    1    2    0    0  0.60739999397E+02 -0.45793234618E+01  0.58253871685E+02  0.15081893938E+03  0.12507006508E+03 0.  0.
          5    1    3    3  502    0  0.39687407592E+02  0.30673335681E+02 -0.26255669546E+02  0.56769502609E+02  0.41800000000E+01 0. -1.
         -5    1    3    3    0  502  0.21052591805E+02 -0.35252659143E+02  0.84509541231E+02  0.94049436773E+02  0.41800000000E+01 0. -1.
        -11    1    1    2    0    0 -0.22277592700E+02  0.33486877225E+02  0.11878734625E+02  0.41937649184E+02  0.00000000000E+00 0.  1.
         11    1    1    2    0    0 -0.38462406697E+02 -0.28907553763E+02  0.12111817758E+03  0.13032504109E+03  0.00000000000E+00 0. -1.
</event>
<event>
 7    1  0.8661710E-006  0.1211089E+03  0.7561462E-02  0.1241279E+00
          3   -1    0    0  501    0  0.00000000000E+00  0.00000000000E+00  0.11016489778E+03  0.11016489778E+03  0.00000000000E+00 0.  1.
         -3   -1    0    0    0  501 -0.00000000000E+00 -0.00000000000E+00 -0.15104393063E+03  0.15104393063E+03  0.00000000000E+00 0. -1.
         23    2    1    2    0    0  0.12319832459E+02 -0.13709358613E+02 -0.47220988081E+02  0.13497238514E+03  0.12509195917E+03 0.  0.
          5    1    3    3  502    0  0.23582689421E+02  0.52635456224E+02 -0.31048277221E+02  0.65636136469E+02  0.41800000000E+01 0.  1.
         -5    1    3    3    0  502 -0.11262856961E+02 -0.66344814837E+02 -0.16172710860E+02  0.69336248667E+02  0.41800000000E+01 0.  1.
        -11    1    1    2    0    0 -0.57603277892E+02  0.34492626857E+02  0.26910354284E+02  0.72332883940E+02  0.00000000000E+00 0. -1.
         11    1    1    2    0    0  0.45283445433E+02 -0.20783268244E+02 -0.20568399060E+02  0.53903559335E+02  0.00000000000E+00 0.  1.
</event>
<event>
 7    1  0.9979916E-006  0.2161782E+03  0.7561462E-02  0.1136765E+00
          1   -1    0    0  501    0  0.00000000000E+00  0.00000000000E+00  0.51486556646E+03  0.51486556646E+03  0.00000000000E+00 0. -1.
         -1   -1    0    0    0  501 -0.00000000000E+00 -0.00000000000E+00 -0.12710864278E+03  0.12710864278E+03  0.00000000000E+00 0.  1.
         23    2    1    2    0    0  0.16995079853E+02  0.20894346094E+03  0.76181286885E+02  0.25572883594E+03  0.12508975359E+03 0.  0.
          5    1    3    3  502    0  0.23269847597E+02  0.21555313081E+02 -0.26835251912E+02  0.41757879189E+02  0.41800000000E+01 0. -1.
         -5    1    3    3    0  502 -0.62747677433E+01  0.18738814786E+03  0.10301653880E+03  0.21397095675E+03  0.41800000000E+01 0. -1.
        -11    1    1    2    0    0  0.98695270353E+01 -0.24177547316E+02  0.10322641109E+03  0.10647841709E+03  0.00000000000E+00 0. -1.
         11    1    1    2    0    0 -0.26864606889E+02 -0.18476591362E+03  0.20834922570E+03  0.27976695622E+03  0.00000000000E+00 0.  1.
</event>
<event>
 7    1  0.8661710E-006  0.7276612E+02  0.7561462E-02  0.1350932E+00
          2   -1    0    0  501    0  0.00000000000E+00  0.00000000000E+00  0.25120968162E+03  0.25120968162E+03  0.00000000000E+00 0. -1.
         -2   -1    0    0    0  501 -0.00000000000E+00 -0.00000000000E+00 -0.63549096611E+02  0.63549096611E+02  0.00000000000E+00 0.  1.
         23    2    1    2    0    0 -0.12786945494E+02  0.22111865492E+02  0.29357807645E+02  0.13099920180E+03  0.12508584825E+03 0.  0.
          5    1    3    3  502    0  0.24398651467E+02 -0.21335251315E+02  0.58250332508E+02  0.66791172915E+02  0.41800000000E+01 0.  1.
         -5    1    3    3    0  502 -0.37185596961E+02  0.43447116807E+02 -0.28892524863E+02  0.64208028884E+02  0.41800000000E+01 0.  1.
        -11    1    1    2    0    0 -0.11872317553E+02 -0.27779591298E+02  0.78764387761E+01  0.31220120188E+02  0.00000000000E+00 0.  1.
         11    1    1    2    0    0  0.24659263047E+02  0.56677258056E+01  0.15042633859E+03  0.15253945625E+03  0.00000000000E+00 0. -1.
</event>
<event>
 7    1  0.8661710E-006  0.5628467E+02  0.7561462E-02  0.1414119E+00
          3   -1    0    0  501    0  0.00000000000E+00  0.00000000000E+00  0.56615470021E+02  0.56615470021E+02  0.00000000000E+00 0. -1.
         -3   -1    0    0    0  501 -0.00000000000E+00 -0.00000000000E+00 -0.20990115214E+03  0.20990115214E+03  0.00000000000E+00 0.  1.
         23    2    1    2    0    0  0.26479471220E+02 -0.24931962029E+02 -0.10403544857E+03  0.15600309335E+03  0.11041207112E+03 0.  0.
          5    1    3    3  502    0  0.21679109222E+02  0.19041267823E+02  0.12169805258E+02  0.31593198904E+02  0.41800000000E+01 0. -1.
         -5    1    3    3    0  502  0.48003619987E+01 -0.43973229852E+02 -0.11620525383E+03  0.12440989445E+03  0.41800000000E+01 0.  1.
        -11    1    1    2    0    0 -0.22510970086E+02  0.12112220188E+02 -0.76218372768E+02  0.80390857686E+02  0.00000000000E+00 0.  1.
         11    1    1    2    0    0 -0.39685011343E+01  0.12819741842E+02  0.26968139225E+02  0.30122671120E+02  0.00000000000E+00 0. -1.
</event>
<event>
 7    1  0.8661710E-006  0.2152998E+03  0.7561462E-02  0.1137437E+00
         -2   -1    0    0    0  501 -0.00000000000E+00  0.00000000000E+00  0.47184564298E+02  0.47184564298E+02  0.00000000000E+00 0. -1.
          2   -1    0    0  501    0  0.00000000000E+00 -0.00000000000E+00 -0.12028505863E+04  0.12028505863E+04  0.00000000000E+00 0.  1.
         23    2    1    2    0    0  0.12598588244E+03  0.17013136500E+03 -0.55449160510E+03  0.60656795013E+03  0.12508642636E+03 0.  0.
          5    1    3    3  502    0  0.52547223131E+02  0.99491001232E+02 -0.43565821641E+03  0.44997247017E+03  0.41800000000E+01 0. -1.
         -5    1    3    3    0  502  0.73438659311E+02  0.70640363767E+02 -0.11883338869E+03  0.15659547995E+03  0.41800000000E+01 0. -1.
        -11    1    1    2    0    0 -0.93479602249E+02 -0.90928859587E+02 -0.24954808942E+03  0.28156836199E+03  0.00000000000E+00 0. -1.
         11    1    1    2    0    0 -0.32506280193E+02 -0.79202505412E+02 -0.35162632745E+03  0.36189883845E+03  0.00000000000E+00 0.  1.
</event>
<event>
 6    1  0.8661710E-006  0.1197912E+03  0.7561462E-02  0.1243442E+00
         -2   -1    0    0    0  501 -0.00000000000E+00  0.00000000000E+00  0.19231257045E+03  0.19231257045E+03  0.00000000000E+00 0.  1.
          2   -1    0    0  501    0  0.00000000000E+00 -0.00000000000E+00 -0.17957451853E+03  0.17957451853E+03  0.00000000000E+00 0. -1.
          5    1    1    2  502    0  0.31029436481E+02 -0.46976106983E+02 -0.40169174076E+02  0.69286474161E+02  0.41800000000E+01 0. -1.
         -5    1    1    2    0  502  0.43011305338E+02  0.50825867368E+02  0.14095662038E+03  0.15594705002E+03  0.41800000000E+01 0.  1.
        -11    1    1    2    0    0  0.20881711480E+02 -0.50538878882E+01 -0.23589259580E+02  0.31906752023E+02  0.00000000000E+00 0.  1.
         11    1    1    2    0    0 -0.94922453300E+02  0.12041275033E+01 -0.64460134801E+02  0.11474681277E+03  0.00000000000E+00 0. -1.
</event>
<event>
 7    1  0.8661710E-006  0.1231311E+03  0.7561462E-02  0.1238019E+00
         -2   -1    0    0    0  501 -0.00000000000E+00  0.00000000000E+00  0.20541513343E+02  0.20541513343E+02  0.00000000000E+00 0.  1.
          2   -1    0    0  501    0  0.00000000000E+00 -0.00000000000E+00 -0.77055775742E+03  0.77055775742E+03  0.00000000000E+00 0. -1.
         23    2    1    2    0    0  0.36521525239E+02  0.47486924747E+02 -0.36345166824E+03  0.38901518596E+03  0.12508744915E+03 0.  0.
          5    1    3    3  502    0 -0.26444647497E+02  0.66770558360E+02 -0.16904310118E+03  0.18371355231E+03  0.41800000000E+01 0. -1.
         -5    1    3    3    0  502  0.62966172736E+02 -0.19283633613E+02 -0.19440856706E+03  0.20530163365E+03  0.41800000000E+01 0. -1.
        -11    1    1    2    0    0 -0.66709329972E+02 -0.37582687186E+02 -0.23268749053E+03  0.24496134661E+03  0.00000000000E+00 0.  1.
         11    1    1    2    0    0  0.30187804732E+02 -0.99042375616E+01 -0.15387708531E+03  0.15712273820E+03  0.00000000000E+00 0. -1.
</event>
<event>
 7    1  0.8661710E-006  0.2519029E+03  0.7561462E-02  0.1112108E+00
         -1   -1    0    0    0  501 -0.00000000000E+00  0.00000000000E+00  0.78056194870E+02  0.78056194870E+02  0.00000000000E+00 0.  1.
          1   -1    0    0  501    0  0.00000000000E+00 -0.00000000000E+00 -0.12521035321E+04  0.12521035321E+04  0.00000000000E+00 0. -1.
         23    2    1    2    0    0  0.16490678378E+02 -0.23246775586E+03 -0.22050105352E+03  0.34435821559E+03  0.12509462839E+03 0.  0.
          5    1    3    3  502    0  0.48699425576E+02 -0.21053660427E+03 -0.21486505305E+03  0.30476508857E+03  0.41800000000E+01 0.  1.
         -5    1    3    3    0  502 -0.32208747198E+02 -0.21931151598E+02 -0.56360004750E+01  0.39593127028E+02  0.41800000000E+01 0.  1.
        -11    1    1    2    0    0 -0.42599266153E+02  0.57423832732E+02 -0.32792154181E+03  0.33562588045E+03  0.00000000000E+00 0.  1.
         11    1    1    2    0    0  0.26108587775E+02  0.17504392313E+03 -0.62562474190E+03  0.65017563093E+03  0.00000000000E+00 0. -1.
</event>
<event>
 7    1  0.8661710E-006  0.4472442E+02  0.7561462E-02  0.1476069E+00
         -2   -1    0    0    0  501 -0.00000000000E+00  0.00000000000E+00  0.25462732478E+03  0.25462732478E+03  0.00000000000E+00 0.  1.
          2   -1    0    0  501    0  0.00000000000E+00 -0.00000000000E+00 -0.45826964493E+02  0.45826964493E+02  0.00000000000E+00 0. -1.
         23    2    1    2    0    0 -0.43627985518E+01 -0.36681333812E+01  0.11767388434E+03  0.17183805866E+03  0.12509470866E+03 0.  0.
          5    1    3    3  502    0 -0.47414220685E+01 -0.59945975018E+01  0.14441110167E+03  0.14467361532E+03  0.41800000000E+01 0.  1.
         -5    1    3    3    0  502  0.37862351669E+00  0.23264641206E+01 -0.26737217336E+02  0.27164443340E+02  0.41800000000E+01 0.  1.
        -11    1    1    2    0    0  0.35867923559E+02 -0.15485668695E+02  0.81698780760E+02  0.90559398479E+02  0.00000000000E+00 0.  1.
         11    1    1    2    0    0 -0.31505125007E+02  0.19153802076E+02  0.94276951893E+01  0.38056832137E+02  0.00000000000E+00 0. -1.
</event>
<event>
 7    1  0.8661710E-006  0.1429495E+03  0.7561462E-02  0.1209414E+00
          1   -1    0    0  501    0  0.00000000000E+00  0.00000000000E+00  0.18464789378E+02  0.18464789378E+02  0.00000000000E+00 0. -1.
         -1   -1    0    0    0  501 -0.00000000000E+00 -0.00000000000E+00 -0.15124205636E+04  0.15124205636E+04  0.00000000000E+00 0.  1.
         23    2    1    2    0    0 -0.41888979618E+02 -0.99600012148E+02 -0.10917798157E+04  0.11042213530E+04  0.12508709540E+03 0.  0.
          5    1    3    3  502    0 -0.71952368142E+02 -0.38475901359E+02 -0.81775529765E+03  0.82182646435E+03  0.41800000000E+01 0. -1.
         -5    1    3    3    0  502  0.30063388525E+02 -0.61124110789E+02 -0.27402451804E+03  0.28239488866E+03  0.41800000000E+01 0. -1.
        -11    1    1    2    0    0  0.62014423147E+02  0.97724125879E+02 -0.28244999839E+03  0.30524382885E+03  0.00000000000E+00 0. -1.
         11    1    1    2    0    0 -0.20125443529E+02  0.18758862687E+01 -0.11972596018E+03  0.12142017118E+03  0.00000000000E+00 0.  1.
</event>
<event>
 7    1  0.8661710E-006  0.8704577E+02  0.7561462E-02  0.1310168E+00
         -2   -1    0    0    0  501 -0.00000000000E+00  0.00000000000E+00  0.10734742410E+02  0.10734742410E+02  0.00000000000E+00 0.  1.
          2   -1    0    0  501    0  0.00000000000E+00 -0.00000000000E+00 -0.11181897477E+04  0.11181897477E+04  0.00000000000E+00 0. -1.
         23    2    1    2    0    0 -0.10655647259E+02  0.24476364529E+02 -0.60557873453E+03  0.61893813189E+03  0.12508465994E+03 0.  0.
          5    1    3    3  502    0 -0.37801607948E+02 -0.10284925047E+02 -0.52901945925E+03  0.53048449733E+03  0.41800000000E+01 0. -1.
         -5    1    3    3    0  502  0.27145960689E+02  0.34761289576E+02 -0.76559275282E+02  0.88453634558E+02  0.41800000000E+01 0. -1.
        -11    1    1    2    0    0 -0.38100023629E+02 -0.80395104700E+01 -0.23303345519E+03  0.23626433664E+03  0.00000000000E+00 0. -1.
         11    1    1    2    0    0  0.48755670888E+02 -0.16436854059E+02 -0.26884281553E+03  0.27372202154E+03  0.00000000000E+00 0.  1.
</event>
<event>
 7    1  0.8661710E-006  0.3111942E+03  0.7561462E-02  0.1079775E+00
         -2   -1    0    0    0  501 -0.00000000000E+00  0.00000000000E+00  0.49964679629E+03  0.49964679629E+03  0.00000000000E+00 0.  1.
          2   -1    0    0  501    0  0.00000000000E+00 -0.00000000000E+00 -0.43730896436E+03  0.43730896436E+03  0.00000000000E+00 0. -1.
         23    2    1    2    0    0 -0.40105122643E+02 -0.30477586779E+03  0.36682861130E+03  0.49468102846E+03  0.12509731972E+03 0.  0.
          5    1    3    3  502    0 -0.21336137082E+02 -0.25490307407E+02  0.34082891845E+00  0.33504851614E+02  0.41800000000E+01 0.  1.
         -5    1    3    3    0  502 -0.18768985560E+02 -0.27928556039E+03  0.36648778238E+03  0.46117617685E+03  0.41800000000E+01 0.  1.
        -11    1    1    2    0    0  0.23652686608E+02  0.76560529430E+02 -0.13700587006E+03  0.15871853289E+03  0.00000000000E+00 0.  1.
         11    1    1    2    0    0  0.16452436035E+02  0.22821533836E+03 -0.16748490931E+03  0.28355619930E+03  0.00000000000E+00 0. -1.
</event>
<event>
 7    1  0.8661710E-006  0.8466391E+02  0.7561462E-02  0.1316314E+00
         -2   -1    0    0    0  501 -0.00000000000E+00  0.00000000000E+00  0.24625560433E+03  0.24625560433E+03  0.00000000000E+00 0.  1.
          2   -1    0    0  501    0  0.00000000000E+00 -0.00000000000E+00 -0.60938948497E+02  0.60938948497E+02  0.00000000000E+00 0. -1.
         23    2    1    2    0    0 -0.10755891388E+02 -0.36957261468E+02  0.16007727586E+03  0.20677117649E+03  0.12509219323E+03 0.  0.
          5    1    3    3  502    0 -0.37180542570E+02 -0.75254290788E+02  0.98569464209E+02  0.12953382841E+03  0.41800000000E+01 0.  1.
         -5    1    3    3    0  502  0.26424651182E+02  0.38297029319E+02  0.61507811654E+02  0.77237348085E+02  0.41800000000E+01 0.  1.
        -11    1    1    2    0    0  0.40749791668E+01  0.10036100783E+02  0.57135651466E+02  0.58153344208E+02  0.00000000000E+00 0.  1.
         11    1    1    2    0    0  0.66809122208E+01  0.26921160685E+02 -0.31896271494E+02  0.42270032126E+02  0.00000000000E+00 0. -1.
</event>
<event>
 7    1  0.8661710E-006  0.1722814E+03  0.7561462E-02  0.1175489E+00
         -1   -1    0    0    0  501 -0.00000000000E+00  0.00000000000E+00  0.32265552029E+02  0.32265552029E+02  0.00000000000E+00 0.  1.
          1   -1    0    0  501    0  0.00000000000E+00 -0.00000000000E+00 -0.96446701761E+03  0.96446701761E+03  0.00000000000E+00 0. -1.
         23    2    1    2    0    0  0.12614527776E+03 -0.48593171621E+02 -0.41321152133E+03  0.45239914760E+03  0.12508916803E+03 0.  0.
          5    1    3    3  502    0  0.37093365522E+02 -0.78751360780E+02 -0.23896873683E+03  0.25436435319E+03  0.41800000000E+01 0.  1.
         -5    1    3    3    0  502  0.89051912235E+02  0.30158189159E+02 -0.17424278450E+03  0.19803479441E+03  0.41800000000E+01 0.  1.
        -11    1    1    2    0    0 -0.94487186311E+02 -0.11691756875E+02 -0.27469829032E+03  0.29072955862E+03  0.00000000000E+00 0.  1.
         11    1    1    2    0    0 -0.31658091445E+02  0.60284928496E+02 -0.24429165393E+03  0.25360386341E+03  0.00000000000E+00 0. -1.
</event>
<event>
 7    1  0.8661710E-006  0.1039850E+03  0.7561462E-02  0.1272132E+00
          1   -1    0    0  501    0  0.00000000000E+00  0.00000000000E+00  0.35236230970E+03  0.35236230970E+03  0.00000000000E+00 0. -1.
         -1   -1    0    0    0  501 -0.00000000000E+00 -0.00000000000E+00 -0.10094626579E+03  0.10094626579E+03  0.00000000000E+00 0.  1.
         23    2    1    2    0    0  0.37521177345E+02  0.22019029878E+02 -0.45096527472E+02  0.13990529995E+03  0.12508844766E+03 0.  0.
          5    1    3    3  502    0 -0.43655429086E+02 -0.10140316785E+02 -0.14475956729E+02  0.47282642020E+02  0.41800000000E+01 0.  1.
         -5    1    3    3    0  502  0.81176606432E+02  0.32159346663E+02 -0.30620570743E+02  0.92622657931E+02  0.41800000000E+01 0.  1.
        -11    1    1    2    0    0  0.12806611822E+02 -0.21720085209E+02  0.19551715987E+02  0.31906754863E+02  0.00000000000E+00 0.  1.
         11    1    1    2    0    0 -0.50327789167E+02 -0.29894466907E+00  0.27696085539E+03  0.28149652067E+03  0.00000000000E+00 0. -1.
</event>
<event>
 7    1  0.8661710E-006  0.9011473E+02  0.7561462E-02  0.1302574E+00
          1   -1    0    0  501    0  0.00000000000E+00  0.00000000000E+00  0.56262130736E+02  0.56262130736E+02  0.00000000000E+00 0. -1.
         -1   -1    0    0    0  501 -0.00000000000E+00 -0.00000000000E+00 -0.24590769120E+03  0.24590769120E+03  0.00000000000E+00 0.  1.
         23    2    1    2    0    0 -0.24818548780E+02  0.21642426996E+02 -0.15203387035E+03  0.19961633684E+03  0.12509208283E+03 0.  0.
          5    1    3    3  502    0  0.25223819426E+02 -0.24865050567E+02 -0.11781423399E+03  0.12309418319E+03  0.41800000000E+01 0.  1.
         -5    1    3    3    0  502 -0.50042368205E+02  0.46507477563E+02 -0.34219636365E+02  0.76522153641E+02  0.41800000000E+01 0.  1.
        -11    1    1    2    0    0  0.26083842564E+01  0.24643501949E+02  0.15061976693E+02  0.28999465489E+02  0.00000000000E+00 0. -1.
         11    1    1    2    0    0  0.22210164523E+02 -0.46285928945E+02 -0.52673666801E+02  0.73554019610E+02  0.00000000000E+00 0.  1.
</event>
<event>
 7    1  0.8661710E-006  0.1433785E+03  0.7561462E-02  0.1208854E+00
         -1   -1    0    0    0  501 -0.00000000000E+00  0.00000000000E+00  0.92546445599E+02  0.92546445599E+02  0.00000000000E+00 0.  1.
          1   -1    0    0  501    0  0.00000000000E+00 -0.00000000000E+00 -0.41250796426E+03  0.41250796426E+03  0.00000000000E+00 0. -1.
         23    2    1    2    0    0 -0.27839833623E+02 -0.10796744310E+03 -0.15528747868E+02  0.16828260414E+03  0.12508344311E+03 0.  0.
          5    1    3    3  502    0  0.37037913337E+02 -0.35748833459E+02 -0.43109899185E+02  0.67273486053E+02  0.41800000000E+01 0. -1.
         -5    1    3    3    0  502 -0.64877746959E+02 -0.72218609640E+02  0.27581151317E+02  0.10100911809E+03  0.41800000000E+01 0. -1.
        -11    1    1    2    0    0 -0.88576526720E+01  0.99996150110E+02 -0.25932777636E+03  0.27808017484E+03  0.00000000000E+00 0. -1.
         11    1    1    2    0    0  0.36697486295E+02  0.79712929893E+01 -0.45104994435E+02  0.58691630879E+02  0.00000000000E+00 0.  1.
</event>
<event>
 7    1  0.8661710E-006  0.2007547E+03  0.7561462E-02  0.1149104E+00
          1   -1    0    0  501    0  0.00000000000E+00  0.00000000000E+00  0.90895671781E+02  0.90895671781E+02  0.00000000000E+00 0. -1.
         -1   -1    0    0    0  501 -0.00000000000E+00 -0.00000000000E+00 -0.54453760094E+03  0.54453760094E+03  0.00000000000E+00 0.  1.
         23    2    1    2    0    0 -0.18479771277E+03  0.36265537215E+01 -0.31382559186E+03  0.38508603084E+03  0.12506559281E+03 0.  0.
          5    1    3    3  502    0 -0.11354145892E+03 -0.42610004876E+02 -0.10824632208E+03  0.16261000600E+03  0.41800000000E+01 0.  1.
         -5    1    3    3    0  502 -0.71256253849E+02  0.46236558598E+02 -0.20557926978E+03  0.22247602483E+03  0.41800000000E+01 0.  1.
        -11    1    1    2    0    0  0.11585815839E+03  0.28117598316E+02 -0.12552000666E+03  0.17311552291E+03  0.00000000000E+00 0.  1.
         11    1    1    2    0    0  0.68939554375E+02 -0.31744152038E+02 -0.14296330644E+02  0.77231718976E+02  0.00000000000E+00 0. -1.
</event>
<event>
 7    1  0.8661710E-006  0.1020756E+03  0.7561462E-02  0.1275991E+00
          2   -1    0    0  501    0  0.00000000000E+00  0.00000000000E+00  0.15818286921E+03  0.15818286921E+03  0.00000000000E+00 0. -1.
         -2   -1    0    0    0  501 -0.00000000000E+00 -0.00000000000E+00 -0.16733492038E+03  0.16733492038E+03  0.00000000000E+00 0.  1.
         23    2    1    2    0    0 -0.53912724357E+02 -0.16661203917E+02 -0.11314484687E+03  0.17786107781E+03  0.12509448054E+03 0.  0.
          5    1    3    3  502    0 -0.42825330191E+02 -0.54083966010E+02 -0.11954843792E+03  0.13808832570E+03  0.41800000000E+01 0. -1.
         -5    1    3    3    0  502 -0.11087394167E+02  0.37422762093E+02  0.64035910459E+01  0.39772752109E+02  0.41800000000E+01 0. -1.
        -11    1    1    2    0    0  0.41742396441E+01 -0.28378628558E+02  0.62488293903E+02  0.68757237513E+02  0.00000000000E+00 0. -1.
         11    1    1    2    0    0  0.49738484713E+02  0.45039832475E+02  0.41504501800E+02  0.78899474273E+02  0.00000000000E+00 0.  1.
</event>
<event>
 7    1  0.8661710E-006  0.1259725E+03  0.7561462E-02  0.1233557E+00
          1   -1    0    0  501    0  0.00000000000E+00  0.00000000000E+00  0.13524311915E+03  0.13524311915E+03  0.00000000000E+00 0. -1.
         -1   -1    0    0    0  501 -0.00000000000E+00 -0.00000000000E+00 -0.16869033601E+03  0.16869033601E+03  0.00000000000E+00 0.  1.
         23    2    1    2    0    0  0.14970389170E+02  0.79959994821E+02 -0.85179347283E+02  0.17180970563E+03  0.12508133522E+03 0.  0.
          5    1    3    3  502    0  0.60056592571E+01  0.11375710213E+03 -0.65353967956E+02  0.13139771594E+03  0.41800000000E+01 0. -1.
         -5    1    3    3    0  502  0.89647299124E+01 -0.33797107306E+02 -0.19825379327E+02  0.40411989683E+02  0.41800000000E+01 0. -1.
        -11    1    1    2    0    0  0.23775141080E+02 -0.18676122904E+02  0.51383638648E+02  0.59618228931E+02  0.00000000000E+00 0. -1.
         11    1    1    2    0    0 -0.38745530250E+02 -0.61283871917E+02  0.34849176776E+00  0.72505520604E+02  0.00000000000E+00 0.  1.
</event>
<event>
 7    1  0.8661710E-006  0.9297153E+02  0.7561462E-02  0.1295811E+00
          1   -1    0    0  501    0  0.00000000000E+00  0.00000000000E+00  0.24915892922E+03  0.24915892922E+03  0.00000000000E+00 0. -1.
         -1   -1    0    0    0  501 -0.00000000000E+00 -0.00000000000E+00 -0.65699443064E+02  0.65699443064E+02  0.00000000000E+00 0.  1.
         23    2    1    2    0    0  0.80158441736E+01  0.72791261431E+01 -0.52290617053E-01  0.11071907568E+03  0.11018834580E+03 0.  0.
          5    1    3    3  502    0  0.47257272671E+02  0.37287086804E+02  0.65882881797E+01  0.60699708433E+02  0.41800000000E+01 0. -1.
         -5    1    3    3    0  502 -0.39241428497E+02 -0.30007960661E+02 -0.66405787968E+01  0.50019367252E+02  0.41800000000E+01 0.  1.
        -11    1    1    2    0    0 -0.35960621170E+02  0.16280653951E+02  0.14801519865E+03  0.15318852764E+03  0.00000000000E+00 0.  1.
         11    1    1    2    0    0  0.27944776996E+02 -0.23559780094E+02  0.35496578124E+02  0.50950768964E+02  0.00000000000E+00 0. -1.
</event>
<event>
 7    1  0.8661710E-006  0.1532437E+03  0.7561462E-02  0.1196543E+00
          2   -1    0    0  501    0  0.00000000000E+00  0.00000000000E+00  0.42700969707E+03  0.42700969707E+03  0.00000000000E+00 0. -1.
         -2   -1    0    0    0  501 -0.00000000000E+00 -0.00000000000E+00 -0.73220069304E+02  0.73220069304E+02  0.00000000000E+00 0.  1.
         23    2    1    2    0    0 -0.13721016389E+03 -0.11851291851E+02  0.19147514424E+03  0.26700055127E+03  0.12513784928E+03 0.  0.
          5    1    3    3  502    0 -0.75399629540E+02 -0.30828234840E+02  0.18463302248E+03  0.20184724320E+03  0.41800000000E+01 0.  1.
         -5    1    3    3    0  502 -0.61810534348E+02  0.18976942989E+02  0.68421217599E+01  0.65153308065E+02  0.41800000000E+01 0.  1.
        -11    1    1    2    0    0  0.13542761323E+02 -0.27247713368E+02  0.76413890468E+01  0.31372521330E+02  0.00000000000E+00 0.  1.
         11    1    1    2    0    0  0.12366740257E+03  0.39099005218E+02  0.15467309448E+03  0.20185669377E+03  0.00000000000E+00 0. -1.
</event>
<event>
 7    1  0.8661710E-006  0.1580722E+03  0.7561462E-02  0.1190891E+00
          1   -1    0    0  501    0  0.00000000000E+00  0.00000000000E+00  0.62562510633E+03  0.62562510633E+03  0.00000000000E+00 0. -1.
         -1   -1    0    0    0  501 -0.00000000000E+00 -0.00000000000E+00 -0.46343966011E+02  0.46343966011E+02  0.00000000000E+00 0.  1.
         23    2    1    2    0    0 -0.52812554417E+02  0.11525503079E+03  0.27538533923E+03  0.32795970189E+03  0.12509033928E+03 0.  0.
          5    1    3    3  502    0 -0.15957314234E+02  0.13426852158E+03  0.19380484698E+03  0.23634818146E+03  0.41800000000E+01 0.  1.
         -5    1    3    3    0  502 -0.36855240183E+02 -0.19013490799E+02  0.81580492249E+02  0.91611520438E+02  0.41800000000E+01 0.  1.
        -11    1    1    2    0    0  0.52673214689E+02 -0.46004545308E+02  0.23929509936E+03  0.24930509484E+03  0.00000000000E+00 0. -1.
         11    1    1    2    0    0  0.13933972817E+00 -0.69250485478E+02  0.64600701739E+02  0.94704275614E+02  0.00000000000E+00 0.  1.
</event>
<event>
 7    1  0.8661710E-006  0.9745202E+02  0.7561462E-02  0.1285747E+00
         -1   -1    0    0    0  501 -0.00000000000E+00  0.00000000000E+00  0.36838998212E+02  0.36838998212E+02  0.00000000000E+00 0.  1.
          1   -1    0    0  501    0  0.00000000000E+00 -0.00000000000E+00 -0.33233241508E+03  0.33233241508E+03  0.00000000000E+00 0. -1.
         23    2    1    2    0    0 -0.17419991547E+02 -0.39969471262E+01 -0.16627673889E+03  0.20932015992E+03  0.12588702777E+03 0.  0.
          5    1    3    3  502    0  0.18228920652E+02 -0.44867879466E+02 -0.14137170461E+03  0.14949532240E+03  0.41800000000E+01 0. -1.
         -5    1    3    3    0  502 -0.35648912199E+02  0.40870932340E+02 -0.24905034277E+02  0.59824837514E+02  0.41800000000E+01 0.  1.
        -11    1    1    2    0    0  0.36674194310E+02  0.38008252559E+02 -0.90827290379E+02  0.10506769469E+03  0.00000000000E+00 0.  1.
         11    1    1    2    0    0 -0.19254202764E+02 -0.34011305433E+02 -0.38389387601E+02  0.54783558681E+02  0.00000000000E+00 0. -1.
</event>
<event>
 7    1  0.8661710E-006  0.2078918E+03  0.7561462E-02  0.1143246E+00
          1   -1    0    0  501    0  0.00000000000E+00  0.00000000000E+00  0.13984396361E+04  0.13984396361E+04  0.00000000000E+00 0. -1.
         -1   -1    0    0    0  501 -0.00000000000E+00 -0.00000000000E+00 -0.32962333170E+02  0.32962333170E+02  0.00000000000E+00 0.  1.
         23    2    1    2    0    0 -0.16681281990E+03  0.79422628082E+02  0.74225308439E+03  0.77506253176E+03  0.12509123115E+03 0.  0.
          5    1    3    3  502    0 -0.82933802818E+01  0.54443472900E+02  0.11472552772E+03  0.12732749510E+03  0.41800000000E+01 0.  1.
         -5    1    3    3    0  502 -0.15851943962E+03  0.24979155182E+02  0.62752755667E+03  0.64773503666E+03  0.41800000000E+01 0.  1.
        -11    1    1    2    0    0  0.82375326102E+02 -0.81060497685E+02  0.28076894571E+03  0.30362427358E+03  0.00000000000E+00 0.  1.
         11    1    1    2    0    0  0.84437493802E+02  0.16378696030E+01  0.34245527287E+03  0.35271516397E+03  0.00000000000E+00 0. -1.
</event>
<event>
 7    1  0.8661710E-006  0.1265152E+03  0.7561462E-02  0.1232720E+00
          2   -1    0    0  501    0  0.00000000000E+00  0.00000000000E+00  0.27972512828E+03  0.27972512828E+03  0.00000000000E+00 0. -1.
         -2   -1    0    0    0  501 -0.00000000000E+00 -0.00000000000E+00 -0.96500423422E+02  0.96500423422E+02  0.00000000000E+00 0.  1.
         23    2    1    2    0    0  0.41669768218E+02  0.96038776572E+02  0.23761263078E+02  0.16483793207E+03  0.12508848882E+03 0.  0.
          5    1    3    3  502    0  0.45848873142E+02  0.11476519648E+02 -0.37310842262E+02  0.60360591630E+02  0.41800000000E+01 0. -1.
         -5    1    3    3    0  502 -0.41791049241E+01  0.84562256924E+02  0.61072105340E+02  0.10447734044E+03  0.41800000000E+01 0. -1.
        -11    1    1    2    0    0 -0.14237574427E+02 -0.91989083415E+02  0.15829254067E+03  0.18363340770E+03  0.00000000000E+00 0. -1.
         11    1    1    2    0    0 -0.27432193791E+02 -0.40496931564E+01  0.11709011160E+01  0.27754211937E+02  0.00000000000E+00 0.  1.
</event>
<event>
 7    1  0.8661710E-006  0.1476907E+03  0.7561462E-02  0.1203340E+00
         -1   -1    0    0    0  501 -0.00000000000E+00  0.00000000000E+00  0.24574008147E+02  0.24574008147E+02  0.00000000000E+00 0.  1.
          1   -1    0    0  501    0  0.00000000000E+00 -0.00000000000E+00 -0.12140521677E+04  0.12140521677E+04  0.00000000000E+00 0. -1.
         23    2    1    2    0    0 -0.11095596768E+02 -0.12964367718E+03 -0.68622901572E+03  0.70956906288E+03  0.12508955860E+03 0.  0.
          5    1    3    3  502    0  0.24219879753E+01 -0.90613839568E+02 -0.64396062450E+03  0.65032260629E+03  0.41800000000E+01 0. -1.
         -5    1    3    3    0  502 -0.13517584744E+02 -0.39029837615E+02 -0.42268391225E+02  0.59246456589E+02  0.41800000000E+01 0. -1.
        -11    1    1    2    0    0  0.54400948239E+02  0.58912588518E+02 -0.23815747233E+03  0.25129492212E+03  0.00000000000E+00 0.  1.
         11    1    1    2    0    0 -0.43305351471E+02  0.70731088664E+02 -0.26509167155E+03  0.27776219090E+03  0.00000000000E+00 0. -1.
</event>
<event>
 7    1  0.8990582E-006  0.1536545E+03  0.7561462E-02  0.1196053E+00
         -2   -1    0    0    0  501 -0.00000000000E+00  0.00000000000E+00  0.54297486492E+02  0.54297486492E+02  0.00000000000E+00 0. -1.
          2   -1    0    0  501    0  0.00000000000E+00 -0.00000000000E+00 -0.51717419385E+03  0.51717419385E+03  0.00000000000E+00 0.  1.
         23    2    1    2    0    0 -0.10077193580E+03  0.81592359075E+02 -0.22826144514E+03  0.29079740792E+03  0.12509016353E+03 0.  0.
          5    1    3    3  502    0 -0.10348758031E+03  0.95543143765E+02 -0.23540079766E+03  0.27435229093E+03  0.41800000000E+01 0.  1.
         -5    1    3    3    0  502  0.27156445138E+01 -0.13950784690E+02  0.71393525173E+01  0.16445116994E+02  0.41800000000E+01 0.  1.
        -11    1    1    2    0    0  0.74343293746E+02 -0.96819584368E+01 -0.91033163377E+02  0.11793092249E+03  0.00000000000E+00 0. -1.
         11    1    1    2    0    0  0.26428642049E+02 -0.71910400638E+02 -0.14358209884E+03  0.16274334994E+03  0.00000000000E+00 0.  1.
</event>
<event>
 7    1  0.8661710E-006  0.1496423E+03  0.7561462E-02  0.1200913E+00
         -1   -1    0    0    0  501 -0.00000000000E+00  0.00000000000E+00  0.50383394781E+02  0.50383394781E+02  0.00000000000E+00 0.  1.
          1   -1    0    0  501    0  0.00000000000E+00 -0.00000000000E+00 -0.59600200971E+03  0.59600200971E+03  0.00000000000E+00 0. -1.
         23    2    1    2    0    0  0.12693211223E+03  0.26261085977E+02 -0.18216275475E+03  0.25618010395E+03  0.12507426071E+03 0.  0.
          5    1    3    3  502    0  0.82288351938E+02 -0.28182662072E+02 -0.16014911762E+03  0.18229330097E+03  0.41800000000E+01 0.  1.
         -5    1    3    3    0  502  0.44643760294E+02  0.54443748049E+02 -0.22013637132E+02  0.73886802980E+02  0.41800000000E+01 0.  1.
        -11    1    1    2    0    0 -0.12153182477E+03 -0.70715602880E+01 -0.32077216188E+03  0.34309586304E+03  0.00000000000E+00 0. -1.
         11    1    1    2    0    0 -0.54002874577E+01 -0.19189525689E+02 -0.42683698295E+02  0.47109437494E+02  0.00000000000E+00 0.  1.
</event>
<event>
 7    1  0.8661710E-006  0.1416153E+03  0.7561462E-02  0.1211172E+00
          1   -1    0    0  501    0  0.00000000000E+00  0.00000000000E+00  0.20922505256E+03  0.20922505256E+03  0.00000000000E+00 0. -1.
         -1   -1    0    0    0  501 -0.00000000000E+00 -0.00000000000E+00 -0.13890039781E+03  0.13890039781E+03  0.00000000000E+00 0.  1.
         23    2    1    2    0    0  0.12020999003E+03  0.40382411504E+02  0.69366333307E+02  0.19115321572E+03  0.12508670123E+03 0.  0.
          5    1    3    3  502    0  0.51751947884E+02  0.25657528466E+02 -0.33303807752E+02  0.66807102074E+02  0.41800000000E+01 0.  1.
         -5    1    3    3    0  502  0.68458042142E+02  0.14724883038E+02  0.10267014106E+03  0.12434611365E+03  0.41800000000E+01 0.  1.
        -11    1    1    2    0    0 -0.13348968912E+03 -0.26763052658E+02  0.87258086195E+01  0.13642542954E+03  0.00000000000E+00 0. -1.
         11    1    1    2    0    0  0.13279699090E+02 -0.13619358846E+02 -0.77674871741E+01  0.20546805111E+02  0.00000000000E+00 0.  1.
</event>
<event>
 7    1  0.8661710E-006  0.1110639E+03  0.7561462E-02  0.1258612E+00
         -1   -1    0    0    0  501 -0.00000000000E+00  0.00000000000E+00  0.59034900188E+02  0.59034900188E+02  0.00000000000E+00 0.  1.
          1   -1    0    0  501    0  0.00000000000E+00 -0.00000000000E+00 -0.37981135917E+03  0.37981135917E+03  0.00000000000E+00 0. -1.
         23    2    1    2    0    0  0.68534238339E+02 -0.63840795326E+02 -0.11059181566E+03  0.19144314983E+03  0.12508933189E+03 0.  0.
          5    1    3    3  502    0  0.49479445750E+02 -0.45772152362E+02 -0.13776320914E+03  0.15342581164E+03  0.41800000000E+01 0. -1.
         -5    1    3    3    0  502  0.19054792589E+02 -0.18068642963E+02  0.27171393484E+02  0.38017338189E+02  0.41800000000E+01 0. -1.
        -11    1    1    2    0    0 -0.58761679006E+02  0.85785867345E+02 -0.18728547514E+03  0.21421484345E+03  0.00000000000E+00 0. -1.
         11    1    1    2    0    0 -0.97725593337E+01 -0.21945072020E+02 -0.22899168181E+02  0.33188266078E+02  0.00000000000E+00 0.  1.
</event>
<event>
 7    1  0.8661710E-006  0.1562659E+03  0.7561462E-02  0.1192978E+00
          2   -1    0    0  501    0  0.00000000000E+00  0.00000000000E+00  0.14344299436E+03  0.14344299436E+03  0.00000000000E+00 0. -1.
         -2   -1    0    0    0  501 -0.00000000000E+00 -0.00000000000E+00 -0.24179660873E+03  0.24179660873E+03  0.00000000000E+00 0.  1.
         23    2    1    2    0    0  0.13057415495E+03  0.62363296600E+02 -0.93077533867E+02  0.21271903020E+03  0.12508863975E+03 0.  0.
          5    1    3    3  502    0  0.72326670697E+02  0.66584081569E+02 -0.11395522793E+03  0.15055847231E+03  0.41800000000E+01 0.  1.
         -5    1    3    3    0  502  0.58247484254E+02 -0.42207849688E+01  0.20877694064E+02  0.62160557890E+02  0.41800000000E+01 0.  1.
        -11    1    1    2    0    0 -0.84432675448E+02 -0.68906537292E+02 -0.38175832015E+02  0.11547459337E+03  0.00000000000E+00 0.  1.
         11    1    1    2    0    0 -0.46141479504E+02  0.65432406919E+01  0.32899751503E+02  0.57045979512E+02  0.00000000000E+00 0. -1.
</event>
<event>
 7    1  0.8661710E-006  0.7727989E+02  0.7561462E-02  0.1336953E+00
         -2   -1    0    0    0  501 -0.00000000000E+00  0.00000000000E+00  0.55745918638E+02  0.55745918638E+02  0.00000000000E+00 0.  1.
          2   -1    0    0  501    0  0.00000000000E+00 -0.00000000000E+00 -0.22867483959E+03  0.22867483959E+03  0.00000000000E+00 0. -1.
         23    2    1    2    0    0  0.75227696129E+01  0.13666919588E+01 -0.58977951506E+02  0.13851183973E+03  0.12509464845E+03 0.  0.
          5    1    3    3  502    0  0.11989023471E+02 -0.34194599531E+02 -0.86010591336E+02  0.93425379543E+02  0.41800000000E+01 0. -1.
         -5    1    3    3    0  502 -0.44662538580E+01  0.35561291489E+02  0.27032639829E+02  0.45086460185E+02  0.41800000000E+01 0. -1.
        -11    1    1    2    0    0 -0.10297541861E+02  0.39611654649E+02 -0.88721223008E+02  0.97706591203E+02  0.00000000000E+00 0. -1.
         11    1    1    2    0    0  0.27747722485E+01 -0.40978346608E+02 -0.25229746441E+02  0.48202327301E+02  0.00000000000E+00 0.  1.
</event>
<event>
 7    1  0.8661710E-006  0.5588179E+02  0.7561462E-02  0.1415974E+00
         -1   -1    0    0    0  501 -0.00000000000E+00  0.00000000000E+00  0.58211873330E+02  0.58211873330E+02  0.00000000000E+00 0.  1.
          1   -1    0    0  501    0  0.00000000000E+00 -0.00000000000E+00 -0.25402260187E+03  0.25402260187E+03  0.00000000000E+00 0. -1.
         23    2    1    2    0    0 -0.20314797031E+02  0.41244674250E+01 -0.43100292239E+02  0.13391932827E+03  0.12508816524E+03 0.  0.
          5    1    3    3  502    0 -0.15298035967E+02  0.15732583506E+02  0.42113265487E+02  0.47671203239E+02  0.41800000000E+01 0.  1.
         -5    1    3    3    0  502 -0.50167610634E+01 -0.11608116081E+02 -0.85213557726E+02  0.86248125028E+02  0.41800000000E+01 0.  1.
        -11    1    1    2    0    0 -0.22855848317E+02  0.16571276050E+02 -0.13873922035E+02  0.31456044011E+02  0.00000000000E+00 0.  1.
         11    1    1    2    0    0  0.43170645348E+02 -0.20695743475E+02 -0.13883651427E+03  0.14685910293E+03  0.00000000000E+00 0. -1.
</event>
<event>
 7    1  0.8661710E-006  0.1153778E+03  0.7561462E-02  0.1250923E+00
          4   -1    0    0  501    0  0.00000000000E+00  0.00000000000E+00  0.40898162270E+03  0.40898162270E+03  0.00000000000E+00 0. -1.
         -4   -1    0    0    0  501 -0.00000000000E+00 -0.00000000000E+00 -0.38681734706E+02  0.38681734706E+02  0.00000000000E+00 0.  1.
         23    2    1    2    0    0 -0.59129828912E+02  0.16796713051E+02  0.17743797626E+03  0.22564214425E+03  0.12510665693E+03 0.  0.
          5    1    3    3  502    0 -0.15788936050E+02 -0.53421554866E+02  0.84406621524E+02  0.10121809711E+03  0.41800000000E+01 0.  1.
         -5    1    3    3    0  502 -0.43340892862E+02  0.70218267917E+02  0.93031354735E+02  0.12442404714E+03  0.41800000000E+01 0.  1.
        -11    1    1    2    0    0  0.29031818922E+02  0.26655177801E+02  0.14651010671E+03  0.15171867512E+03  0.00000000000E+00 0. -1.
         11    1    1    2    0    0  0.30098009990E+02 -0.43451890852E+02  0.46351805026E+02  0.70302538027E+02  0.00000000000E+00 0.  1.
</event>
<event>
 7    1  0.8661710E-006  0.1042359E+03  0.7561462E-02  0.1271632E+00
          1   -1    0    0  501    0  0.00000000000E+00  0.00000000000E+00  0.23054088677E+03  0.23054088677E+03  0.00000000000E+00 0. -1.
         -1   -1    0    0    0  501 -0.00000000000E+00 -0.00000000000E+00 -0.61936282729E+02  0.61936282729E+02  0.00000000000E+00 0.  1.
         23    2    1    2    0    0 -0.37480845491E+02 -0.13380639120E+02  0.55548455267E+02  0.14253663786E+03  0.12508879633E+03 0.  0.
          5    1    3    3  502    0 -0.14289896602E+02  0.45854535402E+02  0.61912436821E+02  0.78469495952E+02  0.41800000000E+01 0. -1.
         -5    1    3    3    0  502 -0.23190948889E+02 -0.59235174522E+02 -0.63639815541E+01  0.64067141908E+02  0.41800000000E+01 0. -1.
        -11    1    1    2    0    0  0.65128375730E+02  0.19907290874E+02  0.65162288915E+02  0.94255660052E+02  0.00000000000E+00 0.  1.
         11    1    1    2    0    0 -0.27647530239E+02 -0.65266517542E+01  0.47893859856E+02  0.55684871584E+02  0.00000000000E+00 0. -1.
</event>
<event>
 7    1  0.8661710E-006  0.8309163E+02  0.7561462E-02  0.1320500E+00
         -2   -1    0    0    0  501 -0.00000000000E+00  0.00000000000E+00  0.23343188564E+02  0.23343188564E+02  0.00000000000E+00 0.  1.
          2   -1    0    0  501    0  0.00000000000E+00 -0.00000000000E+00 -0.64107170617E+03  0.64107170617E+03  0.00000000000E+00 0. -1.
         23    2    1    2    0    0 -0.24085490436E+02 -0.41199730127E+02 -0.33314305823E+03  0.35903553773E+03  0.12507874117E+03 0.  0.
          5    1    3    3  502    0 -0.79464610040E+01 -0.37243660267E+02 -0.33882462587E+03  0.34098363005E+03  0.41800000000E+01 0. -1.
         -5    1    3    3    0  502 -0.16139029432E+02 -0.39560698603E+01  0.56815676367E+01  0.18051907671E+02  0.41800000000E+01 0. -1.
        -11    1    1    2    0    0 -0.14545845344E+02  0.64167012668E+02 -0.17202615570E+03  0.18417922080E+03  0.00000000000E+00 0. -1.
         11    1    1    2    0    0  0.38631335780E+02 -0.22967282541E+02 -0.11255930368E+03  0.12120013621E+03  0.00000000000E+00 0.  1.
</event>
<event>
 7    1  0.8661710E-006  0.1043266E+03  0.7561462E-02  0.1271452E+00
         -3   -1    0    0    0  501 -0.00000000000E+00  0.00000000000E+00  0.59700274185E+02  0.59700274185E+02  0.00000000000E+00 0.  1.
          3   -1    0    0  501    0  0.00000000000E+00 -0.00000000000E+00 -0.28755942588E+03  0.28755942588E+03  0.00000000000E+00 0. -1.
         23    2    1    2    0    0 -0.71560319097E+02 -0.21275191347E+02 -0.12424017008E+03  0.19146152851E+03  0.12509350103E+03 0.  0.
          5    1    3    3  502    0 -0.73831103354E+02 -0.36848622045E+02 -0.18750600484E+02  0.84722548284E+02  0.41800000000E+01 0.  1.
         -5    1    3    3    0  502  0.22707842576E+01  0.15573430698E+02 -0.10548956960E+03  0.10673898022E+03  0.41800000000E+01 0.  1.
        -11    1    1    2    0    0  0.25452997894E+02 -0.30956498431E+02 -0.64386627610E+02  0.75840607276E+02  0.00000000000E+00 0. -1.
         11    1    1    2    0    0  0.46107321203E+02  0.52231689778E+02 -0.39232354002E+02  0.79957564283E+02  0.00000000000E+00 0.  1.
</event>
<event>
 7    1  0.8661710E-006  0.1747491E+03  0.7561462E-02  0.1172984E+00
         -1   -1    0    0    0  501 -0.00000000000E+00  0.00000000000E+00  0.16043229241E+03  0.16043229241E+03  0.00000000000E+00 0.  1.
          1   -1    0    0  501    0  0.00000000000E+00 -0.00000000000E+00 -0.21676006654E+03  0.21676006654E+03  0.00000000000E+00 0. -1.
         23    2    1    2    0    0  0.40911743880E+02 -0.14298558249E+03 -0.58862007553E+02  0.20304455373E+03  0.12507480674E+03 0.  0.
          5    1    3    3  502    0 -0.42062982242E+02 -0.73049080264E+02 -0.14023498181E+02  0.85554622925E+02  0.41800000000E+01 0. -1.
         -5    1    3    3    0  502  0.82974726122E+02 -0.69936502224E+02 -0.44838509372E+02  0.11748993081E+03  0.41800000000E+01 0. -1.
        -11    1    1    2    0    0 -0.38488662941E+02  0.48176472208E+02  0.38524775036E+02  0.72708376002E+02  0.00000000000E+00 0. -1.
         11    1    1    2    0    0 -0.24230809394E+01  0.94809110280E+02 -0.35990541609E+02  0.10143942921E+03  0.00000000000E+00 0.  1.
</event>
<event>
 7    1  0.8661710E-006  0.3572107E+03  0.7561462E-02  0.1059694E+00
          2   -1    0    0  501    0  0.00000000000E+00  0.00000000000E+00  0.40940302584E+03  0.40940302584E+03  0.00000000000E+00 0. -1.
         -2   -1    0    0    0  501 -0.00000000000E+00 -0.00000000000E+00 -0.42046352124E+03  0.42046352124E+03  0.00000000000E+00 0.  1.
         23    2    1    2    0    0  0.32906237011E+03 -0.11584979382E+03 -0.20176163994E+03  0.42197066258E+03  0.12509301568E+03 0.  0.
          5    1    3    3  502    0  0.29210774742E+03 -0.13263058065E+03 -0.14503363718E+03  0.35209378771E+03  0.41800000000E+01 0.  1.
         -5    1    3    3    0  502  0.36954622691E+02  0.16780786830E+02 -0.56728002757E+02  0.69876874870E+02  0.41800000000E+01 0.  1.
        -11    1    1    2    0    0 -0.36379846507E+02  0.31680114528E+02 -0.61470722201E+00  0.48244178440E+02  0.00000000000E+00 0.  1.
         11    1    1    2    0    0 -0.29268252361E+03  0.84169679290E+02  0.19131585177E+03  0.35965170606E+03  0.00000000000E+00 0. -1.
</event>
<event>
 7    1  0.8661710E-006  0.1049269E+03  0.7561462E-02  0.1270264E+00
         -1   -1    0    0    0  501 -0.00000000000E+00  0.00000000000E+00  0.32102886405E+02  0.32102886405E+02  0.00000000000E+00 0.  1.
          1   -1    0    0  501    0  0.00000000000E+00 -0.00000000000E+00 -0.44807502045E+03  0.44807502045E+03  0.00000000000E+00 0. -1.
         23    2    1    2    0    0  0.34438037420E+02  0.50198253255E+01 -0.16025383511E+03  0.20624932390E+03  0.12508523044E+03 0.  0.
          5    1    3    3  502    0  0.79313648793E+02  0.22806030450E+01 -0.12838120835E+03  0.15098034009E+03  0.41800000000E+01 0.  1.
         -5    1    3    3    0  502 -0.44875611373E+02  0.27392222804E+01 -0.31872626753E+02  0.55268983806E+02  0.41800000000E+01 0.  1.
        -11    1    1    2    0    0 -0.50115708485E+02 -0.28014114212E+02 -0.96435017997E+02  0.11223229272E+03  0.00000000000E+00 0.  1.
         11    1    1    2    0    0  0.15677671065E+02  0.22994288886E+02 -0.15928328094E+03  0.16169629024E+03  0.00000000000E+00 0. -1.
</event>
<event>
 7    1  0.8661710E-006  0.1335435E+03  0.7561462E-02  0.1222291E+00
         -1   -1    0    0    0  501 -0.00000000000E+00  0.00000000000E+00  0.92013450125E+02  0.92013450125E+02  0.00000000000E+00 0.  1.
          1   -1    0    0  501    0  0.00000000000E+00 -0.00000000000E+00 -0.22269107321E+03  0.22269107321E+03  0.00000000000E+00 0. -1.
         23    2    1    2    0    0  0.70237153144E+02  0.58023289380E+02 -0.37675659386E+02  0.15927089876E+03  0.12509118310E+03 0.  0.
          5    1    3    3  502    0  0.43873964502E+02  0.91586736617E+02 -0.51856449321E+02  0.11410354430E+03  0.41800000000E+01 0. -1.
         -5    1    3    3    0  502  0.26363188643E+02 -0.33563447236E+02  0.14180789935E+02  0.45167354461E+02  0.41800000000E+01 0. -1.
        -11    1    1    2    0    0 -0.89098464523E+02 -0.47903699082E+02 -0.65217482638E+02  0.12036037890E+03  0.00000000000E+00 0.  1.
         11    1    1    2    0    0  0.18861311379E+02 -0.10119590298E+02 -0.27784481061E+02  0.35073245680E+02  0.00000000000E+00 0. -1.
</event>
<event>
 7    1  0.8661710E-006  0.2216165E+03  0.7561462E-02  0.1132684E+00
         -2   -1    0    0    0  501 -0.00000000000E+00  0.00000000000E+00  0.43259519402E+02  0.43259519402E+02  0.00000000000E+00 0.  1.
          2   -1    0    0  501    0  0.00000000000E+00 -0.00000000000E+00 -0.14981615649E+04  0.14981615649E+04  0.00000000000E+00 0. -1.
         23    2    1    2    0    0  0.12116165916E+03  0.14365428104E+03 -0.39000661521E+03  0.45063208518E+03  0.12508963255E+03 0.  0.
          5    1    3    3  502    0  0.67464028658E+01 -0.12393157697E+02 -0.10557960623E+03  0.10660032814E+03  0.41800000000E+01 0.  1.
         -5    1    3    3    0  502  0.11441525629E+03  0.15604743873E+03 -0.28442700899E+03  0.34403175703E+03  0.41800000000E+01 0.  1.
        -11    1    1    2    0    0 -0.11899439491E+03 -0.17056705630E+03 -0.97461319642E+03  0.99655590378E+03  0.00000000000E+00 0.  1.
         11    1    1    2    0    0 -0.21672642472E+01  0.26912775265E+02 -0.90282233829E+02  0.94233095311E+02  0.00000000000E+00 0. -1.
</event>
<event>
 7    1  0.8661710E-006  0.1331006E+03  0.7561462E-02  0.1222926E+00
         -2   -1    0    0    0  501 -0.00000000000E+00  0.00000000000E+00  0.38552092300E+02  0.38552092300E+02  0.00000000000E+00 0.  1.
          2   -1    0    0  501    0  0.00000000000E+00 -0.00000000000E+00 -0.51572746569E+03  0.51572746569E+03  0.00000000000E+00 0. -1.
         23    2    1    2    0    0  0.73471988856E+02 -0.32678233746E+02 -0.18327730547E+03  0.23601759745E+03  0.12509090895E+03 0.  0.
          5    1    3    3  502    0  0.62718984737E+02 -0.77426729611E+02 -0.14513926256E+03  0.17610067416E+03  0.41800000000E+01 0. -1.
         -5    1    3    3    0  502  0.10753004119E+02  0.44748495865E+02 -0.38138042908E+02  0.59916923291E+02  0.41800000000E+01 0. -1.
        -11    1    1    2    0    0 -0.45332413040E+02 -0.28063796831E+02 -0.15833888876E+03  0.16707425912E+03  0.00000000000E+00 0.  1.
         11    1    1    2    0    0 -0.28139575816E+02  0.60742030577E+02 -0.13555917916E+03  0.15118770142E+03  0.00000000000E+00 0. -1.
</event>
<event>
 7    1  0.8661710E-006  0.1166315E+03  0.7561462E-02  0.1248760E+00
         -2   -1    0    0    0  501 -0.00000000000E+00  0.00000000000E+00  0.26340915454E+02  0.26340915454E+02  0.00000000000E+00 0.  1.
          2   -1    0    0  501    0  0.00000000000E+00 -0.00000000000E+00 -0.54379250052E+03  0.54379250052E+03  0.00000000000E+00 0. -1.
         23    2    1    2    0    0  0.61499896026E+02 -0.42992867488E+00 -0.31247596221E+03  0.34215711704E+03  0.12509134156E+03 0.  0.
          5    1    3    3  502    0  0.87722078728E+02 -0.35328863761E+02 -0.23069108910E+03  0.24935745969E+03  0.41800000000E+01 0.  1.
         -5    1    3    3    0  502 -0.26222182702E+02  0.34898935086E+02 -0.81784873105E+02  0.92799657351E+02  0.41800000000E+01 0.  1.
        -11    1    1    2    0    0 -0.12928475103E+02  0.33553924237E+02 -0.11504585594E+03  0.12053447751E+03  0.00000000000E+00 0. -1.
         11    1    1    2    0    0 -0.48571420923E+02 -0.33123995562E+02 -0.89929766917E+02  0.10744182142E+03  0.00000000000E+00 0.  1.
</event>
<event>
 7    1  0.8661710E-006  0.1671858E+03  0.7561462E-02  0.1180815E+00
         -2   -1    0    0    0  501 -0.00000000000E+00  0.00000000000E+00  0.21506207083E+02  0.21506207083E+02  0.00000000000E+00 0.  1.
          2   -1    0    0  501    0  0.00000000000E+00 -0.00000000000E+00 -0.14245784402E+04  0.14245784402E+04  0.00000000000E+00 0. -1.
         23    2    1    2    0    0 -0.13213654848E+03 -0.25884856233E+02 -0.71026018090E+03  0.73178657468E+03  0.11363086328E+03 0.  0.
          5    1    3    3  502    0 -0.15098797070E+03 -0.12783727923E+02 -0.64181734616E+03  0.65947537423E+03  0.41800000000E+01 0. -1.
         -5    1    3    3    0  502  0.18851422217E+02 -0.13101128310E+02 -0.68442834739E+02  0.72311200445E+02  0.41800000000E+01 0.  1.
        -11    1    1    2    0    0  0.54616325863E+02  0.54177722186E+02 -0.19383083631E+03  0.20853911320E+03  0.00000000000E+00 0.  1.
         11    1    1    2    0    0  0.77520222616E+02 -0.28292865953E+02 -0.49898121589E+03  0.50575895937E+03  0.00000000000E+00 0. -1.
</event>
<event>
 7    1  0.8661710E-006  0.2143847E+03  0.7561462E-02  0.1138140E+00
          1   -1    0    0  501    0  0.00000000000E+00  0.00000000000E+00  0.16206814644E+04  0.16206814644E+04  0.00000000000E+00 0. -1.
         -1   -1    0    0    0  501 -0.00000000000E+00 -0.00000000000E+00 -0.32926919420E+02  0.32926919420E+02  0.00000000000E+00 0.  1.
         23    2    1    2    0    0 -0.13709981500E+03  0.15039451860E+03  0.79172303175E+03  0.82697575630E+03  0.12509465215E+03 0.  0.
          5    1    3    3  502    0 -0.13297059179E+03  0.81346027985E+02  0.40285659634E+03  0.43198294429E+03  0.41800000000E+01 0. -1.
         -5    1    3    3    0  502 -0.41292232177E+01  0.69048490610E+02  0.38886643542E+03  0.39499281200E+03  0.41800000000E+01 0. -1.
        -11    1    1    2    0    0  0.73287606713E+02 -0.77819445450E+02  0.58282310146E+03  0.59254510967E+03  0.00000000000E+00 0.  1.
         11    1    1    2    0    0  0.63812208292E+02 -0.72575073145E+02  0.21320841172E+03  0.23408751781E+03  0.00000000000E+00 0. -1.
</event>
<event>
 7    1  0.8661710E-006  0.7701319E+02  0.7561462E-02  0.1337748E+00
         -2   -1    0    0    0  501 -0.00000000000E+00  0.00000000000E+00  0.29282478377E+03  0.29282478377E+03  0.00000000000E+00 0.  1.
          2   -1    0    0  501    0  0.00000000000E+00 -0.00000000000E+00 -0.43864636145E+02  0.43864636145E+02  0.00000000000E+00 0. -1.
         23    2    1    2    0    0  0.21613314380E+02 -0.55704257796E+01  0.14665647952E+03  0.19404912215E+03  0.12509505914E+03 0.  0.
          5    1    3    3  502    0  0.10910859068E+02  0.42124470055E+02  0.13731869447E+03  0.14410903536E+03  0.41800000000E+01 0.  1.
         -5    1    3    3    0  502  0.10702455312E+02 -0.47694895835E+02  0.93377850470E+01  0.49940086784E+02  0.41800000000E+01 0.  1.
        -11    1    1    2    0    0  0.10185052732E+02 -0.18670366247E+02  0.10038145774E+03  0.10260972143E+03  0.00000000000E+00 0.  1.
         11    1    1    2    0    0 -0.31798367112E+02  0.24240792027E+02  0.19222103742E+01  0.40030576336E+02  0.00000000000E+00 0. -1.
</event>
<event>
 7    1  0.8661710E-006  0.1068442E+03  0.7561462E-02  0.1266528E+00
         -2   -1    0    0    0  501 -0.00000000000E+00  0.00000000000E+00  0.12337750844E+03  0.12337750844E+03  0.00000000000E+00 0.  1.
          2   -1    0    0  501    0  0.00000000000E+00 -0.00000000000E+00 -0.16725782278E+03  0.16725782278E+03  0.00000000000E+00 0. -1.
         23    2    1    2    0    0 -0.42777667940E+02 -0.51603011386E+02  0.33316510951E+02  0.14577500680E+03  0.12509021963E+03 0.  0.
          5    1    3    3  502    0 -0.72626239577E-01  0.34884748161E+02  0.34471609934E+02  0.49221085119E+02  0.41800000000E+01 0. -1.
         -5    1    3    3    0  502 -0.42705041701E+02 -0.86487759547E+02 -0.11550989829E+01  0.96553921680E+02  0.41800000000E+01 0. -1.
        -11    1    1    2    0    0  0.60729249866E+01  0.44134279536E+02  0.13650114153E+02  0.46594427397E+02  0.00000000000E+00 0.  1.
         11    1    1    2    0    0  0.36704742954E+02  0.74687318499E+01 -0.90846939448E+02  0.98265897024E+02  0.00000000000E+00 0. -1.
</event>
<event>
 7    1  0.8661710E-006  0.1095747E+03  0.7561462E-02  0.1261359E+00
          2   -1    0    0  501    0  0.00000000000E+00  0.00000000000E+00  0.12382268575E+02  0.12382268575E+02  0.00000000000E+00 0. -1.
         -2   -1    0    0    0  501 -0.00000000000E+00 -0.00000000000E+00 -0.11976455164E+04  0.11976455164E+04  0.00000000000E+00 0.  1.
         23    2    1    2    0    0  0.12167627909E+02  0.28891541689E+02 -0.88692670940E+03  0.89625289056E+03  0.12508990224E+03 0.  0.
          5    1    3    3  502    0  0.63222571061E+02  0.34865686468E+02 -0.38926333676E+03  0.39592439597E+03  0.41800000000E+01 0. -1.
         -5    1    3    3    0  502 -0.51054943151E+02 -0.59741447782E+01 -0.49766337264E+03  0.50032849459E+03  0.41800000000E+01 0. -1.
        -11    1    1    2    0    0 -0.51397083443E+02 -0.19025893054E+02 -0.20171147083E+03  0.20902431020E+03  0.00000000000E+00 0. -1.
         11    1    1    2    0    0  0.39229455534E+02 -0.98656486356E+01 -0.96625067641E+02  0.10475058425E+03  0.00000000000E+00 0.  1.
</event>
<event>
 7    1  0.8661710E-006  0.8688636E+02  0.7561462E-02  0.1310572E+00
          1   -1    0    0  501    0  0.00000000000E+00  0.00000000000E+00  0.22787693856E+02  0.22787693856E+02  0.00000000000E+00 0. -1.
         -1   -1    0    0    0  501 -0.00000000000E+00 -0.00000000000E+00 -0.71273513196E+03  0.71273513196E+03  0.00000000000E+00 0.  1.
         23    2    1    2    0    0  0.47581454400E+02 -0.24089866760E+02 -0.49784444086E+03  0.51608427957E+03  0.12509828072E+03 0.  0.
          5    1    3    3  502    0  0.47451041890E+01  0.18938727019E+02 -0.65188950188E+01  0.21003804111E+02  0.41800000000E+01 0. -1.
         -5    1    3    3    0  502  0.42836350211E+02 -0.43028593780E+02 -0.49132554584E+03  0.49508047546E+03  0.41800000000E+01 0. -1.
        -11    1    1    2    0    0 -0.57895127605E+02 -0.87252075121E+01 -0.16668419001E+03  0.17666803402E+03  0.00000000000E+00 0.  1.
         11    1    1    2    0    0  0.10313673205E+02  0.32815074272E+02 -0.25418807228E+02  0.42770512218E+02  0.00000000000E+00 0. -1.
</event>
<event>
 6    1  0.8661710E-006  0.1278444E+03  0.7561462E-02  0.1230690E+00
         -2   -1    0    0    0  501 -0.00000000000E+00  0.00000000000E+00  0.49458783769E+02  0.49458783769E+02  0.00000000000E+00 0.  1.
          2   -1    0    0  501    0  0.00000000000E+00 -0.00000000000E+00 -0.56211905778E+03  0.56211905778E+03  0.00000000000E+00 0. -1.
          5    1    1    2  502    0 -0.30415820453E+02  0.19613415957E+02 -0.13429170910E+02  0.38828124481E+02  0.41800000000E+01 0. -1.
         -5    1    1    2    0  502  0.10279587134E+03 -0.46067038100E+02 -0.95089406468E+02  0.14747416989E+03  0.41800000000E+01 0.  1.
        -11    1    1    2    0    0 -0.21673507523E+02 -0.25817311144E+02 -0.33415790041E+02  0.47464613209E+02  0.00000000000E+00 0.  1.
         11    1    1    2    0    0 -0.50706543361E+02  0.52270933287E+02 -0.37072590659E+03  0.37781093396E+03  0.00000000000E+00 0. -1.
</event>
<event>
 7    1  0.8661710E-006  0.1120454E+03  0.7561462E-02  0.1256828E+00
         -1   -1    0    0    0  501 -0.00000000000E+00  0.00000000000E+00  0.41717874801E+02  0.41717874801E+02  0.00000000000E+00 0.  1.
          1   -1    0    0  501    0  0.00000000000E+00 -0.00000000000E+00 -0.35835111418E+03  0.35835111418E+03  0.00000000000E+00 0. -1.
         23    2    1    2    0    0  0.16112852369E+01 -0.52262462060E+02 -0.14915817274E+03  0.20156796127E+03  0.12509005291E+03 0.  0.
          5    1    3    3  502    0  0.11517175949E+01  0.35160305042E+02 -0.93777583307E+01  0.36646804163E+02  0.41800000000E+01 0. -1.
         -5    1    3    3    0  502  0.45956764196E+00 -0.87422767102E+02 -0.13978041441E+03  0.16492115711E+03  0.41800000000E+01 0. -1.
        -11    1    1    2    0    0  0.21313191343E+02 -0.17582416813E+02 -0.77717047395E+02  0.82482319087E+02  0.00000000000E+00 0. -1.
         11    1    1    2    0    0 -0.22924476579E+02  0.69844878873E+02 -0.89758019243E+02  0.11601870862E+03  0.00000000000E+00 0.  1.
</event>
<event>
 7    1  0.8661710E-006  0.1129530E+03  0.7561462E-02  0.1255197E+00
         -2   -1    0    0    0  501 -0.00000000000E+00  0.00000000000E+00  0.10674209784E+03  0.10674209784E+03  0.00000000000E+00 0.  1.
          2   -1    0    0  501    0  0.00000000000E+00 -0.00000000000E+00 -0.15367871611E+03  0.15367871611E+03  0.00000000000E+00 0. -1.
         23    2    1    2    0    0  0.56685895976E+02  0.37158854343E+02 -0.14258472259E+02  0.14297555982E+03  0.12507851700E+03 0.  0.
          5    1    3    3  502    0  0.11403938345E+02 -0.30423297489E+02  0.34875046003E+02  0.47847341343E+02  0.41800000000E+01 0. -1.
         -5    1    3    3    0  502  0.45281957631E+02  0.67582151831E+02 -0.49133518263E+02  0.95128218474E+02  0.41800000000E+01 0. -1.
        -11    1    1    2    0    0 -0.62426792946E+01  0.28339653062E+02 -0.15895988908E+02  0.33087602569E+02  0.00000000000E+00 0.  1.
         11    1    1    2    0    0 -0.50443216682E+02 -0.65498507404E+02 -0.16782157101E+02  0.84357651570E+02  0.00000000000E+00 0. -1.
</event>
<event>
 7    1  0.8661710E-006  0.9814606E+02  0.7561462E-02  0.1284244E+00
         -2   -1    0    0    0  501 -0.00000000000E+00  0.00000000000E+00  0.19647598179E+03  0.19647598179E+03  0.00000000000E+00 0.  1.
          2   -1    0    0  501    0  0.00000000000E+00 -0.00000000000E+00 -0.88131622422E+02  0.88131622422E+02  0.00000000000E+00 0. -1.
         23    2    1    2    0    0 -0.52126905333E+02  0.10360841560E+02  0.11879615657E+03  0.18051320304E+03  0.12509167982E+03 0.  0.
          5    1    3    3  502    0  0.35308286155E+02 -0.16158655266E+02  0.14172728126E+02  0.41546550203E+02  0.41800000000E+01 0. -1.
         -5    1    3    3    0  502 -0.87435191488E+02  0.26519496826E+02  0.10462342844E+03  0.13896665284E+03  0.41800000000E+01 0. -1.
        -11    1    1    2    0    0  0.25542788390E+01 -0.15707224021E+02  0.33844855566E+02  0.37399404743E+02  0.00000000000E+00 0.  1.
         11    1    1    2    0    0  0.49572626494E+02  0.53463824603E+01 -0.44296652762E+02  0.66694996430E+02  0.00000000000E+00 0. -1.
</event>
<event>
 7    1  0.8661710E-006  0.1332664E+03  0.7561462E-02  0.1222688E+00
          1   -1    0    0  501    0  0.00000000000E+00  0.00000000000E+00  0.24192830681E+02  0.24192830681E+02  0.00000000000E+00 0. -1.
         -1   -1    0    0    0  501 -0.00000000000E+00 -0.00000000000E+00 -0.12054111309E+04  0.12054111309E+04  0.00000000000E+00 0.  1.
         23    2    1    2    0    0  0.53472288858E+02  0.10597496729E+03 -0.85117851608E+03  0.86847167350E+03  0.12509277383E+03 0.  0.
          5    1    3    3  502    0  0.15212683348E+02  0.56324366616E+02 -0.10955220660E+03  0.12418944552E+03  0.41800000000E+01 0.  1.
         -5    1    3    3    0  502  0.38259605510E+02  0.49650600677E+02 -0.74162630949E+03  0.74428222798E+03  0.41800000000E+01 0.  1.
        -11    1    1    2    0    0  0.22750024861E+02 -0.19666874973E+02 -0.90250042252E+02  0.95128438066E+02  0.00000000000E+00 0.  1.
         11    1    1    2    0    0 -0.76222313719E+02 -0.86308092320E+02 -0.23978974187E+03  0.26600385000E+03  0.00000000000E+00 0. -1.
</event>
<event>
 7    1  0.8661710E-006  0.1647719E+03  0.7561462E-02  0.1183412E+00
         -2   -1    0    0    0  501 -0.00000000000E+00  0.00000000000E+00  0.78757280075E+02  0.78757280075E+02  0.00000000000E+00 0.  1.
          2   -1    0    0  501    0  0.00000000000E+00 -0.00000000000E+00 -0.48048983238E+03  0.48048983238E+03  0.00000000000E+00 0. -1.
         23    2    1    2    0    0 -0.15614901445E+03 -0.36795190820E+02 -0.18411152695E+03  0.27437428366E+03  0.12509113637E+03 0.  0.
          5    1    3    3  502    0 -0.15429028231E+03 -0.43936833181E+02 -0.19996367079E+03  0.25639594100E+03  0.41800000000E+01 0.  1.
         -5    1    3    3    0  502 -0.18587321418E+01  0.71416423604E+01  0.15852143837E+02  0.17978342666E+02  0.41800000000E+01 0.  1.
        -11    1    1    2    0    0  0.89112451877E+02  0.17368746679E+02 -0.50789354628E+02  0.10403009653E+03  0.00000000000E+00 0.  1.
         11    1    1    2    0    0  0.67036562575E+02  0.19426444141E+02 -0.16683167073E+03  0.18084273226E+03  0.00000000000E+00 0. -1.
</event>
<event>
 7    1  0.1239747E-005  0.1723390E+03  0.7561462E-02  0.1175430E+00
          2   -1    0    0  501    0  0.00000000000E+00  0.00000000000E+00  0.73763765915E+03  0.73763765915E+03  0.00000000000E+00 0. -1.
         -2   -1    0    0    0  501 -0.00000000000E+00 -0.00000000000E+00 -0.45529955626E+02  0.45529955626E+02  0.00000000000E+00 0.  1.
         23    2    1    2    0    0  0.14100885725E+03  0.41273209159E+02  0.34936744208E+03  0.39911478311E+03  0.12509206567E+03 0.  0.
          5    1    3    3  502    0  0.50512113791E+02 -0.44293263498E+02  0.14282474167E+03  0.15789156426E+03  0.41800000000E+01 0.  1.
         -5    1    3    3    0  502  0.90496743463E+02  0.85566472656E+02  0.20654270040E+03  0.24122321885E+03  0.41800000000E+01 0.  1.
        -11    1    1    2    0    0 -0.44522157331E+02 -0.33946887471E+02  0.22393241287E+03  0.23082534348E+03  0.00000000000E+00 0. -1.
         11    1    1    2    0    0 -0.96486699922E+02 -0.73263216879E+01  0.11880784858E+03  0.15322748819E+03  0.00000000000E+00 0.  1.
</event>
<event>
 7    1  0.8661710E-006  0.9537212E+02  0.7561462E-02  0.1290340E+00
          3   -1    0    0  501    0  0.00000000000E+00  0.00000000000E+00  0.16577607211E+03  0.16577607211E+03  0.00000000000E+00 0. -1.
         -3   -1    0    0    0  501 -0.00000000000E+00 -0.00000000000E+00 -0.80192173564E+02  0.80192173564E+02  0.00000000000E+00 0.  1.
         23    2    1    2    0    0  0.27045745000E+02  0.24722696522E+01  0.19246600631E+02  0.12944794989E+03  0.12509498653E+03 0.  0.
          5    1    3    3  502    0  0.65165004590E+02 -0.35122725344E+02  0.14365331634E+02  0.75524292858E+02  0.41800000000E+01 0. -1.
         -5    1    3    3    0  502 -0.38119259590E+02  0.37594994996E+02  0.48812689969E+01  0.53923657029E+02  0.41800000000E+01 0. -1.
        -11    1    1    2    0    0  0.10854146887E+02 -0.18737119287E+02  0.71729528707E+02  0.74926747109E+02  0.00000000000E+00 0. -1.
         11    1    1    2    0    0 -0.37899891887E+02  0.16264849635E+02 -0.53922307910E+01  0.41593548678E+02  0.00000000000E+00 0.  1.
</event>
<event>
 7    1  0.8661710E-006  0.1042676E+03  0.7561462E-02  0.1271569E+00
          3   -1    0    0  501    0  0.00000000000E+00  0.00000000000E+00  0.17280185852E+03  0.17280185852E+03  0.00000000000E+00 0. -1.
         -3   -1    0    0    0  501 -0.00000000000E+00 -0.00000000000E+00 -0.94433331004E+02  0.94433331004E+02  0.00000000000E+00 0.  1.
         23    2    1    2    0    0 -0.58872666028E+02  0.30679954610E+02  0.39721049368E+02  0.14708545213E+03  0.12509643498E+03 0.  0.
          5    1    3    3  502    0 -0.64698955353E+02  0.73554203371E+02  0.30078513722E+02  0.10255908075E+03  0.41800000000E+01 0. -1.
         -5    1    3    3    0  502  0.58262893244E+01 -0.42874248761E+02  0.96425356452E+01  0.44526371375E+02  0.41800000000E+01 0. -1.
        -11    1    1    2    0    0  0.44062823377E+02 -0.27270367513E+02 -0.22972913711E+02  0.56682979038E+02  0.00000000000E+00 0.  1.
         11    1    1    2    0    0  0.14809842651E+02 -0.34095870971E+01  0.61620391858E+02  0.63466758356E+02  0.00000000000E+00 0. -1.
</event>
<event>
 6    1  0.8661710E-006  0.1110915E+03  0.7561462E-02  0.1258562E+00
          3   -1    0    0  501    0  0.00000000000E+00  0.00000000000E+00  0.28018863175E+03  0.28018863175E+03  0.00000000000E+00 0. -1.
         -3   -1    0    0    0  501 -0.00000000000E+00 -0.00000000000E+00 -0.67855698362E+02  0.67855698362E+02  0.00000000000E+00 0.  1.
          5    1    1    2  502    0  0.61355203396E+02 -0.79073140802E+02  0.13471075002E+03  0.16787340811E+03  0.41800000000E+01 0. -1.
         -5    1    1    2    0  502 -0.83548255921E+01  0.31696497862E+02 -0.91353297505E+01  0.34284074102E+02  0.41800000000E+01 0.  1.
        -11    1    1    2    0    0 -0.18196444029E+01  0.36622458741E+02 -0.81145863310E+01  0.37554787994E+02  0.00000000000E+00 0.  1.
         11    1    1    2    0    0 -0.51180733401E+02  0.10754184199E+02  0.94872099444E+02  0.10833205990E+03  0.00000000000E+00 0. -1.
</event>
<event>
 7    1  0.8661710E-006  0.1106571E+03  0.7561462E-02  0.1259358E+00
          2   -1    0    0  501    0  0.00000000000E+00  0.00000000000E+00  0.31614725033E+03  0.31614725033E+03  0.00000000000E+00 0. -1.
         -2   -1    0    0    0  501 -0.00000000000E+00 -0.00000000000E+00 -0.61191470567E+02  0.61191470567E+02  0.00000000000E+00 0.  1.
         23    2    1    2    0    0  0.49568054358E+01 -0.85326582298E+02  0.12275972106E+03  0.19499489904E+03  0.12509143044E+03 0.  0.
          5    1    3    3  502    0  0.29747782464E+02 -0.98128522448E+02  0.44594565961E+02  0.11189408024E+03  0.41800000000E+01 0.  1.
         -5    1    3    3    0  502 -0.24790977028E+02  0.12801940150E+02  0.78165155097E+02  0.83100818798E+02  0.41800000000E+01 0.  1.
        -11    1    1    2    0    0  0.11625579980E+02  0.51624190966E+02  0.91624132911E+01  0.53704385482E+02  0.00000000000E+00 0.  1.
         11    1    1    2    0    0 -0.16582385416E+02  0.33702391332E+02  0.12303364541E+03  0.12863943637E+03  0.00000000000E+00 0. -1.
</event>
<event>
 7    1  0.8661710E-006  0.9104511E+02  0.7561462E-02  0.1300340E+00
          1   -1    0    0  501    0  0.00000000000E+00  0.00000000000E+00  0.29563324660E+03  0.29563324660E+03  0.00000000000E+00 0. -1.
         -1   -1    0    0    0  501 -0.00000000000E+00 -0.00000000000E+00 -0.35455149250E+02  0.35455149250E+02  0.00000000000E+00 0.  1.
         23    2    1    2    0    0  0.42658388276E+01  0.93702645913E+01  0.12847190953E+03  0.17151591785E+03  0.11316659976E+03 0.  0.
          5    1    3    3  502    0 -0.47517007841E+02 -0.21604851977E+02  0.69709558728E+02  0.87186757258E+02  0.41800000000E+01 0. -1.
         -5    1    3    3    0  502  0.51782846668E+02  0.30975116569E+02  0.58762350800E+02  0.84329160597E+02  0.41800000000E+01 0.  1.
        -11    1    1    2    0    0  0.32137806474E+02 -0.58629271370E+01  0.12660468392E+02  0.35035695790E+02  0.00000000000E+00 0.  1.
         11    1    1    2    0    0 -0.36403645302E+02 -0.35073374542E+01  0.11904571943E+03  0.12453678221E+03  0.00000000000E+00 0. -1.
</event>
<event>
 7    1  0.8661710E-006  0.1108472E+03  0.7561462E-02  0.1259009E+00
         -2   -1    0    0    0  501 -0.00000000000E+00  0.00000000000E+00  0.17314357383E+03  0.17314357383E+03  0.00000000000E+00 0.  1.
          2   -1    0    0  501    0  0.00000000000E+00 -0.00000000000E+00 -0.86411110506E+02  0.86411110506E+02  0.00000000000E+00 0. -1.
         23    2    1    2    0    0 -0.31388568443E+02 -0.21786857514E+02  0.96127056152E+02  0.16232190628E+03  0.12509228971E+03 0.  0.
          5    1    3    3  502    0  0.99049682015E+01 -0.66591969637E+02  0.35334744203E+02  0.76148639929E+02  0.41800000000E+01 0. -1.
         -5    1    3    3    0  502 -0.41293536645E+02  0.44805112123E+02  0.60792311949E+02  0.86173266348E+02  0.41800000000E+01 0. -1.
        -11    1    1    2    0    0  0.53394955255E+02  0.38250662635E+02  0.56082527343E+01  0.65921065961E+02  0.00000000000E+00 0. -1.
         11    1    1    2    0    0 -0.22006386812E+02 -0.16463805121E+02 -0.15002845563E+02  0.31311712099E+02  0.00000000000E+00 0.  1.
</event>
<event>
 7    1  0.8661710E-006  0.1116876E+03  0.7561462E-02  0.1257476E+00
         -1   -1    0    0    0  501 -0.00000000000E+00  0.00000000000E+00  0.67964452564E+03  0.67964452564E+03  0.00000000000E+00 0.  1.
          1   -1    0    0  501    0  0.00000000000E+00 -0.00000000000E+00 -0.22636259229E+02  0.22636259229E+02  0.00000000000E+00 0. -1.
         23    2    1    2    0    0  0.43132787048E+02 -0.21089154115E+02  0.46950758725E+03  0.48825227722E+03  0.12509085490E+03 0.  0.
          5    1    3    3  502    0 -0.39517373795E+02 -0.31168982780E+02  0.18713873107E+03  0.19383370550E+03  0.41800000000E+01 0.  1.
         -5    1    3    3    0  502  0.82650160843E+02  0.10079828665E+02  0.28236885618E+03  0.29441857172E+03  0.41800000000E+01 0.  1.
        -11    1    1    2    0    0 -0.30135503272E+01 -0.26835235298E+02  0.15754851167E+02  0.31263823732E+02  0.00000000000E+00 0. -1.
         11    1    1    2    0    0 -0.40119236721E+02  0.47924389413E+02  0.17174582799E+03  0.18276468391E+03  0.00000000000E+00 0.  1.
</event>
<event>
 7    1  0.8661710E-006  0.9751937E+02  0.7561462E-02  0.1285601E+00
          3   -1    0    0  501    0  0.00000000000E+00  0.00000000000E+00  0.35441005588E+03  0.35441005588E+03  0.00000000000E+00 0. -1.
         -3   -1    0    0    0  501 -0.00000000000E+00 -0.00000000000E+00 -0.66675367279E+02  0.66675367279E+02  0.00000000000E+00 0.  1.
         23    2    1    2    0    0 -0.33424598061E+01  0.87964299725E+02  0.70658529794E+02  0.16848899400E+03  0.12508806179E+03 0.  0.
          5    1    3    3  502    0 -0.78987511763E+01 -0.57464801713E+01 -0.29399769265E+02  0.31260696366E+02  0.41800000000E+01 0. -1.
         -5    1    3    3    0  502  0.45562913701E+01  0.93710779896E+02  0.10005829906E+03  0.13722829763E+03  0.41800000000E+01 0. -1.
        -11    1    1    2    0    0  0.12179628942E+02 -0.43928880331E+02  0.19904550061E+03  0.20419892556E+03  0.00000000000E+00 0. -1.
         11    1    1    2    0    0 -0.88371691354E+01 -0.44035419394E+02  0.18030658197E+02  0.48397503598E+02  0.00000000000E+00 0.  1.
</event>
<event>
 6    1  0.8661710E-006  0.1039938E+03  0.7561462E-02  0.1272115E+00
          1   -1    0    0  501    0  0.00000000000E+00  0.00000000000E+00  0.11017544368E+03  0.11017544368E+03  0.00000000000E+00 0. -1.
         -1   -1    0    0    0  501 -0.00000000000E+00 -0.00000000000E+00 -0.20745694997E+03  0.20745694997E+03  0.00000000000E+00 0.  1.
          5    1    1    2  502    0 -0.25293642977E+01 -0.87016146875E+02 -0.37617797178E+02  0.94925120833E+02  0.41800000000E+01 0. -1.
         -5    1    1    2    0  502 -0.38963546860E+02  0.39835401708E+02 -0.91626949273E+02  0.10732188708E+03  0.41800000000E+01 0.  1.
        -11    1    1    2    0    0  0.26330326406E+02  0.40680299350E+02  0.63450456773E+02  0.79838169496E+02  0.00000000000E+00 0. -1.
         11    1    1    2    0    0  0.15162584752E+02  0.65004458172E+01 -0.31487216615E+02  0.35547216239E+02  0.00000000000E+00 0.  1.
</event>
<event>
 7    1  0.8661710E-006  0.1201897E+03  0.7561462E-02  0.1242784E+00
          2   -1    0    0  501    0  0.00000000000E+00  0.00000000000E+00  0.31869051231E+03  0.31869051231E+03  0.00000000000E+00 0. -1.
         -2   -1    0    0    0  501 -0.00000000000E+00 -0.00000000000E+00 -0.91293751418E+02  0.91293751418E+02  0.00000000000E+00 0.  1.
         23    2    1    2    0    0 -0.74493221063E+02  0.15295954410E+02 -0.11596844440E+02  0.14319696525E+03  0.12077945956E+03 0.  0.
          5    1    3    3  502    0  0.19290040748E+02  0.36666181908E+02 -0.20676057891E+02  0.46491787852E+02  0.41800000000E+01 0. -1.
         -5    1    3    3    0  502 -0.93783261811E+02 -0.21370227498E+02  0.90792134504E+01  0.96705177401E+02  0.41800000000E+01 0.  1.
        -11    1    1    2    0    0  0.45528152641E+02 -0.42821749677E+02  0.73233543497E+02  0.96279108956E+02  0.00000000000E+00 0.  1.
         11    1    1    2    0    0  0.28965068422E+02  0.27525795267E+02  0.16576006183E+03  0.17050818952E+03  0.00000000000E+00 0. -1.
</event>
<event>
 7    1  0.8661710E-006  0.7710529E+02  0.7561462E-02  0.1337473E+00
          1   -1    0    0  501    0  0.00000000000E+00  0.00000000000E+00  0.54075244125E+02  0.54075244125E+02  0.00000000000E+00 0. -1.
         -1   -1    0    0    0  501 -0.00000000000E+00 -0.00000000000E+00 -0.25644600633E+03  0.25644600633E+03  0.00000000000E+00 0.  1.
         23    2    1    2    0    0  0.16484192378E+02 -0.62866431319E+01 -0.17061153902E+03  0.21229144313E+03  0.12509240224E+03 0.  0.
          5    1    3    3  502    0  0.53016503065E+02 -0.98722118421E+01 -0.20733741371E+02  0.57927287138E+02  0.41800000000E+01 0.  1.
         -5    1    3    3    0  502 -0.36532310688E+02  0.35855687101E+01 -0.14987779765E+03  0.15436415599E+03  0.41800000000E+01 0.  1.
        -11    1    1    2    0    0  0.22736359648E+02 -0.28241389005E+01 -0.49259013420E+02  0.54326496423E+02  0.00000000000E+00 0.  1.
         11    1    1    2    0    0 -0.39220552025E+02  0.91107820324E+01  0.17499790229E+02  0.43903310906E+02  0.00000000000E+00 0. -1.
</event>
<event>
 7    1  0.8661710E-006  0.1008024E+03  0.7561462E-02  0.1278618E+00
          2   -1    0    0  501    0  0.00000000000E+00  0.00000000000E+00  0.26703520382E+03  0.26703520382E+03  0.00000000000E+00 0. -1.
         -2   -1    0    0    0  501 -0.00000000000E+00 -0.00000000000E+00 -0.88749929754E+02  0.88749929754E+02  0.00000000000E+00 0.  1.
         23    2    1    2    0    0  0.65999079753E+02 -0.45546437423E+01 -0.42251156203E+01  0.14156469179E+03  0.12508431977E+03 0.  0.
          5    1    3    3  502    0  0.87953677147E+01  0.26714515579E+02 -0.52927709250E+02  0.60081932745E+02  0.41800000000E+01 0. -1.
         -5    1    3    3    0  502  0.57203712038E+02 -0.31269159322E+02  0.48702593630E+02  0.81482759047E+02  0.41800000000E+01 0. -1.
        -11    1    1    2    0    0 -0.13733374302E+02  0.41582554412E+02  0.46457204757E+02  0.63843451308E+02  0.00000000000E+00 0.  1.
         11    1    1    2    0    0 -0.52265705451E+02 -0.37027910669E+02  0.13605318493E+03  0.15037699047E+03  0.00000000000E+00 0. -1.
</event>
<event>
 7    1  0.8661710E-006  0.9443866E+02  0.7561462E-02  0.1292445E+00
         -1   -1    0    0    0  501 -0.00000000000E+00  0.00000000000E+00  0.16726111010E+03  0.16726111010E+03  0.00000000000E+00 0.  1.
          1   -1    0    0  501    0  0.00000000000E+00 -0.00000000000E+00 -0.14734347572E+03  0.14734347572E+03  0.00000000000E+00 0. -1.
         23    2    1    2    0    0 -0.54602039082E+02 -0.11992480528E+02  0.41187797714E+02  0.13832498288E+03  0.11963345664E+03 0.  0.
          5    1    3    3  502    0 -0.32804860310E+01  0.46570871184E+02 -0.58798727749E+01  0.47240373996E+02  0.41800000000E+01 0. -1.
         -5    1    3    3    0  502 -0.51321553051E+02 -0.58563351712E+02  0.47067670489E+02  0.91084608889E+02  0.41800000000E+01 0.  1.
        -11    1    1    2    0    0  0.35678341002E+02 -0.79266164062E+01 -0.92755386840E+02  0.99696223861E+02  0.00000000000E+00 0. -1.
         11    1    1    2    0    0  0.18923698080E+02  0.19919096934E+02  0.71485223502E+02  0.76583379076E+02  0.00000000000E+00 0.  1.
</event>
<event>
 7    1  0.8661710E-006  0.1346734E+03  0.7561462E-02  0.1220681E+00
          3   -1    0    0  501    0  0.00000000000E+00  0.00000000000E+00  0.21094903136E+03  0.21094903136E+03  0.00000000000E+00 0. -1.
         -3   -1    0    0    0  501 -0.00000000000E+00 -0.00000000000E+00 -0.12233521309E+03  0.12233521309E+03  0.00000000000E+00 0.  1.
         23    2    1    2    0    0 -0.71395371520E+02 -0.64367701384E+02 -0.24654176854E+02  0.15967997559E+03  0.12509742648E+03 0.  0.
          5    1    3    3  502    0 -0.96472069363E+02 -0.50693940540E+02  0.15573451902E+02  0.11016687605E+03  0.41800000000E+01 0. -1.
         -5    1    3    3    0  502  0.25076697843E+02 -0.13673760844E+02 -0.40227628756E+02  0.49513099536E+02  0.41800000000E+01 0. -1.
        -11    1    1    2    0    0 -0.18691176791E+02  0.29288035014E+02  0.26430030010E+02  0.43654273229E+02  0.00000000000E+00 0.  1.
         11    1    1    2    0    0  0.90086548311E+02  0.35079666370E+02  0.86837965114E+02  0.12994999563E+03  0.00000000000E+00 0. -1.
</event>
<event>
 7    1  0.8661710E-006  0.6575826E+02  0.7561462E-02  0.1375142E+00
         -2   -1    0    0    0  501 -0.00000000000E+00  0.00000000000E+00  0.24237050140E+02  0.24237050140E+02  0.00000000000E+00 0.  1.
          2   -1    0    0  501    0  0.00000000000E+00 -0.00000000000E+00 -0.51003189929E+03  0.51003189929E+03  0.00000000000E+00 0. -1.
         23    2    1    2    0    0 -0.12013161811E+02 -0.40427646934E+01 -0.21888627960E+03  0.25242691312E+03  0.12508989994E+03 0.  0.
          5    1    3    3  502    0  0.10761966417E+02  0.90027330013E+01  0.12663203043E+02  0.19357123597E+02  0.41800000000E+01 0. -1.
         -5    1    3    3    0  502 -0.22775128228E+02 -0.13045497695E+02 -0.23154948265E+03  0.23306978953E+03  0.41800000000E+01 0. -1.
        -11    1    1    2    0    0 -0.31090575996E+02 -0.23651947463E+02 -0.10569192739E+03  0.11268017594E+03  0.00000000000E+00 0.  1.
         11    1    1    2    0    0  0.43103737807E+02  0.27694712157E+02 -0.16121664215E+03  0.16916186036E+03  0.00000000000E+00 0. -1.
</event>
<event>
 7    1  0.8661710E-006  0.9746743E+02  0.7561462E-02  0.1285714E+00
         -2   -1    0    0    0  501 -0.00000000000E+00  0.00000000000E+00  0.46835166952E+03  0.46835166952E+03  0.00000000000E+00 0.  1.
          2   -1    0    0  501    0  0.00000000000E+00 -0.00000000000E+00 -0.34232876241E+02  0.34232876241E+02  0.00000000000E+00 0. -1.
         23    2    1    2    0    0 -0.18014643040E+02  0.60443960885E+02  0.27081867049E+03  0.30490590232E+03  0.12508739829E+03 0.  0.
          5    1    3    3  502    0  0.48351299561E+02  0.32703073689E+02  0.68250791560E+02  0.89905406659E+02  0.41800000000E+01 0.  1.
         -5    1    3    3    0  502 -0.66365942601E+02  0.27740887195E+02  0.20256787893E+03  0.21500049566E+03  0.41800000000E+01 0.  1.
        -11    1    1    2    0    0  0.84199664011E+01 -0.47546215871E+02  0.17251812147E+03  0.17914809715E+03  0.00000000000E+00 0.  1.
         11    1    1    2    0    0  0.95946766393E+01 -0.12897745014E+02 -0.92179986788E+01  0.18530546292E+02  0.00000000000E+00 0. -1.
</event>
<event>
 6    1  0.8661710E-006  0.2433864E+03  0.7561462E-02  0.1117557E+00
         -2   -1    0    0    0  501 -0.00000000000E+00  0.00000000000E+00  0.15127189117E+03  0.15127189117E+03  0.00000000000E+00 0.  1.
          2   -1    0    0  501    0  0.00000000000E+00 -0.00000000000E+00 -0.51523179227E+03  0.51523179227E+03  0.00000000000E+00 0. -1.
          5    1    1    2  502    0  0.11169304799E+03 -0.38769856684E+02 -0.72974886137E+02  0.13900088188E+03  0.41800000000E+01 0. -1.
         -5    1    1    2    0  502 -0.12808667311E+02 -0.15040556812E+03  0.39780125134E+01  0.15106023256E+03  0.41800000000E+01 0.  1.
        -11    1    1    2    0    0 -0.52232569785E+02  0.57091860227E+02 -0.17749098111E+03  0.19362533467E+03  0.00000000000E+00 0.  1.
         11    1    1    2    0    0 -0.46651810899E+02  0.13208356457E+03 -0.11747204636E+03  0.18281723433E+03  0.00000000000E+00 0. -1.
</event>
<event>
 7    1  0.8661710E-006  0.4323486E+03  0.7561462E-02  0.1033121E+00
         -2   -1    0    0    0  501 -0.00000000000E+00  0.00000000000E+00  0.28497584209E+03  0.28497584209E+03  0.00000000000E+00 0.  1.
          2   -1    0    0  501    0  0.00000000000E+00 -0.00000000000E+00 -0.68117549283E+03  0.68117549283E+03  0.00000000000E+00 0. -1.
         23    2    1    2    0    0 -0.24249085442E+01 -0.42264927055E+03 -0.26165960271E+03  0.51259358211E+03  0.12509255231E+03 0.  0.
          5    1    3    3  502    0 -0.62810770629E+02 -0.19385132719E+03 -0.11175460974E+03  0.23244374622E+03  0.41800000000E+01 0.  1.
         -5    1    3    3    0  502  0.60385862085E+02 -0.22879794336E+03 -0.14990499298E+03  0.28014983588E+03  0.41800000000E+01 0.  1.
        -11    1    1    2    0    0 -0.14950586454E+02  0.10176557353E+03  0.55247399368E+01  0.10300618788E+03  0.00000000000E+00 0.  1.
         11    1    1    2    0    0  0.17375494998E+02  0.32088369702E+03 -0.14006478796E+03  0.35055156492E+03  0.00000000000E+00 0. -1.
</event>
<event>
 7    1  0.8661710E-006  0.1085093E+03  0.7561462E-02  0.1263356E+00
         -1   -1    0    0    0  501 -0.00000000000E+00  0.00000000000E+00  0.78309505128E+02  0.78309505128E+02  0.00000000000E+00 0.  1.
          1   -1    0    0  501    0  0.00000000000E+00 -0.00000000000E+00 -0.45412087650E+03  0.45412087650E+03  0.00000000000E+00 0. -1.
         23    2    1    2    0    0  0.47072892682E+02  0.58312988634E+02 -0.80490948829E+01  0.14604114823E+03  0.12508783785E+03 0.  0.
          5    1    3    3  502    0 -0.12661137631E+02 -0.30699401630E+02 -0.18520113631E+02  0.38252119882E+02  0.41800000000E+01 0. -1.
         -5    1    3    3    0  502  0.59734030313E+02  0.89012390264E+02  0.10471018748E+02  0.10778902835E+03  0.41800000000E+01 0. -1.
        -11    1    1    2    0    0 -0.45391894926E+01 -0.14553020435E+02 -0.17730773595E+01  0.15347261917E+02  0.00000000000E+00 0.  1.
         11    1    1    2    0    0 -0.42533703189E+02 -0.43759968199E+02 -0.36598919913E+03  0.37104197149E+03  0.00000000000E+00 0. -1.
</event>
<event>
 7    1  0.8661710E-006  0.1177838E+03  0.7561462E-02  0.1246799E+00
          3   -1    0    0  501    0  0.00000000000E+00  0.00000000000E+00  0.51431559930E+02  0.51431559930E+02  0.00000000000E+00 0. -1.
         -3   -1    0    0    0  501 -0.00000000000E+00 -0.00000000000E+00 -0.29705661411E+03  0.29705661411E+03  0.00000000000E+00 0.  1.
         23    2    1    2    0    0 -0.54328244283E+02 -0.29873556896E+02 -0.12083025210E+03  0.18463754078E+03  0.12508830526E+03 0.  0.
          5    1    3    3  502    0 -0.15313580427E+02 -0.72868876159E+02 -0.95466141908E+02  0.12114303739E+03  0.41800000000E+01 0. -1.
         -5    1    3    3    0  502 -0.39014663856E+02  0.42995319263E+02 -0.25364110194E+02  0.63494503386E+02  0.41800000000E+01 0. -1.
        -11    1    1    2    0    0 -0.16583102833E+02  0.27154711364E+02 -0.59229735460E+02  0.67234955280E+02  0.00000000000E+00 0.  1.
         11    1    1    2    0    0  0.70911347116E+02  0.27188455322E+01 -0.65565066617E+02  0.96615677979E+02  0.00000000000E+00 0. -1.
</event>
<event>
 7    1  0.8661710E-006  0.1093327E+03  0.7561462E-02  0.1261811E+00
         -1   -1    0    0    0  501 -0.00000000000E+00  0.00000000000E+00  0.24221689600E+02  0.24221689600E+02  0.00000000000E+00 0.  1.
          1   -1    0    0  501    0  0.00000000000E+00 -0.00000000000E+00 -0.52784025668E+03  0.52784025668E+03  0.00000000000E+00 0. -1.
         23    2    1    2    0    0  0.28881642755E+02  0.12038768869E+02 -0.24868869535E+03  0.28013106579E+03  0.12509302772E+03 0.  0.
          5    1    3    3  502    0  0.72974141362E+02 -0.17768718492E+02 -0.15533673439E+03  0.17259179040E+03  0.41800000000E+01 0. -1.
         -5    1    3    3    0  502 -0.44092498607E+02  0.29807487361E+02 -0.93351960962E+02  0.10753927539E+03  0.41800000000E+01 0. -1.
        -11    1    1    2    0    0  0.29545572217E+02 -0.11276087189E+02 -0.53010959167E+02  0.61727244971E+02  0.00000000000E+00 0. -1.
         11    1    1    2    0    0 -0.58427214972E+02 -0.76268167935E+00 -0.20191891256E+03  0.21020363551E+03  0.00000000000E+00 0.  1.
</event>
<event>
 7    1  0.8661710E-006  0.1002736E+03  0.7561462E-02  0.1279722E+00
         -2   -1    0    0    0  501 -0.00000000000E+00  0.00000000000E+00  0.28634404919E+02  0.28634404919E+02  0.00000000000E+00 0.  1.
          2   -1    0    0  501    0  0.00000000000E+00 -0.00000000000E+00 -0.75480477050E+03  0.75480477050E+03  0.00000000000E+00 0. -1.
         23    2    1    2    0    0  0.95193446471E+02  0.18965625121E+02 -0.44373319507E+03  0.47113508238E+03  0.12509048828E+03 0.  0.
          5    1    3    3  502    0  0.61561506427E+01 -0.25546934726E+01 -0.30338553697E+03  0.30348753037E+03  0.41800000000E+01 0.  1.
         -5    1    3    3    0  502  0.89037295828E+02  0.21520318594E+02 -0.14034765810E+03  0.16764755201E+03  0.41800000000E+01 0.  1.
        -11    1    1    2    0    0 -0.78410623737E+02 -0.40252454171E+01 -0.27867218323E+03  0.28952135365E+03  0.00000000000E+00 0. -1.
         11    1    1    2    0    0 -0.16782822734E+02 -0.14940379704E+02 -0.37649872852E+01  0.22782739385E+02  0.00000000000E+00 0.  1.
</event>
<event>
 7    1  0.8661710E-006  0.9798807E+02  0.7561462E-02  0.1284585E+00
          4   -1    0    0  501    0  0.00000000000E+00  0.00000000000E+00  0.34907457932E+03  0.34907457932E+03  0.00000000000E+00 0. -1.
         -4   -1    0    0    0  501 -0.00000000000E+00 -0.00000000000E+00 -0.44533884264E+02  0.44533884264E+02  0.00000000000E+00 0.  1.
         23    2    1    2    0    0  0.35240967892E+02 -0.37561227373E+02  0.11626440847E+03  0.17837545386E+03  0.12509044025E+03 0.  0.
          5    1    3    3  502    0  0.68724739601E+02 -0.58497281397E+02  0.10180749908E+03  0.13611488175E+03  0.41800000000E+01 0. -1.
         -5    1    3    3    0  502 -0.33483771708E+02  0.20936054024E+02  0.14456909386E+02  0.42260572108E+02  0.41800000000E+01 0. -1.
        -11    1    1    2    0    0 -0.22453057024E+02 -0.36690359489E+01  0.70852017225E+00  0.22761889099E+02  0.00000000000E+00 0.  1.
         11    1    1    2    0    0 -0.12787910868E+02  0.41230263322E+02  0.18756776642E+03  0.19247112063E+03  0.00000000000E+00 0. -1.
</event>
<event>
 7    1  0.8661710E-006  0.1070670E+03  0.7561462E-02  0.1266100E+00
         -2   -1    0    0    0  501 -0.00000000000E+00  0.00000000000E+00  0.45439335450E+02  0.45439335450E+02  0.00000000000E+00 0.  1.
          2   -1    0    0  501    0  0.00000000000E+00 -0.00000000000E+00 -0.38098891291E+03  0.38098891291E+03  0.00000000000E+00 0. -1.
         23    2    1    2    0    0 -0.28084070595E+02  0.63661452941E+02 -0.14505051209E+03  0.20378483884E+03  0.12508842422E+03 0.  0.
          5    1    3    3  502    0 -0.42376678320E+02 -0.89675466865E+00  0.18531986783E+01  0.42632074542E+02  0.41800000000E+01 0. -1.
         -5    1    3    3    0  502  0.14292607725E+02  0.64558207610E+02 -0.14690371077E+03  0.16115276430E+03  0.41800000000E+01 0. -1.
        -11    1    1    2    0    0  0.54976705443E+02 -0.31486012664E+02 -0.15588934196E+03  0.16827148918E+03  0.00000000000E+00 0. -1.
         11    1    1    2    0    0 -0.26892634848E+02 -0.32175440278E+02 -0.34609723409E+02  0.54371920331E+02  0.00000000000E+00 0.  1.
</event>
<event>
 7    1  0.8661710E-006  0.1035221E+03  0.7561462E-02  0.1273059E+00
         -1   -1    0    0    0  501 -0.00000000000E+00  0.00000000000E+00  0.10056685217E+03  0.10056685217E+03  0.00000000000E+00 0.  1.
          1   -1    0    0  501    0  0.00000000000E+00 -0.00000000000E+00 -0.14917947977E+03  0.14917947977E+03  0.00000000000E+00 0. -1.
         23    2    1    2    0    0 -0.16857405506E+02  0.46049488942E+02  0.42770949104E+01  0.13442646883E+03  0.12508978547E+03 0.  0.
          5    1    3    3  502    0  0.41280711325E+02 -0.31747142131E+01  0.32790507182E+02  0.52979861259E+02  0.41800000000E+01 0.  1.
         -5    1    3    3    0  502 -0.58138116831E+02  0.49224203155E+02 -0.28513412272E+02  0.81446607567E+02  0.41800000000E+01 0.  1.
        -11    1    1    2    0    0 -0.29546989176E+02 -0.13681368937E+02  0.65987662730E+01  0.33222705213E+02  0.00000000000E+00 0.  1.
         11    1    1    2    0    0  0.46404394682E+02 -0.32368120005E+02 -0.59488488782E+02  0.82097157905E+02  0.00000000000E+00 0. -1.
</event>
<event>
 7    1  0.8661710E-006  0.1316817E+03  0.7561462E-02  0.1224981E+00
         -2   -1    0    0    0  501 -0.00000000000E+00  0.00000000000E+00  0.87349478593E+02  0.87349478593E+02  0.00000000000E+00 0.  1.
          2   -1    0    0  501    0  0.00000000000E+00 -0.00000000000E+00 -0.22493564878E+03  0.22493564878E+03  0.00000000000E+00 0. -1.
         23    2    1    2    0    0  0.51967285956E+02  0.64186806154E+02 -0.34279052355E+02  0.15376200006E+03  0.12508858596E+03 0.  0.
          5    1    3    3  502    0  0.30803174253E+02 -0.34763714044E+02  0.63057532762E+00  0.46639268684E+02  0.41800000000E+01 0. -1.
         -5    1    3    3    0  502  0.21164111703E+02  0.98950520198E+02 -0.34909627682E+02  0.10712273137E+03  0.41800000000E+01 0. -1.
        -11    1    1    2    0    0 -0.52067470490E+02 -0.80704142165E+00 -0.69028574438E+02  0.86467432528E+02  0.00000000000E+00 0.  1.
         11    1    1    2    0    0  0.10018453474E+00 -0.63379764733E+02 -0.34278543398E+02  0.72055694792E+02  0.00000000000E+00 0. -1.
</event>
<event>
 7    1  0.8661710E-006  0.1131939E+03  0.7561462E-02  0.1254767E+00
         -1   -1    0    0    0  501 -0.00000000000E+00  0.00000000000E+00  0.10317511869E+04  0.10317511869E+04  0.00000000000E+00 0.  1.
          1   -1    0    0  501    0  0.00000000000E+00 -0.00000000000E+00 -0.19114099045E+02  0.19114099045E+02  0.00000000000E+00 0. -1.
         23    2    1    2    0    0 -0.13537387667E+02  0.44509782135E+02  0.82898396889E+03  0.83967194879E+03  0.12518058693E+03 0.  0.
          5    1    3    3  502    0 -0.17689460541E+02  0.87794203256E+02  0.57886829789E+03  0.58577019201E+03  0.41800000000E+01 0. -1.
         -5    1    3    3    0  502  0.41520728734E+01 -0.43284421121E+02  0.25011567100E+03  0.25390175679E+03  0.41800000000E+01 0. -1.
        -11    1    1    2    0    0  0.46874042479E+02 -0.17119416742E+02  0.14470636826E+03  0.15306921082E+03  0.00000000000E+00 0.  1.
         11    1    1    2    0    0 -0.33336654811E+02 -0.27390365393E+02  0.38946750700E+02  0.58124126320E+02  0.00000000000E+00 0. -1.
</event>
<event>
 7    1  0.8661710E-006  0.1163762E+03  0.7561462E-02  0.1249198E+00
          1   -1    0    0  501    0  0.00000000000E+00  0.00000000000E+00  0.21247214914E+02  0.21247214914E+02  0.00000000000E+00 0. -1.
         -1   -1    0    0    0  501 -0.00000000000E+00 -0.00000000000E+00 -0.11009426605E+04  0.11009426605E+04  0.00000000000E+00 0.  1.
         23    2    1    2    0    0 -0.10456201957E+03 -0.50295015295E+01 -0.69759242637E+03  0.71640831469E+03  0.12508864141E+03 0.  0.
          5    1    3    3  502    0  0.39619651565E+01  0.62650171497E+01 -0.38855717231E+03  0.38865035207E+03  0.41800000000E+01 0. -1.
         -5    1    3    3    0  502 -0.10852398472E+03 -0.11294518679E+02 -0.30903525406E+03  0.32775796263E+03  0.41800000000E+01 0. -1.
        -11    1    1    2    0    0  0.94454860490E+02 -0.12035584428E+02 -0.37105695350E+03  0.38307941566E+03  0.00000000000E+00 0.  1.
         11    1    1    2    0    0  0.10107159077E+02  0.17065085957E+02 -0.11046065750E+02  0.22702145094E+02  0.00000000000E+00 0. -1.
</event>
<event>
 7    1  0.8661710E-006  0.1288859E+03  0.7561462E-02  0.1229118E+00
         -2   -1    0    0    0  501 -0.00000000000E+00  0.00000000000E+00  0.42413190127E+02  0.42413190127E+02  0.00000000000E+00 0.  1.
          2   -1    0    0  501    0  0.00000000000E+00 -0.00000000000E+00 -0.42723034203E+03  0.42723034203E+03  0.00000000000E+00 0. -1.
         23    2    1    2    0    0 -0.67465437007E+02 -0.37402752307E+02 -0.18190600250E+03  0.23385475078E+03  0.12509076563E+03 0.  0.
          5    1    3    3  502    0  0.15988620386E+02  0.33380391826E+02 -0.40895026209E+02  0.55315116460E+02  0.41800000000E+01 0. -1.
         -5    1    3    3    0  502 -0.83454057393E+02 -0.70783144132E+02 -0.14101097629E+03  0.17853963432E+03  0.41800000000E+01 0. -1.
        -11    1    1    2    0    0 -0.13470611655E+02 -0.10398434266E+02 -0.68213002888E+01  0.18333438062E+02  0.00000000000E+00 0.  1.
         11    1    1    2    0    0  0.80936048662E+02  0.47801186572E+02 -0.19608984911E+03  0.21745534331E+03  0.00000000000E+00 0. -1.
</event>
<event>
 7    1  0.8661710E-006  0.1461277E+03  0.7561462E-02  0.1205314E+00
         -2   -1    0    0    0  501 -0.00000000000E+00  0.00000000000E+00  0.96058649617E+02  0.96058649617E+02  0.00000000000E+00 0. -1.
          2   -1    0    0  501    0  0.00000000000E+00 -0.00000000000E+00 -0.22756585587E+03  0.22756585587E+03  0.00000000000E+00 0.  1.
         23    2    1    2    0    0  0.76097964075E+02  0.54391631958E+02 -0.82559013225E+02  0.17670590783E+03  0.12513847303E+03 0.  0.
          5    1    3    3  502    0  0.46050515563E+02  0.93487504240E+02 -0.40938322761E+02  0.11204455410E+03  0.41800000000E+01 0. -1.
         -5    1    3    3    0  502  0.30047448513E+02 -0.39095872282E+02 -0.41620690463E+02  0.64661353730E+02  0.41800000000E+01 0. -1.
        -11    1    1    2    0    0 -0.44009967296E+02  0.26552734316E+02 -0.20131485710E+02  0.55201464092E+02  0.00000000000E+00 0.  1.
         11    1    1    2    0    0 -0.32087996779E+02 -0.80944366275E+02 -0.28816707318E+02  0.91717133566E+02  0.00000000000E+00 0. -1.
</event>
<event>
 7    1  0.8661710E-006  0.1310239E+03  0.7561462E-02  0.1225944E+00
          1   -1    0    0  501    0  0.00000000000E+00  0.00000000000E+00  0.17896805379E+03  0.17896805379E+03  0.00000000000E+00 0. -1.
         -1   -1    0    0    0  501 -0.00000000000E+00 -0.00000000000E+00 -0.10939395650E+03  0.10939395650E+03  0.00000000000E+00 0.  1.
         23    2    1    2    0    0 -0.79315709536E+02 -0.24281539989E+02  0.76891636371E+01  0.15029110860E+03  0.12509084349E+03 0.  0.
          5    1    3    3  502    0 -0.10572877170E+02  0.47144960697E+02  0.15102499946E+02  0.50793611364E+02  0.41800000000E+01 0. -1.
         -5    1    3    3    0  502 -0.68742832366E+02 -0.71426500686E+02 -0.74133363089E+01  0.99497497241E+02  0.41800000000E+01 0. -1.
        -11    1    1    2    0    0  0.59101247615E+02 -0.22601291093E+02  0.78986129165E+01  0.63766479554E+02  0.00000000000E+00 0. -1.
         11    1    1    2    0    0  0.20214461921E+02  0.46882831082E+02  0.53986320739E+02  0.74304422129E+02  0.00000000000E+00 0.  1.
</event>
<event>
 6    1  0.8661710E-006  0.3644125E+03  0.7561462E-02  0.1056850E+00
         -1   -1    0    0    0  501 -0.00000000000E+00  0.00000000000E+00  0.16812261979E+03  0.16812261979E+03  0.00000000000E+00 0.  1.
          1   -1    0    0  501    0  0.00000000000E+00 -0.00000000000E+00 -0.97750863953E+03  0.97750863953E+03  0.00000000000E+00 0. -1.
          5    1    1    2  502    0 -0.56703053364E+02  0.15055863812E+03 -0.20231264351E+02  0.16220331757E+03  0.41800000000E+01 0. -1.
         -5    1    1    2    0  502  0.27863280924E+03 -0.17333432516E+03 -0.33325118902E+03  0.46771236679E+03  0.41800000000E+01 0.  1.
        -11    1    1    2    0    0 -0.17601043082E+03  0.54089170788E+02 -0.37192836451E+03  0.41501327507E+03  0.00000000000E+00 0. -1.
         11    1    1    2    0    0 -0.45919325058E+02 -0.31313483748E+02 -0.83975201856E+02  0.10070229990E+03  0.00000000000E+00 0.  1.
</event>
<event>
 7    1  0.8661710E-006  0.1148001E+03  0.7561462E-02  0.1251930E+00
         -1   -1    0    0    0  501 -0.00000000000E+00  0.00000000000E+00  0.28841144514E+02  0.28841144514E+02  0.00000000000E+00 0.  1.
          1   -1    0    0  501    0  0.00000000000E+00 -0.00000000000E+00 -0.48127927365E+03  0.48127927365E+03  0.00000000000E+00 0. -1.
         23    2    1    2    0    0 -0.30196740108E+01  0.41182765423E+02 -0.20903060986E+03  0.24707545731E+03  0.12508935665E+03 0.  0.
          5    1    3    3  502    0 -0.21256415459E+02 -0.40675984481E+02 -0.56036587796E+02  0.72553032214E+02  0.41800000000E+01 0. -1.
         -5    1    3    3    0  502  0.18236741448E+02  0.81858749903E+02 -0.15299402206E+03  0.17452242510E+03  0.41800000000E+01 0. -1.
        -11    1    1    2    0    0  0.45391880876E+02 -0.88509744054E+01 -0.10520516763E+03  0.11492123343E+03  0.00000000000E+00 0.  1.
         11    1    1    2    0    0 -0.42372206865E+02 -0.32331791017E+02 -0.13820235165E+03  0.14812372743E+03  0.00000000000E+00 0. -1.
</event>
<event>
 7    1  0.8661710E-006  0.4074827E+02  0.7561462E-02  0.1502776E+00
         -2   -1    0    0    0  501 -0.00000000000E+00  0.00000000000E+00  0.35485241335E+03  0.35485241335E+03  0.00000000000E+00 0. -1.
          2   -1    0    0  501    0  0.00000000000E+00 -0.00000000000E+00 -0.50863932646E+02  0.50863932646E+02  0.00000000000E+00 0.  1.
         23    2    1    2    0    0  0.32953264107E+01 -0.96799333597E+01  0.29120524158E+03  0.31710067452E+03  0.12509110588E+03 0.  0.
          5    1    3    3  502    0  0.10300824017E+01  0.31737959166E+01 -0.12234027700E+02  0.13352074148E+02  0.41800000000E+01 0. -1.
         -5    1    3    3    0  502  0.22652440090E+01 -0.12853729276E+02  0.30343926928E+03  0.30374860037E+03  0.41800000000E+01 0. -1.
        -11    1    1    2    0    0 -0.32435132532E+02  0.32082023521E+01  0.37626338373E+02  0.49780234271E+02  0.00000000000E+00 0. -1.
         11    1    1    2    0    0  0.29139806121E+02  0.64717310076E+01 -0.24843099245E+02  0.38835437208E+02  0.00000000000E+00 0.  1.
</event>
<event>
 7    1  0.8661710E-006  0.8217299E+02  0.7561462E-02  0.1322996E+00
         -2   -1    0    0    0  501 -0.00000000000E+00  0.00000000000E+00  0.74597851120E+03  0.74597851120E+03  0.00000000000E+00 0.  1.
          2   -1    0    0  501    0  0.00000000000E+00 -0.00000000000E+00 -0.20456285034E+02  0.20456285034E+02  0.00000000000E+00 0. -1.
         23    2    1    2    0    0 -0.48490553110E+01 -0.21868121027E+02  0.57847795087E+03  0.59227199464E+03  0.12509055892E+03 0.  0.
          5    1    3    3  502    0 -0.33560304630E+02  0.14198629044E+01  0.53040630126E+03  0.53148530259E+03  0.41800000000E+01 0.  1.
         -5    1    3    3    0  502  0.28711249319E+02 -0.23287983932E+02  0.48071649619E+02  0.60786692048E+02  0.41800000000E+01 0.  1.
        -11    1    1    2    0    0  0.46868644421E+02  0.22599326255E+01  0.71461320029E+02  0.85489750179E+02  0.00000000000E+00 0. -1.
         11    1    1    2    0    0 -0.42019589110E+02  0.19608188402E+02  0.75582955260E+02  0.88673051414E+02  0.00000000000E+00 0.  1.
</event>
<event>
 7    1  0.8661710E-006  0.1019899E+03  0.7561462E-02  0.1276166E+00
         -1   -1    0    0    0  501 -0.00000000000E+00  0.00000000000E+00  0.10083924419E+04  0.10083924419E+04  0.00000000000E+00 0.  1.
          1   -1    0    0  501    0  0.00000000000E+00 -0.00000000000E+00 -0.17001117086E+02  0.17001117086E+02  0.00000000000E+00 0. -1.
         23    2    1    2    0    0 -0.98951846943E+01 -0.76684310160E+01  0.84707209504E+03  0.85464641400E+03  0.11283899707E+03 0.  0.
          5    1    3    3  502    0 -0.33724346421E+02 -0.52337981643E+02  0.43437748749E+03  0.43883695139E+03  0.41800000000E+01 0. -1.
         -5    1    3    3    0  502  0.23829161726E+02  0.44669550627E+02  0.41269460755E+03  0.41580946262E+03  0.41800000000E+01 0.  1.
        -11    1    1    2    0    0  0.39539246875E+02  0.33218747205E+02  0.90597080666E+02  0.10428167737E+03  0.00000000000E+00 0.  1.
         11    1    1    2    0    0 -0.29644062181E+02 -0.25550316189E+02  0.53722149090E+02  0.66465467596E+02  0.00000000000E+00 0. -1.
</event>
<event>
 7    1  0.8661710E-006  0.6645298E+02  0.7561462E-02  0.1372588E+00
         -2   -1    0    0    0  501 -0.00000000000E+00  0.00000000000E+00  0.62630513500E+02  0.62630513500E+02  0.00000000000E+00 0.  1.
          2   -1    0    0  501    0  0.00000000000E+00 -0.00000000000E+00 -0.19609384621E+03  0.19609384621E+03  0.00000000000E+00 0. -1.
         23    2    1    2    0    0 -0.17928325524E+00  0.20381289940E+02 -0.92504560349E+02  0.15690691140E+03  0.12508899247E+03 0.  0.
          5    1    3    3  502    0  0.18714369957E+02  0.20392943326E+02 -0.12003528742E+03  0.12325600353E+03  0.41800000000E+01 0. -1.
         -5    1    3    3    0  502 -0.18893653213E+02 -0.11653386487E-01  0.27530727069E+02  0.33650907870E+02  0.41800000000E+01 0. -1.
        -11    1    1    2    0    0 -0.26740760284E+02 -0.42842670197E+02 -0.43515254880E+02  0.66664383726E+02  0.00000000000E+00 0. -1.
         11    1    1    2    0    0  0.26920043539E+02  0.22461380257E+02  0.25564825137E+01  0.35153064590E+02  0.00000000000E+00 0.  1.
</event>
<event>
 7    1  0.8661710E-006  0.1031869E+03  0.7561462E-02  0.1273734E+00
         -1   -1    0    0    0  501 -0.00000000000E+00  0.00000000000E+00  0.45310941417E+03  0.45310941417E+03  0.00000000000E+00 0.  1.
          1   -1    0    0  501    0  0.00000000000E+00 -0.00000000000E+00 -0.41819141942E+02  0.41819141942E+02  0.00000000000E+00 0. -1.
         23    2    1    2    0    0  0.50776337961E+02  0.34960440485E+02  0.33584814024E+03  0.36365036916E+03  0.12508856379E+03 0.  0.
          5    1    3    3  502    0  0.78976612167E+02  0.28687195596E+01  0.29100346515E+03  0.30157258488E+03  0.41800000000E+01 0.  1.
         -5    1    3    3    0  502 -0.28200274206E+02  0.32091720926E+02  0.44844675090E+02  0.62077784281E+02  0.41800000000E+01 0.  1.
        -11    1    1    2    0    0 -0.41457691556E+02 -0.51020840664E+02  0.87271595745E+02  0.10926206018E+03  0.00000000000E+00 0.  1.
         11    1    1    2    0    0 -0.93186464053E+01  0.16060400178E+02 -0.11829463764E+02  0.22016126763E+02  0.00000000000E+00 0. -1.
</event>
<event>
 7    1  0.8661710E-006  0.1843991E+03  0.7561462E-02  0.1163612E+00
          1   -1    0    0  501    0  0.00000000000E+00  0.00000000000E+00  0.63121849735E+03  0.63121849735E+03  0.00000000000E+00 0. -1.
         -1   -1    0    0    0  501 -0.00000000000E+00 -0.00000000000E+00 -0.97828462598E+02  0.97828462598E+02  0.00000000000E+00 0.  1.
         23    2    1    2    0    0  0.13608144768E+03  0.90606518832E+02  0.52568312405E+02  0.21245823672E+03  0.12508946089E+03 0.  0.
          5    1    3    3  502    0  0.23361046807E+02  0.70923694289E+02  0.62582350865E+02  0.97518880015E+02  0.41800000000E+01 0.  1.
         -5    1    3    3    0  502  0.11272040087E+03  0.19682824543E+02 -0.10014038460E+02  0.11493935671E+03  0.41800000000E+01 0.  1.
        -11    1    1    2    0    0 -0.10105647549E+03 -0.10109771339E+03  0.30271490968E+03  0.33476779330E+03  0.00000000000E+00 0.  1.
         11    1    1    2    0    0 -0.35024972189E+02  0.10491194557E+02  0.17810681267E+03  0.18182092992E+03  0.00000000000E+00 0. -1.
</event>
<event>
 7    1  0.8661710E-006  0.1123101E+03  0.7561462E-02  0.1256351E+00
         -2   -1    0    0    0  501 -0.00000000000E+00  0.00000000000E+00  0.22170522268E+03  0.22170522268E+03  0.00000000000E+00 0.  1.
          2   -1    0    0  501    0  0.00000000000E+00 -0.00000000000E+00 -0.59883372409E+02  0.59883372409E+02  0.00000000000E+00 0. -1.
         23    2    1    2    0    0  0.19009457504E+02  0.31164888471E+02  0.11201418858E+03  0.17183399732E+03  0.12508850645E+03 0.  0.
          5    1    3    3  502    0 -0.15304662498E+02  0.72579944037E+02  0.79669380408E+02  0.10893467559E+03  0.41800000000E+01 0. -1.
         -5    1    3    3    0  502  0.34314120003E+02 -0.41415055566E+02  0.32344808170E+02  0.62899321735E+02  0.41800000000E+01 0. -1.
        -11    1    1    2    0    0  0.18163255637E+02  0.23853600197E+02  0.24417155478E+02  0.38666465824E+02  0.00000000000E+00 0. -1.
         11    1    1    2    0    0 -0.37172713142E+02 -0.55018488668E+02  0.25390506218E+02  0.71088131946E+02  0.00000000000E+00 0.  1.
</event>
<event>
 7    1  0.8661710E-006  0.1184990E+03  0.7561462E-02  0.1245594E+00
          1   -1    0    0  501    0  0.00000000000E+00  0.00000000000E+00  0.28325116768E+03  0.28325116768E+03  0.00000000000E+00 0. -1.
         -1   -1    0    0    0  501 -0.00000000000E+00 -0.00000000000E+00 -0.55606294620E+02  0.55606294620E+02  0.00000000000E+00 0.  1.
         23    2    1    2    0    0  0.24349093487E+02 -0.34237350091E+02  0.10665564153E+03  0.16968302654E+03  0.12510727049E+03 0.  0.
          5    1    3    3  502    0 -0.50707793742E+02 -0.22171708373E+02  0.50995805194E+02  0.75371808694E+02  0.41800000000E+01 0. -1.
         -5    1    3    3    0  502  0.75056887229E+02 -0.12065641718E+02  0.55659836334E+02  0.94311217844E+02  0.41800000000E+01 0. -1.
        -11    1    1    2    0    0  0.37641622789E+02  0.13719387828E+02  0.11482027307E+02  0.41676735952E+02  0.00000000000E+00 0.  1.
         11    1    1    2    0    0 -0.61990716276E+02  0.20517962263E+02  0.10950720423E+03  0.12749769981E+03  0.00000000000E+00 0. -1.
</event>
<event>
 7    1  0.8661710E-006  0.9768609E+02  0.7561462E-02  0.1285238E+00
          2   -1    0    0  501    0  0.00000000000E+00  0.00000000000E+00  0.51609610528E+02  0.51609610528E+02  0.00000000000E+00 0. -1.
         -2   -1    0    0    0  501 -0.00000000000E+00 -0.00000000000E+00 -0.24508212267E+03  0.24508212267E+03  0.00000000000E+00 0.  1.
         23    2    1    2    0    0 -0.39409138025E+01  0.62677354151E+01 -0.14022425637E+03  0.18804775965E+03  0.12507718626E+03 0.  0.
          5    1    3    3  502    0  0.41328213865E+02  0.36273681276E+02 -0.24904417086E+02  0.60510359485E+02  0.41800000000E+01 0.  1.
         -5    1    3    3    0  502 -0.45269127668E+02 -0.30005945861E+02 -0.11531983929E+03  0.12753740016E+03  0.41800000000E+01 0.  1.
        -11    1    1    2    0    0  0.42004532367E+02 -0.18321709018E+02 -0.51130147469E+02  0.68661180742E+02  0.00000000000E+00 0.  1.
         11    1    1    2    0    0 -0.38063618565E+02  0.12053973603E+02 -0.21181082969E+01  0.39982792807E+02  0.00000000000E+00 0. -1.
</event>
<event>
 7    1  0.8661710E-006  0.1069079E+03  0.7561462E-02  0.1266406E+00
          1   -1    0    0  501    0  0.00000000000E+00  0.00000000000E+00  0.25539392315E+03  0.25539392315E+03  0.00000000000E+00 0. -1.
         -1   -1    0    0    0  501 -0.00000000000E+00 -0.00000000000E+00 -0.87452489951E+02  0.87452489951E+02  0.00000000000E+00 0.  1.
         23    2    1    2    0    0 -0.67492051764E+02 -0.12607985454E+02  0.42855380594E+01  0.14275722356E+03  0.12508845148E+03 0.  0.
          5    1    3    3  502    0  0.28488228052E+02 -0.32343066736E+02  0.10247973710E+02  0.44498836711E+02  0.41800000000E+01 0.  1.
         -5    1    3    3    0  502 -0.95980279816E+02  0.19735081282E+02 -0.59624356502E+01  0.98258386846E+02  0.41800000000E+01 0.  1.
        -11    1    1    2    0    0  0.18852178461E+02  0.14462277085E+02 -0.52295558552E+01  0.24329207666E+02  0.00000000000E+00 0. -1.
         11    1    1    2    0    0  0.48639873303E+02 -0.18542916305E+01  0.16888545100E+03  0.17575998188E+03  0.00000000000E+00 0.  1.
</event>
<event>
 7    1  0.8661710E-006  0.1897313E+03  0.7561462E-02  0.1158704E+00
         -2   -1    0    0    0  501 -0.00000000000E+00  0.00000000000E+00  0.92999271066E+02  0.92999271066E+02  0.00000000000E+00 0.  1.
          2   -1    0    0  501    0  0.00000000000E+00 -0.00000000000E+00 -0.47988670094E+03  0.47988670094E+03  0.00000000000E+00 0. -1.
         23    2    1    2    0    0  0.16731938708E+03  0.14236073851E+02 -0.11126084519E+03  0.23711684456E+03  0.12508788594E+03 0.  0.
          5    1    3    3  502    0  0.95540685303E+02  0.66252930640E+02 -0.39089827223E+02  0.12273125258E+03  0.41800000000E+01 0.  1.
         -5    1    3    3    0  502  0.71778701780E+02 -0.52016856789E+02 -0.72171017968E+02  0.11438559199E+03  0.41800000000E+01 0.  1.
        -11    1    1    2    0    0 -0.61219227149E+02  0.17434340308E+02 -0.39349492787E+02  0.74834033550E+02  0.00000000000E+00 0.  1.
         11    1    1    2    0    0 -0.10610015993E+03 -0.31670414159E+02 -0.23627709190E+03  0.26093509389E+03  0.00000000000E+00 0. -1.
</event>
<event>
 7    1  0.8661710E-006  0.1262678E+03  0.7561462E-02  0.1233101E+00
         -2   -1    0    0    0  501 -0.00000000000E+00  0.00000000000E+00  0.77575554021E+02  0.77575554021E+02  0.00000000000E+00 0.  1.
          2   -1    0    0  501    0  0.00000000000E+00 -0.00000000000E+00 -0.33252189160E+03  0.33252189160E+03  0.00000000000E+00 0. -1.
         23    2    1    2    0    0  0.59012855641E+02  0.88469315408E+02 -0.71145112608E+02  0.17893598415E+03  0.12508845861E+03 0.  0.
          5    1    3    3  502    0  0.47774308156E+02  0.11267128772E+01 -0.76846721636E+02  0.90589983044E+02  0.41800000000E+01 0.  1.
         -5    1    3    3    0  502  0.11238547485E+02  0.87342602530E+02  0.57016090277E+01  0.88346001108E+02  0.41800000000E+01 0.  1.
        -11    1    1    2    0    0 -0.32844764646E+02 -0.11005911798E+02 -0.55890641858E+01  0.35087694390E+02  0.00000000000E+00 0.  1.
         11    1    1    2    0    0 -0.26168090995E+02 -0.77463403610E+02 -0.17821216079E+03  0.19607376708E+03  0.00000000000E+00 0. -1.
</event>
<event>
 7    1  0.8661710E-006  0.7723274E+02  0.7561462E-02  0.1337093E+00
          4   -1    0    0  501    0  0.00000000000E+00  0.00000000000E+00  0.13685584488E+03  0.13685584488E+03  0.00000000000E+00 0. -1.
         -4   -1    0    0    0  501 -0.00000000000E+00 -0.00000000000E+00 -0.10971778474E+03  0.10971778474E+03  0.00000000000E+00 0.  1.
         23    2    1    2    0    0 -0.46473046040E+02 -0.36482855330E+02  0.15697624642E+02  0.13922805447E+03  0.12508914018E+03 0.  0.
          5    1    3    3  502    0 -0.40261320013E+01  0.23185907352E+01  0.63819592740E+02  0.64124865843E+02  0.41800000000E+01 0. -1.
         -5    1    3    3    0  502 -0.42446914039E+02 -0.38801446065E+02 -0.48121968099E+02  0.75103188626E+02  0.41800000000E+01 0. -1.
        -11    1    1    2    0    0  0.16286267782E+02 -0.20432990230E+02 -0.22539933212E+02  0.34507943972E+02  0.00000000000E+00 0.  1.
         11    1    1    2    0    0  0.30186778259E+02  0.56915845560E+02  0.33980368711E+02  0.72837631175E+02  0.00000000000E+00 0. -1.
</event>
<event>
 7    1  0.8661710E-006  0.1120144E+03  0.7561462E-02  0.1256884E+00
          2   -1    0    0  501    0  0.00000000000E+00  0.00000000000E+00  0.19057500878E+03  0.19057500878E+03  0.00000000000E+00 0. -1.
         -2   -1    0    0    0  501 -0.00000000000E+00 -0.00000000000E+00 -0.11148052108E+03  0.11148052108E+03  0.00000000000E+00 0.  1.
         23    2    1    2    0    0  0.74510438355E+01 -0.47294039976E+02 -0.44591681436E+02  0.14117791930E+03  0.12510212857E+03 0.  0.
          5    1    3    3  502    0  0.56465548143E+02  0.92702256734E+00  0.41698017312E+01  0.56780957587E+02  0.41800000000E+01 0. -1.
         -5    1    3    3    0  502 -0.49014504308E+02 -0.48221062543E+02 -0.48761483167E+02  0.84396961711E+02  0.41800000000E+01 0. -1.
        -11    1    1    2    0    0  0.39115418980E+02  0.15218790193E+02  0.76388187232E+02  0.87159524583E+02  0.00000000000E+00 0. -1.
         11    1    1    2    0    0 -0.46566462815E+02  0.32075249783E+02  0.47297981903E+02  0.73718085975E+02  0.00000000000E+00 0.  1.
</event>
<event>
 6    1  0.8661710E-006  0.8697283E+02  0.7561462E-02  0.1310353E+00
          1   -1    0    0  501    0  0.00000000000E+00  0.00000000000E+00  0.33323910050E+02  0.33323910050E+02  0.00000000000E+00 0. -1.
         -1   -1    0    0    0  501 -0.00000000000E+00 -0.00000000000E+00 -0.84683915392E+03  0.84683915392E+03  0.00000000000E+00 0.  1.
          5    1    1    2  502    0  0.40556525912E+02  0.43187943838E+02 -0.10241564815E+03  0.11839116383E+03  0.41800000000E+01 0. -1.
         -5    1    1    2    0  502 -0.23917484065E+02 -0.12975593852E+02 -0.64227002247E+03  0.64285975628E+03  0.41800000000E+01 0.  1.
        -11    1    1    2    0    0  0.30450270878E+02  0.11057077558E+01 -0.84687325595E+00  0.30482105907E+02  0.00000000000E+00 0.  1.
         11    1    1    2    0    0 -0.47089312725E+02 -0.31318057742E+02 -0.67982699983E+02  0.88430037943E+02  0.00000000000E+00 0. -1.
</event>
<event>
 7    1  0.8661710E-006  0.9752784E+02  0.7561462E-02  0.1285582E+00
         -1   -1    0    0    0  501 -0.00000000000E+00  0.00000000000E+00  0.73090696451E+02  0.73090696451E+02  0.00000000000E+00 0.  1.
          1   -1    0    0  501    0  0.00000000000E+00 -0.00000000000E+00 -0.19419015868E+03  0.19419015868E+03  0.00000000000E+00 0. -1.
         23    2    1    2    0    0  0.25566818769E+02 -0.33919337296E+02 -0.39369790754E+02  0.13785257488E+03  0.12509663590E+03 0.  0.
          5    1    3    3  502    0 -0.43443845990E+02 -0.12950290883E+02  0.14448920432E+02  0.47763181323E+02  0.41800000000E+01 0. -1.
         -5    1    3    3    0  502  0.69010664760E+02 -0.20969046413E+02 -0.53818711186E+02  0.90089393559E+02  0.41800000000E+01 0. -1.
        -11    1    1    2    0    0  0.21564684832E+02  0.16033904230E+02 -0.73617536138E+02  0.78368765103E+02  0.00000000000E+00 0.  1.
         11    1    1    2    0    0 -0.47131503601E+02  0.17885433066E+02 -0.81121353407E+01  0.51059515151E+02  0.00000000000E+00 0. -1.
</event>
<event>
 7    1  0.1533014E-005  0.3263387E+03  0.7561462E-02  0.1072768E+00
          2   -1    0    0  501    0  0.00000000000E+00  0.00000000000E+00  0.55011624501E+03  0.55011624501E+03  0.00000000000E+00 0. -1.
         -2   -1    0    0    0  501 -0.00000000000E+00 -0.00000000000E+00 -0.28601852653E+03  0.28601852653E+03  0.00000000000E+00 0.  1.
         23    2    1    2    0    0 -0.31099045227E+03 -0.67286494025E+02 -0.88274835464E+02  0.35310378326E+03  0.12508917419E+03 0.  0.
          5    1    3    3  502    0 -0.20613920167E+03 -0.71525213453E+02 -0.11220638645E+03  0.24539146722E+03  0.41800000000E+01 0.  1.
         -5    1    3    3    0  502 -0.10485125060E+03  0.42387194275E+01  0.23931550990E+02  0.10771231604E+03  0.41800000000E+01 0.  1.
        -11    1    1    2    0    0  0.15838556287E+03 -0.93370820722E+01  0.18814271615E+03  0.24611145701E+03  0.00000000000E+00 0. -1.
         11    1    1    2    0    0  0.15260488939E+03  0.76623576098E+02  0.16422983779E+03  0.23691953128E+03  0.00000000000E+00 0.  1.
</event>
<event>
 7    1  0.8661710E-006  0.8881385E+02  0.7561462E-02  0.1305750E+00
         -1   -1    0    0    0  501 -0.00000000000E+00  0.00000000000E+00  0.76151131328E+03  0.76151131328E+03  0.00000000000E+00 0.  1.
          1   -1    0    0  501    0  0.00000000000E+00 -0.00000000000E+00 -0.21718539503E+02  0.21718539503E+02  0.00000000000E+00 0. -1.
         23    2    1    2    0    0  0.44360978826E+02  0.83136974429E+01  0.56351990879E+03  0.57900401699E+03  0.12511574676E+03 0.  0.
          5    1    3    3  502    0  0.26076369087E+02  0.33774197894E+02  0.56136388052E+02  0.70635967691E+02  0.41800000000E+01 0.  1.
         -5    1    3    3    0  502  0.18284609738E+02 -0.25460500451E+02  0.50738352074E+03  0.50836804930E+03  0.41800000000E+01 0.  1.
        -11    1    1    2    0    0 -0.36054710660E+02  0.40148710004E+02  0.92571429439E+02  0.10715097118E+03  0.00000000000E+00 0. -1.
         11    1    1    2    0    0 -0.83062681656E+01 -0.48462407447E+02  0.83701435551E+02  0.97074864613E+02  0.00000000000E+00 0.  1.
</event>
<event>
 7    1  0.8661710E-006  0.1591577E+03  0.7561462E-02  0.1189651E+00
          1   -1    0    0  501    0  0.00000000000E+00  0.00000000000E+00  0.41315618925E+03  0.41315618925E+03  0.00000000000E+00 0. -1.
         -1   -1    0    0    0  501 -0.00000000000E+00 -0.00000000000E+00 -0.66675620985E+02  0.66675620985E+02  0.00000000000E+00 0.  1.
         23    2    1    2    0    0 -0.90357889165E+02 -0.72911899712E+02  0.11927139239E+03  0.20822060602E+03  0.12509781162E+03 0.  0.
          5    1    3    3  502    0  0.25176219653E+02 -0.43120839887E+02  0.24417548841E+02  0.55739913526E+02  0.41800000000E+01 0.  1.
         -5    1    3    3    0  502 -0.11553410882E+03 -0.29791059826E+02  0.94853843552E+02  0.15248069249E+03  0.41800000000E+01 0.  1.
        -11    1    1    2    0    0  0.85666746359E+02  0.10584523015E+02  0.13102845315E+03  0.15690531888E+03  0.00000000000E+00 0.  1.
         11    1    1    2    0    0  0.46911428061E+01  0.62327376698E+02  0.96180722724E+02  0.11470588534E+03  0.00000000000E+00 0. -1.
</event>
<event>
 7    1  0.8661710E-006  0.1345968E+03  0.7561462E-02  0.1220790E+00
          2   -1    0    0  501    0  0.00000000000E+00  0.00000000000E+00  0.15472473453E+03  0.15472473453E+03  0.00000000000E+00 0. -1.
         -2   -1    0    0    0  501 -0.00000000000E+00 -0.00000000000E+00 -0.14405931752E+03  0.14405931752E+03  0.00000000000E+00 0.  1.
         23    2    1    2    0    0  0.55262594397E+02  0.78773415613E+02 -0.32797447440E+02  0.16118921818E+03  0.12508831341E+03 0.  0.
          5    1    3    3  502    0 -0.35978750220E+02 -0.10602063062E+01 -0.11558225371E+02  0.38034977042E+02  0.41800000000E+01 0. -1.
         -5    1    3    3    0  502  0.91241344618E+02  0.79833621920E+02 -0.21239222069E+02  0.12315424114E+03  0.41800000000E+01 0. -1.
        -11    1    1    2    0    0 -0.63687249833E+02 -0.48020540827E+02 -0.46245795170E+01  0.79896338266E+02  0.00000000000E+00 0.  1.
         11    1    1    2    0    0  0.84246554359E+01 -0.30752874786E+02  0.48087443969E+02  0.57698495599E+02  0.00000000000E+00 0. -1.
</event>
<event>
 7    1  0.8661710E-006  0.9143095E+02  0.7561462E-02  0.1299423E+00
         -1   -1    0    0    0  501 -0.00000000000E+00  0.00000000000E+00  0.29388294939E+02  0.29388294939E+02  0.00000000000E+00 0.  1.
          1   -1    0    0  501    0  0.00000000000E+00 -0.00000000000E+00 -0.67068559493E+03  0.67068559493E+03  0.00000000000E+00 0. -1.
         23    2    1    2    0    0  0.29844366606E+02  0.38167096374E+02 -0.16341823134E+03  0.21142426845E+03  0.12508912619E+03 0.  0.
          5    1    3    3  502    0 -0.22082938702E+02  0.10982208440E+02 -0.14877799442E+03  0.15086626233E+03  0.41800000000E+01 0. -1.
         -5    1    3    3    0  502  0.51927305307E+02  0.27184887934E+02 -0.14640236918E+02  0.60558006122E+02  0.41800000000E+01 0. -1.
        -11    1    1    2    0    0 -0.56987547744E+02 -0.43160096620E+02 -0.39135768940E+03  0.39783315044E+03  0.00000000000E+00 0. -1.
         11    1    1    2    0    0  0.27143181139E+02  0.49930002456E+01 -0.86521379253E+02  0.90816470982E+02  0.00000000000E+00 0.  1.
</event>
<event>
 7    1  0.8661710E-006  0.1542380E+03  0.7561462E-02  0.1195360E+00
         -1   -1    0    0    0  501 -0.00000000000E+00  0.00000000000E+00  0.57656114489E+03  0.57656114489E+03  0.00000000000E+00 0.  1.
          1   -1    0    0  501    0  0.00000000000E+00 -0.00000000000E+00 -0.52155452791E+02  0.52155452791E+02  0.00000000000E+00 0. -1.
         23    2    1    2    0    0  0.92304348291E+02  0.97353204328E+02  0.31543796185E+03  0.36489228131E+03  0.12509008786E+03 0.  0.
          5    1    3    3  502    0  0.11420984096E+03  0.93367282311E+02  0.20765093138E+03  0.25475030693E+03  0.41800000000E+01 0. -1.
         -5    1    3    3    0  502 -0.21905492671E+02  0.39859220176E+01  0.10778703047E+03  0.11014197439E+03  0.41800000000E+01 0. -1.
        -11    1    1    2    0    0 -0.22079867230E+02 -0.46706950982E+02  0.15108978706E+03  0.15967837537E+03  0.00000000000E+00 0.  1.
         11    1    1    2    0    0 -0.70224481061E+02 -0.50646253346E+02  0.57877943192E+02  0.10414594100E+03  0.00000000000E+00 0. -1.
</event>
<event>
 7    1  0.8661710E-006  0.1180693E+03  0.7561462E-02  0.1246316E+00
         -1   -1    0    0    0  501 -0.00000000000E+00  0.00000000000E+00  0.61696064897E+02  0.61696064897E+02  0.00000000000E+00 0.  1.
          1   -1    0    0  501    0  0.00000000000E+00 -0.00000000000E+00 -0.40921498935E+03  0.40921498935E+03  0.00000000000E+00 0. -1.
         23    2    1    2    0    0 -0.18050064936E+02 -0.10025602912E+03 -0.10342333501E+03  0.19162789560E+03  0.12509111850E+03 0.  0.
          5    1    3    3  502    0  0.14110462013E+02 -0.39155109360E+02 -0.11419949786E+03  0.12161918204E+03  0.41800000000E+01 0.  1.
         -5    1    3    3    0  502 -0.32160526949E+02 -0.61100919755E+02  0.10776162852E+02  0.70008713560E+02  0.41800000000E+01 0.  1.
        -11    1    1    2    0    0  0.44733588592E+02  0.43392089135E+02 -0.17567580372E+03  0.18640266994E+03  0.00000000000E+00 0.  1.
         11    1    1    2    0    0 -0.26683523657E+02  0.56863939980E+02 -0.68419785724E+02  0.92880488712E+02  0.00000000000E+00 0. -1.
</event>
<event>
 7    1  0.8661710E-006  0.1754036E+03  0.7561462E-02  0.1172327E+00
          1   -1    0    0  501    0  0.00000000000E+00  0.00000000000E+00  0.76461418527E+02  0.76461418527E+02  0.00000000000E+00 0. -1.
         -1   -1    0    0    0  501 -0.00000000000E+00 -0.00000000000E+00 -0.40571200469E+03  0.40571200469E+03  0.00000000000E+00 0.  1.
         23    2    1    2    0    0  0.99105096646E+02  0.97315662010E+02 -0.17003402807E+03  0.25268832203E+03  0.12509060371E+03 0.  0.
          5    1    3    3  502    0 -0.50310794615E+01  0.79684526397E+02 -0.58830987800E+02  0.99264762293E+02  0.41800000000E+01 0. -1.
         -5    1    3    3    0  502  0.10413617611E+03  0.17631135613E+02 -0.11120304027E+03  0.15342355974E+03  0.41800000000E+01 0. -1.
        -11    1    1    2    0    0 -0.89529607424E+02 -0.26042637934E+02 -0.85645087050E+02  0.12660509678E+03  0.00000000000E+00 0.  1.
         11    1    1    2    0    0 -0.95754892223E+01 -0.71273024076E+02 -0.73571471047E+02  0.10288000441E+03  0.00000000000E+00 0. -1.
</event>
<event>
 7    1  0.8661710E-006  0.2187821E+03  0.7561462E-02  0.1134794E+00
         -2   -1    0    0    0  501 -0.00000000000E+00  0.00000000000E+00  0.54644542743E+02  0.54644542743E+02  0.00000000000E+00 0.  1.
          2   -1    0    0  501    0  0.00000000000E+00 -0.00000000000E+00 -0.10163594769E+04  0.10163594769E+04  0.00000000000E+00 0. -1.
         23    2    1    2    0    0  0.94991492050E+01  0.20650353344E+03 -0.40382547536E+03  0.46892661426E+03  0.11867270900E+03 0.  0.
          5    1    3    3  502    0  0.32435045358E+02  0.32450125996E+02 -0.17220689601E+03  0.17826309286E+03  0.41800000000E+01 0. -1.
         -5    1    3    3    0  502 -0.22935896153E+02  0.17405340744E+03 -0.23161857935E+03  0.29066352140E+03  0.41800000000E+01 0.  1.
        -11    1    1    2    0    0  0.23154245626E+02 -0.40066739024E+02 -0.58006332911E+02  0.74203755459E+02  0.00000000000E+00 0.  1.
         11    1    1    2    0    0 -0.32653394831E+02 -0.16643679441E+03 -0.49988312586E+03  0.52787364989E+03  0.00000000000E+00 0. -1.
</event>
<event>
 7    1  0.8661710E-006  0.2022632E+03  0.7561462E-02  0.1147844E+00
          2   -1    0    0  501    0  0.00000000000E+00  0.00000000000E+00  0.25877045732E+03  0.25877045732E+03  0.00000000000E+00 0. -1.
         -2   -1    0    0    0  501 -0.00000000000E+00 -0.00000000000E+00 -0.20434518479E+03  0.20434518479E+03  0.00000000000E+00 0.  1.
         23    2    1    2    0    0  0.18072633253E+03  0.37375055484E+02 -0.53913569921E+02  0.22937453072E+03  0.12508836989E+03 0.  0.
          5    1    3    3  502    0  0.15955757345E+03  0.62327426163E+02 -0.78259285931E+02  0.18837546425E+03  0.41800000000E+01 0. -1.
         -5    1    3    3    0  502  0.21168759077E+02 -0.24952370679E+02  0.24345716010E+02  0.40999066470E+02  0.41800000000E+01 0. -1.
        -11    1    1    2    0    0 -0.27825391297E+02  0.22698803656E+02 -0.18058368618E+01  0.35954820748E+02  0.00000000000E+00 0.  1.
         11    1    1    2    0    0 -0.15290094123E+03 -0.60073859140E+02  0.11014467931E+03  0.19778629063E+03  0.00000000000E+00 0. -1.
</event>
<event>
 7    1  0.8661710E-006  0.1111444E+03  0.7561462E-02  0.1258465E+00
          2   -1    0    0  501    0  0.00000000000E+00  0.00000000000E+00  0.15539207688E+03  0.15539207688E+03  0.00000000000E+00 0. -1.
         -2   -1    0    0    0  501 -0.00000000000E+00 -0.00000000000E+00 -0.15060136596E+03  0.15060136596E+03  0.00000000000E+00 0.  1.
         23    2    1    2    0    0  0.14930883991E+02  0.73376651525E+02 -0.67592977048E+02  0.16069665615E+03  0.12509012937E+03 0.  0.
          5    1    3    3  502    0 -0.13801928532E+02 -0.26712194806E+02  0.86555971081E+01  0.31566221564E+02  0.41800000000E+01 0. -1.
         -5    1    3    3    0  502  0.28732812523E+02  0.10008884633E+03 -0.76248574156E+02  0.12913043458E+03  0.41800000000E+01 0. -1.
        -11    1    1    2    0    0 -0.31093535276E+02 -0.40281460936E+02 -0.12817503301E+02  0.52475636461E+02  0.00000000000E+00 0.  1.
         11    1    1    2    0    0  0.16162651285E+02 -0.33095190589E+02  0.85201191270E+02  0.92821150232E+02  0.00000000000E+00 0. -1.
</event>
<event>
 7    1  0.8661710E-006  0.1635534E+03  0.7561462E-02  0.1184742E+00
         -2   -1    0    0    0  501 -0.00000000000E+00  0.00000000000E+00  0.63784486562E+03  0.63784486562E+03  0.00000000000E+00 0.  1.
          2   -1    0    0  501    0  0.00000000000E+00 -0.00000000000E+00 -0.77775772939E+02  0.77775772939E+02  0.00000000000E+00 0. -1.
         23    2    1    2    0    0  0.13534958379E+03 -0.58624201329E+02  0.49818976808E+03  0.53117748883E+03  0.11045439240E+03 0.  0.
          5    1    3    3  502    0  0.19109942530E+01 -0.41337017435E+02  0.61773143360E+02  0.74470091648E+02  0.41800000000E+01 0. -1.
         -5    1    3    3    0  502  0.13343858954E+03 -0.17287183895E+02  0.43641662472E+03  0.45670739718E+03  0.41800000000E+01 0.  1.
        -11    1    1    2    0    0 -0.65410811228E+02  0.45647810995E+02  0.77939040752E+02  0.11152036113E+03  0.00000000000E+00 0.  1.
         11    1    1    2    0    0 -0.69938772566E+02  0.12976390334E+02 -0.16059716150E+02  0.72922788599E+02  0.00000000000E+00 0. -1.
</event>
<event>
 7    1  0.8661710E-006  0.9032873E+02  0.7561462E-02  0.1302058E+00
         -1   -1    0    0    0  501 -0.00000000000E+00  0.00000000000E+00  0.33607941538E+02  0.33607941538E+02  0.00000000000E+00 0.  1.
          1   -1    0    0  501    0  0.00000000000E+00 -0.00000000000E+00 -0.57929761492E+03  0.57929761492E+03  0.00000000000E+00 0. -1.
         23    2    1    2    0    0  0.42554976940E+02  0.44337723039E+02 -0.13377830730E+03  0.18730717104E+03  0.11580406329E+03 0.  0.
          5    1    3    3  502    0  0.21152888116E+02 -0.63095075405E+01 -0.13011838312E+03  0.13204363138E+03  0.41800000000E+01 0. -1.
         -5    1    3    3    0  502  0.21402088825E+02  0.50647230579E+02 -0.36599241787E+01  0.55263539666E+02  0.41800000000E+01 0.  1.
        -11    1    1    2    0    0  0.22190179261E+02 -0.28993336675E+02 -0.94938304707E+02  0.10171676031E+03  0.00000000000E+00 0.  1.
         11    1    1    2    0    0 -0.64745156201E+02 -0.15344386364E+02 -0.31697306137E+03  0.32388162510E+03  0.00000000000E+00 0. -1.
</event>
<event>
 7    1  0.8661710E-006  0.1254175E+03  0.7561462E-02  0.1234418E+00
         -2   -1    0    0    0  501 -0.00000000000E+00  0.00000000000E+00  0.33930521346E+02  0.33930521346E+02  0.00000000000E+00 0.  1.
          2   -1    0    0  501    0  0.00000000000E+00 -0.00000000000E+00 -0.47583446675E+03  0.47583446675E+03  0.00000000000E+00 0. -1.
         23    2    1    2    0    0 -0.34963237932E+01  0.66355458059E+02 -0.27446420398E+03  0.30885880990E+03  0.12509154287E+03 0.  0.
          5    1    3    3  502    0 -0.12957496376E+02  0.10282815251E+03 -0.20243867725E+03  0.22746519757E+03  0.41800000000E+01 0.  1.
         -5    1    3    3    0  502  0.94611725828E+01 -0.36472694456E+02 -0.72025526728E+02  0.81393612329E+02  0.41800000000E+01 0.  1.
        -11    1    1    2    0    0 -0.40425828131E+02 -0.44562046176E+02 -0.11004779958E+03  0.12542145643E+03  0.00000000000E+00 0. -1.
         11    1    1    2    0    0  0.43922151924E+02 -0.21793411883E+02 -0.57391941846E+02  0.75484721765E+02  0.00000000000E+00 0.  1.
</event>
<event>
 7    1  0.8661710E-006  0.9566658E+02  0.7561462E-02  0.1289682E+00
         -1   -1    0    0    0  501 -0.00000000000E+00  0.00000000000E+00  0.17125586301E+03  0.17125586301E+03  0.00000000000E+00 0.  1.
          1   -1    0    0  501    0  0.00000000000E+00 -0.00000000000E+00 -0.97614880417E+02  0.97614880417E+02  0.00000000000E+00 0. -1.
         23    2    1    2    0    0  0.29522091928E+02 -0.88762939507E+01  0.11609109255E+03  0.17342094475E+03  0.12508932729E+03 0.  0.
          5    1    3    3  502    0  0.76819298146E+02 -0.18517632605E+02  0.83443197627E+02  0.11499716047E+03  0.41800000000E+01 0. -1.
         -5    1    3    3    0  502 -0.47297206218E+02  0.96413386540E+01  0.32647894921E+02  0.58423784282E+02  0.41800000000E+01 0. -1.
        -11    1    1    2    0    0 -0.46224208638E+02  0.87767458809E+01  0.28823612420E+01  0.47138272547E+02  0.00000000000E+00 0.  1.
         11    1    1    2    0    0  0.16702116710E+02  0.99548069849E-01 -0.45332471197E+02  0.48311526132E+02  0.00000000000E+00 0. -1.
</event>
<event>
 7    1  0.8661710E-006  0.1036881E+03  0.7561462E-02  0.1272726E+00
         -1   -1    0    0    0  501 -0.00000000000E+00  0.00000000000E+00  0.14255839181E+03  0.14255839181E+03  0.00000000000E+00 0.  1.
          1   -1    0    0  501    0  0.00000000000E+00 -0.00000000000E+00 -0.13845051973E+03  0.13845051973E+03  0.00000000000E+00 0. -1.
         23    2    1    2    0    0  0.62433523326E+02 -0.62618065320E+02  0.34211556034E+02  0.15698557113E+03  0.12512023033E+03 0.  0.
          5    1    3    3  502    0  0.70303135608E+02 -0.72798484993E+02  0.67048491048E+02  0.12147066660E+03  0.41800000000E+01 0.  1.
         -5    1    3    3    0  502 -0.78696122821E+01  0.10180419673E+02 -0.32836935013E+02  0.35514904523E+02  0.41800000000E+01 0.  1.
        -11    1    1    2    0    0  0.78090456565E-01  0.12325795302E+02 -0.41222202513E+02  0.43025588990E+02  0.00000000000E+00 0. -1.
         11    1    1    2    0    0 -0.62511613783E+02  0.50292270018E+02  0.11118518557E+02  0.80997751426E+02  0.00000000000E+00 0.  1.
</event>
<event>
 7    1  0.8661710E-006  0.1618600E+03  0.7561462E-02  0.1186613E+00
         -1   -1    0    0    0  501 -0.00000000000E+00  0.00000000000E+00  0.26357759959E+03  0.26357759959E+03  0.00000000000E+00 0.  1.
          1   -1    0    0  501    0  0.00000000000E+00 -0.00000000000E+00 -0.16564556010E+03  0.16564556010E+03  0.00000000000E+00 0. -1.
         23    2    1    2    0    0 -0.12420149047E+03  0.10343461809E+03  0.12880914255E+03  0.24158818054E+03  0.12509325848E+03 0.  0.
          5    1    3    3  502    0 -0.81739475184E+02  0.72550649615E+02  0.78448055263E+01  0.10965378214E+03  0.41800000000E+01 0.  1.
         -5    1    3    3    0  502 -0.42462015286E+02  0.30883968480E+02  0.12096433702E+03  0.13193439840E+03  0.41800000000E+01 0.  1.
        -11    1    1    2    0    0  0.10483901576E+03 -0.89055365814E+02  0.12375078513E+02  0.13811306952E+03  0.00000000000E+00 0.  1.
         11    1    1    2    0    0  0.19362474712E+02 -0.14379252281E+02 -0.43252181564E+02  0.49521909628E+02  0.00000000000E+00 0. -1.
</event>
<event>
 7    1  0.8661710E-006  0.1599670E+03  0.7561462E-02  0.1188734E+00
         -1   -1    0    0    0  501 -0.00000000000E+00  0.00000000000E+00  0.25738622804E+02  0.25738622804E+02  0.00000000000E+00 0.  1.
          1   -1    0    0  501    0  0.00000000000E+00 -0.00000000000E+00 -0.12856693439E+04  0.12856693439E+04  0.00000000000E+00 0. -1.
         23    2    1    2    0    0 -0.14216647553E+03  0.32422147461E+02 -0.68695210175E+03  0.71331135364E+03  0.12508954686E+03 0.  0.
          5    1    3    3  502    0 -0.43896598374E+02 -0.31009056074E+02 -0.89316538978E+02  0.10432348462E+03  0.41800000000E+01 0.  1.
         -5    1    3    3    0  502 -0.98269877159E+02  0.63431203534E+02 -0.59763556277E+03  0.60898786903E+03  0.41800000000E+01 0.  1.
        -11    1    1    2    0    0  0.60518950676E+02  0.15912135904E+01 -0.99834179774E+02  0.11675589408E+03  0.00000000000E+00 0.  1.
         11    1    1    2    0    0  0.81647524857E+02 -0.34013361051E+02 -0.47314443960E+03  0.48134071901E+03  0.00000000000E+00 0. -1.
</event>
<event>
 7    1  0.8661710E-006  0.1134386E+03  0.7561462E-02  0.1254331E+00
          1   -1    0    0  501    0  0.00000000000E+00  0.00000000000E+00  0.71141053057E+02  0.71141053057E+02  0.00000000000E+00 0. -1.
         -1   -1    0    0    0  501 -0.00000000000E+00 -0.00000000000E+00 -0.35380535133E+03  0.35380535133E+03  0.00000000000E+00 0.  1.
         23    2    1    2    0    0 -0.63252249950E+02  0.88300724309E+02 -0.20534542087E+03  0.26377678321E+03  0.12495432945E+03 0.  0.
          5    1    3    3  502    0 -0.53299920020E+02  0.74698587309E+02 -0.44633130535E+02  0.10212908088E+03  0.41800000000E+01 0. -1.
         -5    1    3    3    0  502 -0.99523299297E+01  0.13602137000E+02 -0.16071229034E+03  0.16164770233E+03  0.41800000000E+01 0. -1.
        -11    1    1    2    0    0  0.23892242802E+02 -0.70529550015E+02 -0.89375347678E+02  0.11633232338E+03  0.00000000000E+00 0.  1.
         11    1    1    2    0    0  0.39360007148E+02 -0.17771174293E+02  0.12056470274E+02  0.44837297799E+02  0.00000000000E+00 0. -1.
</event>
<event>
 7    1  0.8661710E-006  0.8069530E+02  0.7561462E-02  0.1327090E+00
          2   -1    0    0  501    0  0.00000000000E+00  0.00000000000E+00  0.62552409623E+02  0.62552409623E+02  0.00000000000E+00 0. -1.
         -2   -1    0    0    0  501 -0.00000000000E+00 -0.00000000000E+00 -0.29825039362E+03  0.29825039362E+03  0.00000000000E+00 0.  1.
         23    2    1    2    0    0  0.47099157186E+02 -0.38664387270E+02 -0.19875778532E+03  0.24262286107E+03  0.12509168651E+03 0.  0.
          5    1    3    3  502    0  0.46183025101E+02 -0.61029179190E+02 -0.48619397248E+02  0.90767564189E+02  0.41800000000E+01 0. -1.
         -5    1    3    3    0  502  0.91613208534E+00  0.22364791921E+02 -0.15013838807E+03  0.15185529688E+03  0.41800000000E+01 0. -1.
        -11    1    1    2    0    0 -0.25217683276E+02  0.13426210924E+02 -0.67255200591E+02  0.73071586107E+02  0.00000000000E+00 0.  1.
         11    1    1    2    0    0 -0.21881473910E+02  0.25238176345E+02  0.30315001920E+02  0.45108356068E+02  0.00000000000E+00 0. -1.
</event>
<event>
 7    1  0.8661710E-006  0.2265930E+03  0.7561462E-02  0.1129061E+00
         -4   -1    0    0    0  501 -0.00000000000E+00  0.00000000000E+00  0.16533474183E+04  0.16533474183E+04  0.00000000000E+00 0.  1.
          4   -1    0    0  501    0  0.00000000000E+00 -0.00000000000E+00 -0.34578901266E+02  0.34578901266E+02  0.00000000000E+00 0. -1.
         23    2    1    2    0    0  0.14341112676E+03  0.15607924710E+03  0.91942224928E+03  0.95179440404E+03  0.12509129640E+03 0.  0.
          5    1    3    3  502    0  0.14796081793E+03  0.16579554027E+03  0.91048173666E+03  0.93721663985E+03  0.41800000000E+01 0. -1.
         -5    1    3    3    0  502 -0.45496911684E+01 -0.97162931766E+01  0.89405126143E+01  0.14577764185E+02  0.41800000000E+01 0. -1.
        -11    1    1    2    0    0 -0.53284481025E+02 -0.21530123953E+02  0.10046721183E+03  0.11574300328E+03  0.00000000000E+00 0. -1.
         11    1    1    2    0    0 -0.90126645739E+02 -0.13454912315E+03  0.59887905589E+03  0.62038891222E+03  0.00000000000E+00 0.  1.
</event>
<event>
 7    1  0.8661710E-006  0.1078813E+03  0.7561462E-02  0.1264545E+00
         -1   -1    0    0    0  501 -0.00000000000E+00  0.00000000000E+00  0.27791246250E+03  0.27791246250E+03  0.00000000000E+00 0.  1.
          1   -1    0    0  501    0  0.00000000000E+00 -0.00000000000E+00 -0.49351984622E+02  0.49351984622E+02  0.00000000000E+00 0. -1.
         23    2    1    2    0    0  0.25680233129E+01 -0.35626281343E+02  0.15839380140E+03  0.20497886728E+03  0.12510760585E+03 0.  0.
          5    1    3    3  502    0  0.46979997365E+02 -0.58721737773E+02  0.67552139121E+02  0.10117374432E+03  0.41800000000E+01 0.  1.
         -5    1    3    3    0  502 -0.44411974053E+02  0.23095456429E+02  0.90841662277E+02  0.10380512296E+03  0.41800000000E+01 0.  1.
        -11    1    1    2    0    0 -0.34384302192E+02 -0.88709136837E+01  0.29633558899E+01  0.35633619307E+02  0.00000000000E+00 0. -1.
         11    1    1    2    0    0  0.31816278879E+02  0.44497195027E+02  0.67203320589E+02  0.86651960538E+02  0.00000000000E+00 0.  1.
</event>
<event>
 7    1  0.8661710E-006  0.1350466E+03  0.7561462E-02  0.1220154E+00
         -1   -1    0    0    0  501 -0.00000000000E+00  0.00000000000E+00  0.55266786243E+02  0.55266786243E+02  0.00000000000E+00 0.  1.
          1   -1    0    0  501    0  0.00000000000E+00 -0.00000000000E+00 -0.39551968542E+03  0.39551968542E+03  0.00000000000E+00 0. -1.
         23    2    1    2    0    0  0.89291275966E+02  0.46174459300E+02 -0.20053389236E+03  0.25683990084E+03  0.12509148662E+03 0.  0.
          5    1    3    3  502    0  0.77685243563E+02 -0.28671848509E+02 -0.85960014117E+02  0.11943060073E+03  0.41800000000E+01 0. -1.
         -5    1    3    3    0  502  0.11606032404E+02  0.74846307810E+02 -0.11457387825E+03  0.13740930011E+03  0.41800000000E+01 0. -1.
        -11    1    1    2    0    0 -0.70037625770E+02 -0.56032720725E+02 -0.14606363427E+03  0.17140455091E+03  0.00000000000E+00 0.  1.
         11    1    1    2    0    0 -0.19253650197E+02  0.98582614254E+01  0.63446274541E+01  0.22542019913E+02  0.00000000000E+00 0. -1.
</event>
<event>
 7    1  0.8661710E-006  0.1005125E+03  0.7561462E-02  0.1279222E+00
          2   -1    0    0  501    0  0.00000000000E+00  0.00000000000E+00  0.13958098645E+03  0.13958098645E+03  0.00000000000E+00 0. -1.
         -2   -1    0    0    0  501 -0.00000000000E+00 -0.00000000000E+00 -0.90925703501E+02  0.90925703501E+02  0.00000000000E+00 0.  1.
         23    2    1    2    0    0 -0.28325343689E+02  0.18650995365E+01  0.17787732772E+02  0.12950163840E+03  0.12509383366E+03 0.  0.
          5    1    3    3  502    0 -0.63400125052E+02 -0.19066467832E+02 -0.24352825150E+02  0.70665681522E+02  0.41800000000E+01 0.  1.
         -5    1    3    3    0  502  0.35074781363E+02  0.20931567369E+02  0.42140557923E+02  0.58835956882E+02  0.41800000000E+01 0.  1.
        -11    1    1    2    0    0  0.56630299602E+02  0.17570911313E+02  0.81899788538E+01  0.59856524381E+02  0.00000000000E+00 0. -1.
         11    1    1    2    0    0 -0.28304955913E+02 -0.19436010850E+02  0.22677571328E+02  0.41148527170E+02  0.00000000000E+00 0.  1.
</event>
<event>
 7    1  0.8661710E-006  0.8173636E+02  0.7561462E-02  0.1324195E+00
         -2   -1    0    0    0  501 -0.00000000000E+00  0.00000000000E+00  0.22655079879E+02  0.22655079879E+02  0.00000000000E+00 0.  1.
          2   -1    0    0  501    0  0.00000000000E+00 -0.00000000000E+00 -0.59463223812E+03  0.59463223812E+03  0.00000000000E+00 0. -1.
         23    2    1    2    0    0  0.26179668596E+02 -0.29946041799E+01 -0.24377137885E+03  0.27495165986E+03  0.12441699005E+03 0.  0.
          5    1    3    3  502    0  0.46380887296E+02  0.64638680091E+01 -0.21800645961E+02  0.51823825219E+02  0.41800000000E+01 0.  1.
         -5    1    3    3    0  502 -0.20201218700E+02 -0.94584721889E+01 -0.22197073289E+03  0.22312783464E+03  0.41800000000E+01 0.  1.
        -11    1    1    2    0    0  0.17840755356E+02  0.35035770217E+02 -0.94129514154E+02  0.10201060328E+03  0.00000000000E+00 0.  1.
         11    1    1    2    0    0 -0.44020423951E+02 -0.32041166037E+02 -0.23407626523E+03  0.24032505486E+03  0.00000000000E+00 0. -1.
</event>
<event>
 6    1  0.8661710E-006  0.2493654E+03  0.7561462E-02  0.1113707E+00
          1   -1    0    0  501    0  0.00000000000E+00  0.00000000000E+00  0.19185731634E+04  0.19185731634E+04  0.00000000000E+00 0.  1.
         -1   -1    0    0    0  501 -0.00000000000E+00 -0.00000000000E+00 -0.33773081671E+02  0.33773081671E+02  0.00000000000E+00 0. -1.
          5    1    1    2  502    0 -0.19119947465E+03  0.12173786652E+03  0.86749168620E+03  0.89662514201E+03  0.41800000000E+01 0. -1.
         -5    1    1    2    0  502  0.13916515210E+03 -0.10283964382E+03  0.57305214896E+03  0.59862272737E+03  0.41800000000E+01 0.  1.
        -11    1    1    2    0    0  0.65627783165E+02 -0.37737588572E+02  0.40014672823E+03  0.40724505599E+03  0.00000000000E+00 0.  1.
         11    1    1    2    0    0 -0.13593460616E+02  0.18839365868E+02  0.44109518374E+02  0.49853319739E+02  0.00000000000E+00 0. -1.
</event>
<event>
 7    1  0.8661710E-006  0.5836654E+02  0.7561462E-02  0.1404817E+00
         -2   -1    0    0    0  501 -0.00000000000E+00  0.00000000000E+00  0.48341248520E+02  0.48341248520E+02  0.00000000000E+00 0.  1.
          2   -1    0    0  501    0  0.00000000000E+00 -0.00000000000E+00 -0.28202500021E+03  0.28202500021E+03  0.00000000000E+00 0. -1.
         23    2    1    2    0    0  0.25252472241E+02 -0.14455648594E+02 -0.78993474965E+02  0.15077261682E+03  0.12508301150E+03 0.  0.
          5    1    3    3  502    0  0.14073683260E+02 -0.34959914308E+02  0.24137224108E+02  0.44948216389E+02  0.41800000000E+01 0.  1.
         -5    1    3    3    0  502  0.11178788981E+02  0.20504265715E+02 -0.10313069907E+03  0.10582440043E+03  0.41800000000E+01 0.  1.
        -11    1    1    2    0    0 -0.38880907269E+02  0.68369656791E+01 -0.15864838704E+03  0.16348632897E+03  0.00000000000E+00 0. -1.
         11    1    1    2    0    0  0.13628435029E+02  0.76186829145E+01  0.39581103157E+01  0.16107302939E+02  0.00000000000E+00 0.  1.
</event>
<event>
 7    1  0.8661710E-006  0.9652698E+02  0.7561462E-02  0.1287774E+00
          2   -1    0    0  501    0  0.00000000000E+00  0.00000000000E+00  0.51259798215E+02  0.51259798215E+02  0.00000000000E+00 0. -1.
         -2   -1    0    0    0  501 -0.00000000000E+00 -0.00000000000E+00 -0.57521952065E+03  0.57521952065E+03  0.00000000000E+00 0.  1.
         23    2    1    2    0    0 -0.67076064488E+02 -0.18769433249E+02 -0.48554184902E+03  0.50621062462E+03  0.12508724669E+03 0.  0.
          5    1    3    3  502    0 -0.41872147802E+02  0.86723057293E+01 -0.45719004615E+03  0.45920441673E+03  0.41800000000E+01 0.  1.
         -5    1    3    3    0  502 -0.25203916686E+02 -0.27441738979E+02 -0.28351802864E+02  0.47006207889E+02  0.41800000000E+01 0.  1.
        -11    1    1    2    0    0  0.47134111773E+02 -0.32721104746E+02 -0.28869130645E+02  0.64231782574E+02  0.00000000000E+00 0.  1.
         11    1    1    2    0    0  0.19941952714E+02  0.51490537995E+02 -0.95487427788E+01  0.56036911672E+02  0.00000000000E+00 0. -1.
</event>
<event>
 7    1  0.8661710E-006  0.1249476E+03  0.7561462E-02  0.1235151E+00
          1   -1    0    0  501    0  0.00000000000E+00  0.00000000000E+00  0.96516003177E+02  0.96516003177E+02  0.00000000000E+00 0.  1.
         -1   -1    0    0    0  501 -0.00000000000E+00 -0.00000000000E+00 -0.24615089694E+03  0.24615089694E+03  0.00000000000E+00 0. -1.
         23    2    1    2    0    0  0.48228279230E+02 -0.97906335601E+02 -0.78722991135E+02  0.18372785593E+03  0.12508796202E+03 0.  0.
          5    1    3    3  502    0  0.55055320042E+01 -0.61162402645E+02  0.24341530525E+02  0.66190126819E+02  0.41800000000E+01 0.  1.
         -5    1    3    3    0  502  0.42722747226E+02 -0.36743932956E+02 -0.10306452166E+03  0.11753772911E+03  0.41800000000E+01 0.  1.
        -11    1    1    2    0    0 -0.44968178859E+02  0.12917204687E+02  0.21196977423E+01  0.46834649623E+02  0.00000000000E+00 0.  1.
         11    1    1    2    0    0 -0.32601003712E+01  0.84989130914E+02 -0.73031600371E+02  0.11210439456E+03  0.00000000000E+00 0. -1.
</event>
<event>
 7    1  0.8661710E-006  0.1622841E+03  0.7561462E-02  0.1186142E+00
          1   -1    0    0  501    0  0.00000000000E+00  0.00000000000E+00  0.80242750898E+03  0.80242750898E+03  0.00000000000E+00 0. -1.
         -1   -1    0    0    0  501 -0.00000000000E+00 -0.00000000000E+00 -0.45945046565E+02  0.45945046565E+02  0.00000000000E+00 0.  1.
         23    2    1    2    0    0  0.11264821731E+02  0.12512059718E+03  0.18468516272E+03  0.25600301516E+03  0.12508746698E+03 0.  0.
          5    1    3    3  502    0 -0.53106213533E+02  0.37775525667E+02  0.94404687615E+02  0.11479101750E+03  0.41800000000E+01 0. -1.
         -5    1    3    3    0  502  0.64371035264E+02  0.87345071510E+02  0.90280475102E+02  0.14121199766E+03  0.41800000000E+01 0. -1.
        -11    1    1    2    0    0 -0.46522465540E+02 -0.53832019881E+02  0.20339122534E+03  0.21547671965E+03  0.00000000000E+00 0.  1.
         11    1    1    2    0    0  0.35257643809E+02 -0.71288577297E+02  0.36840607436E+03  0.37689282074E+03  0.00000000000E+00 0. -1.
</event>
<event>
 7    1  0.8661710E-006  0.1523540E+03  0.7561462E-02  0.1197610E+00
          4   -1    0    0  501    0  0.00000000000E+00  0.00000000000E+00  0.35275500973E+03  0.35275500973E+03  0.00000000000E+00 0. -1.
         -4   -1    0    0    0  501 -0.00000000000E+00 -0.00000000000E+00 -0.74560736353E+02  0.74560736353E+02  0.00000000000E+00 0.  1.
         23    2    1    2    0    0 -0.11640614715E+03  0.16184555171E+01  0.11613111788E+03  0.20660960509E+03  0.12509229346E+03 0.  0.
          5    1    3    3  502    0  0.90324159699E+01  0.28599968936E+02  0.58537933646E+02  0.65906789005E+02  0.41800000000E+01 0.  1.
         -5    1    3    3    0  502 -0.12543856312E+03 -0.26981513419E+02  0.57593184230E+02  0.14070281608E+03  0.41800000000E+01 0.  1.
        -11    1    1    2    0    0  0.90413126079E+02  0.38482233966E+02  0.84474386582E+02  0.12958139406E+03  0.00000000000E+00 0.  1.
         11    1    1    2    0    0  0.25993021071E+02 -0.40100689483E+02  0.77588768919E+02  0.91124746934E+02  0.00000000000E+00 0. -1.
</event>
<event>
 7    1  0.8661710E-006  0.2741254E+03  0.7561462E-02  0.1098941E+00
         -2   -1    0    0    0  501 -0.00000000000E+00  0.00000000000E+00  0.20834923620E+03  0.20834923620E+03  0.00000000000E+00 0.  1.
          2   -1    0    0  501    0  0.00000000000E+00 -0.00000000000E+00 -0.49035066366E+03  0.49035066366E+03  0.00000000000E+00 0. -1.
         23    2    1    2    0    0  0.14305252772E+03  0.21351504655E+03  0.28767549919E+02  0.28726387006E+03  0.12506101841E+03 0.  0.
          5    1    3    3  502    0  0.16042469144E+02  0.13536977140E+03  0.76778533349E+01  0.13659706314E+03  0.41800000000E+01 0. -1.
         -5    1    3    3    0  502  0.12701005857E+03  0.78145275144E+02  0.21089696584E+02  0.15066680692E+03  0.41800000000E+01 0. -1.
        -11    1    1    2    0    0 -0.21746189459E+02 -0.64118359536E+01 -0.59023063713E+01  0.23427454338E+02  0.00000000000E+00 0.  1.
         11    1    1    2    0    0 -0.12130633826E+03 -0.20710321059E+03 -0.30486667100E+03  0.38800857546E+03  0.00000000000E+00 0. -1.
</event>
<event>
 7    1  0.8661710E-006  0.1080052E+03  0.7561462E-02  0.1264309E+00
         -1   -1    0    0    0  501 -0.00000000000E+00  0.00000000000E+00  0.41449183373E+02  0.41449183373E+02  0.00000000000E+00 0.  1.
          1   -1    0    0  501    0  0.00000000000E+00 -0.00000000000E+00 -0.30391761470E+03  0.30391761470E+03  0.00000000000E+00 0. -1.
         23    2    1    2    0    0  0.19964927918E+02 -0.25090737762E+02 -0.16438122592E+03  0.20903788962E+03  0.12509000118E+03 0.  0.
          5    1    3    3  502    0 -0.25465082328E+02  0.36780107292E+02 -0.96652388102E+02  0.10658519239E+03  0.41800000000E+01 0. -1.
         -5    1    3    3    0  502  0.45430010246E+02 -0.61870845054E+02 -0.67728837815E+02  0.10245269723E+03  0.41800000000E+01 0. -1.
        -11    1    1    2    0    0 -0.44451660730E+02  0.44547713034E+02 -0.58945750375E+02  0.86226738112E+02  0.00000000000E+00 0.  1.
         11    1    1    2    0    0  0.24486732812E+02 -0.19456975273E+02 -0.39141455034E+02  0.50102170340E+02  0.00000000000E+00 0. -1.
</event>
<event>
 7    1  0.8661710E-006  0.1300355E+03  0.7561462E-02  0.1227403E+00
         -1   -1    0    0    0  501 -0.00000000000E+00  0.00000000000E+00  0.53294810809E+02  0.53294810809E+02  0.00000000000E+00 0.  1.
          1   -1    0    0  501    0  0.00000000000E+00 -0.00000000000E+00 -0.38323475583E+03  0.38323475583E+03  0.00000000000E+00 0. -1.
         23    2    1    2    0    0 -0.87067851697E+02 -0.18041509402E+02 -0.14644266793E+03  0.21213099400E+03  0.12509115383E+03 0.  0.
          5    1    3    3  502    0 -0.38526902625E+02  0.47147467455E+02 -0.10339573590E+03  0.12006396843E+03  0.41800000000E+01 0.  1.
         -5    1    3    3    0  502 -0.48540949072E+02 -0.65188976857E+02 -0.43046932030E+02  0.92067025572E+02  0.41800000000E+01 0.  1.
        -11    1    1    2    0    0  0.34616049062E+02 -0.30540790849E+02 -0.29963033727E+02  0.55034481450E+02  0.00000000000E+00 0.  1.
         11    1    1    2    0    0  0.52451802635E+02  0.48582300251E+02 -0.15353424336E+03  0.16936409118E+03  0.00000000000E+00 0. -1.
</event>
<event>
 7    1  0.8661710E-006  0.1473992E+03  0.7561462E-02  0.1203706E+00
         -3   -1    0    0    0  501 -0.00000000000E+00  0.00000000000E+00  0.57765724587E+03  0.57765724587E+03  0.00000000000E+00 0.  1.
          3   -1    0    0  501    0  0.00000000000E+00 -0.00000000000E+00 -0.37984050835E+02  0.37984050835E+02  0.00000000000E+00 0. -1.
         23    2    1    2    0    0  0.39090176033E+02 -0.90915256969E+02  0.28734697240E+03  0.32864881786E+03  0.12509251425E+03 0.  0.
          5    1    3    3  502    0 -0.88571898916E+01 -0.10790488072E+03  0.20111426013E+03  0.22844327769E+03  0.41800000000E+01 0.  1.
         -5    1    3    3    0  502  0.47947365925E+02  0.16989623753E+02  0.86232712268E+02  0.10020554016E+03  0.41800000000E+01 0.  1.
        -11    1    1    2    0    0  0.50936977369E+01  0.91083590255E+02  0.18785121988E+03  0.20883066581E+03  0.00000000000E+00 0.  1.
         11    1    1    2    0    0 -0.44183873770E+02 -0.16833328656E+00  0.64475002762E+02  0.78161813046E+02  0.00000000000E+00 0. -1.
</event>
<event>
 7    1  0.8661710E-006  0.9298926E+02  0.7561462E-02  0.1295770E+00
          1   -1    0    0  501    0  0.00000000000E+00  0.00000000000E+00  0.78748452156E+03  0.78748452156E+03  0.00000000000E+00 0. -1.
         -1   -1    0    0    0  501 -0.00000000000E+00 -0.00000000000E+00 -0.18831048461E+02  0.18831048461E+02  0.00000000000E+00 0.  1.
         23    2    1    2    0    0 -0.24537197660E+02 -0.45416527347E+02  0.32578664304E+03  0.35277652937E+03  0.12509839274E+03 0.  0.
          5    1    3    3  502    0 -0.28160572084E+02  0.12490719540E+02  0.11493223401E+02  0.33145172784E+02  0.41800000000E+01 0. -1.
         -5    1    3    3    0  502  0.36233744240E+01 -0.57907246887E+02  0.31429341964E+03  0.31963135659E+03  0.41800000000E+01 0. -1.
        -11    1    1    2    0    0  0.31011794663E+01  0.66546932979E+02  0.33451154606E+03  0.34108076178E+03  0.00000000000E+00 0.  1.
         11    1    1    2    0    0  0.21436018194E+02 -0.21130405633E+02  0.10835528399E+03  0.11245827887E+03  0.00000000000E+00 0. -1.
</event>
<event>
 7    1  0.8661710E-006  0.1592302E+03  0.7561462E-02  0.1189569E+00
          1   -1    0    0  501    0  0.00000000000E+00  0.00000000000E+00  0.22736247750E+03  0.22736247750E+03  0.00000000000E+00 0. -1.
         -1   -1    0    0    0  501 -0.00000000000E+00 -0.00000000000E+00 -0.24807233973E+03  0.24807233973E+03  0.00000000000E+00 0.  1.
         23    2    1    2    0    0 -0.86965548512E+02 -0.99523004425E+02 -0.17530980726E+03  0.25268217542E+03  0.12508764214E+03 0.  0.
          5    1    3    3  502    0 -0.45323001187E+02  0.78982715899E+01 -0.42374082791E+01  0.46389494066E+02  0.41800000000E+01 0. -1.
         -5    1    3    3    0  502 -0.41642547325E+02 -0.10742127601E+03 -0.17107239898E+03  0.20629268136E+03  0.41800000000E+01 0. -1.
        -11    1    1    2    0    0 -0.14256950753E+02  0.32743005878E+02  0.56194776308E+02  0.66582414818E+02  0.00000000000E+00 0. -1.
         11    1    1    2    0    0  0.10122249927E+03  0.66779998547E+02  0.98405168727E+02  0.15617022698E+03  0.00000000000E+00 0.  1.
</event>
<event>
 7    1  0.8661710E-006  0.1078883E+03  0.7561462E-02  0.1264531E+00
         -2   -1    0    0    0  501 -0.00000000000E+00  0.00000000000E+00  0.74682355877E+02  0.74682355877E+02  0.00000000000E+00 0. -1.
          2   -1    0    0  501    0  0.00000000000E+00 -0.00000000000E+00 -0.20682280185E+03  0.20682280185E+03  0.00000000000E+00 0.  1.
         23    2    1    2    0    0  0.37141974172E+02 -0.46499934847E+02 -0.57280803852E+02  0.14990162333E+03  0.12509051123E+03 0.  0.
          5    1    3    3  502    0  0.45781402821E+01 -0.86369461813E+02 -0.40514501476E+02  0.95600944202E+02  0.41800000000E+01 0.  1.
         -5    1    3    3    0  502  0.32563833890E+02  0.39869526966E+02 -0.16766302376E+02  0.54300679125E+02  0.41800000000E+01 0.  1.
        -11    1    1    2    0    0  0.44809013055E+01  0.33692064418E+02 -0.80793999076E+02  0.87652176059E+02  0.00000000000E+00 0.  1.
         11    1    1    2    0    0 -0.41622875477E+02  0.12807870429E+02  0.59343569513E+01  0.43951358345E+02  0.00000000000E+00 0. -1.
</event>
<event>
 7    1  0.8661710E-006  0.9127998E+02  0.7561462E-02  0.1299781E+00
         -1   -1    0    0    0  501 -0.00000000000E+00  0.00000000000E+00  0.16205279141E+03  0.16205279141E+03  0.00000000000E+00 0.  1.
          1   -1    0    0  501    0  0.00000000000E+00 -0.00000000000E+00 -0.12932580365E+03  0.12932580365E+03  0.00000000000E+00 0. -1.
         23    2    1    2    0    0 -0.40812761309E+02  0.20729934525E+02  0.10196213988E+03  0.16774528403E+03  0.12508713232E+03 0.  0.
          5    1    3    3  502    0 -0.51462476531E+02 -0.38967559004E+02  0.24244332578E+02  0.69080512502E+02  0.41800000000E+01 0.  1.
         -5    1    3    3    0  502  0.10649715222E+02  0.59697493528E+02  0.77717807304E+02  0.98664771525E+02  0.41800000000E+01 0.  1.
        -11    1    1    2    0    0  0.15551696786E+02 -0.26912759255E+02  0.15687760547E+02  0.34817491504E+02  0.00000000000E+00 0.  1.
         11    1    1    2    0    0  0.25261064524E+02  0.61828247307E+01 -0.84922912664E+02  0.88815819525E+02  0.00000000000E+00 0. -1.
</event>
<event>
 7    1  0.8661710E-006  0.7305580E+02  0.7561462E-02  0.1350000E+00
         -2   -1    0    0    0  501 -0.00000000000E+00  0.00000000000E+00  0.46543805503E+02  0.46543805503E+02  0.00000000000E+00 0.  1.
          2   -1    0    0  501    0  0.00000000000E+00 -0.00000000000E+00 -0.25542086726E+03  0.25542086726E+03  0.00000000000E+00 0. -1.
         23    2    1    2    0    0  0.68698670325E+01  0.10245589897E+02 -0.10796030118E+03  0.16569930343E+03  0.12509462554E+03 0.  0.
          5    1    3    3  502    0  0.58420187374E+01 -0.40961258348E+02 -0.10645532569E+03  0.11428981860E+03  0.41800000000E+01 0.  1.
         -5    1    3    3    0  502  0.10278482951E+01  0.51206848245E+02 -0.15049754960E+01  0.51409484831E+02  0.41800000000E+01 0.  1.
        -11    1    1    2    0    0  0.22381212728E+02 -0.78554254907E+00  0.74661104413E+01  0.23606748302E+02  0.00000000000E+00 0.  1.
         11    1    1    2    0    0 -0.29251079760E+02 -0.94600473478E+01 -0.10838287102E+03  0.11265862103E+03  0.00000000000E+00 0. -1.
</event>
<event>
 7    1  0.8661710E-006  0.1244134E+03  0.7561462E-02  0.1235989E+00
         -2   -1    0    0    0  501 -0.00000000000E+00  0.00000000000E+00  0.15582002849E+03  0.15582002849E+03  0.00000000000E+00 0.  1.
          2   -1    0    0  501    0  0.00000000000E+00 -0.00000000000E+00 -0.14712528465E+03  0.14712528465E+03  0.00000000000E+00 0. -1.
         23    2    1    2    0    0 -0.74321171587E+02 -0.21351780029E+02  0.76534404904E+02  0.16578229478E+03  0.12508684613E+03 0.  0.
          5    1    3    3  502    0 -0.61073777427E+02  0.45367153050E+02  0.56150109684E+02  0.94649311051E+02  0.41800000000E+01 0. -1.
         -5    1    3    3    0  502 -0.13247394160E+02 -0.66718933078E+02  0.20384295221E+02  0.71132983733E+02  0.41800000000E+01 0. -1.
        -11    1    1    2    0    0  0.25440406499E+02  0.43832022960E+02 -0.13001398067E+00  0.50680148216E+02  0.00000000000E+00 0.  1.
         11    1    1    2    0    0  0.48880765088E+02 -0.22480242931E+02 -0.67709647086E+02  0.86482870133E+02  0.00000000000E+00 0. -1.
</event>
<event>
 7    1  0.8661710E-006  0.1294882E+03  0.7561462E-02  0.1228217E+00
          2   -1    0    0  501    0  0.00000000000E+00  0.00000000000E+00  0.50986478056E+03  0.50986478056E+03  0.00000000000E+00 0. -1.
         -2   -1    0    0    0  501 -0.00000000000E+00 -0.00000000000E+00 -0.44060504671E+02  0.44060504671E+02  0.00000000000E+00 0.  1.
         23    2    1    2    0    0 -0.84502445024E+02 -0.57334956393E+02  0.21831279681E+03  0.27154377571E+03  0.12509030513E+03 0.  0.
          5    1    3    3  502    0 -0.43346105951E+01  0.23284079794E+02  0.11621890799E+03  0.11868127146E+03  0.41800000000E+01 0. -1.
         -5    1    3    3    0  502 -0.80167834429E+02 -0.80619036187E+02  0.10209388882E+03  0.15286250426E+03  0.41800000000E+01 0. -1.
        -11    1    1    2    0    0  0.10857752546E+02 -0.14608833362E+02  0.10512730417E+03  0.10669141898E+03  0.00000000000E+00 0. -1.
         11    1    1    2    0    0  0.73644692478E+02  0.71943789755E+02  0.14236417491E+03  0.17569009054E+03  0.00000000000E+00 0.  1.
</event>
<event>
 7    1  0.8661710E-006  0.9469695E+02  0.7561462E-02  0.1291860E+00
          1   -1    0    0  501    0  0.00000000000E+00  0.00000000000E+00  0.47962824119E+02  0.47962824119E+02  0.00000000000E+00 0. -1.
         -1   -1    0    0    0  501 -0.00000000000E+00 -0.00000000000E+00 -0.27434114391E+03  0.27434114391E+03  0.00000000000E+00 0.  1.
         23    2    1    2    0    0  0.35317315330E+02  0.76132188864E+01 -0.16103964552E+03  0.20709343311E+03  0.12509455922E+03 0.  0.
          5    1    3    3  502    0 -0.43646698314E+02 -0.11942250812E+02 -0.81098498202E+02  0.92962844399E+02  0.41800000000E+01 0. -1.
         -5    1    3    3    0  502  0.78964013644E+02  0.19555469698E+02 -0.79941147315E+02  0.11413058871E+03  0.41800000000E+01 0. -1.
        -11    1    1    2    0    0  0.11567846086E+02 -0.10358773718E+02  0.15359159286E+02  0.21840856896E+02  0.00000000000E+00 0. -1.
         11    1    1    2    0    0 -0.46885161416E+02  0.27455548312E+01 -0.80697833557E+02  0.93369678018E+02  0.00000000000E+00 0.  1.
</event>
<event>
 7    1  0.8661710E-006  0.1344991E+03  0.7561462E-02  0.1220928E+00
          2   -1    0    0  501    0  0.00000000000E+00  0.00000000000E+00  0.76523933773E+03  0.76523933773E+03  0.00000000000E+00 0. -1.
         -2   -1    0    0    0  501 -0.00000000000E+00 -0.00000000000E+00 -0.26850114952E+02  0.26850114952E+02  0.00000000000E+00 0.  1.
         23    2    1    2    0    0  0.19394768519E+02  0.86232132557E+02  0.32557654124E+03  0.35980533679E+03  0.12509060096E+03 0.  0.
          5    1    3    3  502    0  0.68177566985E+02  0.55082148448E+02  0.24699723141E+03  0.26212082794E+03  0.41800000000E+01 0. -1.
         -5    1    3    3    0  502 -0.48782798465E+02  0.31149984109E+02  0.78579309831E+02  0.97684508852E+02  0.41800000000E+01 0. -1.
        -11    1    1    2    0    0  0.18829082862E+02 -0.82718790971E+02  0.22218023660E+03  0.23782554589E+03  0.00000000000E+00 0.  1.
         11    1    1    2    0    0 -0.38223851381E+02 -0.35133415861E+01  0.19063244494E+03  0.19445857000E+03  0.00000000000E+00 0. -1.
</event>
<event>
 7    1  0.8661710E-006  0.1041472E+03  0.7561462E-02  0.1271809E+00
         -2   -1    0    0    0  501 -0.00000000000E+00  0.00000000000E+00  0.18912552218E+03  0.18912552218E+03  0.00000000000E+00 0.  1.
          2   -1    0    0  501    0  0.00000000000E+00 -0.00000000000E+00 -0.78541277860E+02  0.78541277860E+02  0.00000000000E+00 0. -1.
         23    2    1    2    0    0 -0.30840499701E+02 -0.19198250597E+02  0.10863990071E+03  0.16960661978E+03  0.12507624954E+03 0.  0.
          5    1    3    3  502    0  0.37285102407E+02 -0.43749564607E+02  0.50986752986E+02  0.76950143891E+02  0.41800000000E+01 0. -1.
         -5    1    3    3    0  502 -0.68125602108E+02  0.24551314010E+02  0.57653147727E+02  0.92656475893E+02  0.41800000000E+01 0. -1.
        -11    1    1    2    0    0  0.35676481928E+02  0.41832754655E+02 -0.26793161877E+02  0.61160969974E+02  0.00000000000E+00 0. -1.
         11    1    1    2    0    0 -0.48359822270E+01 -0.22634504057E+02  0.28737505487E+02  0.36899210285E+02  0.00000000000E+00 0.  1.
</event>
<event>
 7    1  0.8661710E-006  0.1623007E+03  0.7561462E-02  0.1186123E+00
         -1   -1    0    0    0  501 -0.00000000000E+00  0.00000000000E+00  0.34389669652E+02  0.34389669652E+02  0.00000000000E+00 0.  1.
          1   -1    0    0  501    0  0.00000000000E+00 -0.00000000000E+00 -0.93152910869E+03  0.93152910869E+03  0.00000000000E+00 0. -1.
         23    2    1    2    0    0 -0.11410709628E+03 -0.43212130347E+02 -0.29015241727E+03  0.33871117323E+03  0.12509642676E+03 0.  0.
          5    1    3    3  502    0 -0.13395726018E+03 -0.11565362728E+02 -0.19994481978E+03  0.24098487199E+03  0.41800000000E+01 0. -1.
         -5    1    3    3    0  502  0.19850163906E+02 -0.31646767619E+02 -0.90207597497E+02  0.97726301240E+02  0.41800000000E+01 0. -1.
        -11    1    1    2    0    0  0.12145404316E+03  0.13870706978E+02 -0.54068786195E+03  0.55433459676E+03  0.00000000000E+00 0. -1.
         11    1    1    2    0    0 -0.73469468802E+01  0.29341423370E+02 -0.66299159822E+02  0.72873008357E+02  0.00000000000E+00 0.  1.
</event>
<event>
 7    1  0.8661710E-006  0.1844321E+03  0.7561462E-02  0.1163581E+00
          1   -1    0    0  501    0  0.00000000000E+00  0.00000000000E+00  0.52326311363E+03  0.52326311363E+03  0.00000000000E+00 0. -1.
         -1   -1    0    0    0  501 -0.00000000000E+00 -0.00000000000E+00 -0.74229226622E+02  0.74229226622E+02  0.00000000000E+00 0.  1.
         23    2    1    2    0    0  0.91832887058E+02  0.13594857107E+03  0.22644851096E+03  0.30633482997E+03  0.12508719685E+03 0.  0.
          5    1    3    3  502    0  0.75975744454E+02  0.43856872919E+02  0.18344152758E+03  0.20338142857E+03  0.41800000000E+01 0. -1.
         -5    1    3    3    0  502  0.15857142604E+02  0.92091698147E+02  0.43006983378E+02  0.10295340139E+03  0.41800000000E+01 0. -1.
        -11    1    1    2    0    0 -0.43300860807E+02 -0.13186838745E+03  0.15886017027E+03  0.21095210322E+03  0.00000000000E+00 0.  1.
         11    1    1    2    0    0 -0.48532026251E+02 -0.40801836157E+01  0.63725205772E+02  0.80205407056E+02  0.00000000000E+00 0. -1.
</event>
<event>
 7    1  0.8661710E-006  0.1138990E+03  0.7561462E-02  0.1253515E+00
          2   -1    0    0  501    0  0.00000000000E+00  0.00000000000E+00  0.22643531158E+03  0.22643531158E+03  0.00000000000E+00 0. -1.
         -2   -1    0    0    0  501 -0.00000000000E+00 -0.00000000000E+00 -0.61285719950E+02  0.61285719950E+02  0.00000000000E+00 0.  1.
         23    2    1    2    0    0 -0.34274523172E+02 -0.30612106057E+02  0.86450617170E+02  0.15885025827E+03  0.12509137207E+03 0.  0.
          5    1    3    3  502    0  0.55334556459E+00 -0.75867623867E+02  0.47853666085E+02  0.89797819018E+02  0.41800000000E+01 0.  1.
         -5    1    3    3    0  502 -0.34827868736E+02  0.45255517810E+02  0.38596951085E+02  0.69052439247E+02  0.41800000000E+01 0.  1.
        -11    1    1    2    0    0  0.57312356173E+02  0.39774572179E+02  0.77173182277E+02  0.10403087438E+03  0.00000000000E+00 0. -1.
         11    1    1    2    0    0 -0.23037833001E+02 -0.91624661214E+01  0.15257921852E+01  0.24839898885E+02  0.00000000000E+00 0.  1.
</event>
<event>
 7    1  0.8661710E-006  0.1440146E+03  0.7561462E-02  0.1208027E+00
          1   -1    0    0  501    0  0.00000000000E+00  0.00000000000E+00  0.19461956804E+03  0.19461956804E+03  0.00000000000E+00 0. -1.
         -1   -1    0    0    0  501 -0.00000000000E+00 -0.00000000000E+00 -0.12706627935E+03  0.12706627935E+03  0.00000000000E+00 0.  1.
         23    2    1    2    0    0 -0.11262619006E+03 -0.63559957908E+01  0.21875169806E+02  0.17031079279E+03  0.12570674492E+03 0.  0.
          5    1    3    3  502    0 -0.13492488979E+03  0.16075926302E+02  0.10157032457E+02  0.13632240828E+03  0.41800000000E+01 0.  1.
         -5    1    3    3    0  502  0.22298699737E+02 -0.22431922092E+02  0.11718137349E+02  0.33988384511E+02  0.41800000000E+01 0.  1.
        -11    1    1    2    0    0  0.90048792747E+02 -0.12310746855E+02 -0.69407451197E+01  0.91151047751E+02  0.00000000000E+00 0.  1.
         11    1    1    2    0    0  0.22577397308E+02  0.18666742645E+02  0.52618864008E+02  0.60224006839E+02  0.00000000000E+00 0. -1.
</event>
<event>
 7    1  0.8661710E-006  0.1016931E+03  0.7561462E-02  0.1276775E+00
         -2   -1    0    0    0  501 -0.00000000000E+00  0.00000000000E+00  0.45560682450E+03  0.45560682450E+03  0.00000000000E+00 0.  1.
          2   -1    0    0  501    0  0.00000000000E+00 -0.00000000000E+00 -0.34886188360E+02  0.34886188360E+02  0.00000000000E+00 0. -1.
         23    2    1    2    0    0 -0.20736180279E+02 -0.11898724616E+02  0.34710555027E+03  0.36973191666E+03  0.12509139997E+03 0.  0.
          5    1    3    3  502    0 -0.55740446383E+02  0.21441733931E+02  0.28338719244E+03  0.28964205246E+03  0.41800000000E+01 0.  1.
         -5    1    3    3    0  502  0.35004266104E+02 -0.33340458548E+02  0.63718357831E+02  0.80089864193E+02  0.41800000000E+01 0.  1.
        -11    1    1    2    0    0  0.55070619036E+02 -0.74704812745E+01  0.35620091811E+02  0.66010393970E+02  0.00000000000E+00 0.  1.
         11    1    1    2    0    0 -0.34334438757E+02  0.19369205891E+02  0.37994994060E+02  0.54750702235E+02  0.00000000000E+00 0. -1.
</event>
<event>
 7    1  0.8661710E-006  0.2294385E+03  0.7561462E-02  0.1127036E+00
         -2   -1    0    0    0  501 -0.00000000000E+00  0.00000000000E+00  0.11663189274E+03  0.11663189274E+03  0.00000000000E+00 0. -1.
          2   -1    0    0  501    0  0.00000000000E+00 -0.00000000000E+00 -0.48784946447E+03  0.48784946447E+03  0.00000000000E+00 0.  1.
         23    2    1    2    0    0 -0.13402851992E+03  0.15948680440E+03 -0.23718860000E+03  0.33956623353E+03  0.12508840894E+03 0.  0.
          5    1    3    3  502    0 -0.19161229064E+02 -0.19017969213E+02 -0.11299357625E+02  0.29563215910E+02  0.41800000000E+01 0.  1.
         -5    1    3    3    0  502 -0.11486729086E+03  0.17850477361E+03 -0.22588924238E+03  0.31000301762E+03  0.41800000000E+01 0.  1.
        -11    1    1    2    0    0  0.11812598546E+02 -0.61434381048E+02 -0.65146618552E+01  0.62898024439E+02  0.00000000000E+00 0. -1.
         11    1    1    2    0    0  0.12221592138E+03 -0.98052423347E+02 -0.12751430988E+03  0.20201709924E+03  0.00000000000E+00 0.  1.
</event>
<event>
 7    1  0.8661710E-006  0.1012525E+03  0.7561462E-02  0.1277684E+00
         -1   -1    0    0    0  501 -0.00000000000E+00  0.00000000000E+00  0.31873763635E+03  0.31873763635E+03  0.00000000000E+00 0.  1.
          1   -1    0    0  501    0  0.00000000000E+00 -0.00000000000E+00 -0.40976401589E+02  0.40976401589E+02  0.00000000000E+00 0. -1.
         23    2    1    2    0    0 -0.13635582162E+02 -0.12979222992E+02  0.21151158650E+03  0.24645354875E+03  0.12509121127E+03 0.  0.
          5    1    3    3  502    0  0.39278524334E+02 -0.43851469016E+02  0.66130165061E+02  0.88636476349E+02  0.41800000000E+01 0. -1.
         -5    1    3    3    0  502 -0.52914106495E+02  0.30872246024E+02  0.14538142144E+03  0.15781707240E+03  0.41800000000E+01 0. -1.
        -11    1    1    2    0    0  0.34281340580E+02  0.36978326858E+02  0.64063429568E+02  0.81527479889E+02  0.00000000000E+00 0.  1.
         11    1    1    2    0    0 -0.20645758418E+02 -0.23999103865E+02  0.21862186908E+01  0.31733009299E+02  0.00000000000E+00 0. -1.
</event>
<event>
 7    1  0.8661710E-006  0.1069614E+03  0.7561462E-02  0.1266303E+00
         -1   -1    0    0    0  501 -0.00000000000E+00  0.00000000000E+00  0.29035440135E+02  0.29035440135E+02  0.00000000000E+00 0.  1.
          1   -1    0    0  501    0  0.00000000000E+00 -0.00000000000E+00 -0.47940575466E+03  0.47940575466E+03  0.00000000000E+00 0. -1.
         23    2    1    2    0    0 -0.24799418154E+02  0.25660351792E+02 -0.18834109401E+03  0.22889698635E+03  0.12509195766E+03 0.  0.
          5    1    3    3  502    0 -0.68207910516E+02  0.21598766535E+01 -0.15436081984E+03  0.16882452199E+03  0.41800000000E+01 0. -1.
         -5    1    3    3    0  502  0.43408492362E+02  0.23500475139E+02 -0.33980274167E+02  0.60072464352E+02  0.41800000000E+01 0. -1.
        -11    1    1    2    0    0  0.58660009493E+02 -0.16531768415E+02 -0.14272783797E+03  0.15519514107E+03  0.00000000000E+00 0.  1.
         11    1    1    2    0    0 -0.33860591339E+02 -0.91285833778E+01 -0.11930138255E+03  0.12434906738E+03  0.00000000000E+00 0. -1.
</event>
<event>
 7    1  0.8661710E-006  0.1303791E+03  0.7561462E-02  0.1226894E+00
          1   -1    0    0  501    0  0.00000000000E+00  0.00000000000E+00  0.17102149912E+03  0.17102149912E+03  0.00000000000E+00 0. -1.
         -1   -1    0    0    0  501 -0.00000000000E+00 -0.00000000000E+00 -0.11272488472E+03  0.11272488472E+03  0.00000000000E+00 0.  1.
         23    2    1    2    0    0  0.48655648887E+02 -0.66851472787E+02  0.30049808496E+02  0.15292670605E+03  0.12508834818E+03 0.  0.
          5    1    3    3  502    0  0.16814117455E+02  0.33531933451E+02  0.28879630108E+02  0.47524841314E+02  0.41800000000E+01 0. -1.
         -5    1    3    3    0  502  0.31841531432E+02 -0.10038340624E+03  0.11701783878E+01  0.10540186473E+03  0.41800000000E+01 0. -1.
        -11    1    1    2    0    0 -0.76904059357E+01  0.75383582390E+02  0.42171292858E+02  0.86719344893E+02  0.00000000000E+00 0.  1.
         11    1    1    2    0    0 -0.40965242951E+02 -0.85321096027E+01 -0.13924486952E+02  0.44100332892E+02  0.00000000000E+00 0. -1.
</event>
<event>
 7    1  0.8661710E-006  0.1686252E+03  0.7561462E-02  0.1179289E+00
         -2   -1    0    0    0  501 -0.00000000000E+00  0.00000000000E+00  0.11277793029E+03  0.11277793029E+03  0.00000000000E+00 0.  1.
          2   -1    0    0  501    0  0.00000000000E+00 -0.00000000000E+00 -0.39598272819E+03  0.39598272819E+03  0.00000000000E+00 0. -1.
         23    2    1    2    0    0 -0.12426273840E+03 -0.42851596939E+02  0.24241997443E+01  0.18146665042E+03  0.12508709348E+03 0.  0.
          5    1    3    3  502    0 -0.13072970396E+03 -0.70702585908E+02 -0.12008333321E+02  0.14916696558E+03  0.41800000000E+01 0.  1.
         -5    1    3    3    0  502  0.64669655556E+01  0.27850988969E+02  0.14432533065E+02  0.32299684839E+02  0.41800000000E+01 0.  1.
        -11    1    1    2    0    0  0.19503781590E+02  0.50994132001E+02 -0.10406843421E+03  0.11752037267E+03  0.00000000000E+00 0.  1.
         11    1    1    2    0    0  0.10475895681E+03 -0.81425350621E+01 -0.18156056343E+03  0.20977363539E+03  0.00000000000E+00 0. -1.
</event>
<event>
 7    1  0.8661710E-006  0.1148003E+03  0.7561462E-02  0.1251930E+00
         -2   -1    0    0    0  501 -0.00000000000E+00  0.00000000000E+00  0.48673128079E+02  0.48673128079E+02  0.00000000000E+00 0.  1.
          2   -1    0    0  501    0  0.00000000000E+00 -0.00000000000E+00 -0.56057910421E+03  0.56057910421E+03  0.00000000000E+00 0. -1.
         23    2    1    2    0    0  0.22251835174E+02 -0.44017650909E+02 -0.79559847285E+02  0.15623858471E+03  0.12509207925E+03 0.  0.
          5    1    3    3  502    0  0.49635862081E+02 -0.44510190500E+02 -0.10107859282E+03  0.12115787299E+03  0.41800000000E+01 0. -1.
         -5    1    3    3    0  502 -0.27384026907E+02  0.49253959046E+00  0.21518745532E+02  0.35080711711E+02  0.41800000000E+01 0. -1.
        -11    1    1    2    0    0  0.30426165385E+02 -0.30994577389E+02 -0.15000938811E+03  0.15617052183E+03  0.00000000000E+00 0. -1.
         11    1    1    2    0    0 -0.52678000560E+02  0.75012228298E+02 -0.28233674073E+03  0.29684312575E+03  0.00000000000E+00 0.  1.
</event>
<event>
 7    1  0.8661710E-006  0.8473984E+02  0.7561462E-02  0.1316114E+00
          1   -1    0    0  501    0  0.00000000000E+00  0.00000000000E+00  0.52250452730E+03  0.52250452730E+03  0.00000000000E+00 0. -1.
         -1   -1    0    0    0  501 -0.00000000000E+00 -0.00000000000E+00 -0.33378947000E+02  0.33378947000E+02  0.00000000000E+00 0.  1.
         23    2    1    2    0    0  0.19639997437E+02 -0.64576072739E+02  0.19106252915E+03  0.23813535151E+03  0.12509099458E+03 0.  0.
          5    1    3    3  502    0  0.30221016593E+02 -0.25377740680E+02 -0.30283198546E+01  0.39799279982E+02  0.41800000000E+01 0.  1.
         -5    1    3    3    0  502 -0.10581019156E+02 -0.39198332060E+02  0.19409084900E+03  0.19833607153E+03  0.41800000000E+01 0.  1.
        -11    1    1    2    0    0  0.20749451655E+02  0.24050159103E+02  0.30153539654E+02  0.43797098654E+02  0.00000000000E+00 0.  1.
         11    1    1    2    0    0 -0.40389449091E+02  0.40525913636E+02  0.26790951150E+03  0.27395102414E+03  0.00000000000E+00 0. -1.
</event>
<event>
 7    1  0.8661710E-006  0.1219253E+03  0.7561462E-02  0.1239954E+00
         -2   -1    0    0    0  501 -0.00000000000E+00  0.00000000000E+00  0.64782711299E+02  0.64782711299E+02  0.00000000000E+00 0.  1.
          2   -1    0    0  501    0  0.00000000000E+00 -0.00000000000E+00 -0.25308372247E+03  0.25308372247E+03  0.00000000000E+00 0. -1.
         23    2    1    2    0    0  0.17617461451E+02  0.64945400089E+02 -0.90131289086E+02  0.16822517887E+03  0.12509109318E+03 0.  0.
          5    1    3    3  502    0 -0.48776024635E+02  0.24537794911E+02 -0.67993441549E+02  0.87302831866E+02  0.41800000000E+01 0.  1.
         -5    1    3    3    0  502  0.66393486085E+02  0.40407605178E+02 -0.22137847537E+02  0.80922347003E+02  0.41800000000E+01 0.  1.
        -11    1    1    2    0    0  0.29799626756E+02 -0.55371713777E+02 -0.42530656523E+02  0.75913774677E+02  0.00000000000E+00 0. -1.
         11    1    1    2    0    0 -0.47417088207E+02 -0.95736863119E+01 -0.55639065565E+02  0.73727480226E+02  0.00000000000E+00 0.  1.
</event>
<event>
 7    1  0.8661710E-006  0.1199057E+03  0.7561462E-02  0.1243253E+00
          1   -1    0    0  501    0  0.00000000000E+00  0.00000000000E+00  0.49344864797E+03  0.49344864797E+03  0.00000000000E+00 0. -1.
         -1   -1    0    0    0  501 -0.00000000000E+00 -0.00000000000E+00 -0.13793611903E+03  0.13793611903E+03  0.00000000000E+00 0.  1.
         23    2    1    2    0    0  0.60989947155E+01  0.62044213720E+02 -0.93297800632E+02  0.16963988630E+03  0.12722629142E+03 0.  0.
          5    1    3    3  502    0  0.60677673000E+02  0.28158366726E+02 -0.79168419962E+02  0.10372938222E+03  0.41800000000E+01 0. -1.
         -5    1    3    3    0  502 -0.54578678284E+02  0.33885846994E+02 -0.14129380670E+02  0.65910504078E+02  0.41800000000E+01 0.  1.
        -11    1    1    2    0    0 -0.19784704262E+02  0.18274712466E+02  0.10255654570E+03  0.10603416763E+03  0.00000000000E+00 0.  1.
         11    1    1    2    0    0  0.13685709547E+02 -0.80318926186E+02  0.34625378387E+03  0.35571071307E+03  0.00000000000E+00 0. -1.
</event>
<event>
 7    1  0.8661710E-006  0.1013680E+03  0.7561462E-02  0.1277445E+00
          1   -1    0    0  501    0  0.00000000000E+00  0.00000000000E+00  0.38996247813E+03  0.38996247813E+03  0.00000000000E+00 0. -1.
         -1   -1    0    0    0  501 -0.00000000000E+00 -0.00000000000E+00 -0.34713497689E+02  0.34713497689E+02  0.00000000000E+00 0.  1.
         23    2    1    2    0    0  0.22480304300E+02  0.26407873540E+02  0.15688739605E+03  0.20363015288E+03  0.12509534066E+03 0.  0.
          5    1    3    3  502    0  0.18732064837E+01 -0.45597488931E+02  0.25780722511E+02  0.52580965687E+02  0.41800000000E+01 0.  1.
         -5    1    3    3    0  502  0.20607097816E+02  0.72005362470E+02  0.13110667354E+03  0.15104918719E+03  0.41800000000E+01 0.  1.
        -11    1    1    2    0    0 -0.37921194649E+02 -0.44266272077E+02  0.72679097968E+02  0.93165289291E+02  0.00000000000E+00 0.  1.
         11    1    1    2    0    0  0.15440890349E+02  0.17858398537E+02  0.12568248643E+03  0.12788053365E+03  0.00000000000E+00 0. -1.
</event>
<event>
 6    1  0.8661710E-006  0.1200305E+03  0.7561462E-02  0.1243047E+00
         -1   -1    0    0    0  501 -0.00000000000E+00  0.00000000000E+00  0.58099894920E+03  0.58099894920E+03  0.00000000000E+00 0.  1.
          1   -1    0    0  501    0  0.00000000000E+00 -0.00000000000E+00 -0.99232499872E+02  0.99232499872E+02  0.00000000000E+00 0. -1.
          5    1    1    2  502    0  0.49450384635E+02  0.61715867855E+02  0.38486451844E+03  0.39292793085E+03  0.41800000000E+01 0. -1.
         -5    1    1    2    0  502 -0.40516431925E+02 -0.68813761809E+02  0.15824423291E+03  0.17730094393E+03  0.41800000000E+01 0.  1.
        -11    1    1    2    0    0 -0.41276435425E+02 -0.12447644547E+02 -0.67961895089E+01  0.43644887077E+02  0.00000000000E+00 0.  1.
         11    1    1    2    0    0  0.32342482715E+02  0.19545538500E+02 -0.54546112507E+02  0.66357687219E+02  0.00000000000E+00 0. -1.
</event>
<event>
 7    1  0.8661710E-006  0.1789707E+03  0.7561462E-02  0.1168803E+00
          1   -1    0    0  501    0  0.00000000000E+00  0.00000000000E+00  0.50131496768E+03  0.50131496768E+03  0.00000000000E+00 0. -1.
         -1   -1    0    0    0  501 -0.00000000000E+00 -0.00000000000E+00 -0.65593876262E+02  0.65593876262E+02  0.00000000000E+00 0.  1.
         23    2    1    2    0    0  0.14283883380E+03 -0.21765393601E+01  0.19317472347E+03  0.27087221698E+03  0.12509042481E+03 0.  0.
          5    1    3    3  502    0  0.15518706388E+03  0.26436223469E+02  0.17055427619E+03  0.23213817488E+03  0.41800000000E+01 0. -1.
         -5    1    3    3    0  502 -0.12348230079E+02 -0.28612762829E+02  0.22620447278E+02  0.38734042106E+02  0.41800000000E+01 0. -1.
        -11    1    1    2    0    0 -0.11309431548E+02 -0.31314554147E+02  0.37597480158E+02  0.50220265407E+02  0.00000000000E+00 0.  1.
         11    1    1    2    0    0 -0.13152940225E+03  0.33491093507E+02  0.20494888779E+03  0.24581636155E+03  0.00000000000E+00 0. -1.
</event>
<event>
 7    1  0.8661710E-006  0.7771117E+02  0.7561462E-02  0.1335675E+00
          2   -1    0    0  501    0  0.00000000000E+00  0.00000000000E+00  0.14632468116E+03  0.14632468116E+03  0.00000000000E+00 0. -1.
         -2   -1    0    0    0  501 -0.00000000000E+00 -0.00000000000E+00 -0.82649263986E+02  0.82649263986E+02  0.00000000000E+00 0.  1.
         23    2    1    2    0    0 -0.11319241450E+02 -0.12653539682E+02  0.20113846639E+02  0.12782987467E+03  0.12509065808E+03 0.  0.
          5    1    3    3  502    0 -0.52995648874E+02 -0.23527752927E+02 -0.26792522113E+02  0.64010980297E+02  0.41800000000E+01 0. -1.
         -5    1    3    3    0  502  0.41676407424E+02  0.10874213245E+02  0.46906368751E+02  0.63818894372E+02  0.41800000000E+01 0. -1.
        -11    1    1    2    0    0  0.31112312822E+02  0.11768596414E+01  0.63547369126E+02  0.70764603656E+02  0.00000000000E+00 0. -1.
         11    1    1    2    0    0 -0.19793071371E+02  0.11476680040E+02 -0.19985798590E+02  0.30379466821E+02  0.00000000000E+00 0.  1.
</event>
<event>
 7    1  0.8661710E-006  0.9943221E+02  0.7561462E-02  0.1281494E+00
         -3   -1    0    0    0  501 -0.00000000000E+00  0.00000000000E+00  0.39736462611E+03  0.39736462611E+03  0.00000000000E+00 0. -1.
          3   -1    0    0  501    0  0.00000000000E+00 -0.00000000000E+00 -0.36420585040E+02  0.36420585040E+02  0.00000000000E+00 0.  1.
         23    2    1    2    0    0  0.79586833515E+01 -0.51738966109E+02  0.22402244935E+03  0.26186974031E+03  0.12509772908E+03 0.  0.
          5    1    3    3  502    0 -0.56947930340E+02 -0.27022690817E+02  0.80125054188E+02  0.10203327544E+03  0.41800000000E+01 0.  1.
         -5    1    3    3    0  502  0.64906613691E+02 -0.24716275293E+02  0.14389739516E+03  0.15983646486E+03  0.41800000000E+01 0.  1.
        -11    1    1    2    0    0  0.58543294041E+01  0.51969286667E+02  0.14620100991E+03  0.15527335647E+03  0.00000000000E+00 0. -1.
         11    1    1    2    0    0 -0.13813012756E+02 -0.23032055759E+00 -0.92794181921E+01  0.16642114377E+02  0.00000000000E+00 0.  1.
</event>
<event>
 7    1  0.8661710E-006  0.1202590E+03  0.7561462E-02  0.1242670E+00
          1   -1    0    0  501    0  0.00000000000E+00  0.00000000000E+00  0.25552639837E+03  0.25552639837E+03  0.00000000000E+00 0. -1.
         -1   -1    0    0    0  501 -0.00000000000E+00 -0.00000000000E+00 -0.87281402012E+02  0.87281402012E+02  0.00000000000E+00 0.  1.
         23    2    1    2    0    0  0.69611205035E+02 -0.18308075542E+01  0.39794332725E+01  0.14322170088E+03  0.12509015945E+03 0.  0.
          5    1    3    3  502    0  0.94045721932E+02  0.18080451697E+02 -0.26208969532E+02  0.99377477485E+02  0.41800000000E+01 0.  1.
         -5    1    3    3    0  502 -0.24434516897E+02 -0.19911259252E+02  0.30188402804E+02  0.43844223392E+02  0.41800000000E+01 0.  1.
        -11    1    1    2    0    0 -0.73009982658E+01  0.39421568616E+02  0.49586046714E+02  0.63766297341E+02  0.00000000000E+00 0. -1.
         11    1    1    2    0    0 -0.62310206769E+02 -0.37590761062E+02  0.11467951638E+03  0.13581980217E+03  0.00000000000E+00 0.  1.
</event>
<event>
 7    1  0.8661710E-006  0.8731875E+02  0.7561462E-02  0.1309478E+00
         -2   -1    0    0    0  501 -0.00000000000E+00  0.00000000000E+00  0.45311460818E+02  0.45311460818E+02  0.00000000000E+00 0. -1.
          2   -1    0    0  501    0  0.00000000000E+00 -0.00000000000E+00 -0.37022296580E+03  0.37022296580E+03  0.00000000000E+00 0.  1.
         23    2    1    2    0    0  0.46718039501E+02  0.34583687270E+02 -0.11068211223E+03  0.17699659069E+03  0.12529427963E+03 0.  0.
          5    1    3    3  502    0 -0.20961333099E+01  0.17877220753E+02 -0.12251308203E+03  0.12389881543E+03  0.41800000000E+01 0. -1.
         -5    1    3    3    0  502  0.48814172811E+02  0.16706466517E+02  0.11830969798E+02  0.53097775255E+02  0.41800000000E+01 0. -1.
        -11    1    1    2    0    0 -0.66241444988E+02 -0.47033387929E+02 -0.15631212784E+03  0.17616341824E+03  0.00000000000E+00 0.  1.
         11    1    1    2    0    0  0.19523405488E+02  0.12449700659E+02 -0.57917264906E+02  0.62374417693E+02  0.00000000000E+00 0. -1.
</event>
<event>
 7    1  0.8661710E-006  0.1313650E+03  0.7561462E-02  0.1225444E+00
         -1   -1    0    0    0  501 -0.00000000000E+00  0.00000000000E+00  0.22497769287E+03  0.22497769287E+03  0.00000000000E+00 0.  1.
          1   -1    0    0  501    0  0.00000000000E+00 -0.00000000000E+00 -0.96074984051E+02  0.96074984051E+02  0.00000000000E+00 0. -1.
         23    2    1    2    0    0 -0.69137195239E+02 -0.40241076525E+02  0.13476699550E+03  0.20052267184E+03  0.12509157783E+03 0.  0.
          5    1    3    3  502    0 -0.33210319501E+02  0.42235702690E+02  0.27627433539E+02  0.60560113830E+02  0.41800000000E+01 0. -1.
         -5    1    3    3    0  502 -0.35926875738E+02 -0.82476779215E+02  0.10713956196E+03  0.13996255801E+03  0.41800000000E+01 0. -1.
        -11    1    1    2    0    0 -0.21250824639E+02  0.98173303426E+01  0.66659938970E+01  0.24339535689E+02  0.00000000000E+00 0.  1.
         11    1    1    2    0    0  0.90388019878E+02  0.30423746182E+02 -0.12530280576E+02  0.96190469385E+02  0.00000000000E+00 0. -1.
</event>
<event>
 7    1  0.8661710E-006  0.1437967E+03  0.7561462E-02  0.1208310E+00
          1   -1    0    0  501    0  0.00000000000E+00  0.00000000000E+00  0.44017523441E+02  0.44017523441E+02  0.00000000000E+00 0.  1.
         -1   -1    0    0    0  501 -0.00000000000E+00 -0.00000000000E+00 -0.54458991036E+03  0.54458991036E+03  0.00000000000E+00 0. -1.
         23    2    1    2    0    0 -0.53608864616E+02 -0.91636125047E+02 -0.27899929013E+03  0.32366245037E+03  0.12508272507E+03 0.  0.
          5    1    3    3  502    0 -0.31109675883E+02 -0.11823388162E+03 -0.24928907752E+03  0.27768611645E+03  0.41800000000E+01 0. -1.
         -5    1    3    3    0  502 -0.22499188733E+02  0.26597756571E+02 -0.29710212606E+02  0.45976333927E+02  0.41800000000E+01 0. -1.
        -11    1    1    2    0    0 -0.15996145377E+02  0.11796695950E+01 -0.38454553675E+00  0.16044194045E+02  0.00000000000E+00 0.  1.
         11    1    1    2    0    0  0.69605009993E+02  0.90456455452E+02 -0.22118855126E+03  0.24890078939E+03  0.00000000000E+00 0. -1.
</event>
<event>
 7    1  0.8661710E-006  0.9975314E+02  0.7561462E-02  0.1280816E+00
          1   -1    0    0  501    0  0.00000000000E+00  0.00000000000E+00  0.21229270591E+03  0.21229270591E+03  0.00000000000E+00 0. -1.
         -1   -1    0    0    0  501 -0.00000000000E+00 -0.00000000000E+00 -0.86260938579E+02  0.86260938579E+02  0.00000000000E+00 0.  1.
         23    2    1    2    0    0  0.25731105180E+02 -0.46363556467E+02  0.22511045680E+01  0.13587684066E+03  0.12508308924E+03 0.  0.
          5    1    3    3  502    0 -0.21611101719E+02  0.68117296670E+01  0.46535572241E+02  0.51927557832E+02  0.41800000000E+01 0. -1.
         -5    1    3    3    0  502  0.47342206899E+02 -0.53175286134E+02 -0.44284467673E+02  0.83949282823E+02  0.41800000000E+01 0. -1.
        -11    1    1    2    0    0 -0.47330015300E+02 -0.67498053837E+01  0.49191575111E+02  0.68596656500E+02  0.00000000000E+00 0. -1.
         11    1    1    2    0    0  0.21598910121E+02  0.53113361850E+02  0.74589087651E+02  0.94080147332E+02  0.00000000000E+00 0.  1.
</event>
<event>
 7    1  0.8661710E-006  0.1219233E+03  0.7561462E-02  0.1239958E+00
         -3   -1    0    0    0  501 -0.00000000000E+00  0.00000000000E+00  0.63245431025E+02  0.63245431025E+02  0.00000000000E+00 0.  1.
          3   -1    0    0  501    0  0.00000000000E+00 -0.00000000000E+00 -0.25590613570E+03  0.25590613570E+03  0.00000000000E+00 0. -1.
         23    2    1    2    0    0  0.55777611762E+02 -0.20360841301E+02 -0.78877968804E+02  0.15935834053E+03  0.12509053082E+03 0.  0.
          5    1    3    3  502    0  0.86897273659E+02  0.11274881557E+02 -0.28833933556E+02  0.92342445537E+02  0.41800000000E+01 0. -1.
         -5    1    3    3    0  502 -0.31119661897E+02 -0.31635722858E+02 -0.50044035248E+02  0.67015894989E+02  0.41800000000E+01 0. -1.
        -11    1    1    2    0    0 -0.54125958339E+00  0.49223121789E+02 -0.58784301522E+02  0.76673351212E+02  0.00000000000E+00 0. -1.
         11    1    1    2    0    0 -0.55236352178E+02 -0.28862280488E+02 -0.54998434347E+02  0.83119874985E+02  0.00000000000E+00 0.  1.
</event>
<event>
 7    1  0.8661710E-006  0.1177687E+03  0.7561462E-02  0.1246824E+00
          1   -1    0    0  501    0  0.00000000000E+00  0.00000000000E+00  0.11827772439E+03  0.11827772439E+03  0.00000000000E+00 0. -1.
         -1   -1    0    0    0  501 -0.00000000000E+00 -0.00000000000E+00 -0.22425176625E+03  0.22425176625E+03  0.00000000000E+00 0.  1.
         23    2    1    2    0    0 -0.67282378584E+02  0.60054528906E+02 -0.14073568328E+03  0.20876871952E+03  0.12507749914E+03 0.  0.
          5    1    3    3  502    0 -0.46736314065E+02 -0.23987017853E+02 -0.10003147000E+03  0.11306382034E+03  0.41800000000E+01 0. -1.
         -5    1    3    3    0  502 -0.20546064519E+02  0.84041546759E+02 -0.40704213280E+02  0.95704899183E+02  0.41800000000E+01 0. -1.
        -11    1    1    2    0    0  0.41080672524E+02 -0.14305247086E+02  0.60959923934E+02  0.74889078477E+02  0.00000000000E+00 0. -1.
         11    1    1    2    0    0  0.26201706061E+02 -0.45749281820E+02 -0.26198282516E+02  0.58871692640E+02  0.00000000000E+00 0.  1.
</event>
<event>
 7    1  0.8661710E-006  0.1008181E+03  0.7561462E-02  0.1278585E+00
         -2   -1    0    0    0  501 -0.00000000000E+00  0.00000000000E+00  0.59654812978E+03  0.59654812978E+03  0.00000000000E+00 0.  1.
          2   -1    0    0  501    0  0.00000000000E+00 -0.00000000000E+00 -0.21113766861E+02  0.21113766861E+02  0.00000000000E+00 0. -1.
         23    2    1    2    0    0 -0.32640920183E+02  0.76441299935E+01  0.37222952429E+03  0.39264462561E+03  0.12037907160E+03 0.  0.
          5    1    3    3  502    0  0.93179665497E+01 -0.41353048253E+02  0.58734485113E+02  0.72554195206E+02  0.41800000000E+01 0. -1.
         -5    1    3    3    0  502 -0.41958886732E+02  0.48997178247E+02  0.31349503917E+03  0.32009043041E+03  0.41800000000E+01 0.  1.
        -11    1    1    2    0    0  0.63257604454E+02 -0.21665604832E+01  0.11190474802E+03  0.12856473519E+03  0.00000000000E+00 0. -1.
         11    1    1    2    0    0 -0.30616684271E+02 -0.54775695104E+01  0.91300090610E+02  0.96452535835E+02  0.00000000000E+00 0.  1.
</event>
<event>
 7    1  0.8661710E-006  0.1457230E+03  0.7561462E-02  0.1205829E+00
          1   -1    0    0  501    0  0.00000000000E+00  0.00000000000E+00  0.68224718363E+03  0.68224718363E+03  0.00000000000E+00 0. -1.
         -1   -1    0    0    0  501 -0.00000000000E+00 -0.00000000000E+00 -0.38223666027E+02  0.38223666027E+02  0.00000000000E+00 0.  1.
         23    2    1    2    0    0 -0.11783564801E+03  0.16697391580E+02  0.36291342112E+03  0.40189113572E+03  0.12508513464E+03 0.  0.
          5    1    3    3  502    0 -0.11605048398E+03 -0.86475688153E+01  0.35694480747E+03  0.37545913661E+03  0.41800000000E+01 0.  1.
         -5    1    3    3    0  502 -0.17851640300E+01  0.25344960396E+02  0.59686136502E+01  0.26431999110E+02  0.41800000000E+01 0.  1.
        -11    1    1    2    0    0  0.12521389892E+03 -0.34582779490E+02  0.25378222311E+03  0.28509630984E+03  0.00000000000E+00 0. -1.
         11    1    1    2    0    0 -0.73782509106E+01  0.17885387910E+02  0.27327873371E+02  0.33483404101E+02  0.00000000000E+00 0.  1.
</event>
<event>
 7    1  0.8661710E-006  0.2433644E+03  0.7561462E-02  0.1117572E+00
         -1   -1    0    0    0  501 -0.00000000000E+00  0.00000000000E+00  0.76937907098E+02  0.76937907098E+02  0.00000000000E+00 0.  1.
          1   -1    0    0  501    0  0.00000000000E+00 -0.00000000000E+00 -0.79057077848E+03  0.79057077848E+03  0.00000000000E+00 0. -1.
         23    2    1    2    0    0 -0.10558089884E+03  0.19429192858E+03 -0.36819085736E+03  0.44733506234E+03  0.12508985106E+03 0.  0.
          5    1    3    3  502    0  0.15048708064E+02  0.99127389670E+02 -0.14552971881E+03  0.17677407744E+03  0.41800000000E+01 0.  1.
         -5    1    3    3    0  502 -0.12062960690E+03  0.95164538907E+02 -0.22266113856E+03  0.27056098490E+03  0.41800000000E+01 0.  1.
        -11    1    1    2    0    0  0.10704315912E+03 -0.13015023250E+03 -0.20216858787E+03  0.26319091712E+03  0.00000000000E+00 0. -1.
         11    1    1    2    0    0 -0.14622602782E+01 -0.64141696077E+02 -0.14327342615E+03  0.15698270612E+03  0.00000000000E+00 0.  1.
</event>
<event>
 7    1  0.8661710E-006  0.8800847E+02  0.7561462E-02  0.1307747E+00
          1   -1    0    0  501    0  0.00000000000E+00  0.00000000000E+00  0.10214683555E+03  0.10214683555E+03  0.00000000000E+00 0. -1.
         -1   -1    0    0    0  501 -0.00000000000E+00 -0.00000000000E+00 -0.13547592918E+03  0.13547592918E+03  0.00000000000E+00 0.  1.
         23    2    1    2    0    0  0.32011754341E+01  0.29600782290E+02 -0.53243676538E+02  0.13917127172E+03  0.12508916797E+03 0.  0.
          5    1    3    3  502    0  0.31425984857E+02  0.46868077446E+02 -0.78901096006E+02  0.97093071630E+02  0.41800000000E+01 0. -1.
         -5    1    3    3    0  502 -0.28224809423E+02 -0.17267295157E+02  0.25657419468E+02  0.42078200089E+02  0.41800000000E+01 0. -1.
        -11    1    1    2    0    0 -0.36839693557E+02  0.57491412306E+01  0.30908821654E+02  0.48431094374E+02  0.00000000000E+00 0. -1.
         11    1    1    2    0    0  0.33638518122E+02 -0.35349923520E+02 -0.10994238738E+02  0.50020398637E+02  0.00000000000E+00 0.  1.
</event>
<event>
 7    1  0.8661710E-006  0.7902949E+02  0.7561462E-02  0.1331828E+00
         -2   -1    0    0    0  501 -0.00000000000E+00  0.00000000000E+00  0.40350369648E+02  0.40350369648E+02  0.00000000000E+00 0.  1.
          2   -1    0    0  501    0  0.00000000000E+00 -0.00000000000E+00 -0.32257735579E+03  0.32257735579E+03  0.00000000000E+00 0. -1.
         23    2    1    2    0    0 -0.74949007200E+01 -0.18820111782E+02 -0.11022607813E+03  0.16796740786E+03  0.12511151689E+03 0.  0.
          5    1    3    3  502    0 -0.12019644854E+02  0.21884233096E+02  0.19443011401E+02  0.31920128649E+02  0.41800000000E+01 0. -1.
         -5    1    3    3    0  502  0.45247441342E+01 -0.40704344878E+02 -0.12966908953E+03  0.13604727921E+03  0.41800000000E+01 0. -1.
        -11    1    1    2    0    0 -0.39399751121E+02 -0.36638639119E+01 -0.67798175834E+02  0.78500681103E+02  0.00000000000E+00 0.  1.
         11    1    1    2    0    0  0.46894651841E+02  0.22483975694E+02 -0.10420273218E+03  0.11645963648E+03  0.00000000000E+00 0. -1.
</event>
<event>
 6    1  0.8661710E-006  0.1088771E+03  0.7561462E-02  0.1262664E+00
          1   -1    0    0  501    0  0.00000000000E+00  0.00000000000E+00  0.59408376408E+03  0.59408376408E+03  0.00000000000E+00 0. -1.
         -1   -1    0    0    0  501 -0.00000000000E+00 -0.00000000000E+00 -0.30173046561E+02  0.30173046561E+02  0.00000000000E+00 0.  1.
          5    1    1    2  502    0  0.40393863652E+02 -0.39860335274E+02  0.41424265113E+02  0.70384321330E+02  0.41800000000E+01 0. -1.
         -5    1    1    2    0  502 -0.44574167246E+02  0.52743793937E+02  0.10108664674E+03  0.12249386407E+03  0.41800000000E+01 0.  1.
        -11    1    1    2    0    0  0.35766336341E+02  0.24027295653E+02  0.17412883605E+03  0.17938058227E+03  0.00000000000E+00 0.  1.
         11    1    1    2    0    0 -0.31586032747E+02 -0.36910754316E+02  0.24727096962E+03  0.25199804298E+03  0.00000000000E+00 0. -1.
</event>
<event>
 7    1  0.8661710E-006  0.8286630E+02  0.7561462E-02  0.1321109E+00
          1   -1    0    0  501    0  0.00000000000E+00  0.00000000000E+00  0.18133785170E+03  0.18133785170E+03  0.00000000000E+00 0. -1.
         -1   -1    0    0    0  501 -0.00000000000E+00 -0.00000000000E+00 -0.77342881558E+02  0.77342881558E+02  0.00000000000E+00 0.  1.
         23    2    1    2    0    0 -0.35915732546E+02  0.19724487058E+02  0.51172948754E+02  0.14122647703E+03  0.12508897592E+03 0.  0.
          5    1    3    3  502    0  0.15044374866E+02 -0.11972946828E+02 -0.32607598481E+02  0.38084282185E+02  0.41800000000E+01 0. -1.
         -5    1    3    3    0  502 -0.50960107412E+02  0.31697433886E+02  0.83780547235E+02  0.10314219484E+03  0.41800000000E+01 0. -1.
        -11    1    1    2    0    0  0.46138358102E+02 -0.41363295287E+02  0.28305988535E+01  0.62029691078E+02  0.00000000000E+00 0.  1.
         11    1    1    2    0    0 -0.10222625557E+02  0.21638808229E+02  0.49991422531E+02  0.55424565145E+02  0.00000000000E+00 0. -1.
</event>
<event>
 7    1  0.8661710E-006  0.1764115E+03  0.7561462E-02  0.1171322E+00
         -4   -1    0    0    0  501 -0.00000000000E+00  0.00000000000E+00  0.69460079688E+03  0.69460079688E+03  0.00000000000E+00 0.  1.
          4   -1    0    0  501    0  0.00000000000E+00 -0.00000000000E+00 -0.58473581451E+02  0.58473581451E+02  0.00000000000E+00 0. -1.
         23    2    1    2    0    0  0.10024030537E+03 -0.12786807867E+03  0.42731627604E+03  0.47396680891E+03  0.12508785639E+03 0.  0.
          5    1    3    3  502    0  0.72645986303E+02 -0.14076548262E+03  0.40791440206E+03  0.43761169115E+03  0.41800000000E+01 0.  1.
         -5    1    3    3    0  502  0.27594319064E+02  0.12897403956E+02  0.19401873983E+02  0.36355117761E+02  0.41800000000E+01 0.  1.
        -11    1    1    2    0    0 -0.19029125927E+02  0.37951700734E+02  0.60224461306E+01  0.42880171170E+02  0.00000000000E+00 0. -1.
         11    1    1    2    0    0 -0.81211179439E+02  0.89916377932E+02  0.20278849325E+03  0.23622739825E+03  0.00000000000E+00 0.  1.
</event>
<event>
 7    1  0.8661710E-006  0.1584838E+03  0.7561462E-02  0.1190419E+00
         -2   -1    0    0    0  501 -0.00000000000E+00  0.00000000000E+00  0.28692035362E+02  0.28692035362E+02  0.00000000000E+00 0.  1.
          2   -1    0    0  501    0  0.00000000000E+00 -0.00000000000E+00 -0.10684116259E+04  0.10684116259E+04  0.00000000000E+00 0. -1.
         23    2    1    2    0    0 -0.11147367593E+03  0.50153282975E+02 -0.35994408571E+03  0.40018534963E+03  0.12508731751E+03 0.  0.
          5    1    3    3  502    0 -0.12106052868E+03  0.95231925217E+01 -0.31985620120E+03  0.34215757283E+03  0.41800000000E+01 0.  1.
         -5    1    3    3    0  502  0.95868527458E+01  0.40630090453E+02 -0.40087884516E+02  0.58027776803E+02  0.41800000000E+01 0.  1.
        -11    1    1    2    0    0  0.42564233508E+02  0.26730029300E+02 -0.23555306530E+03  0.24085567257E+03  0.00000000000E+00 0. -1.
         11    1    1    2    0    0  0.68909442424E+02 -0.76883312275E+02 -0.44422243949E+03  0.45606263902E+03  0.00000000000E+00 0.  1.
</event>
<event>
 7    1  0.8661710E-006  0.9573441E+02  0.7561462E-02  0.1289531E+00
         -2   -1    0    0    0  501 -0.00000000000E+00  0.00000000000E+00  0.50265985637E+02  0.50265985637E+02  0.00000000000E+00 0.  1.
          2   -1    0    0  501    0  0.00000000000E+00 -0.00000000000E+00 -0.29174562967E+03  0.29174562967E+03  0.00000000000E+00 0. -1.
         23    2    1    2    0    0  0.42392309460E+02 -0.34284977864E+02 -0.14607992016E+03  0.19989972732E+03  0.12509192740E+03 0.  0.
          5    1    3    3  502    0  0.63040755276E+02 -0.30058386522E+02 -0.15977291069E+03  0.17442046559E+03  0.41800000000E+01 0. -1.
         -5    1    3    3    0  502 -0.20648445816E+02 -0.42265913425E+01  0.13692990524E+02  0.25479261733E+02  0.41800000000E+01 0. -1.
        -11    1    1    2    0    0  0.25724101843E+02  0.71985181695E+01 -0.76781395424E+01  0.27793918513E+02  0.00000000000E+00 0. -1.
         11    1    1    2    0    0 -0.68116411303E+02  0.27086459695E+02 -0.87721584326E+02  0.11431796947E+03  0.00000000000E+00 0.  1.
</event>
<event>
 7    1  0.8661710E-006  0.1396899E+03  0.7561462E-02  0.1213747E+00
         -1   -1    0    0    0  501 -0.00000000000E+00  0.00000000000E+00  0.22624325068E+02  0.22624325068E+02  0.00000000000E+00 0.  1.
          1   -1    0    0  501    0  0.00000000000E+00 -0.00000000000E+00 -0.90851697835E+03  0.90851697835E+03  0.00000000000E+00 0. -1.
         23    2    1    2    0    0 -0.16927078141E+02 -0.92498134042E+02 -0.48600269864E+03  0.51057638912E+03  0.12508874956E+03 0.  0.
          5    1    3    3  502    0 -0.46420399465E+02  0.53049645064E+01 -0.23341092258E+03  0.23807798579E+03  0.41800000000E+01 0.  1.
         -5    1    3    3    0  502  0.29493321324E+02 -0.97803098548E+02 -0.25259177605E+03  0.27249840333E+03  0.41800000000E+01 0.  1.
        -11    1    1    2    0    0  0.39370711704E+02  0.47468228904E+01 -0.12414918868E+03  0.13032883916E+03  0.00000000000E+00 0.  1.
         11    1    1    2    0    0 -0.22443633563E+02  0.87751311151E+02 -0.27574076597E+03  0.29023607514E+03  0.00000000000E+00 0. -1.
</event>
<event>
 7    1  0.8661710E-006  0.3979569E+03  0.7561462E-02  0.1044489E+00
         -1   -1    0    0    0  501 -0.00000000000E+00  0.00000000000E+00  0.30558284582E+03  0.30558284582E+03  0.00000000000E+00 0.  1.
          1   -1    0    0  501    0  0.00000000000E+00 -0.00000000000E+00 -0.55238169673E+03  0.55238169673E+03  0.00000000000E+00 0. -1.
         23    2    1    2    0    0  0.88188366487E+02 -0.37480051027E+03 -0.26853343581E+02  0.40573461372E+03  0.12508742633E+03 0.  0.
          5    1    3    3  502    0  0.11921965194E+03 -0.32288782996E+03 -0.23061849569E+02  0.34499159040E+03  0.41800000000E+01 0.  1.
         -5    1    3    3    0  502 -0.31031285457E+02 -0.51912680311E+02 -0.37914940127E+01  0.60743023312E+02  0.41800000000E+01 0.  1.
        -11    1    1    2    0    0 -0.15613583017E+02  0.21493525671E+03 -0.15318099838E+03  0.26439623071E+03  0.00000000000E+00 0. -1.
         11    1    1    2    0    0 -0.72574783470E+02  0.15986525356E+03 -0.66764508942E+02  0.18783369811E+03  0.00000000000E+00 0.  1.
</event>
<event>
 6    1  0.8661710E-006  0.1074116E+03  0.7561462E-02  0.1265440E+00
         -1   -1    0    0    0  501 -0.00000000000E+00  0.00000000000E+00  0.10098655076E+03  0.10098655076E+03  0.00000000000E+00 0.  1.
          1   -1    0    0  501    0  0.00000000000E+00 -0.00000000000E+00 -0.28816709440E+03  0.28816709440E+03  0.00000000000E+00 0. -1.
          5    1    1    2  502    0 -0.24049051869E+02  0.27379807349E+02 -0.86399157002E+02  0.93863184885E+02  0.41800000000E+01 0. -1.
         -5    1    1    2    0  502  0.19303555163E+02 -0.75183114332E+02  0.65084708771E+02  0.10138352745E+03  0.41800000000E+01 0.  1.
        -11    1    1    2    0    0 -0.24658061055E+02 -0.16521736900E+02 -0.46803209747E+02  0.55421369595E+02  0.00000000000E+00 0. -1.
         11    1    1    2    0    0  0.29403557761E+02  0.64325043883E+02 -0.11906288566E+03  0.13848556322E+03  0.00000000000E+00 0.  1.
</event>
<event>
 7    1  0.8661710E-006  0.2206183E+03  0.7561462E-02  0.1133423E+00
         -1   -1    0    0    0  501 -0.00000000000E+00  0.00000000000E+00  0.55386298196E+02  0.55386298196E+02  0.00000000000E+00 0.  1.
          1   -1    0    0  501    0  0.00000000000E+00 -0.00000000000E+00 -0.10579640799E+04  0.10579640799E+04  0.00000000000E+00 0. -1.
         23    2    1    2    0    0 -0.72047000668E+00  0.21263354505E+03 -0.42948972643E+03  0.49530136510E+03  0.12509385918E+03 0.  0.
          5    1    3    3  502    0  0.26107777508E+02  0.22737134143E+02 -0.13834112881E+02  0.37515975192E+02  0.41800000000E+01 0. -1.
         -5    1    3    3    0  502 -0.26828247515E+02  0.18989641091E+03 -0.41565561355E+03  0.45778538991E+03  0.41800000000E+01 0. -1.
        -11    1    1    2    0    0  0.13676090721E+02 -0.70522556661E+02 -0.94901517833E+02  0.11902421830E+03  0.00000000000E+00 0.  1.
         11    1    1    2    0    0 -0.12955620715E+02 -0.14211098839E+03 -0.47818653747E+03  0.49902479472E+03  0.00000000000E+00 0. -1.
</event>
<event>
 7    1  0.8661710E-006  0.1722415E+03  0.7561462E-02  0.1175530E+00
          2   -1    0    0  501    0  0.00000000000E+00  0.00000000000E+00  0.30580221401E+03  0.30580221401E+03  0.00000000000E+00 0. -1.
         -2   -1    0    0    0  501 -0.00000000000E+00 -0.00000000000E+00 -0.10082418051E+03  0.10082418051E+03  0.00000000000E+00 0.  1.
         23    2    1    2    0    0 -0.11286863664E+03 -0.77408535049E+02  0.86562852411E+02  0.20463143319E+03  0.12509790405E+03 0.  0.
          5    1    3    3  502    0  0.49022093257E+01  0.24969694278E+02  0.27572924698E+02  0.37752561039E+02  0.41800000000E+01 0.  1.
         -5    1    3    3    0  502 -0.11777084596E+03 -0.10237822933E+03  0.58989927713E+02  0.16687887215E+03  0.41800000000E+01 0.  1.
        -11    1    1    2    0    0  0.30616169250E+02 -0.18867572097E+02  0.17085239274E+02  0.39815078770E+02  0.00000000000E+00 0.  1.
         11    1    1    2    0    0  0.82252467387E+02  0.96276107146E+02  0.10132994181E+03  0.16217988256E+03  0.00000000000E+00 0. -1.
</event>
<event>
 7    1  0.8661710E-006  0.1848623E+03  0.7561462E-02  0.1163179E+00
         -2   -1    0    0    0  501 -0.00000000000E+00  0.00000000000E+00  0.17573434926E+03  0.17573434926E+03  0.00000000000E+00 0.  1.
          2   -1    0    0  501    0  0.00000000000E+00 -0.00000000000E+00 -0.20625337469E+03  0.20625337469E+03  0.00000000000E+00 0. -1.
         23    2    1    2    0    0  0.13727566394E+03  0.67916437199E+02 -0.45585017072E+02  0.20292394011E+03  0.12507150489E+03 0.  0.
          5    1    3    3  502    0  0.14893835589E+03  0.84290380536E+02 -0.23539996374E+02  0.17279787595E+03  0.41800000000E+01 0.  1.
         -5    1    3    3    0  502 -0.11662691947E+02 -0.16373943337E+02 -0.22045020698E+02  0.30126064154E+02  0.41800000000E+01 0.  1.
        -11    1    1    2    0    0 -0.60863744735E+02 -0.80128721306E+02  0.23951773985E+01  0.10065159848E+03  0.00000000000E+00 0. -1.
         11    1    1    2    0    0 -0.76411919204E+02  0.12212284107E+02  0.12670814248E+02  0.78412185362E+02  0.00000000000E+00 0.  1.
</event>
<event>
 7    1  0.8661710E-006  0.1152602E+03  0.7561462E-02  0.1251128E+00
         -2   -1    0    0    0  501 -0.00000000000E+00  0.00000000000E+00  0.16891513803E+03  0.16891513803E+03  0.00000000000E+00 0.  1.
          2   -1    0    0  501    0  0.00000000000E+00 -0.00000000000E+00 -0.10718114750E+03  0.10718114750E+03  0.00000000000E+00 0. -1.
         23    2    1    2    0    0 -0.55293968529E+02 -0.36512941144E+02  0.80844646206E+02  0.16299314549E+03  0.12506114837E+03 0.  0.
          5    1    3    3  502    0 -0.28774989482E+02  0.44317746474E+02  0.48626042023E+02  0.71930709957E+02  0.41800000000E+01 0.  1.
         -5    1    3    3    0  502 -0.26518979047E+02 -0.80830687618E+02  0.32218604183E+02  0.91062435537E+02  0.41800000000E+01 0.  1.
        -11    1    1    2    0    0  0.56945371637E+02  0.11657615541E+01  0.19994185717E+02  0.60364739819E+02  0.00000000000E+00 0.  1.
         11    1    1    2    0    0 -0.16514031077E+01  0.35347179590E+02 -0.39104841398E+02  0.52738400221E+02  0.00000000000E+00 0. -1.
</event>
<event>
 7    1  0.8661710E-006  0.1372450E+03  0.7561462E-02  0.1217085E+00
          2   -1    0    0  501    0  0.00000000000E+00  0.00000000000E+00  0.19300180637E+03  0.19300180637E+03  0.00000000000E+00 0. -1.
         -2   -1    0    0    0  501 -0.00000000000E+00 -0.00000000000E+00 -0.12523581650E+03  0.12523581650E+03  0.00000000000E+00 0.  1.
         23    2    1    2    0    0 -0.32346199431E+02  0.10701764964E+03  0.51088455502E+02  0.17537716871E+03  0.12509223423E+03 0.  0.
          5    1    3    3  502    0 -0.58522453709E+02  0.15241649544E+02  0.51967927952E+02  0.79845622325E+02  0.41800000000E+01 0.  1.
         -5    1    3    3    0  502  0.26176254278E+02  0.91776000100E+02 -0.87947244914E+00  0.95531546382E+02  0.41800000000E+01 0.  1.
        -11    1    1    2    0    0  0.31483188593E+02 -0.38118596608E+02 -0.31645982944E+02  0.58699972810E+02  0.00000000000E+00 0.  1.
         11    1    1    2    0    0  0.86301083784E+00 -0.68899053036E+02  0.48323517304E+02  0.84160481353E+02  0.00000000000E+00 0. -1.
</event>
<event>
 7    1  0.8661710E-006  0.9130669E+02  0.7561462E-02  0.1299718E+00
          1   -1    0    0  501    0  0.00000000000E+00  0.00000000000E+00  0.51215742178E+03  0.51215742178E+03  0.00000000000E+00 0. -1.
         -1   -1    0    0    0  501 -0.00000000000E+00 -0.00000000000E+00 -0.33926666859E+02  0.33926666859E+02  0.00000000000E+00 0.  1.
         23    2    1    2    0    0 -0.27558663804E+02  0.52425084002E+02  0.17204124860E+03  0.22079134459E+03  0.12507100879E+03 0.  0.
          5    1    3    3  502    0  0.64151370993E+01  0.64372140144E+02  0.25218178544E+02  0.69558287355E+02  0.41800000000E+01 0.  1.
         -5    1    3    3    0  502 -0.33973800903E+02 -0.11947056142E+02  0.14682307006E+03  0.15123305723E+03  0.41800000000E+01 0.  1.
        -11    1    1    2    0    0  0.25470498777E+02  0.33751879960E+01  0.17108428634E+02  0.30868050348E+02  0.00000000000E+00 0.  1.
         11    1    1    2    0    0  0.20881650272E+01 -0.55800271998E+02  0.28908107769E+03  0.29442469371E+03  0.00000000000E+00 0. -1.
</event>
<event>
 7    1  0.8661710E-006  0.8494969E+02  0.7561462E-02  0.1315564E+00
          2   -1    0    0  501    0  0.00000000000E+00  0.00000000000E+00  0.10981997370E+03  0.10981997370E+03  0.00000000000E+00 0. -1.
         -2   -1    0    0    0  501 -0.00000000000E+00 -0.00000000000E+00 -0.15075131261E+03  0.15075131261E+03  0.00000000000E+00 0.  1.
         23    2    1    2    0    0 -0.17775302904E+02  0.66469435324E+02 -0.22961224410E+02  0.14459963304E+03  0.12509072237E+03 0.  0.
          5    1    3    3  502    0  0.17424077428E+02  0.39469494675E+02 -0.68387579910E+02  0.80967727954E+02  0.41800000000E+01 0. -1.
         -5    1    3    3    0  502 -0.35199380332E+02  0.26999940649E+02  0.45426355500E+02  0.63631905086E+02  0.41800000000E+01 0. -1.
        -11    1    1    2    0    0  0.32722851250E+02 -0.49970233817E+02 -0.49360884290E+02  0.77487458079E+02  0.00000000000E+00 0.  1.
         11    1    1    2    0    0 -0.14947548346E+02 -0.16499201507E+02  0.31390769787E+02  0.38484195194E+02  0.00000000000E+00 0. -1.
</event>
<event>
 7    1  0.8661710E-006  0.8216965E+02  0.7561462E-02  0.1323005E+00
         -1   -1    0    0    0  501 -0.00000000000E+00  0.00000000000E+00  0.26714843404E+03  0.26714843404E+03  0.00000000000E+00 0.  1.
          1   -1    0    0  501    0  0.00000000000E+00 -0.00000000000E+00 -0.50668240072E+02  0.50668240072E+02  0.00000000000E+00 0. -1.
         23    2    1    2    0    0 -0.37476987161E+02  0.86521838909E+01  0.14365342226E+03  0.19432637525E+03  0.12508816706E+03 0.  0.
          5    1    3    3  502    0 -0.54103782982E+02 -0.53300847658E+01  0.59416503822E+01  0.54848926570E+02  0.41800000000E+01 0. -1.
         -5    1    3    3    0  502  0.16626795821E+02  0.13982268657E+02  0.13771177188E+03  0.13947744868E+03  0.41800000000E+01 0. -1.
        -11    1    1    2    0    0  0.17400204392E+01  0.32864717681E+02  0.69820874101E+00  0.32918153576E+02  0.00000000000E+00 0. -1.
         11    1    1    2    0    0  0.35736966722E+02 -0.41516901572E+02  0.72128562970E+02  0.90572145291E+02  0.00000000000E+00 0.  1.
</event>
<event>
 7    1  0.8661710E-006  0.7158168E+02  0.7561462E-02  0.1354796E+00
         -1   -1    0    0    0  501 -0.00000000000E+00  0.00000000000E+00  0.18220886138E+03  0.18220886138E+03  0.00000000000E+00 0.  1.
          1   -1    0    0  501    0  0.00000000000E+00 -0.00000000000E+00 -0.84706055693E+02  0.84706055693E+02  0.00000000000E+00 0. -1.
         23    2    1    2    0    0 -0.15601553408E+01  0.11349430114E+02  0.11987688329E+03  0.17363610249E+03  0.12509110796E+03 0.  0.
          5    1    3    3  502    0  0.28814205400E+02  0.20370583623E+02 -0.12336311275E+02  0.37614838640E+02  0.41800000000E+01 0.  1.
         -5    1    3    3    0  502 -0.30374360741E+02 -0.90211535098E+01  0.13221319457E+03  0.13602126385E+03  0.41800000000E+01 0.  1.
        -11    1    1    2    0    0 -0.36602616047E+02 -0.42100622613E+01  0.14631802697E+02  0.39642978898E+02  0.00000000000E+00 0.  1.
         11    1    1    2    0    0  0.38162771388E+02 -0.71393678522E+01 -0.37005880300E+02  0.53635835689E+02  0.00000000000E+00 0. -1.
</event>
<event>
 7    1  0.8661710E-006  0.9651088E+02  0.7561462E-02  0.1287809E+00
         -2   -1    0    0    0  501 -0.00000000000E+00  0.00000000000E+00  0.20819647071E+02  0.20819647071E+02  0.00000000000E+00 0. -1.
          2   -1    0    0  501    0  0.00000000000E+00 -0.00000000000E+00 -0.73770853913E+03  0.73770853913E+03  0.00000000000E+00 0.  1.
         23    2    1    2    0    0  0.40797124964E+02 -0.19008923694E+02 -0.28091361864E+03  0.31078118321E+03  0.12508692223E+03 0.  0.
          5    1    3    3  502    0 -0.23872111751E+02  0.12232290930E+02 -0.76477038248E+01  0.28204014513E+02  0.41800000000E+01 0.  1.
         -5    1    3    3    0  502  0.64669236715E+02 -0.31241214624E+02 -0.27326591482E+03  0.28257716870E+03  0.41800000000E+01 0.  1.
        -11    1    1    2    0    0  0.19124481482E+02  0.27412885565E+02 -0.80575269295E+02  0.87232941650E+02  0.00000000000E+00 0. -1.
         11    1    1    2    0    0 -0.59921606446E+02 -0.84039618714E+01 -0.35540000412E+03  0.36051406134E+03  0.00000000000E+00 0.  1.
</event>
<event>
 7    1  0.8661710E-006  0.9784404E+02  0.7561462E-02  0.1284896E+00
         -1   -1    0    0    0  501 -0.00000000000E+00  0.00000000000E+00  0.43996787829E+02  0.43996787829E+02  0.00000000000E+00 0.  1.
          1   -1    0    0  501    0  0.00000000000E+00 -0.00000000000E+00 -0.42909976996E+03  0.42909976996E+03  0.00000000000E+00 0. -1.
         23    2    1    2    0    0 -0.61119496428E+02  0.43710786669E+02 -0.17707876706E+03  0.22945585731E+03  0.12508746938E+03 0.  0.
          5    1    3    3  502    0 -0.62743306533E+02  0.62461027729E+02 -0.51709886514E+02  0.10261328989E+03  0.41800000000E+01 0. -1.
         -5    1    3    3    0  502  0.16238101044E+01 -0.18750241060E+02 -0.12536888055E+03  0.12684256742E+03  0.41800000000E+01 0. -1.
        -11    1    1    2    0    0  0.41634740227E+02 -0.51990183583E+02 -0.21189677088E+03  0.22211859961E+03  0.00000000000E+00 0. -1.
         11    1    1    2    0    0  0.19484756202E+02  0.82793969135E+01  0.38725558082E+01  0.21522100873E+02  0.00000000000E+00 0.  1.
</event>
<event>
 7    1  0.8661710E-006  0.6175370E+02  0.7561462E-02  0.1390616E+00
          3   -1    0    0  501    0  0.00000000000E+00  0.00000000000E+00  0.18983267438E+03  0.18983267438E+03  0.00000000000E+00 0. -1.
         -3   -1    0    0    0  501 -0.00000000000E+00 -0.00000000000E+00 -0.96526805887E+02  0.96526805887E+02  0.00000000000E+00 0.  1.
         23    2    1    2    0    0  0.12562838280E+02  0.22942419261E+01 -0.34319612449E+02  0.13034028466E+03  0.12509062936E+03 0.  0.
          5    1    3    3  502    0 -0.15412390491E+02 -0.29102663799E+01  0.44004377747E+02  0.46902762093E+02  0.41800000000E+01 0.  1.
         -5    1    3    3    0  502  0.27975228771E+02  0.52045083060E+01 -0.78323990196E+02  0.83437522564E+02  0.41800000000E+01 0.  1.
        -11    1    1    2    0    0 -0.41064381501E+02 -0.19248257768E+02  0.33963395330E+02  0.56659430614E+02  0.00000000000E+00 0.  1.
         11    1    1    2    0    0  0.28501543221E+02  0.16954015842E+02  0.93662085616E+02  0.99359765001E+02  0.00000000000E+00 0. -1.
</event>
<event>
 7    1  0.8661710E-006  0.1372499E+03  0.7561462E-02  0.1217078E+00
          2   -1    0    0  501    0  0.00000000000E+00  0.00000000000E+00  0.46939951436E+03  0.46939951436E+03  0.00000000000E+00 0. -1.
         -2   -1    0    0    0  501 -0.00000000000E+00 -0.00000000000E+00 -0.61087976494E+02  0.61087976494E+02  0.00000000000E+00 0.  1.
         23    2    1    2    0    0 -0.20522551304E+02  0.11091484579E+03  0.11715989625E+03  0.20517628882E+03  0.12509032767E+03 0.  0.
          5    1    3    3  502    0  0.25013433183E+02  0.58091802284E+02  0.11950078150E+03  0.13527098178E+03  0.41800000000E+01 0.  1.
         -5    1    3    3    0  502 -0.45535984487E+02  0.52823043503E+02 -0.23408852555E+01  0.69905307037E+02  0.41800000000E+01 0.  1.
        -11    1    1    2    0    0  0.44699336361E+02 -0.23398589781E+02  0.14201189926E+03  0.15070800976E+03  0.00000000000E+00 0. -1.
         11    1    1    2    0    0 -0.24176785057E+02 -0.87516256007E+02  0.14913974236E+03  0.17460319227E+03  0.00000000000E+00 0.  1.
</event>
<event>
 7    1  0.8661710E-006  0.1100022E+03  0.7561462E-02  0.1260566E+00
          1   -1    0    0  501    0  0.00000000000E+00  0.00000000000E+00  0.12417416067E+03  0.12417416067E+03  0.00000000000E+00 0. -1.
         -1   -1    0    0    0  501 -0.00000000000E+00 -0.00000000000E+00 -0.26165285172E+03  0.26165285172E+03  0.00000000000E+00 0.  1.
         23    2    1    2    0    0 -0.85121909586E+02  0.24745202199E+02 -0.19402506032E+03  0.24728924471E+03  0.12509269360E+03 0.  0.
          5    1    3    3  502    0 -0.71021651598E+02  0.31313241510E+02 -0.31343343084E+02  0.83812121112E+02  0.41800000000E+01 0.  1.
         -5    1    3    3    0  502 -0.14100257987E+02 -0.65680393107E+01 -0.16268171724E+03  0.16347712360E+03  0.41800000000E+01 0.  1.
        -11    1    1    2    0    0  0.10373731918E+03 -0.14013424596E+02  0.43202780718E+02  0.11324437170E+03  0.00000000000E+00 0.  1.
         11    1    1    2    0    0 -0.18615409593E+02 -0.10731777604E+02  0.13343588559E+02  0.25293395986E+02  0.00000000000E+00 0. -1.
</event>
<event>
 7    1  0.8661710E-006  0.7070574E+02  0.7561462E-02  0.1357709E+00
          1   -1    0    0  501    0  0.00000000000E+00  0.00000000000E+00  0.33019147586E+02  0.33019147586E+02  0.00000000000E+00 0. -1.
         -1   -1    0    0    0  501 -0.00000000000E+00 -0.00000000000E+00 -0.11653934380E+04  0.11653934380E+04  0.00000000000E+00 0.  1.
         23    2    1    2    0    0 -0.54979066953E+01  0.12942822771E+01 -0.10604547382E+04  0.10662800144E+04  0.11116166206E+03 0.  0.
          5    1    3    3  502    0  0.20379755969E+02  0.22512156445E+02 -0.95651590758E+03  0.95700694120E+03  0.41800000000E+01 0. -1.
         -5    1    3    3    0  502 -0.25877662664E+02 -0.21217874168E+02 -0.10393883067E+03  0.10927307321E+03  0.41800000000E+01 0.  1.
        -11    1    1    2    0    0  0.35859063587E+02 -0.20308509978E+02 -0.84622146211E+02  0.94123406485E+02  0.00000000000E+00 0.  1.
         11    1    1    2    0    0 -0.30361156892E+02  0.19014227701E+02  0.12702594067E+02  0.38009164670E+02  0.00000000000E+00 0. -1.
</event>
<event>
 7    1  0.8661710E-006  0.9776239E+02  0.7561462E-02  0.1285073E+00
          4   -1    0    0  501    0  0.00000000000E+00  0.00000000000E+00  0.19550324595E+03  0.19550324595E+03  0.00000000000E+00 0. -1.
         -4   -1    0    0    0  501 -0.00000000000E+00 -0.00000000000E+00 -0.80187103929E+02  0.80187103929E+02  0.00000000000E+00 0.  1.
         23    2    1    2    0    0 -0.51063308948E+02  0.10768305226E+02  0.25030387032E+02  0.13783574257E+03  0.12509497887E+03 0.  0.
          5    1    3    3  502    0  0.29199562804E+02 -0.16732913808E+02 -0.22305379352E+02  0.40590728258E+02  0.41800000000E+01 0.  1.
         -5    1    3    3    0  502 -0.80262871752E+02  0.27501219034E+02  0.47335766384E+02  0.97245014316E+02  0.41800000000E+01 0.  1.
        -11    1    1    2    0    0  0.28670395260E+02  0.22581302266E+02  0.90609582290E+02  0.97683177564E+02  0.00000000000E+00 0. -1.
         11    1    1    2    0    0  0.22392913688E+02 -0.33349607492E+02 -0.32382730082E+00  0.40171429741E+02  0.00000000000E+00 0.  1.
</event>
<event>
 7    1  0.8661710E-006  0.1117859E+03  0.7561462E-02  0.1257298E+00
          3   -1    0    0  501    0  0.00000000000E+00  0.00000000000E+00  0.34657284342E+03  0.34657284342E+03  0.00000000000E+00 0. -1.
         -3   -1    0    0    0  501 -0.00000000000E+00 -0.00000000000E+00 -0.38901893025E+02  0.38901893025E+02  0.00000000000E+00 0.  1.
         23    2    1    2    0    0 -0.82490388090E+01 -0.37447253115E+02  0.16192962681E+03  0.20817942592E+03  0.12508847241E+03 0.  0.
          5    1    3    3  502    0  0.40152176534E+02  0.22152356101E+02  0.97636381299E+02  0.10795026408E+03  0.41800000000E+01 0.  1.
         -5    1    3    3    0  502 -0.48401215343E+02 -0.59599609215E+02  0.64293245512E+02  0.10022916184E+03  0.41800000000E+01 0.  1.
        -11    1    1    2    0    0 -0.94959417331E+01 -0.29699558463E+02  0.38728781612E+02  0.49720772394E+02  0.00000000000E+00 0. -1.
         11    1    1    2    0    0  0.17744980542E+02  0.67146811578E+02  0.10701254197E+03  0.12757453813E+03  0.00000000000E+00 0.  1.
</event>
<event>
 7    1  0.8661710E-006  0.1373402E+03  0.7561462E-02  0.1216953E+00
          2   -1    0    0  501    0  0.00000000000E+00  0.00000000000E+00  0.90733183173E+02  0.90733183173E+02  0.00000000000E+00 0. -1.
         -2   -1    0    0    0  501 -0.00000000000E+00 -0.00000000000E+00 -0.31014142049E+03  0.31014142049E+03  0.00000000000E+00 0.  1.
         23    2    1    2    0    0 -0.10498878300E+03  0.28352095632E+02 -0.19049983982E+03  0.25251480656E+03  0.12508817962E+03 0.  0.
          5    1    3    3  502    0 -0.11685710290E+02  0.63702692545E+02 -0.61822194956E+02  0.89632834674E+02  0.41800000000E+01 0.  1.
         -5    1    3    3    0  502 -0.93303072714E+02 -0.35350596914E+02 -0.12867764486E+03  0.16288197189E+03  0.41800000000E+01 0.  1.
        -11    1    1    2    0    0  0.83796973745E+02 -0.15759018100E+02 -0.63194854366E+02  0.10613137650E+03  0.00000000000E+00 0.  1.
         11    1    1    2    0    0  0.21191809260E+02 -0.12593077531E+02  0.34286456866E+02  0.42228420594E+02  0.00000000000E+00 0. -1.
</event>
<event>
 7    1  0.8661710E-006  0.8942590E+02  0.7561462E-02  0.1304248E+00
          2   -1    0    0  501    0  0.00000000000E+00  0.00000000000E+00  0.12262409083E+03  0.12262409083E+03  0.00000000000E+00 0. -1.
         -2   -1    0    0    0  501 -0.00000000000E+00 -0.00000000000E+00 -0.94203363062E+02  0.94203363062E+02  0.00000000000E+00 0.  1.
         23    2    1    2    0    0  0.80187401627E+01  0.12452313979E+02 -0.11249836132E+02  0.11547489032E+03  0.11396723724E+03 0.  0.
          5    1    3    3  502    0 -0.25120273254E+02  0.37116299488E+02  0.32224568425E+02  0.55358314879E+02  0.41800000000E+01 0. -1.
         -5    1    3    3    0  502  0.33139013416E+02 -0.24663985509E+02 -0.43474404558E+02  0.60116575444E+02  0.41800000000E+01 0.  1.
        -11    1    1    2    0    0 -0.46304191955E+02  0.10770711092E+02  0.13214096754E+02  0.49342666760E+02  0.00000000000E+00 0. -1.
         11    1    1    2    0    0  0.38285451792E+02 -0.23223025071E+02  0.26456467151E+02  0.52009896813E+02  0.00000000000E+00 0.  1.
</event>
<event>
 7    1  0.8661710E-006  0.1685330E+03  0.7561462E-02  0.1179386E+00
         -1   -1    0    0    0  501 -0.00000000000E+00  0.00000000000E+00  0.39397280641E+02  0.39397280641E+02  0.00000000000E+00 0.  1.
          1   -1    0    0  501    0  0.00000000000E+00 -0.00000000000E+00 -0.80851983437E+03  0.80851983437E+03  0.00000000000E+00 0. -1.
         23    2    1    2    0    0 -0.17348022848E+02  0.14117071129E+03 -0.34967308806E+03  0.39768018094E+03  0.12509250246E+03 0.  0.
          5    1    3    3  502    0  0.21695623471E+02 -0.14954720537E+02 -0.33005728036E+02  0.42440478641E+02  0.41800000000E+01 0. -1.
         -5    1    3    3    0  502 -0.39043646319E+02  0.15612543183E+03 -0.31666736003E+03  0.35523970230E+03  0.41800000000E+01 0. -1.
        -11    1    1    2    0    0 -0.15284028923E+02 -0.59949586523E+02 -0.88997558375E+02  0.10838874416E+03  0.00000000000E+00 0.  1.
         11    1    1    2    0    0  0.32632051771E+02 -0.81221124769E+02 -0.33045190729E+03  0.34184818991E+03  0.00000000000E+00 0. -1.
</event>
<event>
 7    1  0.8661710E-006  0.1218740E+03  0.7561462E-02  0.1240037E+00
         -2   -1    0    0    0  501 -0.00000000000E+00  0.00000000000E+00  0.83788480167E+02  0.83788480167E+02  0.00000000000E+00 0.  1.
          2   -1    0    0  501    0  0.00000000000E+00 -0.00000000000E+00 -0.20484125149E+03  0.20484125149E+03  0.00000000000E+00 0. -1.
         23    2    1    2    0    0 -0.71882572099E+02 -0.14312256088E+02 -0.64586372105E+02  0.15871641556E+03  0.12509019251E+03 0.  0.
          5    1    3    3  502    0 -0.95178779496E+02 -0.33243796091E+02 -0.76007155300E+02  0.12632778832E+03  0.41800000000E+01 0.  1.
         -5    1    3    3    0  502  0.23296207397E+02  0.18931540003E+02  0.11420783195E+02  0.32388627244E+02  0.41800000000E+01 0.  1.
        -11    1    1    2    0    0  0.60349134535E+02  0.47883951511E+02 -0.54488983474E+02  0.94360691877E+02  0.00000000000E+00 0. -1.
         11    1    1    2    0    0  0.11533437564E+02 -0.33571695423E+02 -0.19774157423E+01  0.35552624216E+02  0.00000000000E+00 0.  1.
</event>
<event>
 7    1  0.8661710E-006  0.1547263E+03  0.7561462E-02  0.1194783E+00
         -2   -1    0    0    0  501 -0.00000000000E+00  0.00000000000E+00  0.79430376088E+03  0.79430376088E+03  0.00000000000E+00 0.  1.
          2   -1    0    0  501    0  0.00000000000E+00 -0.00000000000E+00 -0.41675138208E+02  0.41675138208E+02  0.00000000000E+00 0. -1.
         23    2    1    2    0    0 -0.12268391935E+03  0.76918108155E+02  0.34836340173E+03  0.39745848629E+03  0.12509376174E+03 0.  0.
          5    1    3    3  502    0 -0.43007737897E+02 -0.86009567633E+01  0.21762310767E+03  0.22203813043E+03  0.41800000000E+01 0. -1.
         -5    1    3    3    0  502 -0.79676181452E+02  0.85519064918E+02  0.13074029407E+03  0.17542035585E+03  0.41800000000E+01 0. -1.
        -11    1    1    2    0    0  0.94200176461E+02 -0.41370423628E+02  0.36215733860E+03  0.37648787908E+03  0.00000000000E+00 0.  1.
         11    1    1    2    0    0  0.28483742889E+02 -0.35547684527E+02  0.42107882346E+02  0.62032533721E+02  0.00000000000E+00 0. -1.
</event>
<event>
 7    1  0.1064685E-005  0.3840945E+03  0.7561462E-02  0.1049431E+00
         -1   -1    0    0    0  501 -0.00000000000E+00  0.00000000000E+00  0.26256136111E+03  0.26256136111E+03  0.00000000000E+00 0.  1.
          1   -1    0    0  501    0  0.00000000000E+00 -0.00000000000E+00 -0.64331382983E+03  0.64331382983E+03  0.00000000000E+00 0. -1.
         23    2    1    2    0    0  0.29868326485E+03 -0.22810149301E+03 -0.54298513008E+02  0.39979732902E+03  0.12509033521E+03 0.  0.
          5    1    3    3  502    0  0.99120706433E+02 -0.16056754389E+02 -0.40201649608E+02  0.10824222298E+03  0.41800000000E+01 0. -1.
         -5    1    3    3    0  502  0.19956255842E+03 -0.21204473862E+03 -0.14096863400E+02  0.29155510604E+03  0.41800000000E+01 0. -1.
        -11    1    1    2    0    0 -0.18304464261E+03  0.12607132169E+03 -0.24810934422E+03  0.33310293608E+03  0.00000000000E+00 0. -1.
         11    1    1    2    0    0 -0.11563862225E+03  0.10203017132E+03 -0.78344611498E+02  0.17297492583E+03  0.00000000000E+00 0.  1.
</event>
<event>
 7    1  0.8661710E-006  0.8186989E+02  0.7561462E-02  0.1323827E+00
         -1   -1    0    0    0  501 -0.00000000000E+00  0.00000000000E+00  0.81519114323E+02  0.81519114323E+02  0.00000000000E+00 0.  1.
          1   -1    0    0  501    0  0.00000000000E+00 -0.00000000000E+00 -0.15053855697E+03  0.15053855697E+03  0.00000000000E+00 0. -1.
         23    2    1    2    0    0 -0.11839496716E+02  0.19377948558E+02 -0.25262230945E+02  0.12961693203E+03  0.12508673064E+03 0.  0.
          5    1    3    3  502    0 -0.15500863411E+02  0.62125385011E+02 -0.48696111072E+02  0.80551994779E+02  0.41800000000E+01 0.  1.
         -5    1    3    3    0  502  0.36613666954E+01 -0.42747436453E+02  0.23433880128E+02  0.49064937249E+02  0.41800000000E+01 0.  1.
        -11    1    1    2    0    0  0.13883709506E+02  0.15911880992E+02 -0.59949141198E+02  0.63559774046E+02  0.00000000000E+00 0. -1.
         11    1    1    2    0    0 -0.20442127902E+01 -0.35289829550E+02  0.16191929495E+02  0.38880965220E+02  0.00000000000E+00 0.  1.
</event>
<event>
 7    1  0.8661710E-006  0.1131460E+03  0.7561462E-02  0.1254852E+00
         -1   -1    0    0    0  501 -0.00000000000E+00  0.00000000000E+00  0.88020596433E+02  0.88020596433E+02  0.00000000000E+00 0.  1.
          1   -1    0    0  501    0  0.00000000000E+00 -0.00000000000E+00 -0.23897792106E+03  0.23897792106E+03  0.00000000000E+00 0. -1.
         23    2    1    2    0    0 -0.61510757314E+02  0.71953549801E+02 -0.64972375173E+02  0.16979348507E+03  0.12509009330E+03 0.  0.
          5    1    3    3  502    0  0.61720609639E+01 -0.77825269376E+01  0.27868951663E+02  0.29879975382E+02  0.41800000000E+01 0.  1.
         -5    1    3    3    0  502 -0.67682818278E+02  0.79736076739E+02 -0.92841326835E+02  0.13991350968E+03  0.41800000000E+01 0.  1.
        -11    1    1    2    0    0  0.51500359741E+02 -0.15894453105E+02 -0.84517401619E+02  0.10024027070E+03  0.00000000000E+00 0. -1.
         11    1    1    2    0    0  0.10010397572E+02 -0.56059096697E+02 -0.14675478342E+01  0.56964761727E+02  0.00000000000E+00 0.  1.
</event>
<event>
 7    1  0.8661710E-006  0.9823349E+02  0.7561462E-02  0.1284055E+00
          3   -1    0    0  501    0  0.00000000000E+00  0.00000000000E+00  0.29522869411E+03  0.29522869411E+03  0.00000000000E+00 0. -1.
         -3   -1    0    0    0  501 -0.00000000000E+00 -0.00000000000E+00 -0.41727625339E+02  0.41727625339E+02  0.00000000000E+00 0.  1.
         23    2    1    2    0    0 -0.20247345219E+02  0.97662424523E+01  0.12995948734E+03  0.18177471383E+03  0.12508894339E+03 0.  0.
          5    1    3    3  502    0 -0.57901225897E+02  0.23696743629E+02  0.21890815120E+02  0.66413611599E+02  0.41800000000E+01 0.  1.
         -5    1    3    3    0  502  0.37653880678E+02 -0.13930501177E+02  0.10806867222E+03  0.11536110223E+03  0.41800000000E+01 0.  1.
        -11    1    1    2    0    0 -0.29628259260E+01  0.39146990459E+02  0.44070509836E+02  0.59020971160E+02  0.00000000000E+00 0.  1.
         11    1    1    2    0    0  0.23210171145E+02 -0.48913232911E+02  0.79471071591E+02  0.96160634452E+02  0.00000000000E+00 0. -1.
</event>
<event>
 7    1  0.8661710E-006  0.1590476E+03  0.7561462E-02  0.1189776E+00
          2   -1    0    0  501    0  0.00000000000E+00  0.00000000000E+00  0.40172143479E+03  0.40172143479E+03  0.00000000000E+00 0. -1.
         -2   -1    0    0    0  501 -0.00000000000E+00 -0.00000000000E+00 -0.76786632340E+02  0.76786632340E+02  0.00000000000E+00 0.  1.
         23    2    1    2    0    0  0.59270793579E+02  0.10723410868E+03  0.86409820455E+02  0.19525803849E+03  0.12508742338E+03 0.  0.
          5    1    3    3  502    0 -0.32405048153E+02  0.57641663532E+02  0.55583244188E+02  0.86484784529E+02  0.41800000000E+01 0. -1.
         -5    1    3    3    0  502  0.91675841732E+02  0.49592445146E+02  0.30826576266E+02  0.10877325396E+03  0.41800000000E+01 0. -1.
        -11    1    1    2    0    0  0.13644813157E+02 -0.57900864372E+02  0.61613931417E+02  0.85644425188E+02  0.00000000000E+00 0.  1.
         11    1    1    2    0    0 -0.72915606735E+02 -0.49333244305E+02  0.17691105058E+03  0.19760560345E+03  0.00000000000E+00 0. -1.
</event>
<event>
 7    1  0.8661710E-006  0.1552811E+03  0.7561462E-02  0.1194130E+00
         -1   -1    0    0    0  501 -0.00000000000E+00  0.00000000000E+00  0.35446264051E+02  0.35446264051E+02  0.00000000000E+00 0.  1.
          1   -1    0    0  501    0  0.00000000000E+00 -0.00000000000E+00 -0.73321675357E+03  0.73321675357E+03  0.00000000000E+00 0. -1.
         23    2    1    2    0    0 -0.61842881627E+01  0.11710642247E+03 -0.34186091884E+03  0.38245024694E+03  0.12508854445E+03 0.  0.
          5    1    3    3  502    0 -0.13069098971E+02  0.13999538779E+03 -0.32093434327E+03  0.35040809785E+03  0.41800000000E+01 0. -1.
         -5    1    3    3    0  502  0.68848108079E+01 -0.22888965320E+02 -0.20926575569E+02  0.32042149090E+02  0.41800000000E+01 0. -1.
        -11    1    1    2    0    0 -0.38803577312E+02 -0.72761776638E+02 -0.15449689008E+03  0.17512647657E+03  0.00000000000E+00 0.  1.
         11    1    1    2    0    0  0.44987865474E+02 -0.44344645831E+02 -0.20141268060E+03  0.21108629411E+03  0.00000000000E+00 0. -1.
</event>
<event>
 7    1  0.8661710E-006  0.8787782E+02  0.7561462E-02  0.1308074E+00
         -4   -1    0    0    0  501 -0.00000000000E+00  0.00000000000E+00  0.23919292233E+03  0.23919292233E+03  0.00000000000E+00 0.  1.
          4   -1    0    0  501    0  0.00000000000E+00 -0.00000000000E+00 -0.71169631977E+02  0.71169631977E+02  0.00000000000E+00 0. -1.
         23    2    1    2    0    0  0.64468571045E+02  0.25403587304E+02  0.11182783375E+03  0.18153384874E+03  0.12509010727E+03 0.  0.
          5    1    3    3  502    0  0.50478854907E+02  0.54191897209E+02  0.12605305832E+03  0.14625909348E+03  0.41800000000E+01 0.  1.
         -5    1    3    3    0  502  0.13989716138E+02 -0.28788309904E+02 -0.14225224564E+02  0.35274755260E+02  0.41800000000E+01 0.  1.
        -11    1    1    2    0    0 -0.37746972617E+02 -0.15332408905E+02  0.81215565971E+02  0.90861899939E+02  0.00000000000E+00 0.  1.
         11    1    1    2    0    0 -0.26721598428E+02 -0.10071178399E+02 -0.25020109367E+02  0.37966805628E+02  0.00000000000E+00 0. -1.
</event>
<event>
 7    1  0.8661710E-006  0.7052483E+02  0.7561462E-02  0.1358317E+00
          2   -1    0    0  501    0  0.00000000000E+00  0.00000000000E+00  0.93432540906E+02  0.93432540906E+02  0.00000000000E+00 0. -1.
         -2   -1    0    0    0  501 -0.00000000000E+00 -0.00000000000E+00 -0.17779953087E+03  0.17779953087E+03  0.00000000000E+00 0.  1.
         23    2    1    2    0    0  0.34863852122E+02 -0.11518163040E+02 -0.10926953382E+03  0.17010413822E+03  0.12508969004E+03 0.  0.
          5    1    3    3  502    0  0.16118000267E+02  0.40066869543E+02 -0.10648927523E+03  0.11498948694E+03  0.41800000000E+01 0. -1.
         -5    1    3    3    0  502  0.18745851855E+02 -0.51585032583E+02 -0.27802585887E+01  0.55114651284E+02  0.41800000000E+01 0. -1.
        -11    1    1    2    0    0 -0.19644333176E+02 -0.48821052429E+01 -0.33190040732E+02  0.38875616797E+02  0.00000000000E+00 0.  1.
         11    1    1    2    0    0 -0.15219518946E+02  0.16400268283E+02  0.58092584590E+02  0.62252316753E+02  0.00000000000E+00 0. -1.
</event>
<event>
 7    1  0.8661710E-006  0.1179465E+03  0.7561462E-02  0.1246524E+00
         -2   -1    0    0    0  501 -0.00000000000E+00  0.00000000000E+00  0.22182961678E+02  0.22182961678E+02  0.00000000000E+00 0.  1.
          2   -1    0    0  501    0  0.00000000000E+00 -0.00000000000E+00 -0.90101324225E+03  0.90101324225E+03  0.00000000000E+00 0. -1.
         23    2    1    2    0    0 -0.92935207972E+02  0.29431855853E+02 -0.49468696422E+03  0.51936975409E+03  0.12460562536E+03 0.  0.
          5    1    3    3  502    0 -0.39845532455E+02 -0.34075823470E+02 -0.33843230598E+03  0.34249485592E+03  0.41800000000E+01 0.  1.
         -5    1    3    3    0  502 -0.53089675516E+02  0.63507679323E+02 -0.15625465825E+03  0.17687489817E+03  0.41800000000E+01 0.  1.
        -11    1    1    2    0    0  0.36095161610E+02  0.66267602017E+00 -0.40661633764E+02  0.54375254404E+02  0.00000000000E+00 0.  1.
         11    1    1    2    0    0  0.56840046361E+02 -0.30094531873E+02 -0.34348168259E+03  0.34945119544E+03  0.00000000000E+00 0. -1.
</event>
<event>
 7    1  0.8661710E-006  0.1668479E+03  0.7561462E-02  0.1181175E+00
          1   -1    0    0  501    0  0.00000000000E+00  0.00000000000E+00  0.13006153844E+03  0.13006153844E+03  0.00000000000E+00 0. -1.
         -1   -1    0    0    0  501 -0.00000000000E+00 -0.00000000000E+00 -0.29933980682E+03  0.29933980682E+03  0.00000000000E+00 0.  1.
         23    2    1    2    0    0  0.13246857658E+03 -0.77886514644E+02 -0.15412155637E+03  0.25102856108E+03  0.12509057277E+03 0.  0.
          5    1    3    3  502    0  0.67444322757E+01 -0.49916817372E+02 -0.54178361094E+00  0.50546433631E+02  0.41800000000E+01 0.  1.
         -5    1    3    3    0  502  0.12572414430E+03 -0.27969697272E+02 -0.15357977276E+03  0.20048212745E+03  0.41800000000E+01 0.  1.
        -11    1    1    2    0    0 -0.16719772228E+02  0.15483571804E+02 -0.38576869370E+02  0.44804761238E+02  0.00000000000E+00 0.  1.
         11    1    1    2    0    0 -0.11574880435E+03  0.62402942840E+02  0.23420157359E+02  0.13356802295E+03  0.00000000000E+00 0. -1.
</event>
<event>
 7    1  0.8661710E-006  0.1416507E+03  0.7561462E-02  0.1211125E+00
          1   -1    0    0  501    0  0.00000000000E+00  0.00000000000E+00  0.49031194315E+03  0.49031194315E+03  0.00000000000E+00 0. -1.
         -1   -1    0    0    0  501 -0.00000000000E+00 -0.00000000000E+00 -0.54629429171E+02  0.54629429171E+02  0.00000000000E+00 0.  1.
         23    2    1    2    0    0  0.10479782839E+03 -0.51404764751E+02  0.17242167001E+03  0.24290167406E+03  0.12508779436E+03 0.  0.
          5    1    3    3  502    0 -0.53458950709E+01  0.14624653201E+02  0.87299648363E+02  0.88775898078E+02  0.41800000000E+01 0. -1.
         -5    1    3    3    0  502  0.11014372346E+03 -0.66029417952E+02  0.85122021648E+02  0.15412577598E+03  0.41800000000E+01 0. -1.
        -11    1    1    2    0    0 -0.15907730615E+02 -0.19371572724E+02  0.15512939985E+02  0.29478212804E+02  0.00000000000E+00 0.  1.
         11    1    1    2    0    0 -0.88890097771E+02  0.70776337474E+02  0.24774790398E+03  0.27256148546E+03  0.00000000000E+00 0. -1.
</event>
<event>
 7    1  0.8661710E-006  0.9700060E+02  0.7561462E-02  0.1286733E+00
         -1   -1    0    0    0  501 -0.00000000000E+00  0.00000000000E+00  0.21978245927E+02  0.21978245927E+02  0.00000000000E+00 0.  1.
          1   -1    0    0  501    0  0.00000000000E+00 -0.00000000000E+00 -0.85930652550E+03  0.85930652550E+03  0.00000000000E+00 0. -1.
         23    2    1    2    0    0 -0.50697629206E+02  0.53629136602E+02 -0.32746956774E+03  0.35823347524E+03  0.12509424883E+03 0.  0.
          5    1    3    3  502    0 -0.29266991736E+02  0.15468538710E+02 -0.30858506093E+03  0.31038370564E+03  0.41800000000E+01 0. -1.
         -5    1    3    3    0  502 -0.21430637470E+02  0.38160597893E+02 -0.18884506803E+02  0.47849769603E+02  0.41800000000E+01 0. -1.
        -11    1    1    2    0    0  0.18472134215E+02  0.25351455182E+02 -0.14490839621E+03  0.14826449108E+03  0.00000000000E+00 0. -1.
         11    1    1    2    0    0  0.32225494992E+02 -0.78980591784E+02 -0.36495031563E+03  0.37478680511E+03  0.00000000000E+00 0.  1.
</event>
<event>
 7    1  0.8661710E-006  0.9797269E+02  0.7561462E-02  0.1284618E+00
         -2   -1    0    0    0  501 -0.00000000000E+00  0.00000000000E+00  0.26969957750E+03  0.26969957750E+03  0.00000000000E+00 0.  1.
          2   -1    0    0  501    0  0.00000000000E+00 -0.00000000000E+00 -0.43763625872E+02  0.43763625872E+02  0.00000000000E+00 0. -1.
         23    2    1    2    0    0 -0.13915943075E+02 -0.28903468386E+02  0.15028499638E+03  0.19814276319E+03  0.12508361409E+03 0.  0.
          5    1    3    3  502    0  0.38434103709E+02 -0.51843640611E+02  0.46730211869E+02  0.79788022291E+02  0.41800000000E+01 0. -1.
         -5    1    3    3    0  502 -0.52350046784E+02  0.22940172225E+02  0.10355478451E+03  0.11835474090E+03  0.41800000000E+01 0. -1.
        -11    1    1    2    0    0  0.36831602041E+02 -0.31451461776E+00  0.68107817940E+02  0.77429585385E+02  0.00000000000E+00 0.  1.
         11    1    1    2    0    0 -0.22915658966E+02  0.29217983004E+02  0.75431373153E+01  0.37890854797E+02  0.00000000000E+00 0. -1.
</event>
<event>
 7    1  0.8661710E-006  0.1047706E+03  0.7561462E-02  0.1270572E+00
         -2   -1    0    0    0  501 -0.00000000000E+00  0.00000000000E+00  0.16687466285E+02  0.16687466285E+02  0.00000000000E+00 0.  1.
          2   -1    0    0  501    0  0.00000000000E+00 -0.00000000000E+00 -0.76550684863E+03  0.76550684863E+03  0.00000000000E+00 0. -1.
         23    2    1    2    0    0 -0.29801806918E+02 -0.12584836859E+02 -0.41835465644E+03  0.43785274885E+03  0.12509150767E+03 0.  0.
          5    1    3    3  502    0  0.41348969852E+02 -0.27617293932E+02 -0.24119737732E+03  0.24630489126E+03  0.41800000000E+01 0.  1.
         -5    1    3    3    0  502 -0.71150776770E+02  0.15032457073E+02 -0.17715727912E+03  0.19154785759E+03  0.41800000000E+01 0.  1.
        -11    1    1    2    0    0 -0.24886695717E+02  0.19580992246E+02 -0.55452915553E+02  0.63857565913E+02  0.00000000000E+00 0.  1.
         11    1    1    2    0    0  0.54688502635E+02 -0.69961553871E+01 -0.27501181034E+03  0.28048400015E+03  0.00000000000E+00 0. -1.
</event>
<event>
 7    1  0.8661710E-006  0.1255412E+03  0.7561462E-02  0.1234226E+00
          1   -1    0    0  501    0  0.00000000000E+00  0.00000000000E+00  0.42331362246E+03  0.42331362246E+03  0.00000000000E+00 0. -1.
         -1   -1    0    0    0  501 -0.00000000000E+00 -0.00000000000E+00 -0.53414148911E+02  0.53414148911E+02  0.00000000000E+00 0.  1.
         23    2    1    2    0    0  0.89929895787E+02  0.22340434692E+01  0.11842028234E+03  0.19439578230E+03  0.12519576590E+03 0.  0.
          5    1    3    3  502    0  0.10934632454E+03 -0.18397262402E+02  0.52974761464E+02  0.12295883745E+03  0.41800000000E+01 0. -1.
         -5    1    3    3    0  502 -0.19416428752E+02  0.20631305871E+02  0.65445520872E+02  0.71436944851E+02  0.41800000000E+01 0.  1.
        -11    1    1    2    0    0 -0.49958100485E+02 -0.33996215564E+02  0.63977854292E+02  0.88004092613E+02  0.00000000000E+00 0.  1.
         11    1    1    2    0    0 -0.39971795302E+02  0.31762172095E+02  0.18750133692E+03  0.19432789646E+03  0.00000000000E+00 0. -1.
</event>
<event>
 7    1  0.8661710E-006  0.1155909E+03  0.7561462E-02  0.1250553E+00
          4   -1    0    0  501    0  0.00000000000E+00  0.00000000000E+00  0.17341676985E+03  0.17341676985E+03  0.00000000000E+00 0. -1.
         -4   -1    0    0    0  501 -0.00000000000E+00 -0.00000000000E+00 -0.11276268175E+03  0.11276268175E+03  0.00000000000E+00 0.  1.
         23    2    1    2    0    0  0.29286247298E+02 -0.81255114637E+02  0.20798971050E+02  0.15342409387E+03  0.12508508083E+03 0.  0.
          5    1    3    3  502    0 -0.32349724614E+02 -0.11392223148E+02 -0.31281679972E+02  0.46607974991E+02  0.41800000000E+01 0.  1.
         -5    1    3    3    0  502  0.61635971912E+02 -0.69862891489E+02  0.52080651022E+02  0.10681611888E+03  0.41800000000E+01 0.  1.
        -11    1    1    2    0    0 -0.46402721341E+02  0.54122373510E+02  0.61420133912E+02  0.94100354474E+02  0.00000000000E+00 0.  1.
         11    1    1    2    0    0  0.17116474044E+02  0.27132741127E+02 -0.21565016868E+02  0.38655003263E+02  0.00000000000E+00 0. -1.
</event>
<event>
 7    1  0.8661710E-006  0.1054533E+03  0.7561462E-02  0.1269229E+00
         -3   -1    0    0    0  501 -0.00000000000E+00  0.00000000000E+00  0.86429742788E+02  0.86429742788E+02  0.00000000000E+00 0.  1.
          3   -1    0    0  501    0  0.00000000000E+00 -0.00000000000E+00 -0.22640402371E+03  0.22640402371E+03  0.00000000000E+00 0. -1.
         23    2    1    2    0    0 -0.71549714064E+02 -0.82385048105E+01 -0.18346744788E+02  0.14549677054E+03  0.12508186379E+03 0.  0.
          5    1    3    3  502    0 -0.10066303139E+03  0.13621971394E+02 -0.31699412851E+02  0.10649379873E+03  0.41800000000E+01 0. -1.
         -5    1    3    3    0  502  0.29113317323E+02 -0.21860476205E+02  0.13352668064E+02  0.39002971808E+02  0.41800000000E+01 0. -1.
        -11    1    1    2    0    0  0.25413080540E+02  0.73276998801E+01 -0.11813490415E+03  0.12105938802E+03  0.00000000000E+00 0. -1.
         11    1    1    2    0    0  0.46136633524E+02  0.91080493038E+00 -0.34926319803E+01  0.46277607941E+02  0.00000000000E+00 0.  1.
</event>
<event>
 7    1  0.8661710E-006  0.1115670E+03  0.7561462E-02  0.1257695E+00
          2   -1    0    0  501    0  0.00000000000E+00  0.00000000000E+00  0.73086098402E+02  0.73086098402E+02  0.00000000000E+00 0.  1.
         -2   -1    0    0    0  501 -0.00000000000E+00 -0.00000000000E+00 -0.42931927025E+03  0.42931927025E+03  0.00000000000E+00 0. -1.
         23    2    1    2    0    0 -0.32435418805E+01  0.61220401059E+02 -0.36662310370E+03  0.39219654705E+03  0.12508866168E+03 0.  0.
          5    1    3    3  502    0  0.87568185172E+01  0.86993407723E+02 -0.14997087533E+03  0.17364697148E+03  0.41800000000E+01 0.  1.
         -5    1    3    3    0  502 -0.12000360398E+02 -0.25773006664E+02 -0.21665222838E+03  0.21854957557E+03  0.41800000000E+01 0.  1.
        -11    1    1    2    0    0  0.31681939452E+02 -0.70220781790E+02  0.18640466344E+02  0.79260144260E+02  0.00000000000E+00 0.  1.
         11    1    1    2    0    0 -0.28438397572E+02  0.90003807309E+01 -0.82505344901E+01  0.30948677340E+02  0.00000000000E+00 0. -1.
</event>
<event>
 6    1  0.8661710E-006  0.7673553E+02  0.7561462E-02  0.1338579E+00
          1   -1    0    0  501    0  0.00000000000E+00  0.00000000000E+00  0.78347343703E+02  0.78347343703E+02  0.00000000000E+00 0. -1.
         -1   -1    0    0    0  501 -0.00000000000E+00 -0.00000000000E+00 -0.20419199293E+03  0.20419199293E+03  0.00000000000E+00 0.  1.
          5    1    1    2  502    0 -0.15249858085E+02  0.44394508233E+01  0.34858827574E+02  0.38534103792E+02  0.41800000000E+01 0. -1.
         -5    1    1    2    0  502  0.15828455130E+02  0.45106783791E+02 -0.12216749941E+03  0.13125369423E+03  0.41800000000E+01 0.  1.
        -11    1    1    2    0    0 -0.36316700925E+02 -0.14799858165E+02  0.12746839702E+02  0.41236155133E+02  0.00000000000E+00 0. -1.
         11    1    1    2    0    0  0.35738103879E+02 -0.34746376450E+02 -0.51282817092E+02  0.71515383479E+02  0.00000000000E+00 0.  1.
</event>
<event>
 6    1  0.8661710E-006  0.1660440E+03  0.7561462E-02  0.1182037E+00
         -2   -1    0    0    0  501 -0.00000000000E+00  0.00000000000E+00  0.52652293700E+02  0.52652293700E+02  0.00000000000E+00 0.  1.
          2   -1    0    0  501    0  0.00000000000E+00 -0.00000000000E+00 -0.66139844378E+03  0.66139844378E+03  0.00000000000E+00 0. -1.
          5    1    1    2  502    0  0.29309547305E+02 -0.17066604758E+02 -0.91896255478E+02  0.98044442637E+02  0.41800000000E+01 0. -1.
         -5    1    1    2    0  502 -0.15358993953E+02  0.14889474953E+03 -0.13302897942E+03  0.20029909361E+03  0.41800000000E+01 0.  1.
        -11    1    1    2    0    0  0.25640184550E+02 -0.33601195808E+02 -0.49902276114E+02  0.65396456975E+02  0.00000000000E+00 0. -1.
         11    1    1    2    0    0 -0.39590737902E+02 -0.98226948964E+02 -0.33391863907E+03  0.35031074426E+03  0.00000000000E+00 0.  1.
</event>
<event>
 7    1  0.8661710E-006  0.1112699E+03  0.7561462E-02  0.1258236E+00
         -2   -1    0    0    0  501 -0.00000000000E+00  0.00000000000E+00  0.95582497905E+02  0.95582497905E+02  0.00000000000E+00 0.  1.
          2   -1    0    0  501    0  0.00000000000E+00 -0.00000000000E+00 -0.25379242064E+03  0.25379242064E+03  0.00000000000E+00 0. -1.
         23    2    1    2    0    0  0.34400046078E+02 -0.36001984161E+01  0.34113417093E+02  0.13419369636E+03  0.12509155974E+03 0.  0.
          5    1    3    3  502    0  0.79951926326E+02 -0.15236696919E+02  0.13168584890E+02  0.82555142082E+02  0.41800000000E+01 0.  1.
         -5    1    3    3    0  502 -0.45551880248E+02  0.11636498503E+02  0.20944832203E+02  0.51638554274E+02  0.41800000000E+01 0.  1.
        -11    1    1    2    0    0  0.68470114997E+01 -0.36009922403E+02 -0.51709078755E+02  0.63383159464E+02  0.00000000000E+00 0.  1.
         11    1    1    2    0    0 -0.41247057578E+02  0.39610120819E+02 -0.14061426107E+03  0.15179806272E+03  0.00000000000E+00 0. -1.
</event>
<event>
 7    1  0.8661710E-006  0.1080455E+03  0.7561462E-02  0.1264233E+00
          4   -1    0    0  501    0  0.00000000000E+00  0.00000000000E+00  0.24686513951E+03  0.24686513951E+03  0.00000000000E+00 0. -1.
         -4   -1    0    0    0  501 -0.00000000000E+00 -0.00000000000E+00 -0.57835695898E+02  0.57835695898E+02  0.00000000000E+00 0.  1.
         23    2    1    2    0    0  0.42943986159E+02 -0.17895290230E+02  0.82259606470E+02  0.15677535617E+03  0.12508973613E+03 0.  0.
          5    1    3    3  502    0  0.32481249679E+02 -0.69052861504E+02  0.28099604929E+02  0.81427203438E+02  0.41800000000E+01 0. -1.
         -5    1    3    3    0  502  0.10462736479E+02  0.51157571274E+02  0.54160001541E+02  0.75348152732E+02  0.41800000000E+01 0. -1.
        -11    1    1    2    0    0  0.18261088994E+00  0.39186072972E+02  0.87938732845E+02  0.96274619688E+02  0.00000000000E+00 0. -1.
         11    1    1    2    0    0 -0.43126597049E+02 -0.21290782742E+02  0.18831104293E+02  0.51650859544E+02  0.00000000000E+00 0.  1.
</event>
<event>
 7    1  0.8661710E-006  0.1042868E+03  0.7561462E-02  0.1271531E+00
          2   -1    0    0  501    0  0.00000000000E+00  0.00000000000E+00  0.27437993579E+02  0.27437993579E+02  0.00000000000E+00 0. -1.
         -2   -1    0    0    0  501 -0.00000000000E+00 -0.00000000000E+00 -0.75455997361E+03  0.75455997361E+03  0.00000000000E+00 0.  1.
         23    2    1    2    0    0  0.28680243096E+02 -0.40330172973E+02 -0.60842331457E+03  0.62311692404E+03  0.12508673836E+03 0.  0.
          5    1    3    3  502    0  0.40000302456E+02  0.24064665760E+02 -0.43855444274E+03  0.44105170216E+03  0.41800000000E+01 0. -1.
         -5    1    3    3    0  502 -0.11320059360E+02 -0.64394838733E+02 -0.16986887183E+03  0.18206522188E+03  0.41800000000E+01 0. -1.
        -11    1    1    2    0    0  0.97901326895E+00 -0.24697964520E+02 -0.60093514608E+01  0.25437378469E+02  0.00000000000E+00 0. -1.
         11    1    1    2    0    0 -0.29659256365E+02  0.65028137493E+02 -0.11268931400E+03  0.13344366469E+03  0.00000000000E+00 0.  1.
</event>
<event>
 7    1  0.8661710E-006  0.1217980E+03  0.7561462E-02  0.1240160E+00
         -1   -1    0    0    0  501 -0.00000000000E+00  0.00000000000E+00  0.20673136536E+02  0.20673136536E+02  0.00000000000E+00 0.  1.
          1   -1    0    0  501    0  0.00000000000E+00 -0.00000000000E+00 -0.76238484221E+03  0.76238484221E+03  0.00000000000E+00 0. -1.
         23    2    1    2    0    0 -0.43638617119E+02  0.38394934241E+02 -0.43777617057E+03  0.45899250463E+03  0.12509054284E+03 0.  0.
          5    1    3    3  502    0 -0.53115112481E+02  0.79200900103E+02 -0.31904714757E+03  0.33302034851E+03  0.41800000000E+01 0.  1.
         -5    1    3    3    0  502  0.94764953614E+01 -0.40805965862E+02 -0.11872902300E+03  0.12597215612E+03  0.41800000000E+01 0.  1.
        -11    1    1    2    0    0  0.46159590093E+02  0.18033573358E+02 -0.89380513351E+02  0.10219977345E+03  0.00000000000E+00 0. -1.
         11    1    1    2    0    0 -0.25209729738E+01 -0.56428507599E+02 -0.21455502175E+03  0.22186570067E+03  0.00000000000E+00 0.  1.
</event>
<event>
 7    1  0.8661710E-006  0.2058773E+03  0.7561462E-02  0.1144873E+00
         -2   -1    0    0    0  501 -0.00000000000E+00  0.00000000000E+00  0.18778092755E+03  0.18778092755E+03  0.00000000000E+00 0.  1.
          2   -1    0    0  501    0  0.00000000000E+00 -0.00000000000E+00 -0.25076807194E+03  0.25076807194E+03  0.00000000000E+00 0. -1.
         23    2    1    2    0    0  0.10243301561E+03  0.14788555035E+03  0.21370473871E+02  0.22014818701E+03  0.12508344575E+03 0.  0.
          5    1    3    3  502    0 -0.14144072702E+02 -0.12523301783E+02 -0.52039298013E+01  0.20035996744E+02  0.41800000000E+01 0.  1.
         -5    1    3    3    0  502  0.11657708831E+03  0.16040885214E+03  0.26574403673E+02  0.20011219027E+03  0.41800000000E+01 0.  1.
        -11    1    1    2    0    0 -0.71987097780E+02 -0.40818030234E+02 -0.65419295290E+02  0.10548904225E+03  0.00000000000E+00 0. -1.
         11    1    1    2    0    0 -0.30445917832E+02 -0.10706752012E+03 -0.18938322971E+02  0.11291177022E+03  0.00000000000E+00 0.  1.
</event>
<event>
 7    1  0.8661710E-006  0.1305276E+03  0.7561462E-02  0.1226675E+00
          2   -1    0    0  501    0  0.00000000000E+00  0.00000000000E+00  0.90954306663E+03  0.90954306663E+03  0.00000000000E+00 0. -1.
         -2   -1    0    0    0  501 -0.00000000000E+00 -0.00000000000E+00 -0.20178897097E+02  0.20178897097E+02  0.00000000000E+00 0.  1.
         23    2    1    2    0    0  0.82812343778E+02 -0.28352772930E+02  0.46003632880E+03  0.48470869341E+03  0.12508928666E+03 0.  0.
          5    1    3    3  502    0  0.85388204595E+02  0.26331222788E+02  0.20239006311E+03  0.22127740243E+03  0.41800000000E+01 0. -1.
         -5    1    3    3    0  502 -0.25758608172E+01 -0.54683995718E+02  0.25764626569E+03  0.26343129099E+03  0.41800000000E+01 0. -1.
        -11    1    1    2    0    0 -0.21162289524E+02  0.47617016052E+02  0.21038309587E+03  0.21674009722E+03  0.00000000000E+00 0.  1.
         11    1    1    2    0    0 -0.61650054254E+02 -0.19264243122E+02  0.21894474486E+03  0.22827317309E+03  0.00000000000E+00 0. -1.
</event>
<event>
 7    1  0.8661710E-006  0.1209651E+03  0.7561462E-02  0.1241513E+00
         -1   -1    0    0    0  501 -0.00000000000E+00  0.00000000000E+00  0.71696863579E+03  0.71696863579E+03  0.00000000000E+00 0.  1.
          1   -1    0    0  501    0  0.00000000000E+00 -0.00000000000E+00 -0.36442933433E+02  0.36442933433E+02  0.00000000000E+00 0. -1.
         23    2    1    2    0    0  0.10379670466E+03 -0.34446378781E+02  0.47638016134E+03  0.50452519089E+03  0.12508917304E+03 0.  0.
          5    1    3    3  502    0  0.12945060062E+02 -0.23286651309E+01 -0.41492958986E+01  0.14411326024E+02  0.41800000000E+01 0.  1.
         -5    1    3    3    0  502  0.90851644601E+02 -0.32117713650E+02  0.48052945724E+03  0.49011386486E+03  0.41800000000E+01 0.  1.
        -11    1    1    2    0    0 -0.13532743139E+02  0.39016940581E+02  0.25110559393E+02  0.48332152675E+02  0.00000000000E+00 0. -1.
         11    1    1    2    0    0 -0.90263961524E+02 -0.45705618001E+01  0.17903498162E+03  0.20055422565E+03  0.00000000000E+00 0.  1.
</event>
<event>
 7    1  0.8661710E-006  0.1084418E+03  0.7561462E-02  0.1263483E+00
          2   -1    0    0  501    0  0.00000000000E+00  0.00000000000E+00  0.65005851910E+02  0.65005851910E+02  0.00000000000E+00 0. -1.
         -2   -1    0    0    0  501 -0.00000000000E+00 -0.00000000000E+00 -0.20664838943E+03  0.20664838943E+03  0.00000000000E+00 0.  1.
         23    2    1    2    0    0 -0.22829112935E+01  0.41691520231E+02 -0.83121518437E+02  0.15588429238E+03  0.12508929307E+03 0.  0.
          5    1    3    3  502    0  0.47702394017E+02 -0.19367577814E+02 -0.43276659689E+02  0.67386668853E+02  0.41800000000E+01 0. -1.
         -5    1    3    3    0  502 -0.49985305310E+02  0.61059098045E+02 -0.39844858748E+02  0.88497623525E+02  0.41800000000E+01 0. -1.
        -11    1    1    2    0    0  0.14651729797E+01  0.22232299643E+02 -0.45307655694E+02  0.50489657791E+02  0.00000000000E+00 0.  1.
         11    1    1    2    0    0  0.81773831380E+00 -0.63923819874E+02 -0.13213363388E+02  0.65280291171E+02  0.00000000000E+00 0. -1.
</event>
<event>
 7    1  0.8661710E-006  0.9962840E+02  0.7561462E-02  0.1281079E+00
         -1   -1    0    0    0  501 -0.00000000000E+00  0.00000000000E+00  0.22048683640E+03  0.22048683640E+03  0.00000000000E+00 0.  1.
          1   -1    0    0  501    0  0.00000000000E+00 -0.00000000000E+00 -0.71530564361E+02  0.71530564361E+02  0.00000000000E+00 0. -1.
         23    2    1    2    0    0  0.15918678354E+02  0.51292489337E+02  0.11460050944E+03  0.17794629424E+03  0.12508910059E+03 0.  0.
          5    1    3    3  502    0  0.26341458688E+02 -0.32792959381E+02  0.70839432238E+02  0.82492109868E+02  0.41800000000E+01 0.  1.
         -5    1    3    3    0  502 -0.10422780333E+02  0.84085448718E+02  0.43761077203E+02  0.95454184371E+02  0.41800000000E+01 0.  1.
        -11    1    1    2    0    0  0.17387894427E+02 -0.16024702817E+02  0.56123794076E+02  0.60901643939E+02  0.00000000000E+00 0.  1.
         11    1    1    2    0    0 -0.33306572782E+02 -0.35267786521E+02 -0.21768031480E+02  0.53169462580E+02  0.00000000000E+00 0. -1.
</event>
<event>
 7    1  0.8661710E-006  0.7319948E+02  0.7561462E-02  0.1349539E+00
         -1   -1    0    0    0  501 -0.00000000000E+00  0.00000000000E+00  0.63278288062E+02  0.63278288062E+02  0.00000000000E+00 0.  1.
          1   -1    0    0  501    0  0.00000000000E+00 -0.00000000000E+00 -0.22057485535E+03  0.22057485535E+03  0.00000000000E+00 0. -1.
         23    2    1    2    0    0 -0.24648172544E+02  0.29864984458E+01 -0.41712072946E+02  0.13417833625E+03  0.12508987691E+03 0.  0.
          5    1    3    3  502    0  0.85006062007E+01  0.37972943658E+02  0.28852842876E+02  0.48622666503E+02  0.41800000000E+01 0. -1.
         -5    1    3    3    0  502 -0.33148778745E+02 -0.34986445212E+02 -0.70564915822E+02  0.85555669747E+02  0.41800000000E+01 0. -1.
        -11    1    1    2    0    0  0.11332994461E+02 -0.28188702306E+02  0.25238087413E+00  0.30382616695E+02  0.00000000000E+00 0.  1.
         11    1    1    2    0    0  0.13315178084E+02  0.25202203860E+02 -0.11583687522E+03  0.11929219047E+03  0.00000000000E+00 0. -1.
</event>
<event>
 7    1  0.8661710E-006  0.7359863E+02  0.7561462E-02  0.1348266E+00
         -2   -1    0    0    0  501 -0.00000000000E+00  0.00000000000E+00  0.53493839593E+03  0.53493839593E+03  0.00000000000E+00 0.  1.
          2   -1    0    0  501    0  0.00000000000E+00 -0.00000000000E+00 -0.29100599528E+02  0.29100599528E+02  0.00000000000E+00 0. -1.
         23    2    1    2    0    0 -0.58930435617E+02  0.20584219785E+02  0.29336164480E+03  0.32496909109E+03  0.12508936479E+03 0.  0.
          5    1    3    3  502    0 -0.75986737967E+00  0.24415956497E+00 -0.12359186063E+02  0.13071300335E+02  0.41800000000E+01 0.  1.
         -5    1    3    3    0  502 -0.58170568237E+02  0.20340060220E+02  0.30572083086E+03  0.31189779076E+03  0.41800000000E+01 0.  1.
        -11    1    1    2    0    0  0.55583577543E+02  0.45969934312E+01  0.20520169528E+03  0.21264619015E+03  0.00000000000E+00 0.  1.
         11    1    1    2    0    0  0.33468580740E+01 -0.25181213216E+02  0.72744563297E+01  0.26423714214E+02  0.00000000000E+00 0. -1.
</event>
<event>
 6    1  0.8661710E-006  0.4023583E+03  0.7561462E-02  0.1042966E+00
         -2   -1    0    0    0  501 -0.00000000000E+00  0.00000000000E+00  0.13303311259E+03  0.13303311259E+03  0.00000000000E+00 0.  1.
          2   -1    0    0  501    0  0.00000000000E+00 -0.00000000000E+00 -0.16228867834E+04  0.16228867834E+04  0.00000000000E+00 0. -1.
          5    1    1    2  502    0  0.19639498489E+02  0.22832331102E+03 -0.28808101024E+03  0.36813772574E+03  0.41800000000E+01 0. -1.
         -5    1    1    2    0  502  0.91714846982E+02  0.15000770101E+03 -0.75892655567E+02  0.19154918712E+03  0.41800000000E+01 0.  1.
        -11    1    1    2    0    0 -0.27397872924E+02 -0.27187627149E+02 -0.17286156654E+03  0.17711841151E+03  0.00000000000E+00 0. -1.
         11    1    1    2    0    0 -0.83956472547E+02 -0.35114338487E+03 -0.95301843845E+03  0.10191145716E+04  0.00000000000E+00 0.  1.
</event>
<event>
 7    1  0.8661710E-006  0.8816685E+02  0.7561462E-02  0.1307353E+00
          2   -1    0    0  501    0  0.00000000000E+00  0.00000000000E+00  0.60764830764E+03  0.60764830764E+03  0.00000000000E+00 0. -1.
         -2   -1    0    0    0  501 -0.00000000000E+00 -0.00000000000E+00 -0.33413553811E+02  0.33413553811E+02  0.00000000000E+00 0.  1.
         23    2    1    2    0    0  0.60338229198E+02  0.58260042104E+02  0.23417909418E+03  0.27842777653E+03  0.12508894508E+03 0.  0.
          5    1    3    3  502    0  0.31925118977E+02  0.59290415396E+01  0.21236436051E+03  0.21487312715E+03  0.41800000000E+01 0. -1.
         -5    1    3    3    0  502  0.28413110221E+02  0.52331000564E+02  0.21814733666E+02  0.63554649377E+02  0.41800000000E+01 0. -1.
        -11    1    1    2    0    0 -0.13921711904E+02 -0.14702391993E+02  0.40457162138E+01  0.20648055898E+02  0.00000000000E+00 0.  1.
         11    1    1    2    0    0 -0.46416517294E+02 -0.43557650110E+02  0.33600994344E+03  0.34198602903E+03  0.00000000000E+00 0. -1.
</event>
<event>
 7    1  0.8661710E-006  0.1323162E+03  0.7561462E-02  0.1224059E+00
         -3   -1    0    0    0  501 -0.00000000000E+00  0.00000000000E+00  0.13114736245E+03  0.13114736245E+03  0.00000000000E+00 0.  1.
          3   -1    0    0  501    0  0.00000000000E+00 -0.00000000000E+00 -0.13843785300E+03  0.13843785300E+03  0.00000000000E+00 0. -1.
         23    2    1    2    0    0 -0.74320696883E+02 -0.20991160696E+02  0.20248022765E+02  0.14839763704E+03  0.12509069286E+03 0.  0.
          5    1    3    3  502    0  0.34904302514E+02  0.11675793166E+01  0.77251075428E+00  0.35181568304E+02  0.41800000000E+01 0. -1.
         -5    1    3    3    0  502 -0.10922499940E+03 -0.22158740012E+02  0.19475512010E+02  0.11321606874E+03  0.41800000000E+01 0. -1.
        -11    1    1    2    0    0  0.10689002094E+02 -0.32869885459E+02 -0.59699918698E+01  0.35075988066E+02  0.00000000000E+00 0.  1.
         11    1    1    2    0    0  0.63631694789E+02  0.53861046155E+02 -0.21568521441E+02  0.86111590345E+02  0.00000000000E+00 0. -1.
</event>
<event>
 6    1  0.8661710E-006  0.1144773E+03  0.7561462E-02  0.1252496E+00
          1   -1    0    0  501    0  0.00000000000E+00  0.00000000000E+00  0.74772425922E+02  0.74772425922E+02  0.00000000000E+00 0. -1.
         -1   -1    0    0    0  501 -0.00000000000E+00 -0.00000000000E+00 -0.44592388728E+03  0.44592388728E+03  0.00000000000E+00 0.  1.
          5    1    1    2  502    0  0.49678555575E+02 -0.24705872654E+02 -0.95926646820E+02  0.11089514416E+03  0.41800000000E+01 0. -1.
         -5    1    1    2    0  502 -0.76453637630E+02 -0.40194518584E+01 -0.29808142516E+03  0.30778454010E+03  0.41800000000E+01 0.  1.
        -11    1    1    2    0    0  0.27143637094E+02 -0.28533175812E+02 -0.23554846539E+01  0.39452090751E+02  0.00000000000E+00 0. -1.
         11    1    1    2    0    0 -0.36855503923E+00  0.57258500325E+02  0.25212095268E+02  0.62564538199E+02  0.00000000000E+00 0.  1.
</event>
<event>
 7    1  0.8661710E-006  0.1012935E+03  0.7561462E-02  0.1277599E+00
          2   -1    0    0  501    0  0.00000000000E+00  0.00000000000E+00  0.23664773074E+03  0.23664773074E+03  0.00000000000E+00 0. -1.
         -2   -1    0    0    0  501 -0.00000000000E+00 -0.00000000000E+00 -0.73430257303E+02  0.73430257303E+02  0.00000000000E+00 0.  1.
         23    2    1    2    0    0  0.13414713571E+01 -0.77671692350E+02  0.71430515663E+02  0.16366240126E+03  0.12509345179E+03 0.  0.
          5    1    3    3  502    0  0.21689354170E+02 -0.27895648126E+02 -0.31457732067E+02  0.47493753015E+02  0.41800000000E+01 0.  1.
         -5    1    3    3    0  502 -0.20347882812E+02 -0.49776044225E+02  0.10288824773E+03  0.11616864824E+03  0.41800000000E+01 0.  1.
        -11    1    1    2    0    0  0.83770549902E+01 -0.16442736625E+02  0.22739462365E+02  0.29285180325E+02  0.00000000000E+00 0. -1.
         11    1    1    2    0    0 -0.97185263473E+01  0.94114428976E+02  0.69047495413E+02  0.11713040646E+03  0.00000000000E+00 0.  1.
</event>
<event>
 7    1  0.8661710E-006  0.1096720E+03  0.7561462E-02  0.1261179E+00
          2   -1    0    0  501    0  0.00000000000E+00  0.00000000000E+00  0.18655171796E+03  0.18655171796E+03  0.00000000000E+00 0. -1.
         -2   -1    0    0    0  501 -0.00000000000E+00 -0.00000000000E+00 -0.78048932105E+02  0.78048932105E+02  0.00000000000E+00 0.  1.
         23    2    1    2    0    0 -0.24095169697E+02  0.31235781664E+02  0.24964846408E+02  0.13352032690E+03  0.12509269716E+03 0.  0.
          5    1    3    3  502    0 -0.17688064190E+02  0.77993702739E+02  0.25389598600E+00  0.80083844469E+02  0.41800000000E+01 0.  1.
         -5    1    3    3    0  502 -0.64071055071E+01 -0.46757921076E+02  0.24710950422E+02  0.53436482435E+02  0.41800000000E+01 0.  1.
        -11    1    1    2    0    0  0.26494267025E-01 -0.56782209227E+02  0.23328851352E+02  0.61387745455E+02  0.00000000000E+00 0.  1.
         11    1    1    2    0    0  0.24068675430E+02  0.25546427563E+02  0.60209088098E+02  0.69692577709E+02  0.00000000000E+00 0. -1.
</event>
<event>
 7    1  0.8661710E-006  0.1145784E+03  0.7561462E-02  0.1252319E+00
         -1   -1    0    0    0  501 -0.00000000000E+00  0.00000000000E+00  0.27809384572E+03  0.27809384572E+03  0.00000000000E+00 0.  1.
          1   -1    0    0  501    0  0.00000000000E+00 -0.00000000000E+00 -0.69080840716E+02  0.69080840716E+02  0.00000000000E+00 0. -1.
         23    2    1    2    0    0 -0.82104435082E+02 -0.29684819965E+02  0.10182675078E+03  0.18340694311E+03  0.12508834002E+03 0.  0.
          5    1    3    3  502    0 -0.55698084530E+02 -0.66480354379E+02  0.18955201789E+02  0.88874553239E+02  0.41800000000E+01 0. -1.
         -5    1    3    3    0  502 -0.26406350553E+02  0.36795534414E+02  0.82871548991E+02  0.94532389870E+02  0.41800000000E+01 0. -1.
        -11    1    1    2    0    0  0.65038775985E+02  0.40521067608E+02  0.27273683478E+02  0.81337894688E+02  0.00000000000E+00 0. -1.
         11    1    1    2    0    0  0.17065659097E+02 -0.10836247643E+02  0.79912570748E+02  0.82429848640E+02  0.00000000000E+00 0.  1.
</event>
<event>
 7    1  0.8661710E-006  0.1256679E+03  0.7561462E-02  0.1234029E+00
         -2   -1    0    0    0  501 -0.00000000000E+00  0.00000000000E+00  0.42477626147E+02  0.42477626147E+02  0.00000000000E+00 0.  1.
          2   -1    0    0  501    0  0.00000000000E+00 -0.00000000000E+00 -0.45725530387E+03  0.45725530387E+03  0.00000000000E+00 0. -1.
         23    2    1    2    0    0  0.37280008915E+01 -0.82716912898E+02 -0.17554321013E+03  0.23090931693E+03  0.12509080042E+03 0.  0.
          5    1    3    3  502    0 -0.34335958620E+02  0.15837980382E+02 -0.20413751442E+02  0.43173988985E+02  0.41800000000E+01 0. -1.
         -5    1    3    3    0  502  0.38063959512E+02 -0.98554893280E+02 -0.15512945869E+03  0.18773532794E+03  0.41800000000E+01 0. -1.
        -11    1    1    2    0    0 -0.33782631961E+02  0.23498396858E+02 -0.34864815565E+02  0.53935111398E+02  0.00000000000E+00 0.  1.
         11    1    1    2    0    0  0.30054631070E+02  0.59218516040E+02 -0.20436965202E+03  0.21488850169E+03  0.00000000000E+00 0. -1.
</event>
<event>
 7    1  0.8661710E-006  0.1336474E+03  0.7561462E-02  0.1222142E+00
         -1   -1    0    0    0  501 -0.00000000000E+00  0.00000000000E+00  0.44575763695E+03  0.44575763695E+03  0.00000000000E+00 0.  1.
          1   -1    0    0  501    0  0.00000000000E+00 -0.00000000000E+00 -0.49132465633E+02  0.49132465633E+02  0.00000000000E+00 0. -1.
         23    2    1    2    0    0  0.95128399944E+02 -0.16859400823E+02  0.20393110177E+03  0.25800985698E+03  0.12509012814E+03 0.  0.
          5    1    3    3  502    0  0.58720805348E+02  0.51850591054E+02  0.83274329238E+02  0.11440586997E+03  0.41800000000E+01 0. -1.
         -5    1    3    3    0  502  0.36407594596E+02 -0.68709991877E+02  0.12065677253E+03  0.14360398701E+03  0.41800000000E+01 0. -1.
        -11    1    1    2    0    0 -0.72329289824E+02 -0.12915639859E+02  0.18436354976E+03  0.19846475355E+03  0.00000000000E+00 0.  1.
         11    1    1    2    0    0 -0.22799110120E+02  0.29775040681E+02  0.83305197838E+01  0.38415492053E+02  0.00000000000E+00 0. -1.
</event>
<event>
 7    1  0.8661710E-006  0.1435303E+03  0.7561462E-02  0.1208656E+00
          2   -1    0    0  501    0  0.00000000000E+00  0.00000000000E+00  0.17282636420E+03  0.17282636420E+03  0.00000000000E+00 0.  1.
         -2   -1    0    0    0  501 -0.00000000000E+00 -0.00000000000E+00 -0.24842435222E+03  0.24842435222E+03  0.00000000000E+00 0. -1.
         23    2    1    2    0    0  0.94709732449E+02 -0.65919022533E+02 -0.17484774885E+03  0.24399767445E+03  0.12509148215E+03 0.  0.
          5    1    3    3  502    0  0.76621729357E+02  0.89620987746E+01 -0.36169975631E+02  0.85305030105E+02  0.41800000000E+01 0.  1.
         -5    1    3    3    0  502  0.18088003093E+02 -0.74881121308E+02 -0.13867777322E+03  0.15869264435E+03  0.41800000000E+01 0.  1.
        -11    1    1    2    0    0 -0.55698192573E+02 -0.41526119090E+00  0.80763914981E+02  0.98108465796E+02  0.00000000000E+00 0.  1.
         11    1    1    2    0    0 -0.39011539876E+02  0.66334283724E+02  0.18485845853E+02  0.79144576173E+02  0.00000000000E+00 0. -1.
</event>
<event>
 7    1  0.8661710E-006  0.1198589E+03  0.7561462E-02  0.1243330E+00
          1   -1    0    0  501    0  0.00000000000E+00  0.00000000000E+00  0.43911597250E+02  0.43911597250E+02  0.00000000000E+00 0. -1.
         -1   -1    0    0    0  501 -0.00000000000E+00 -0.00000000000E+00 -0.46886458595E+03  0.46886458595E+03  0.00000000000E+00 0.  1.
         23    2    1    2    0    0 -0.40170025277E+02 -0.77942799960E+02 -0.28209550962E+03  0.32080187328E+03  0.12508898573E+03 0.  0.
          5    1    3    3  502    0 -0.89424577842E+01 -0.10444854888E+03 -0.15471227081E+03  0.18693000308E+03  0.41800000000E+01 0.  1.
         -5    1    3    3    0  502 -0.31227567493E+02  0.26505748923E+02 -0.12738323882E+03  0.13387187019E+03  0.41800000000E+01 0.  1.
        -11    1    1    2    0    0  0.32768935865E+02  0.27880485360E+02 -0.13382105464E+03  0.14056741901E+03  0.00000000000E+00 0.  1.
         11    1    1    2    0    0  0.74010894129E+01  0.50062314600E+02 -0.90364244450E+01  0.51406890923E+02  0.00000000000E+00 0. -1.
</event>
<event>
 6    1  0.8661710E-006  0.1691013E+03  0.7561462E-02  0.1178788E+00
          2   -1    0    0  501    0  0.00000000000E+00  0.00000000000E+00  0.27351981087E+03  0.27351981087E+03  0.00000000000E+00 0. -1.
         -2   -1    0    0    0  501 -0.00000000000E+00 -0.00000000000E+00 -0.16875553134E+03  0.16875553134E+03  0.00000000000E+00 0.  1.
          5    1    1    2  502    0 -0.35251210493E+02  0.15535873693E-01  0.90606122762E+02  0.97311818216E+02  0.41800000000E+01 0. -1.
         -5    1    1    2    0  502 -0.53223552288E+02 -0.13147188588E+03 -0.75429718073E+02  0.16070070959E+03  0.41800000000E+01 0.  1.
        -11    1    1    2    0    0  0.75764138418E+02  0.12589020337E+03  0.79100575803E+02  0.16686955704E+03  0.00000000000E+00 0. -1.
         11    1    1    2    0    0  0.12710624363E+02  0.55661466323E+01  0.10487299043E+02  0.17393257350E+02  0.00000000000E+00 0.  1.
</event>
<event>
 7    1  0.8661710E-006  0.1121294E+03  0.7561462E-02  0.1256677E+00
         -2   -1    0    0    0  501 -0.00000000000E+00  0.00000000000E+00  0.86194339981E+02  0.86194339981E+02  0.00000000000E+00 0.  1.
          2   -1    0    0  501    0  0.00000000000E+00 -0.00000000000E+00 -0.27862801411E+03  0.27862801411E+03  0.00000000000E+00 0. -1.
         23    2    1    2    0    0  0.18178801459E+02  0.97885228373E+02 -0.49744853954E+02  0.16743411758E+03  0.12509055311E+03 0.  0.
          5    1    3    3  502    0  0.10688799585E+01  0.79538179812E+02 -0.89768201766E+02  0.12001361173E+03  0.41800000000E+01 0.  1.
         -5    1    3    3    0  502  0.17109921500E+02  0.18347048562E+02  0.40023347812E+02  0.47420505846E+02  0.41800000000E+01 0.  1.
        -11    1    1    2    0    0  0.19525798830E+02 -0.69453345782E+01  0.36240237100E+01  0.21038727153E+02  0.00000000000E+00 0.  1.
         11    1    1    2    0    0 -0.37704600289E+02 -0.90939893795E+02 -0.14631284388E+03  0.17634950936E+03  0.00000000000E+00 0. -1.
</event>
<event>
 7    1  0.8661710E-006  0.1586550E+03  0.7561462E-02  0.1190224E+00
          1   -1    0    0  501    0  0.00000000000E+00  0.00000000000E+00  0.19117827658E+03  0.19117827658E+03  0.00000000000E+00 0. -1.
         -1   -1    0    0    0  501 -0.00000000000E+00 -0.00000000000E+00 -0.17633809403E+03  0.17633809403E+03  0.00000000000E+00 0.  1.
         23    2    1    2    0    0  0.65856790321E+02  0.12481265545E+03 -0.35148643173E+02  0.19182858707E+03  0.12508982337E+03 0.  0.
          5    1    3    3  502    0  0.89929616839E+02  0.10386237039E+03 -0.61164489769E+02  0.15044366114E+03  0.41800000000E+01 0.  1.
         -5    1    3    3    0  502 -0.24072826518E+02  0.20950285061E+02  0.26015846596E+02  0.41384925937E+02  0.41800000000E+01 0.  1.
        -11    1    1    2    0    0 -0.39705655410E+02 -0.31252994988E+02 -0.21661277393E+02  0.54977265352E+02  0.00000000000E+00 0.  1.
         11    1    1    2    0    0 -0.26151134911E+02 -0.93559660464E+02  0.71650103117E+02  0.12071051818E+03  0.00000000000E+00 0. -1.
</event>
<event>
 6    1  0.8661710E-006  0.9765426E+02  0.7561462E-02  0.1285307E+00
          3   -1    0    0  501    0  0.00000000000E+00  0.00000000000E+00  0.40525726552E+03  0.40525726552E+03  0.00000000000E+00 0. -1.
         -3   -1    0    0    0  501 -0.00000000000E+00 -0.00000000000E+00 -0.75248722974E+02  0.75248722974E+02  0.00000000000E+00 0.  1.
          5    1    1    2  502    0  0.14828893773E+02 -0.62986042659E+02  0.17578542724E+03  0.18736362104E+03  0.41800000000E+01 0. -1.
         -5    1    1    2    0  502  0.14749351366E+02  0.36381768206E+02 -0.51501392372E+02  0.64892543792E+02  0.41800000000E+01 0.  1.
        -11    1    1    2    0    0  0.26181343169E+02 -0.53453689159E+01  0.25603134523E+02  0.37007515404E+02  0.00000000000E+00 0.  1.
         11    1    1    2    0    0 -0.55759588308E+02  0.31949643369E+02  0.18012137316E+03  0.19124230826E+03  0.00000000000E+00 0. -1.
</event>
<event>
 7    1  0.8661710E-006  0.9589371E+02  0.7561462E-02  0.1289176E+00
         -4   -1    0    0    0  501 -0.00000000000E+00  0.00000000000E+00  0.12044565584E+03  0.12044565584E+03  0.00000000000E+00 0.  1.
          4   -1    0    0  501    0  0.00000000000E+00 -0.00000000000E+00 -0.10784997512E+03  0.10784997512E+03  0.00000000000E+00 0. -1.
         23    2    1    2    0    0 -0.26121556407E+02  0.33780423064E+01  0.27006509376E+02  0.13066189489E+03  0.12509769122E+03 0.  0.
          5    1    3    3  502    0 -0.40818321997E+02  0.57987866923E+02  0.12491300011E+02  0.72126507588E+02  0.41800000000E+01 0.  1.
         -5    1    3    3    0  502  0.14696765590E+02 -0.54609824616E+02  0.14515209365E+02  0.58535387300E+02  0.41800000000E+01 0.  1.
        -11    1    1    2    0    0 -0.12993345709E+02 -0.18073471872E+02 -0.42020135457E+02  0.47551752881E+02  0.00000000000E+00 0. -1.
         11    1    1    2    0    0  0.39114902116E+02  0.14695429566E+02  0.27609306805E+02  0.50081983187E+02  0.00000000000E+00 0.  1.
</event>
<event>
 7    1  0.8661710E-006  0.6809571E+02  0.7561462E-02  0.1366691E+00
         -1   -1    0    0    0  501 -0.00000000000E+00  0.00000000000E+00  0.26616865825E+03  0.26616865825E+03  0.00000000000E+00 0.  1.
          1   -1    0    0  501    0  0.00000000000E+00 -0.00000000000E+00 -0.17917536118E+03  0.17917536118E+03  0.00000000000E+00 0. -1.
         23    2    1    2    0    0  0.11793510741E+02  0.14717084474E+02  0.24153801988E+03  0.26619416690E+03  0.11028617309E+03 0.  0.
          5    1    3    3  502    0  0.35114747715E+02 -0.42609409619E+01  0.16740586644E+02  0.39356330700E+02  0.41800000000E+01 0. -1.
         -5    1    3    3    0  502 -0.23321236974E+02  0.18978025436E+02  0.22479743323E+03  0.22683783620E+03  0.41800000000E+01 0.  1.
        -11    1    1    2    0    0  0.28358133088E+02 -0.83595993243E+01 -0.13753329261E+02  0.32607064861E+02  0.00000000000E+00 0.  1.
         11    1    1    2    0    0 -0.40151643828E+02 -0.63574851498E+01 -0.14079139355E+03  0.14654278767E+03  0.00000000000E+00 0. -1.
</event>
<event>
 7    1  0.8661710E-006  0.1222200E+03  0.7561462E-02  0.1239479E+00
          1   -1    0    0  501    0  0.00000000000E+00  0.00000000000E+00  0.56353331476E+03  0.56353331476E+03  0.00000000000E+00 0. -1.
         -1   -1    0    0    0  501 -0.00000000000E+00 -0.00000000000E+00 -0.27513517420E+02  0.27513517420E+02  0.00000000000E+00 0.  1.
         23    2    1    2    0    0  0.53413301698E+02  0.10224747308E+02  0.25030826336E+03  0.28506795873E+03  0.12510790596E+03 0.  0.
          5    1    3    3  502    0  0.50655661398E+01  0.63574963256E+02  0.10698010173E+03  0.12461801828E+03  0.41800000000E+01 0.  1.
         -5    1    3    3    0  502  0.48347735558E+02 -0.53350215948E+02  0.14332816163E+03  0.16044994045E+03  0.41800000000E+01 0.  1.
        -11    1    1    2    0    0  0.74894186685E+00 -0.44372552989E+02  0.96193762665E+02  0.10593736049E+03  0.00000000000E+00 0.  1.
         11    1    1    2    0    0 -0.54162243564E+02  0.34147805682E+02  0.18951777131E+03  0.20004151295E+03  0.00000000000E+00 0. -1.
</event>
<event>
 7    1  0.8661710E-006  0.1291555E+03  0.7561462E-02  0.1228714E+00
         -3   -1    0    0    0  501 -0.00000000000E+00  0.00000000000E+00  0.30606970962E+03  0.30606970962E+03  0.00000000000E+00 0.  1.
          3   -1    0    0  501    0  0.00000000000E+00 -0.00000000000E+00 -0.69725731177E+02  0.69725731177E+02  0.00000000000E+00 0. -1.
         23    2    1    2    0    0 -0.88349302690E+02 -0.19085258740E+02  0.17596440959E+03  0.23405366701E+03  0.12509116361E+03 0.  0.
          5    1    3    3  502    0 -0.44102242809E+02  0.50860751051E+02  0.53048487454E+02  0.85810478611E+02  0.41800000000E+01 0.  1.
         -5    1    3    3    0  502 -0.44247059881E+02 -0.69946009791E+02  0.12291592213E+03  0.14824318840E+03  0.41800000000E+01 0.  1.
        -11    1    1    2    0    0  0.26342610854E+02  0.35160701022E+02  0.63948061380E+02  0.77585840185E+02  0.00000000000E+00 0.  1.
         11    1    1    2    0    0  0.62006691836E+02 -0.16075442282E+02 -0.35684925258E+01  0.64155933598E+02  0.00000000000E+00 0. -1.
</event>
<event>
 7    1  0.8661710E-006  0.1054193E+03  0.7561462E-02  0.1269296E+00
         -1   -1    0    0    0  501 -0.00000000000E+00  0.00000000000E+00  0.80595916418E+02  0.80595916418E+02  0.00000000000E+00 0.  1.
          1   -1    0    0  501    0  0.00000000000E+00 -0.00000000000E+00 -0.17532435350E+03  0.17532435350E+03  0.00000000000E+00 0. -1.
         23    2    1    2    0    0  0.27242033934E+02  0.24755011732E+02 -0.19078086398E+02  0.13177888878E+03  0.12508702222E+03 0.  0.
          5    1    3    3  502    0  0.13805833877E+02 -0.48215446324E+02 -0.26880164425E+02  0.57055639097E+02  0.41800000000E+01 0.  1.
         -5    1    3    3    0  502  0.13436200057E+02  0.72970458056E+02  0.78020780270E+01  0.74723249678E+02  0.41800000000E+01 0.  1.
        -11    1    1    2    0    0  0.71917133674E+01 -0.45454776299E+02 -0.69706316784E+02  0.83527408850E+02  0.00000000000E+00 0. -1.
         11    1    1    2    0    0 -0.34433747301E+02  0.20699764567E+02 -0.59440338985E+01  0.40613972292E+02  0.00000000000E+00 0.  1.
</event>
<event>
 7    1  0.8661710E-006  0.1112203E+03  0.7561462E-02  0.1258327E+00
          2   -1    0    0  501    0  0.00000000000E+00  0.00000000000E+00  0.14038817002E+04  0.14038817002E+04  0.00000000000E+00 0. -1.
         -2   -1    0    0    0  501 -0.00000000000E+00 -0.00000000000E+00 -0.10972162285E+02  0.10972162285E+02  0.00000000000E+00 0.  1.
         23    2    1    2    0    0 -0.56875010026E+02  0.16405150040E+02  0.77854314693E+03  0.79074745953E+03  0.12509283514E+03 0.  0.
          5    1    3    3  502    0 -0.11067424330E+02 -0.39088728114E+02  0.54025522086E+03  0.54179663400E+03  0.41800000000E+01 0. -1.
         -5    1    3    3    0  502 -0.45807585696E+02  0.55493878154E+02  0.23828792607E+03  0.24895082553E+03  0.41800000000E+01 0. -1.
        -11    1    1    2    0    0 -0.43185705566E+01  0.31507795793E+02  0.15787983293E+03  0.16105102574E+03  0.00000000000E+00 0.  1.
         11    1    1    2    0    0  0.61193580583E+02 -0.47912945833E+02  0.45648655809E+03  0.46305537725E+03  0.00000000000E+00 0. -1.
</event>
<event>
 7    1  0.8661710E-006  0.1595313E+03  0.7561462E-02  0.1189227E+00
          2   -1    0    0  501    0  0.00000000000E+00  0.00000000000E+00  0.16827442778E+03  0.16827442778E+03  0.00000000000E+00 0. -1.
         -2   -1    0    0    0  501 -0.00000000000E+00 -0.00000000000E+00 -0.19243926894E+03  0.19243926894E+03  0.00000000000E+00 0.  1.
         23    2    1    2    0    0  0.11025325032E+02 -0.13596632890E+03 -0.56451253682E+02  0.19350168310E+03  0.12509099461E+03 0.  0.
          5    1    3    3  502    0  0.55338600172E+02 -0.12484158394E+03 -0.55912584713E+02  0.14761934588E+03  0.41800000000E+01 0.  1.
         -5    1    3    3    0  502 -0.44313275140E+02 -0.11124744957E+02 -0.53866896882E+00  0.45882337214E+02  0.41800000000E+01 0.  1.
        -11    1    1    2    0    0 -0.47477394949E+01  0.26898693015E+02 -0.30711946147E+02  0.41101147823E+02  0.00000000000E+00 0.  1.
         11    1    1    2    0    0 -0.62775855374E+01  0.10906763588E+03  0.62998358669E+02  0.12611086580E+03  0.00000000000E+00 0. -1.
</event>
<event>
 7    1  0.8661710E-006  0.1328592E+03  0.7561462E-02  0.1223274E+00
          2   -1    0    0  501    0  0.00000000000E+00  0.00000000000E+00  0.12465551639E+04  0.12465551639E+04  0.00000000000E+00 0. -1.
         -2   -1    0    0    0  501 -0.00000000000E+00 -0.00000000000E+00 -0.16206711185E+02  0.16206711185E+02  0.00000000000E+00 0.  1.
         23    2    1    2    0    0 -0.77086705459E+02 -0.44855712172E+02  0.62313868997E+03  0.64179740293E+03  0.12509070466E+03 0.  0.
          5    1    3    3  502    0  0.23185404567E+02 -0.29941719063E+02  0.72622976357E+02  0.82009990979E+02  0.41800000000E+01 0.  1.
         -5    1    3    3    0  502 -0.10027211003E+03 -0.14913993109E+02  0.55051571362E+03  0.55978741195E+03  0.41800000000E+01 0.  1.
        -11    1    1    2    0    0  0.36102818847E+02 -0.25870637267E+02  0.14743719455E+03  0.15398191367E+03  0.00000000000E+00 0.  1.
         11    1    1    2    0    0  0.40983886612E+02  0.70726349439E+02  0.45977256814E+03  0.46698255844E+03  0.00000000000E+00 0. -1.
</event>
<event>
 7    1  0.8661710E-006  0.8091749E+02  0.7561462E-02  0.1326468E+00
          4   -1    0    0  501    0  0.00000000000E+00  0.00000000000E+00  0.72158322088E+02  0.72158322088E+02  0.00000000000E+00 0. -1.
         -4   -1    0    0    0  501 -0.00000000000E+00 -0.00000000000E+00 -0.20431794681E+03  0.20431794681E+03  0.00000000000E+00 0.  1.
         23    2    1    2    0    0  0.51175629157E+02 -0.10942149003E+02 -0.92787417698E+02  0.16430352532E+03  0.12508983933E+03 0.  0.
          5    1    3    3  502    0  0.57474045141E+02 -0.12707874677E+02 -0.12122534974E+03  0.13482512289E+03  0.41800000000E+01 0.  1.
         -5    1    3    3    0  502 -0.62984159835E+01  0.17657256740E+01  0.28437932038E+02  0.29478402427E+02  0.41800000000E+01 0.  1.
        -11    1    1    2    0    0 -0.67898749658E+02  0.25855412040E+02 -0.49157583890E+02  0.87722349436E+02  0.00000000000E+00 0.  1.
         11    1    1    2    0    0  0.16723120500E+02 -0.14913263037E+02  0.97853768618E+01  0.24450394148E+02  0.00000000000E+00 0. -1.
</event>
<event>
 7    1  0.8661710E-006  0.1332482E+03  0.7561462E-02  0.1222714E+00
          2   -1    0    0  501    0  0.00000000000E+00  0.00000000000E+00  0.15940711789E+03  0.15940711789E+03  0.00000000000E+00 0. -1.
         -2   -1    0    0    0  501 -0.00000000000E+00 -0.00000000000E+00 -0.14641921246E+03  0.14641921246E+03  0.00000000000E+00 0.  1.
         23    2    1    2    0    0  0.97365030474E+02  0.29280024939E+02 -0.25187138946E+02  0.16315952677E+03  0.12509744277E+03 0.  0.
          5    1    3    3  502    0 -0.29560208534E+02  0.14632008594E+02 -0.26557218517E+01  0.33353063767E+02  0.41800000000E+01 0. -1.
         -5    1    3    3    0  502  0.12692523901E+03  0.14648016345E+02 -0.22531417094E+02  0.12980646300E+03  0.41800000000E+01 0. -1.
        -11    1    1    2    0    0 -0.64824225192E+02 -0.32858222155E+02 -0.20469249985E+02  0.75503861688E+02  0.00000000000E+00 0.  1.
         11    1    1    2    0    0 -0.32540805282E+02  0.35781972159E+01  0.58644294361E+02  0.67162941901E+02  0.00000000000E+00 0. -1.
</event>
<event>
 7    1  0.8661710E-006  0.1443138E+03  0.7561462E-02  0.1207640E+00
          1   -1    0    0  501    0  0.00000000000E+00  0.00000000000E+00  0.79867087674E+02  0.79867087674E+02  0.00000000000E+00 0. -1.
         -1   -1    0    0    0  501 -0.00000000000E+00 -0.00000000000E+00 -0.36783123139E+03  0.36783123139E+03  0.00000000000E+00 0.  1.
         23    2    1    2    0    0 -0.12260082064E+03  0.28248251837E+02 -0.15223977973E+03  0.23377807162E+03  0.12508521609E+03 0.  0.
          5    1    3    3  502    0 -0.12201377028E+03  0.51638331792E+02 -0.16090949377E+03  0.20847833229E+03  0.41800000000E+01 0. -1.
         -5    1    3    3    0  502 -0.58705036009E+00 -0.23390079955E+02  0.86697140455E+01  0.25299739328E+02  0.41800000000E+01 0. -1.
        -11    1    1    2    0    0  0.46806603388E+02 -0.31532789682E+02 -0.12519468438E+03  0.13732765178E+03  0.00000000000E+00 0.  1.
         11    1    1    2    0    0  0.75794217255E+02  0.32845378450E+01 -0.10529679610E+02  0.76592595666E+02  0.00000000000E+00 0. -1.
</event>
<event>
 7    1  0.8661710E-006  0.1994668E+03  0.7561462E-02  0.1150190E+00
          2   -1    0    0  501    0  0.00000000000E+00  0.00000000000E+00  0.50052597663E+03  0.50052597663E+03  0.00000000000E+00 0. -1.
         -2   -1    0    0    0  501 -0.00000000000E+00 -0.00000000000E+00 -0.18180523933E+03  0.18180523933E+03  0.00000000000E+00 0.  1.
         23    2    1    2    0    0  0.46664993852E+02  0.18248043723E+03 -0.73702429310E+02  0.23781475707E+03  0.12508828471E+03 0.  0.
          5    1    3    3  502    0  0.97515137909E-01 -0.95449132489E+01  0.17330194707E+02  0.20221842812E+02  0.41800000000E+01 0. -1.
         -5    1    3    3    0  502  0.46567478714E+02  0.19202535048E+03 -0.91032624017E+02  0.21759291426E+03  0.41800000000E+01 0. -1.
        -11    1    1    2    0    0 -0.71412889810E+01 -0.90291945365E+02  0.97852794418E+02  0.13333717704E+03  0.00000000000E+00 0.  1.
         11    1    1    2    0    0 -0.39523704871E+02 -0.92188491862E+02  0.29457037220E+03  0.31117928185E+03  0.00000000000E+00 0. -1.
</event>
<event>
 7    1  0.8661710E-006  0.7834838E+02  0.7561462E-02  0.1333805E+00
         -2   -1    0    0    0  501 -0.00000000000E+00  0.00000000000E+00  0.17730084722E+03  0.17730084722E+03  0.00000000000E+00 0.  1.
          2   -1    0    0  501    0  0.00000000000E+00 -0.00000000000E+00 -0.79103219628E+02  0.79103219628E+02  0.00000000000E+00 0. -1.
         23    2    1    2    0    0 -0.38848431255E+02  0.24841942875E+02  0.68157516312E+02  0.14973202083E+03  0.12509159962E+03 0.  0.
          5    1    3    3  502    0 -0.38924680554E+02  0.12154775296E+02 -0.29919446585E+02  0.50749532044E+02  0.41800000000E+01 0.  1.
         -5    1    3    3    0  502  0.76249299046E-01  0.12687167579E+02  0.98076962897E+02  0.98982488785E+02  0.41800000000E+01 0.  1.
        -11    1    1    2    0    0  0.35058798333E+02  0.30745239334E+02  0.14363518580E+02  0.48792414864E+02  0.00000000000E+00 0.  1.
         11    1    1    2    0    0  0.37896329221E+01 -0.55587182209E+02  0.15676592697E+02  0.57879631151E+02  0.00000000000E+00 0. -1.
</event>
<event>
 7    1  0.8661710E-006  0.2141387E+03  0.7561462E-02  0.1138330E+00
         -1   -1    0    0    0  501 -0.00000000000E+00  0.00000000000E+00  0.14901808939E+03  0.14901808939E+03  0.00000000000E+00 0.  1.
          1   -1    0    0  501    0  0.00000000000E+00 -0.00000000000E+00 -0.33091169231E+03  0.33091169231E+03  0.00000000000E+00 0. -1.
         23    2    1    2    0    0  0.29736970498E+02 -0.19086929374E+03 -0.10419908695E+03  0.25262553968E+03  0.12508732499E+03 0.  0.
          5    1    3    3  502    0 -0.47425578650E+02 -0.84070468398E+02 -0.59314759122E+02  0.11336993524E+03  0.41800000000E+01 0.  1.
         -5    1    3    3    0  502  0.77162549147E+02 -0.10679882534E+03 -0.44884327828E+02  0.13925560444E+03  0.41800000000E+01 0.  1.
        -11    1    1    2    0    0 -0.23639250961E+02  0.27123991704E+02 -0.49253740897E+02  0.60995541675E+02  0.00000000000E+00 0. -1.
         11    1    1    2    0    0 -0.60977195372E+01  0.16374530203E+03 -0.28440775078E+02  0.16630870034E+03  0.00000000000E+00 0.  1.
</event>
<event>
 7    1  0.8661710E-006  0.9889905E+02  0.7561462E-02  0.1282628E+00
          3   -1    0    0  501    0  0.00000000000E+00  0.00000000000E+00  0.73628832819E+02  0.73628832819E+02  0.00000000000E+00 0. -1.
         -3   -1    0    0    0  501 -0.00000000000E+00 -0.00000000000E+00 -0.17941443918E+03  0.17941443918E+03  0.00000000000E+00 0.  1.
         23    2    1    2    0    0  0.17567707382E+02  0.33085504320E+02 -0.40284541450E+02  0.13665096285E+03  0.12508943373E+03 0.  0.
          5    1    3    3  502    0  0.17406133162E+02 -0.37944013044E+02 -0.49518108786E+02  0.64901749555E+02  0.41800000000E+01 0. -1.
         -5    1    3    3    0  502  0.16157421911E+00  0.71029517364E+02  0.92335673361E+01  0.71749213298E+02  0.41800000000E+01 0. -1.
        -11    1    1    2    0    0  0.30182113881E+02 -0.11693618834E+02 -0.53785581665E+02  0.62774115006E+02  0.00000000000E+00 0.  1.
         11    1    1    2    0    0 -0.47749821263E+02 -0.21391885486E+02 -0.11715483247E+02  0.53618194141E+02  0.00000000000E+00 0. -1.
</event>
<event>
 7    1  0.8661710E-006  0.1471069E+03  0.7561462E-02  0.1204074E+00
         -1   -1    0    0    0  501 -0.00000000000E+00  0.00000000000E+00  0.23613842235E+03  0.23613842235E+03  0.00000000000E+00 0.  1.
          1   -1    0    0  501    0  0.00000000000E+00 -0.00000000000E+00 -0.11574782040E+03  0.11574782040E+03  0.00000000000E+00 0. -1.
         23    2    1    2    0    0  0.99572201170E+02  0.28161784233E+02  0.14192953297E+03  0.21564053622E+03  0.12509651951E+03 0.  0.
          5    1    3    3  502    0  0.53659331233E+02  0.77667006316E+02  0.88051143316E+02  0.12915867736E+03  0.41800000000E+01 0.  1.
         -5    1    3    3    0  502  0.45912869937E+02 -0.49505222084E+02  0.53878389651E+02  0.86481858853E+02  0.41800000000E+01 0.  1.
        -11    1    1    2    0    0 -0.42880066130E+02 -0.54677455697E+02  0.16382624835E+01  0.69505454007E+02  0.00000000000E+00 0.  1.
         11    1    1    2    0    0 -0.56692135040E+02  0.26515671465E+02 -0.23177193496E+02  0.66740252524E+02  0.00000000000E+00 0. -1.
</event>
<event>
 7    1  0.8661710E-006  0.9547014E+02  0.7561462E-02  0.1290121E+00
          2   -1    0    0  501    0  0.00000000000E+00  0.00000000000E+00  0.19646100231E+03  0.19646100231E+03  0.00000000000E+00 0. -1.
         -2   -1    0    0    0  501 -0.00000000000E+00 -0.00000000000E+00 -0.72048318672E+02  0.72048318672E+02  0.00000000000E+00 0.  1.
         23    2    1    2    0    0 -0.23335252495E+02  0.33171953976E+02  0.40668780762E+02  0.13765345603E+03  0.12509840802E+03 0.  0.
          5    1    3    3  502    0 -0.12882241457E+02 -0.46794600106E+02  0.37494100478E+01  0.48859156970E+02  0.41800000000E+01 0.  1.
         -5    1    3    3    0  502 -0.10453011037E+02  0.79966554083E+02  0.36919370714E+02  0.88794299060E+02  0.41800000000E+01 0.  1.
        -11    1    1    2    0    0 -0.45750513224E+01 -0.33246383429E+02 -0.83855713950E+01  0.34591486139E+02  0.00000000000E+00 0.  1.
         11    1    1    2    0    0  0.27910303817E+02  0.74429452887E-01  0.92129474269E+02  0.96264378812E+02  0.00000000000E+00 0. -1.
</event>
<event>
 7    1  0.8661710E-006  0.1085904E+03  0.7561462E-02  0.1263203E+00
          1   -1    0    0  501    0  0.00000000000E+00  0.00000000000E+00  0.38539226658E+03  0.38539226658E+03  0.00000000000E+00 0. -1.
         -1   -1    0    0    0  501 -0.00000000000E+00 -0.00000000000E+00 -0.43671443604E+02  0.43671443604E+02  0.00000000000E+00 0.  1.
         23    2    1    2    0    0  0.59734202803E+02 -0.13914653497E+02  0.12963903181E+03  0.19030279758E+03  0.12508830333E+03 0.  0.
          5    1    3    3  502    0  0.10337104686E+02 -0.46766710500E+02  0.12100761668E+03  0.13020866576E+03  0.41800000000E+01 0. -1.
         -5    1    3    3    0  502  0.49397098117E+02  0.32852057003E+02  0.86314151305E+01  0.60094131817E+02  0.41800000000E+01 0. -1.
        -11    1    1    2    0    0 -0.62081546641E+02 -0.27678928658E+02  0.13462253328E+03  0.15080937634E+03  0.00000000000E+00 0.  1.
         11    1    1    2    0    0  0.23473438385E+01  0.41593582155E+02  0.77459257888E+02  0.87951536269E+02  0.00000000000E+00 0. -1.
</event>
<event>
 7    1  0.8661710E-006  0.1050910E+03  0.7561462E-02  0.1269940E+00
         -2   -1    0    0    0  501 -0.00000000000E+00  0.00000000000E+00  0.20282758687E+02  0.20282758687E+02  0.00000000000E+00 0.  1.
          2   -1    0    0  501    0  0.00000000000E+00 -0.00000000000E+00 -0.82006216262E+03  0.82006216262E+03  0.00000000000E+00 0. -1.
         23    2    1    2    0    0 -0.40251922813E+02  0.32914532059E+02 -0.29256925726E+03  0.32240956142E+03  0.12509025257E+03 0.  0.
          5    1    3    3  502    0  0.57587146186E-02  0.58178377052E+02 -0.55249324798E+02  0.80341047293E+02  0.41800000000E+01 0. -1.
         -5    1    3    3    0  502 -0.40257681528E+02 -0.25263844993E+02 -0.23731993246E+03  0.24206851412E+03  0.41800000000E+01 0. -1.
        -11    1    1    2    0    0 -0.25741844747E+01 -0.55612857701E+02 -0.24079376278E+03  0.24714581235E+03  0.00000000000E+00 0. -1.
         11    1    1    2    0    0  0.42826107288E+02  0.22698325642E+02 -0.26641638390E+03  0.27078954755E+03  0.00000000000E+00 0.  1.
</event>
<event>
 7    1  0.8661710E-006  0.1260943E+03  0.7561462E-02  0.1233369E+00
          1   -1    0    0  501    0  0.00000000000E+00  0.00000000000E+00  0.83641581529E+03  0.83641581529E+03  0.00000000000E+00 0. -1.
         -1   -1    0    0    0  501 -0.00000000000E+00 -0.00000000000E+00 -0.35535793818E+02  0.35535793818E+02  0.00000000000E+00 0.  1.
         23    2    1    2    0    0 -0.10460094619E+03  0.60665171112E+02  0.28308426065E+03  0.33227399512E+03  0.12509072017E+03 0.  0.
          5    1    3    3  502    0 -0.38624038793E+02  0.22306985994E+02  0.24078790088E+03  0.24491979015E+03  0.41800000000E+01 0.  1.
         -5    1    3    3    0  502 -0.65976907399E+02  0.38358185117E+02  0.42296359769E+02  0.87354204966E+02  0.41800000000E+01 0.  1.
        -11    1    1    2    0    0  0.13818410801E+02 -0.33438559662E+02  0.46351749254E+02  0.58801108903E+02  0.00000000000E+00 0.  1.
         11    1    1    2    0    0  0.90782535391E+02 -0.27226611449E+02  0.47144401156E+03  0.48087650509E+03  0.00000000000E+00 0. -1.
</event>
<event>
 7    1  0.8661710E-006  0.9006999E+02  0.7561462E-02  0.1302682E+00
         -4   -1    0    0    0  501 -0.00000000000E+00  0.00000000000E+00  0.29055912995E+03  0.29055912995E+03  0.00000000000E+00 0.  1.
          4   -1    0    0  501    0  0.00000000000E+00 -0.00000000000E+00 -0.52475112149E+02  0.52475112149E+02  0.00000000000E+00 0. -1.
         23    2    1    2    0    0  0.11907188746E+02  0.52565864427E+02  0.16693760628E+03  0.21544710884E+03  0.12507734036E+03 0.  0.
          5    1    3    3  502    0  0.19908065573E+02 -0.35798192622E+01  0.15621963393E+03  0.15757916298E+03  0.41800000000E+01 0.  1.
         -5    1    3    3    0  502 -0.80008768271E+01  0.56145683689E+02  0.10717972347E+02  0.57867945861E+02  0.41800000000E+01 0.  1.
        -11    1    1    2    0    0  0.31111249966E+02  0.42004352826E+01  0.37229260088E+02  0.48698781686E+02  0.00000000000E+00 0.  1.
         11    1    1    2    0    0 -0.43018438712E+02 -0.56766299710E+02  0.33917151437E+02  0.78888351570E+02  0.00000000000E+00 0. -1.
</event>
<event>
 7    1  0.8661710E-006  0.1104440E+03  0.7561462E-02  0.1259750E+00
          1   -1    0    0  501    0  0.00000000000E+00  0.00000000000E+00  0.47782604174E+02  0.47782604174E+02  0.00000000000E+00 0. -1.
         -1   -1    0    0    0  501 -0.00000000000E+00 -0.00000000000E+00 -0.29181995981E+03  0.29181995981E+03  0.00000000000E+00 0.  1.
         23    2    1    2    0    0  0.21965741814E+02  0.87934110128E+01 -0.19555316395E+03  0.23334421059E+03  0.12509461537E+03 0.  0.
          5    1    3    3  502    0 -0.15874425884E+02 -0.52227668229E+02 -0.96254186059E+02  0.11073421991E+03  0.41800000000E+01 0.  1.
         -5    1    3    3    0  502  0.37840167698E+02  0.61021079242E+02 -0.99298977896E+02  0.12260999068E+03  0.41800000000E+01 0.  1.
        -11    1    1    2    0    0  0.54734818785E+01  0.38852486435E+02 -0.24617795500E+02  0.46319656317E+02  0.00000000000E+00 0.  1.
         11    1    1    2    0    0 -0.27439223692E+02 -0.47645897447E+02 -0.23866396181E+02  0.59938697075E+02  0.00000000000E+00 0. -1.
</event>
<event>
 7    1  0.8661710E-006  0.1010334E+03  0.7561462E-02  0.1278138E+00
         -2   -1    0    0    0  501 -0.00000000000E+00  0.00000000000E+00  0.24163896990E+02  0.24163896990E+02  0.00000000000E+00 0.  1.
          2   -1    0    0  501    0  0.00000000000E+00 -0.00000000000E+00 -0.55114952998E+03  0.55114952998E+03  0.00000000000E+00 0. -1.
         23    2    1    2    0    0 -0.16886470730E+01  0.11077244491E+02 -0.20468328997E+03  0.24014180523E+03  0.12508909046E+03 0.  0.
          5    1    3    3  502    0  0.52568756725E+02 -0.67082036205E+01 -0.42218484389E+02  0.67884806868E+02  0.41800000000E+01 0.  1.
         -5    1    3    3    0  502 -0.54257403798E+02  0.17785448111E+02 -0.16246480558E+03  0.17225699836E+03  0.41800000000E+01 0.  1.
        -11    1    1    2    0    0  0.45601127335E+02  0.25658886103E+01 -0.14645868390E+03  0.15341509928E+03  0.00000000000E+00 0.  1.
         11    1    1    2    0    0 -0.43912480262E+02 -0.13643133101E+02 -0.17584365912E+03  0.18175652246E+03  0.00000000000E+00 0. -1.
</event>
<event>
 7    1  0.8661710E-006  0.1793519E+03  0.7561462E-02  0.1168432E+00
          2   -1    0    0  501    0  0.00000000000E+00  0.00000000000E+00  0.12520515863E+03  0.12520515863E+03  0.00000000000E+00 0. -1.
         -2   -1    0    0    0  501 -0.00000000000E+00 -0.00000000000E+00 -0.44350937248E+03  0.44350937248E+03  0.00000000000E+00 0.  1.
         23    2    1    2    0    0 -0.57035023022E+02 -0.13985923684E+03 -0.33642099093E+03  0.38943786190E+03  0.12517653599E+03 0.  0.
          5    1    3    3  502    0 -0.32087372419E+02  0.13129857925E+02 -0.10677797977E+03  0.11234323301E+03  0.41800000000E+01 0. -1.
         -5    1    3    3    0  502 -0.24947650603E+02 -0.15298909477E+03 -0.22964301115E+03  0.27709462889E+03  0.41800000000E+01 0. -1.
        -11    1    1    2    0    0 -0.86921701042E+01  0.77919623034E+02 -0.20522544544E+02  0.81044409489E+02  0.00000000000E+00 0. -1.
         11    1    1    2    0    0  0.65727193127E+02  0.61939613809E+02  0.38639321626E+02  0.98232259726E+02  0.00000000000E+00 0.  1.
</event>
<event>
 7    1  0.8661710E-006  0.1098647E+03  0.7561462E-02  0.1260821E+00
          1   -1    0    0  501    0  0.00000000000E+00  0.00000000000E+00  0.48876522885E+02  0.48876522885E+02  0.00000000000E+00 0. -1.
         -1   -1    0    0    0  501 -0.00000000000E+00 -0.00000000000E+00 -0.33360060405E+03  0.33360060405E+03  0.00000000000E+00 0.  1.
         23    2    1    2    0    0 -0.63369285791E+02 -0.22189055610E+02 -0.15525583446E+03  0.21038116822E+03  0.12509133158E+03 0.  0.
          5    1    3    3  502    0  0.77690833049E-01 -0.42297571531E+02 -0.12113189243E+01  0.42520939393E+02  0.41800000000E+01 0. -1.
         -5    1    3    3    0  502 -0.63446976624E+02  0.20108515922E+02 -0.15404451553E+03  0.16786022882E+03  0.41800000000E+01 0. -1.
        -11    1    1    2    0    0  0.61214651684E+02  0.52199974043E+02 -0.75612353109E+02  0.11040515755E+03  0.00000000000E+00 0. -1.
         11    1    1    2    0    0  0.21546341073E+01 -0.30010918433E+02 -0.53855893596E+02  0.61690801165E+02  0.00000000000E+00 0.  1.
</event>
<event>
 7    1  0.8661710E-006  0.1738511E+03  0.7561462E-02  0.1173890E+00
         -1   -1    0    0    0  501 -0.00000000000E+00  0.00000000000E+00  0.30269657019E+02  0.30269657019E+02  0.00000000000E+00 0.  1.
          1   -1    0    0  501    0  0.00000000000E+00 -0.00000000000E+00 -0.11762878455E+04  0.11762878455E+04  0.00000000000E+00 0. -1.
         23    2    1    2    0    0 -0.11520420104E+03 -0.97098834123E+02 -0.51930004013E+03  0.55499551657E+03  0.12508916902E+03 0.  0.
          5    1    3    3  502    0  0.22791432070E+02 -0.30691853341E+02 -0.64595299147E+02  0.75176221701E+02  0.41800000000E+01 0.  1.
         -5    1    3    3    0  502 -0.13799563311E+03 -0.66406980782E+02 -0.45470474098E+03  0.47981929487E+03  0.41800000000E+01 0.  1.
        -11    1    1    2    0    0  0.55509095195E+02  0.21050123761E+02 -0.10205822407E+03  0.11806882933E+03  0.00000000000E+00 0.  1.
         11    1    1    2    0    0  0.59695105847E+02  0.76048710363E+02 -0.52465992424E+03  0.53349315658E+03  0.00000000000E+00 0. -1.
</event>
<event>
 7    1  0.8661710E-006  0.1502453E+03  0.7561462E-02  0.1200172E+00
         -2   -1    0    0    0  501 -0.00000000000E+00  0.00000000000E+00  0.10271645125E+03  0.10271645125E+03  0.00000000000E+00 0.  1.
          2   -1    0    0  501    0  0.00000000000E+00 -0.00000000000E+00 -0.25544204029E+03  0.25544204029E+03  0.00000000000E+00 0. -1.
         23    2    1    2    0    0 -0.11637947190E+03 -0.47280638012E+01 -0.92918592238E+02  0.19454176708E+03  0.12508436468E+03 0.  0.
          5    1    3    3  502    0  0.18646282304E+02 -0.25235327997E+01 -0.48709199945E+02  0.52384259284E+02  0.41800000000E+01 0.  1.
         -5    1    3    3    0  502 -0.13502575421E+03 -0.22045310015E+01 -0.44209392293E+02  0.14215750780E+03  0.41800000000E+01 0.  1.
        -11    1    1    2    0    0  0.65904934874E+02 -0.41317402324E+02 -0.54722665752E+02  0.95106037256E+02  0.00000000000E+00 0. -1.
         11    1    1    2    0    0  0.50474537031E+02  0.46045466125E+02 -0.50843310487E+01  0.68510687205E+02  0.00000000000E+00 0.  1.
</event>
<event>
 7    1  0.8661710E-006  0.1034649E+03  0.7561462E-02  0.1273174E+00
         -4   -1    0    0    0  501 -0.00000000000E+00  0.00000000000E+00  0.67390993985E+03  0.67390993985E+03  0.00000000000E+00 0.  1.
          4   -1    0    0  501    0  0.00000000000E+00 -0.00000000000E+00 -0.19798424883E+02  0.19798424883E+02  0.00000000000E+00 0. -1.
         23    2    1    2    0    0  0.67614699693E+01 -0.18696336649E+02  0.46711312301E+03  0.48398072468E+03  0.12508957469E+03 0.  0.
          5    1    3    3  502    0 -0.50780111416E+02 -0.30530846465E+02  0.32091493708E+03  0.32636577875E+03  0.41800000000E+01 0. -1.
         -5    1    3    3    0  502  0.57541581386E+02  0.11834509816E+02  0.14619818593E+03  0.15761494593E+03  0.41800000000E+01 0. -1.
        -11    1    1    2    0    0 -0.14075338416E+02 -0.33287270455E+02  0.11553121111E+03  0.12105213037E+03  0.00000000000E+00 0.  1.
         11    1    1    2    0    0  0.73138684470E+01  0.51983607104E+02  0.71467180843E+02  0.88675509679E+02  0.00000000000E+00 0. -1.
</event>
<event>
 6    1  0.8661710E-006  0.1443764E+03  0.7561462E-02  0.1207559E+00
         -2   -1    0    0    0  501 -0.00000000000E+00  0.00000000000E+00  0.28143463385E+02  0.28143463385E+02  0.00000000000E+00 0.  1.
          2   -1    0    0  501    0  0.00000000000E+00 -0.00000000000E+00 -0.11620915457E+04  0.11620915457E+04  0.00000000000E+00 0. -1.
          5    1    1    2  502    0  0.21441104579E+00  0.83258076277E+02 -0.49557761742E+03  0.50254014817E+03  0.41800000000E+01 0. -1.
         -5    1    1    2    0  502 -0.10358532786E+02  0.46197415093E+02 -0.23948371842E+02  0.53221210777E+02  0.41800000000E+01 0.  1.
        -11    1    1    2    0    0  0.84149614564E+01 -0.14348180727E+03 -0.57090492793E+03  0.58871918376E+03  0.00000000000E+00 0. -1.
         11    1    1    2    0    0  0.17291602836E+01  0.14026315897E+02 -0.43517165132E+02  0.45754466383E+02  0.00000000000E+00 0.  1.
</event>
<event>
 7    1  0.8661710E-006  0.1415856E+03  0.7561462E-02  0.1211211E+00
         -2   -1    0    0    0  501 -0.00000000000E+00  0.00000000000E+00  0.37458977979E+02  0.37458977979E+02  0.00000000000E+00 0.  1.
          2   -1    0    0  501    0  0.00000000000E+00 -0.00000000000E+00 -0.88024581845E+03  0.88024581845E+03  0.00000000000E+00 0. -1.
         23    2    1    2    0    0  0.60402365939E+02 -0.11870056373E+03 -0.29835071208E+03  0.34985532915E+03  0.12508930530E+03 0.  0.
          5    1    3    3  502    0  0.39974832496E+02 -0.20765348505E+02 -0.21460098210E+03  0.21931767108E+03  0.41800000000E+01 0.  1.
         -5    1    3    3    0  502  0.20427533443E+02 -0.97935215220E+02 -0.83749729979E+02  0.13053765807E+03  0.41800000000E+01 0.  1.
        -11    1    1    2    0    0 -0.36627404057E+02  0.34532607105E+02 -0.74949298808E+02  0.90285464352E+02  0.00000000000E+00 0.  1.
         11    1    1    2    0    0 -0.23774961882E+02  0.84167956620E+02 -0.46948682958E+03  0.47756400292E+03  0.00000000000E+00 0. -1.
</event>
<event>
 7    1  0.8661710E-006  0.1126064E+03  0.7561462E-02  0.1255818E+00
          2   -1    0    0  501    0  0.00000000000E+00  0.00000000000E+00  0.26203332310E+03  0.26203332310E+03  0.00000000000E+00 0. -1.
         -2   -1    0    0    0  501 -0.00000000000E+00 -0.00000000000E+00 -0.52409488469E+02  0.52409488469E+02  0.00000000000E+00 0.  1.
         23    2    1    2    0    0  0.11115166271E+02  0.30201995152E+02  0.81484624303E+02  0.15276827950E+03  0.12515069233E+03 0.  0.
          5    1    3    3  502    0 -0.56856131765E+02  0.81843170945E+01  0.38605982161E+02  0.69336116305E+02  0.41800000000E+01 0. -1.
         -5    1    3    3    0  502  0.67971298036E+02  0.22017678058E+02  0.42878642141E+02  0.83432163197E+02  0.41800000000E+01 0. -1.
        -11    1    1    2    0    0  0.37589590892E+02  0.20292188900E+01  0.33113559538E+02  0.50135844443E+02  0.00000000000E+00 0.  1.
         11    1    1    2    0    0 -0.48704757163E+02 -0.32231214042E+02  0.95025650789E+02  0.11153868762E+03  0.00000000000E+00 0. -1.
</event>
<event>
 7    1  0.8661710E-006  0.2325732E+03  0.7561462E-02  0.1124842E+00
         -2   -1    0    0    0  501 -0.00000000000E+00  0.00000000000E+00  0.68129846414E+02  0.68129846414E+02  0.00000000000E+00 0. -1.
          2   -1    0    0  501    0  0.00000000000E+00 -0.00000000000E+00 -0.82073951047E+03  0.82073951047E+03  0.00000000000E+00 0.  1.
         23    2    1    2    0    0  0.17811494150E+03  0.11389885974E+03 -0.36376381132E+03  0.43894107502E+03  0.12508906535E+03 0.  0.
          5    1    3    3  502    0 -0.18091768591E+02  0.20579624637E+02 -0.31912541381E+02  0.42269560423E+02  0.41800000000E+01 0.  1.
         -5    1    3    3    0  502  0.19620671009E+03  0.93319235108E+02 -0.33185126994E+03  0.39667151459E+03  0.41800000000E+01 0.  1.
        -11    1    1    2    0    0 -0.10012007604E+03 -0.27719055979E+02 -0.13176833803E+03  0.16779532353E+03  0.00000000000E+00 0. -1.
         11    1    1    2    0    0 -0.77994865459E+02 -0.86179803765E+02 -0.25707751470E+03  0.28213295834E+03  0.00000000000E+00 0.  1.
</event>
<event>
 7    1  0.8661710E-006  0.8694937E+02  0.7561462E-02  0.1310412E+00
         -4   -1    0    0    0  501 -0.00000000000E+00  0.00000000000E+00  0.12546124795E+02  0.12546124795E+02  0.00000000000E+00 0.  1.
          4   -1    0    0  501    0  0.00000000000E+00 -0.00000000000E+00 -0.99877299163E+03  0.99877299163E+03  0.00000000000E+00 0. -1.
         23    2    1    2    0    0 -0.47979809901E+01 -0.24187757708E+02 -0.49896724030E+03  0.51499968729E+03  0.12509317637E+03 0.  0.
          5    1    3    3  502    0  0.26025075127E+02 -0.37795073939E+02 -0.64831878920E+02  0.79538777170E+02  0.41800000000E+01 0.  1.
         -5    1    3    3    0  502 -0.30823056117E+02  0.13607316231E+02 -0.43413536138E+03  0.43546091012E+03  0.41800000000E+01 0.  1.
        -11    1    1    2    0    0 -0.15592304575E+02  0.54862548495E+02 -0.26983559577E+03  0.27579751256E+03  0.00000000000E+00 0.  1.
         11    1    1    2    0    0  0.20390285565E+02 -0.30674790787E+02 -0.21742403077E+03  0.22052191658E+03  0.00000000000E+00 0. -1.
</event>
<event>
 7    1  0.8661710E-006  0.1670212E+03  0.7561462E-02  0.1180990E+00
          3   -1    0    0  501    0  0.00000000000E+00  0.00000000000E+00  0.54124581276E+02  0.54124581276E+02  0.00000000000E+00 0. -1.
         -3   -1    0    0    0  501 -0.00000000000E+00 -0.00000000000E+00 -0.68175584855E+03  0.68175584855E+03  0.00000000000E+00 0.  1.
         23    2    1    2    0    0 -0.50167082098E+02  0.14452951012E+03 -0.40601402794E+03  0.45155327849E+03  0.12508979578E+03 0.  0.
          5    1    3    3  502    0 -0.69379750735E+02  0.14542233829E+03 -0.39955247808E+03  0.43083739557E+03  0.41800000000E+01 0. -1.
         -5    1    3    3    0  502  0.19212668637E+02 -0.89282817212E+00 -0.64615498619E+01  0.20715882914E+02  0.41800000000E+01 0. -1.
        -11    1    1    2    0    0  0.47157146991E+02 -0.12869206618E+03 -0.22877407066E+03  0.26668899456E+03  0.00000000000E+00 0.  1.
         11    1    1    2    0    0  0.30099351078E+01 -0.15837443938E+02  0.71568313331E+01  0.17638156779E+02  0.00000000000E+00 0. -1.
</event>
<event>
 7    1  0.8661710E-006  0.2056220E+03  0.7561462E-02  0.1145081E+00
         -2   -1    0    0    0  501 -0.00000000000E+00  0.00000000000E+00  0.30437283584E+03  0.30437283584E+03  0.00000000000E+00 0. -1.
          2   -1    0    0  501    0  0.00000000000E+00 -0.00000000000E+00 -0.14346070518E+03  0.14346070518E+03  0.00000000000E+00 0.  1.
         23    2    1    2    0    0 -0.41772768267E+02 -0.17294881096E+03  0.92510220307E+02  0.23636154099E+03  0.12510947932E+03 0.  0.
          5    1    3    3  502    0 -0.58318852776E+02 -0.26446308258E+02  0.54140356736E+02  0.83959195072E+02  0.41800000000E+01 0.  1.
         -5    1    3    3    0  502  0.16546084509E+02 -0.14650250270E+03  0.38369863571E+02  0.15240234592E+03  0.41800000000E+01 0.  1.
        -11    1    1    2    0    0  0.69612467791E+02  0.10323551772E+03  0.35217077952E+02  0.12939748982E+03  0.00000000000E+00 0.  1.
         11    1    1    2    0    0 -0.27839699525E+02  0.69713293240E+02  0.33184832400E+02  0.82074510205E+02  0.00000000000E+00 0. -1.
</event>
<event>
 7    1  0.8661710E-006  0.1033758E+03  0.7561462E-02  0.1273353E+00
          2   -1    0    0  501    0  0.00000000000E+00  0.00000000000E+00  0.29294987930E+02  0.29294987930E+02  0.00000000000E+00 0. -1.
         -2   -1    0    0    0  501 -0.00000000000E+00 -0.00000000000E+00 -0.68374528999E+03  0.68374528999E+03  0.00000000000E+00 0.  1.
         23    2    1    2    0    0 -0.81279707652E+02 -0.24141415924E+02 -0.43133561965E+03  0.45704133195E+03  0.12508862258E+03 0.  0.
          5    1    3    3  502    0 -0.93919282369E+02 -0.39203997649E+02 -0.42331574035E+03  0.43539806323E+03  0.41800000000E+01 0.  1.
         -5    1    3    3    0  502  0.12639574717E+02  0.15062581725E+02 -0.80198792938E+01  0.21643268725E+02  0.41800000000E+01 0.  1.
        -11    1    1    2    0    0  0.50284828311E+02  0.15130186449E+02 -0.30558576859E+02  0.60756177628E+02  0.00000000000E+00 0. -1.
         11    1    1    2    0    0  0.30994879341E+02  0.90112294752E+01 -0.19255610556E+03  0.19524276834E+03  0.00000000000E+00 0.  1.
</event>
<event>
 7    1  0.8661710E-006  0.1600412E+03  0.7561462E-02  0.1188650E+00
          1   -1    0    0  501    0  0.00000000000E+00  0.00000000000E+00  0.20333778288E+03  0.20333778288E+03  0.00000000000E+00 0. -1.
         -1   -1    0    0    0  501 -0.00000000000E+00 -0.00000000000E+00 -0.17783370471E+03  0.17783370471E+03  0.00000000000E+00 0.  1.
         23    2    1    2    0    0 -0.72681935644E+02 -0.11717492567E+03 -0.75059691051E+02  0.20073551860E+03  0.12509262262E+03 0.  0.
          5    1    3    3  502    0  0.21652323158E+02  0.65962148991E+01  0.78962325584E+01  0.24334256466E+02  0.41800000000E+01 0. -1.
         -5    1    3    3    0  502 -0.94334258802E+02 -0.12377114056E+03 -0.82955923609E+02  0.17640126213E+03  0.41800000000E+01 0. -1.
        -11    1    1    2    0    0  0.68652869237E+02  0.86427160271E+02  0.10072211328E+03  0.14942494634E+03  0.00000000000E+00 0. -1.
         11    1    1    2    0    0  0.40290664064E+01  0.30747765394E+02 -0.15834405701E+00  0.31011022648E+02  0.00000000000E+00 0.  1.
</event>
<event>
 7    1  0.8661710E-006  0.1153069E+03  0.7561462E-02  0.1251046E+00
          2   -1    0    0  501    0  0.00000000000E+00  0.00000000000E+00  0.72349817635E+02  0.72349817635E+02  0.00000000000E+00 0. -1.
         -2   -1    0    0    0  501 -0.00000000000E+00 -0.00000000000E+00 -0.22544090552E+03  0.22544090552E+03  0.00000000000E+00 0.  1.
         23    2    1    2    0    0  0.35492897375E+02  0.54476209370E+02 -0.79238829617E+02  0.16172028753E+03  0.12508899283E+03 0.  0.
          5    1    3    3  502    0  0.82254607442E+01 -0.32380307906E+02  0.90190105724E+01  0.34856240420E+02  0.41800000000E+01 0.  1.
         -5    1    3    3    0  502  0.27267436631E+02  0.86856517276E+02 -0.88257840190E+02  0.12686404711E+03  0.41800000000E+01 0.  1.
        -11    1    1    2    0    0  0.27485181517E+02 -0.13007364365E+02  0.16544389556E+00  0.30408125599E+02  0.00000000000E+00 0. -1.
         11    1    1    2    0    0 -0.62978078892E+02 -0.41468845005E+02 -0.74017702164E+02  0.10566231003E+03  0.00000000000E+00 0.  1.
</event>
<event>
 6    1  0.8661710E-006  0.9067476E+02  0.7561462E-02  0.1301226E+00
         -3   -1    0    0    0  501 -0.00000000000E+00  0.00000000000E+00  0.73679091982E+03  0.73679091982E+03  0.00000000000E+00 0.  1.
          3   -1    0    0  501    0  0.00000000000E+00 -0.00000000000E+00 -0.41792285685E+02  0.41792285685E+02  0.00000000000E+00 0. -1.
          5    1    1    2  502    0  0.47616912183E+02  0.17689559564E+02  0.53058927067E+03  0.53303164764E+03  0.41800000000E+01 0. -1.
         -5    1    1    2    0  502 -0.58278326014E+02  0.93709853287E+00  0.13511142393E+03  0.14720669385E+03  0.41800000000E+01 0.  1.
        -11    1    1    2    0    0 -0.48554092134E+01 -0.42879668109E+02  0.47583317111E+02  0.64237162165E+02  0.00000000000E+00 0.  1.
         11    1    1    2    0    0  0.15516823044E+02  0.24253010012E+02 -0.18285377577E+02  0.34107701846E+02  0.00000000000E+00 0. -1.
</event>
<event>
 7    1  0.8661710E-006  0.1353673E+03  0.7561462E-02  0.1219702E+00
         -1   -1    0    0    0  501 -0.00000000000E+00  0.00000000000E+00  0.16973956992E+02  0.16973956992E+02  0.00000000000E+00 0.  1.
          1   -1    0    0  501    0  0.00000000000E+00 -0.00000000000E+00 -0.15279078934E+04  0.15279078934E+04  0.00000000000E+00 0. -1.
         23    2    1    2    0    0 -0.96335264492E+02  0.73160555703E+02 -0.83166978960E+03  0.84967971490E+03  0.12509208160E+03 0.  0.
          5    1    3    3  502    0 -0.27794064259E+02  0.32539658796E+02 -0.59560529046E+02  0.73459297729E+02  0.41800000000E+01 0. -1.
         -5    1    3    3    0  502 -0.68541200232E+02  0.40620896907E+02 -0.77210926055E+03  0.77622041717E+03  0.41800000000E+01 0. -1.
        -11    1    1    2    0    0 -0.36108333867E+01 -0.43569039136E+02 -0.19221825098E+03  0.19712725661E+03  0.00000000000E+00 0.  1.
         11    1    1    2    0    0  0.99946097878E+02 -0.29591516567E+02 -0.48704589587E+03  0.49807487892E+03  0.00000000000E+00 0. -1.
</event>
<event>
 7    1  0.8661710E-006  0.1651112E+03  0.7561462E-02  0.1183044E+00
         -1   -1    0    0    0  501 -0.00000000000E+00  0.00000000000E+00  0.48998389899E+03  0.48998389899E+03  0.00000000000E+00 0.  1.
          1   -1    0    0  501    0  0.00000000000E+00 -0.00000000000E+00 -0.10878945553E+03  0.10878945553E+03  0.00000000000E+00 0. -1.
         23    2    1    2    0    0  0.94075553122E+01  0.14549120081E+03  0.37882638021E+03  0.42471226458E+03  0.12495955238E+03 0.  0.
          5    1    3    3  502    0 -0.33044703091E+02  0.11420698796E+03  0.15881717419E+03  0.19843274861E+03  0.41800000000E+01 0.  1.
         -5    1    3    3    0  502  0.42452258404E+02  0.31284212857E+02  0.22000920602E+03  0.22627951597E+03  0.41800000000E+01 0.  1.
        -11    1    1    2    0    0  0.25787538334E+02 -0.79355846093E+02  0.37302384987E+02  0.91399208794E+02  0.00000000000E+00 0.  1.
         11    1    1    2    0    0 -0.35195093646E+02 -0.66135354721E+02 -0.34934321738E+02  0.82661881155E+02  0.00000000000E+00 0. -1.
</event>
<event>
 7    1  0.8661710E-006  0.1017610E+03  0.7561462E-02  0.1276636E+00
         -2   -1    0    0    0  501 -0.00000000000E+00  0.00000000000E+00  0.34916323148E+03  0.34916323148E+03  0.00000000000E+00 0.  1.
          2   -1    0    0  501    0  0.00000000000E+00 -0.00000000000E+00 -0.37271143479E+02  0.37271143479E+02  0.00000000000E+00 0. -1.
         23    2    1    2    0    0 -0.30541673540E+02  0.21679892010E+02  0.17279849245E+03  0.21659124506E+03  0.12509850879E+03 0.  0.
          5    1    3    3  502    0 -0.36340074762E+02  0.58498853643E+02  0.16420804406E+03  0.17811364643E+03  0.41800000000E+01 0.  1.
         -5    1    3    3    0  502  0.57984012218E+01 -0.36818961633E+02  0.85904483926E+01  0.38477598626E+02  0.41800000000E+01 0.  1.
        -11    1    1    2    0    0  0.61441816066E+02 -0.43552849220E+01  0.95941716771E+02  0.11401262336E+03  0.00000000000E+00 0.  1.
         11    1    1    2    0    0 -0.30900142525E+02 -0.17324607088E+02  0.43151878785E+02  0.55830506549E+02  0.00000000000E+00 0. -1.
</event>
<event>
 7    1  0.8661710E-006  0.1361817E+03  0.7561462E-02  0.1218561E+00
         -2   -1    0    0    0  501 -0.00000000000E+00  0.00000000000E+00  0.33369250081E+02  0.33369250081E+02  0.00000000000E+00 0.  1.
          2   -1    0    0  501    0  0.00000000000E+00 -0.00000000000E+00 -0.70009675499E+03  0.70009675499E+03  0.00000000000E+00 0. -1.
         23    2    1    2    0    0  0.98715579401E+02  0.11901621689E+02 -0.28058827343E+03  0.32289872465E+03  0.12508953985E+03 0.  0.
          5    1    3    3  502    0  0.20025143753E+02 -0.50221800642E+02 -0.14031734798E+03  0.15043159969E+03  0.41800000000E+01 0.  1.
         -5    1    3    3    0  502  0.78690435648E+02  0.62123422331E+02 -0.14027092546E+03  0.17246712496E+03  0.41800000000E+01 0.  1.
        -11    1    1    2    0    0 -0.61973618520E+02  0.23964322765E+02 -0.10136887447E+03  0.12120506124E+03  0.00000000000E+00 0.  1.
         11    1    1    2    0    0 -0.36741960881E+02 -0.35865944453E+02 -0.28477035700E+03  0.28936221918E+03  0.00000000000E+00 0. -1.
</event>
<event>
 7    1  0.8661710E-006  0.2067591E+03  0.7561462E-02  0.1144158E+00
         -1   -1    0    0    0  501 -0.00000000000E+00  0.00000000000E+00  0.81056331165E+02  0.81056331165E+02  0.00000000000E+00 0.  1.
          1   -1    0    0  501    0  0.00000000000E+00 -0.00000000000E+00 -0.58463520634E+03  0.58463520634E+03  0.00000000000E+00 0. -1.
         23    2    1    2    0    0 -0.15530465905E+03 -0.83209663458E+02 -0.36541940466E+03  0.42452644015E+03  0.12509185374E+03 0.  0.
          5    1    3    3  502    0 -0.14979516347E+03 -0.11160968042E+03 -0.31531712105E+03  0.36652103758E+03  0.41800000000E+01 0. -1.
         -5    1    3    3    0  502 -0.55094955793E+01  0.28400016958E+02 -0.50102283610E+02  0.58005402573E+02  0.41800000000E+01 0. -1.
        -11    1    1    2    0    0  0.16701564614E+03  0.80569565452E+02 -0.13240343354E+03  0.22785159676E+03  0.00000000000E+00 0. -1.
         11    1    1    2    0    0 -0.11710987097E+02  0.26400980065E+01 -0.57560369762E+01  0.13313500589E+02  0.00000000000E+00 0.  1.
</event>
<event>
 7    1  0.8661710E-006  0.9856469E+02  0.7561462E-02  0.1283343E+00
          1   -1    0    0  501    0  0.00000000000E+00  0.00000000000E+00  0.82642089852E+02  0.82642089852E+02  0.00000000000E+00 0. -1.
         -1   -1    0    0    0  501 -0.00000000000E+00 -0.00000000000E+00 -0.14628958515E+03  0.14628958515E+03  0.00000000000E+00 0.  1.
         23    2    1    2    0    0 -0.57792766248E+01  0.18409151649E+02 -0.33957218385E+02  0.13104546282E+03  0.12509006252E+03 0.  0.
          5    1    3    3  502    0 -0.56336925350E+02  0.17908619033E+02 -0.50315060797E+02  0.77740887161E+02  0.41800000000E+01 0. -1.
         -5    1    3    3    0  502  0.50557648725E+02  0.50053261570E+00  0.16357842411E+02  0.53304575656E+02  0.41800000000E+01 0. -1.
        -11    1    1    2    0    0  0.35852319318E+02 -0.37206948022E+02 -0.34453520244E+02  0.62103066259E+02  0.00000000000E+00 0. -1.
         11    1    1    2    0    0 -0.30073042693E+02  0.18797796373E+02  0.47632433329E+01  0.35783145925E+02  0.00000000000E+00 0.  1.
</event>
<event>
 7    1  0.8661710E-006  0.7826239E+02  0.7561462E-02  0.1334056E+00
         -1   -1    0    0    0  501 -0.00000000000E+00  0.00000000000E+00  0.45952878640E+02  0.45952878640E+02  0.00000000000E+00 0.  1.
          1   -1    0    0  501    0  0.00000000000E+00 -0.00000000000E+00 -0.27721058248E+03  0.27721058248E+03  0.00000000000E+00 0. -1.
         23    2    1    2    0    0  0.33797950834E+01  0.31153512845E+02 -0.13112549772E+03  0.18391002936E+03  0.12508812241E+03 0.  0.
          5    1    3    3  502    0 -0.25726772098E+02 -0.22255700843E+02 -0.11618851005E+03  0.12113804229E+03  0.41800000000E+01 0.  1.
         -5    1    3    3    0  502  0.29106567182E+02  0.53409213688E+02 -0.14936987677E+02  0.62771987070E+02  0.41800000000E+01 0.  1.
        -11    1    1    2    0    0  0.23468051628E+01 -0.45642604353E+02 -0.87253412002E+01  0.46528339812E+02  0.00000000000E+00 0.  1.
         11    1    1    2    0    0 -0.57266002462E+01  0.14489091509E+02 -0.91406864912E+02  0.92725091944E+02  0.00000000000E+00 0. -1.
</event>
<event>
 7    1  0.8661710E-006  0.1115587E+03  0.7561462E-02  0.1257710E+00
          3   -1    0    0  501    0  0.00000000000E+00  0.00000000000E+00  0.54689362825E+02  0.54689362825E+02  0.00000000000E+00 0. -1.
         -3   -1    0    0    0  501 -0.00000000000E+00 -0.00000000000E+00 -0.33681386045E+03  0.33681386045E+03  0.00000000000E+00 0.  1.
         23    2    1    2    0    0 -0.39108030813E+02 -0.31917925191E+02 -0.24989816616E+03  0.28398307766E+03  0.12509637454E+03 0.  0.
          5    1    3    3  502    0 -0.73921513010E+02 -0.49625429600E+02 -0.12849040894E+03  0.15637880591E+03  0.41800000000E+01 0. -1.
         -5    1    3    3    0  502  0.34813482197E+02  0.17707504409E+02 -0.12140775722E+03  0.12760427174E+03  0.41800000000E+01 0. -1.
        -11    1    1    2    0    0  0.35197117281E+02 -0.21433381579E+02 -0.34837749616E+02  0.53961983925E+02  0.00000000000E+00 0.  1.
         11    1    1    2    0    0  0.39109135317E+01  0.53351306770E+02  0.26114181527E+01  0.53558161689E+02  0.00000000000E+00 0. -1.
</event>
<event>
 7    1  0.8661710E-006  0.8535340E+02  0.7561462E-02  0.1314511E+00
         -1   -1    0    0    0  501 -0.00000000000E+00  0.00000000000E+00  0.61534051574E+03  0.61534051574E+03  0.00000000000E+00 0.  1.
          1   -1    0    0  501    0  0.00000000000E+00 -0.00000000000E+00 -0.19497925899E+02  0.19497925899E+02  0.00000000000E+00 0. -1.
         23    2    1    2    0    0  0.46907896513E+01 -0.12704997202E+02  0.38467853007E+03  0.40473317866E+03  0.12509178210E+03 0.  0.
          5    1    3    3  502    0 -0.40428672290E+02  0.17833207829E+01  0.32897037353E+03  0.33147644990E+03  0.41800000000E+01 0. -1.
         -5    1    3    3    0  502  0.45119461941E+02 -0.14488317985E+02  0.55708156538E+02  0.73256728761E+02  0.41800000000E+01 0. -1.
        -11    1    1    2    0    0  0.32400060508E+02  0.27520607434E+02  0.58573015979E+02  0.72373655119E+02  0.00000000000E+00 0. -1.
         11    1    1    2    0    0 -0.37090850159E+02 -0.14815610232E+02  0.15259104379E+03  0.15773160786E+03  0.00000000000E+00 0.  1.
</event>
<event>
 7    1  0.8661710E-006  0.1224709E+03  0.7561462E-02  0.1239076E+00
         -1   -1    0    0    0  501 -0.00000000000E+00  0.00000000000E+00  0.60872497221E+03  0.60872497221E+03  0.00000000000E+00 0.  1.
          1   -1    0    0  501    0  0.00000000000E+00 -0.00000000000E+00 -0.57774967373E+02  0.57774967373E+02  0.00000000000E+00 0. -1.
         23    2    1    2    0    0 -0.46265447890E+02  0.56305732181E+02  0.52319335644E+03  0.54285321738E+03  0.12508996863E+03 0.  0.
          5    1    3    3  502    0 -0.62153185413E+02 -0.20186490663E+02  0.20620308098E+03  0.21635086288E+03  0.41800000000E+01 0. -1.
         -5    1    3    3    0  502  0.15887737523E+02  0.76492222844E+02  0.31699027546E+03  0.32650235450E+03  0.41800000000E+01 0. -1.
        -11    1    1    2    0    0  0.32305345322E+01  0.16410843780E+02 -0.20408184827E+02  0.26386476742E+02  0.00000000000E+00 0. -1.
         11    1    1    2    0    0  0.43034913358E+02 -0.72716575961E+02  0.48164833219E+02  0.97260245457E+02  0.00000000000E+00 0.  1.
</event>
<event>
 7    1  0.8661710E-006  0.8804365E+02  0.7561462E-02  0.1307660E+00
         -1   -1    0    0    0  501 -0.00000000000E+00  0.00000000000E+00  0.44226326349E+02  0.44226326349E+02  0.00000000000E+00 0.  1.
          1   -1    0    0  501    0  0.00000000000E+00 -0.00000000000E+00 -0.23430197827E+03  0.23430197827E+03  0.00000000000E+00 0. -1.
         23    2    1    2    0    0 -0.69594348170E+01  0.21009984299E+02 -0.90895138977E+02  0.15619988681E+03  0.12508647080E+03 0.  0.
          5    1    3    3  502    0  0.19120500253E+02 -0.44828176590E+02 -0.12526496521E+02  0.50493013986E+02  0.41800000000E+01 0. -1.
         -5    1    3    3    0  502 -0.26079935070E+02  0.65838160890E+02 -0.78368642456E+02  0.10570687283E+03  0.41800000000E+01 0. -1.
        -11    1    1    2    0    0 -0.20747238167E+02  0.11153587271E+01 -0.78668160680E+02  0.81365664881E+02  0.00000000000E+00 0. -1.
         11    1    1    2    0    0  0.27706672984E+02 -0.22125343026E+02 -0.20512352265E+02  0.40962752927E+02  0.00000000000E+00 0.  1.
</event>
<event>
 7    1  0.8661710E-006  0.1302024E+03  0.7561462E-02  0.1227156E+00
         -2   -1    0    0    0  501 -0.00000000000E+00  0.00000000000E+00  0.50111869164E+02  0.50111869164E+02  0.00000000000E+00 0. -1.
          2   -1    0    0  501    0  0.00000000000E+00 -0.00000000000E+00 -0.49459912041E+03  0.49459912041E+03  0.00000000000E+00 0.  1.
         23    2    1    2    0    0  0.27305679597E+02 -0.10649794252E+03 -0.18532213891E+03  0.24915042050E+03  0.12507687622E+03 0.  0.
          5    1    3    3  502    0 -0.19448594481E+02 -0.28314972291E+01 -0.11197202825E+03  0.11376059386E+03  0.41800000000E+01 0. -1.
         -5    1    3    3    0  502  0.46754274078E+02 -0.10366644529E+03 -0.73350110658E+02  0.13538982664E+03  0.41800000000E+01 0. -1.
        -11    1    1    2    0    0  0.76284911563E+00  0.96819475295E+02 -0.24338614862E+03  0.26193779810E+03  0.00000000000E+00 0.  1.
         11    1    1    2    0    0 -0.28068528713E+02  0.96784672272E+01 -0.15778963716E+02  0.33622770973E+02  0.00000000000E+00 0. -1.
</event>
<event>
 7    1  0.8661710E-006  0.7146489E+02  0.7561462E-02  0.1355181E+00
         -3   -1    0    0    0  501 -0.00000000000E+00  0.00000000000E+00  0.16767556807E+03  0.16767556807E+03  0.00000000000E+00 0.  1.
          3   -1    0    0  501    0  0.00000000000E+00 -0.00000000000E+00 -0.10651147579E+03  0.10651147579E+03  0.00000000000E+00 0. -1.
         23    2    1    2    0    0  0.27573092378E+02 -0.59053984699E+02  0.77302640774E+02  0.16084506645E+03  0.12509112119E+03 0.  0.
          5    1    3    3  502    0  0.39911272217E+01  0.18314168399E+01  0.93295578524E+02  0.93492355603E+02  0.41800000000E+01 0.  1.
         -5    1    3    3    0  502  0.23581965156E+02 -0.60885401539E+02 -0.15992937749E+02  0.67352710851E+02  0.41800000000E+01 0.  1.
        -11    1    1    2    0    0 -0.15978091594E+02  0.57575979708E+02  0.29211207426E+02  0.66510055553E+02  0.00000000000E+00 0.  1.
         11    1    1    2    0    0 -0.11595000784E+02  0.14780049902E+01 -0.45349755923E+02  0.46831921851E+02  0.00000000000E+00 0. -1.
</event>
<event>
 7    1  0.8661710E-006  0.1104507E+03  0.7561462E-02  0.1259738E+00
          2   -1    0    0  501    0  0.00000000000E+00  0.00000000000E+00  0.99201179152E+02  0.99201179152E+02  0.00000000000E+00 0. -1.
         -2   -1    0    0    0  501 -0.00000000000E+00 -0.00000000000E+00 -0.16465523248E+03  0.16465523248E+03  0.00000000000E+00 0.  1.
         23    2    1    2    0    0 -0.23532828237E+01  0.36689466828E+02 -0.93004494636E+02  0.16015268653E+03  0.12508953618E+03 0.  0.
          5    1    3    3  502    0 -0.28921395690E+02 -0.36130628816E+02 -0.12076346764E+02  0.48012290285E+02  0.41800000000E+01 0. -1.
         -5    1    3    3    0  502  0.26568112866E+02  0.72820095644E+02 -0.80928147872E+02  0.11214039624E+03  0.41800000000E+01 0. -1.
        -11    1    1    2    0    0 -0.42373467674E+02 -0.65649082217E+01 -0.57787326919E+00  0.42882895426E+02  0.00000000000E+00 0.  1.
         11    1    1    2    0    0  0.44726750497E+02 -0.30124558606E+02  0.28128314582E+02  0.60820829676E+02  0.00000000000E+00 0. -1.
</event>
<event>
 7    1  0.8661710E-006  0.1183519E+03  0.7561462E-02  0.1245841E+00
         -2   -1    0    0    0  501 -0.00000000000E+00  0.00000000000E+00  0.21604101015E+02  0.21604101015E+02  0.00000000000E+00 0. -1.
          2   -1    0    0  501    0  0.00000000000E+00 -0.00000000000E+00 -0.69152222978E+03  0.69152222978E+03  0.00000000000E+00 0.  1.
         23    2    1    2    0    0 -0.52795520160E+02  0.11034841890E+02 -0.39001054094E+03  0.41311593968E+03  0.12508965938E+03 0.  0.
          5    1    3    3  502    0  0.17467784916E+02  0.50190533565E+02 -0.11910746049E+03  0.13049242397E+03  0.41800000000E+01 0. -1.
         -5    1    3    3    0  502 -0.70263305075E+02 -0.39155691675E+02 -0.27090308046E+03  0.28262351571E+03  0.41800000000E+01 0. -1.
        -11    1    1    2    0    0  0.10302053715E+02 -0.46422455425E+02 -0.17592083543E+03  0.18223423668E+03  0.00000000000E+00 0.  1.
         11    1    1    2    0    0  0.42493466444E+02  0.35387613534E+02 -0.10398675239E+03  0.11777615444E+03  0.00000000000E+00 0. -1.
</event>
<event>
 7    1  0.8661710E-006  0.1608862E+03  0.7561462E-02  0.1187700E+00
          2   -1    0    0  501    0  0.00000000000E+00  0.00000000000E+00  0.67217840057E+03  0.67217840057E+03  0.00000000000E+00 0. -1.
         -2   -1    0    0    0  501 -0.00000000000E+00 -0.00000000000E+00 -0.44902497543E+02  0.44902497543E+02  0.00000000000E+00 0.  1.
         23    2    1    2    0    0 -0.36619553590E+02 -0.11595220078E+03  0.21061181155E+03  0.27347835818E+03  0.12508865920E+03 0.  0.
          5    1    3    3  502    0  0.29560444051E+02  0.10436374356E+02  0.34771090326E+02  0.47002541257E+02  0.41800000000E+01 0. -1.
         -5    1    3    3    0  502 -0.66179997641E+02 -0.12638857513E+03  0.17584072123E+03  0.22647581693E+03  0.41800000000E+01 0. -1.
        -11    1    1    2    0    0 -0.27730973040E+01  0.10698085788E+03  0.24686304102E+03  0.26906124776E+03  0.00000000000E+00 0.  1.
         11    1    1    2    0    0  0.39392650894E+02  0.89713428915E+01  0.16980105046E+03  0.17454129217E+03  0.00000000000E+00 0. -1.
</event>
<event>
 7    1  0.8661710E-006  0.1709472E+03  0.7561462E-02  0.1176864E+00
         -1   -1    0    0    0  501 -0.00000000000E+00  0.00000000000E+00  0.79260410342E+02  0.79260410342E+02  0.00000000000E+00 0.  1.
          1   -1    0    0  501    0  0.00000000000E+00 -0.00000000000E+00 -0.60278126285E+03  0.60278126285E+03  0.00000000000E+00 0. -1.
         23    2    1    2    0    0  0.10306615860E+03  0.10704022636E+03 -0.88578448632E+02  0.21342228169E+03  0.12499074227E+03 0.  0.
          5    1    3    3  502    0  0.87763667887E+02  0.71052195388E+01 -0.65004589148E+02  0.10952631901E+03  0.41800000000E+01 0. -1.
         -5    1    3    3    0  502  0.15302490710E+02  0.99935006820E+02 -0.23573859484E+02  0.10389596268E+03  0.41800000000E+01 0. -1.
        -11    1    1    2    0    0 -0.38463526206E+02 -0.64851350394E+02 -0.10193918019E+03  0.12679407302E+03  0.00000000000E+00 0.  1.
         11    1    1    2    0    0 -0.64602632391E+02 -0.42188875965E+02 -0.33300322368E+03  0.34182531848E+03  0.00000000000E+00 0. -1.
</event>
<event>
 6    1  0.8661710E-006  0.1361272E+03  0.7561462E-02  0.1218637E+00
          1   -1    0    0  501    0  0.00000000000E+00  0.00000000000E+00  0.55540517890E+02  0.55540517890E+02  0.00000000000E+00 0. -1.
         -1   -1    0    0    0  501 -0.00000000000E+00 -0.00000000000E+00 -0.48779794062E+03  0.48779794062E+03  0.00000000000E+00 0.  1.
          5    1    1    2  502    0 -0.42973907608E+02  0.80758250051E+02 -0.29098277485E+03  0.30505261734E+03  0.41800000000E+01 0. -1.
         -5    1    1    2    0  502  0.40046764980E+02 -0.73627044978E+02 -0.10600041841E+03  0.13519706447E+03  0.41800000000E+01 0.  1.
        -11    1    1    2    0    0  0.47745894802E+02  0.99963612987E+01 -0.15384065675E+02  0.51149459297E+02  0.00000000000E+00 0. -1.
         11    1    1    2    0    0 -0.44818752174E+02 -0.17127566372E+02 -0.19890163790E+02  0.51939317399E+02  0.00000000000E+00 0.  1.
</event>
<event>
 7    1  0.8661710E-006  0.1514000E+03  0.7561462E-02  0.1198763E+00
          3   -1    0    0  501    0  0.00000000000E+00  0.00000000000E+00  0.40651282796E+02  0.40651282796E+02  0.00000000000E+00 0. -1.
         -3   -1    0    0    0  501 -0.00000000000E+00 -0.00000000000E+00 -0.73831631551E+03  0.73831631551E+03  0.00000000000E+00 0.  1.
         23    2    1    2    0    0 -0.10675393630E+03  0.39807422273E+02 -0.53199275442E+03  0.55825060620E+03  0.12508562981E+03 0.  0.
          5    1    3    3  502    0 -0.48483569237E+02  0.77301121208E+02 -0.21244306649E+03  0.23124802426E+03  0.41800000000E+01 0.  1.
         -5    1    3    3    0  502 -0.58270367066E+02 -0.37493698935E+02 -0.31954968793E+03  0.32700258194E+03  0.41800000000E+01 0.  1.
        -11    1    1    2    0    0 -0.88055003841E+01 -0.23800605280E+02 -0.12822745922E+02  0.28432876423E+02  0.00000000000E+00 0.  1.
         11    1    1    2    0    0  0.11555943669E+03 -0.16006816994E+02 -0.15284953237E+03  0.19228411568E+03  0.00000000000E+00 0. -1.
</event>
<event>
 7    1  0.8661710E-006  0.9017000E+02  0.7561462E-02  0.1302441E+00
         -1   -1    0    0    0  501 -0.00000000000E+00  0.00000000000E+00  0.87714030779E+02  0.87714030779E+02  0.00000000000E+00 0.  1.
          1   -1    0    0  501    0  0.00000000000E+00 -0.00000000000E+00 -0.18759495767E+03  0.18759495767E+03  0.00000000000E+00 0. -1.
         23    2    1    2    0    0  0.46365928346E+01  0.45906698445E+02 -0.32224246339E+01  0.13336666952E+03  0.12508941427E+03 0.  0.
          5    1    3    3  502    0 -0.63817058278E+01 -0.37089171980E+02  0.24468228722E+02  0.45083250374E+02  0.41800000000E+01 0.  1.
         -5    1    3    3    0  502  0.11018298662E+02  0.82995870425E+02 -0.27690653356E+02  0.88283419147E+02  0.41800000000E+01 0.  1.
        -11    1    1    2    0    0 -0.16681827491E+02 -0.73094630581E+01  0.14741712084E+02  0.23431382669E+02  0.00000000000E+00 0.  1.
         11    1    1    2    0    0  0.12045234656E+02 -0.38597235387E+02 -0.11140021434E+03  0.11851093625E+03  0.00000000000E+00 0. -1.
</event>
<event>
 7    1  0.8661710E-006  0.1174085E+03  0.7561462E-02  0.1247435E+00
          2   -1    0    0  501    0  0.00000000000E+00  0.00000000000E+00  0.10729890154E+03  0.10729890154E+03  0.00000000000E+00 0.  1.
         -2   -1    0    0    0  501 -0.00000000000E+00 -0.00000000000E+00 -0.18351607282E+03  0.18351607282E+03  0.00000000000E+00 0. -1.
         23    2    1    2    0    0  0.86564555306E+02 -0.14035006185E+02 -0.68576016060E+02  0.16745195911E+03  0.12508830879E+03 0.  0.
          5    1    3    3  502    0  0.15489260340E+01 -0.47422739369E+02 -0.58540739549E+02  0.75470563586E+02  0.41800000000E+01 0. -1.
         -5    1    3    3    0  502  0.85015629272E+02  0.33387733184E+02 -0.10035276511E+02  0.91981395523E+02  0.41800000000E+01 0. -1.
        -11    1    1    2    0    0 -0.73667182465E+02  0.26038784191E+02  0.28489217678E+02  0.83165543216E+02  0.00000000000E+00 0.  1.
         11    1    1    2    0    0 -0.12897372841E+02 -0.12003778006E+02 -0.36130372894E+02  0.40197472036E+02  0.00000000000E+00 0. -1.
</event>
<event>
 7    1  0.8661710E-006  0.9644167E+02  0.7561462E-02  0.1287962E+00
          1   -1    0    0  501    0  0.00000000000E+00  0.00000000000E+00  0.74389387823E+02  0.74389387823E+02  0.00000000000E+00 0. -1.
         -1   -1    0    0    0  501 -0.00000000000E+00 -0.00000000000E+00 -0.15231595356E+03  0.15231595356E+03  0.00000000000E+00 0.  1.
         23    2    1    2    0    0 -0.19894600792E+02 -0.12193173059E+02 -0.49292445060E+02  0.12788934876E+03  0.11567831161E+03 0.  0.
          5    1    3    3  502    0  0.54951281550E+01  0.49277573095E+02 -0.10749621148E+02  0.50906801102E+02  0.41800000000E+01 0. -1.
         -5    1    3    3    0  502 -0.25389728947E+02 -0.61470746154E+02 -0.38542823912E+02  0.76982547658E+02  0.41800000000E+01 0.  1.
        -11    1    1    2    0    0  0.16010631247E+02  0.42767078627E+02  0.12566879360E+02  0.47363380201E+02  0.00000000000E+00 0. -1.
         11    1    1    2    0    0  0.38839695449E+01 -0.30573905567E+02 -0.41201000033E+02  0.51452612419E+02  0.00000000000E+00 0.  1.
</event>
<event>
 7    1  0.8661710E-006  0.1147205E+03  0.7561462E-02  0.1252070E+00
          2   -1    0    0  501    0  0.00000000000E+00  0.00000000000E+00  0.34562399472E+03  0.34562399472E+03  0.00000000000E+00 0.  1.
         -2   -1    0    0    0  501 -0.00000000000E+00 -0.00000000000E+00 -0.47309231732E+02  0.47309231732E+02  0.00000000000E+00 0. -1.
         23    2    1    2    0    0 -0.31857684178E+02 -0.44672246233E+02  0.11246988309E+03  0.17694289449E+03  0.12509513054E+03 0.  0.
          5    1    3    3  502    0 -0.68783194262E+02 -0.45083447618E+02  0.11294371702E+03  0.13977625219E+03  0.41800000000E+01 0.  1.
         -5    1    3    3    0  502  0.36925510084E+02  0.41120138553E+00 -0.47383392581E+00  0.37166642304E+02  0.41800000000E+01 0.  1.
        -11    1    1    2    0    0  0.64939129944E+02  0.17868544215E+02  0.11895719850E+03  0.13670109928E+03  0.00000000000E+00 0. -1.
         11    1    1    2    0    0 -0.33081445766E+02  0.26803702018E+02  0.66887681392E+02  0.79289232673E+02  0.00000000000E+00 0.  1.
</event>
<event>
 6    1  0.8661710E-006  0.1480800E+03  0.7561462E-02  0.1202852E+00
          1   -1    0    0  501    0  0.00000000000E+00  0.00000000000E+00  0.29544511220E+03  0.29544511220E+03  0.00000000000E+00 0. -1.
         -1   -1    0    0    0  501 -0.00000000000E+00 -0.00000000000E+00 -0.12284496844E+03  0.12284496844E+03  0.00000000000E+00 0.  1.
          5    1    1    2  502    0  0.98795477075E+02  0.83781432596E+02  0.54713642005E+01  0.12972001759E+03  0.41800000000E+01 0. -1.
         -5    1    1    2    0  502 -0.38467596393E+02 -0.91216546148E+02  0.13895737800E+02  0.10005387645E+03  0.41800000000E+01 0.  1.
        -11    1    1    2    0    0 -0.39737832281E+02 -0.94466246588E+01  0.89725940415E+01  0.41819152020E+02  0.00000000000E+00 0.  1.
         11    1    1    2    0    0 -0.20590048401E+02  0.16881738210E+02  0.14426044772E+03  0.14669703458E+03  0.00000000000E+00 0. -1.
</event>
<event>
 7    1  0.8661710E-006  0.1747364E+03  0.7561462E-02  0.1172997E+00
         -2   -1    0    0    0  501 -0.00000000000E+00  0.00000000000E+00  0.86853505041E+02  0.86853505041E+02  0.00000000000E+00 0.  1.
          2   -1    0    0  501    0  0.00000000000E+00 -0.00000000000E+00 -0.49898026516E+03  0.49898026516E+03  0.00000000000E+00 0. -1.
         23    2    1    2    0    0  0.15171276082E+03  0.77408616122E+02 -0.14537110320E+03  0.25649077312E+03  0.12508358568E+03 0.  0.
          5    1    3    3  502    0  0.41424199026E+02  0.72304879507E+01 -0.11458160027E+03  0.12212559003E+03  0.41800000000E+01 0.  1.
         -5    1    3    3    0  502  0.11028856180E+03  0.70178128171E+02 -0.30789502935E+02  0.13436518309E+03  0.41800000000E+01 0.  1.
        -11    1    1    2    0    0 -0.82099853791E+02 -0.67143011664E+02 -0.22177020782E+03  0.24582635148E+03  0.00000000000E+00 0.  1.
         11    1    1    2    0    0 -0.69612907032E+02 -0.10265604458E+02 -0.44985449098E+02  0.83516645592E+02  0.00000000000E+00 0. -1.
</event>
<event>
 6    1  0.8661710E-006  0.8693534E+02  0.7561462E-02  0.1310448E+00
         -1   -1    0    0    0  501 -0.00000000000E+00  0.00000000000E+00  0.51122496352E+02  0.51122496352E+02  0.00000000000E+00 0.  1.
          1   -1    0    0  501    0  0.00000000000E+00 -0.00000000000E+00 -0.44671109316E+03  0.44671109316E+03  0.00000000000E+00 0. -1.
          5    1    1    2  502    0 -0.10508465894E+02 -0.44623659135E+02 -0.20090421902E+03  0.20611083531E+03  0.41800000000E+01 0. -1.
         -5    1    1    2    0  502  0.49774249219E+02 -0.16344283653E+01  0.21104562816E+02  0.54249628691E+02  0.41800000000E+01 0.  1.
        -11    1    1    2    0    0  0.72311577706E+01  0.26273187152E+02 -0.15936170132E+03  0.16167474093E+03  0.00000000000E+00 0.  1.
         11    1    1    2    0    0 -0.46496941096E+02  0.19984900348E+02 -0.56427239280E+02  0.75798384587E+02  0.00000000000E+00 0. -1.
</event>
<event>
 7    1  0.8661710E-006  0.1470466E+03  0.7561462E-02  0.1204150E+00
          1   -1    0    0  501    0  0.00000000000E+00  0.00000000000E+00  0.43213562767E+03  0.43213562767E+03  0.00000000000E+00 0. -1.
         -1   -1    0    0    0  501 -0.00000000000E+00 -0.00000000000E+00 -0.69814079048E+02  0.69814079048E+02  0.00000000000E+00 0.  1.
         23    2    1    2    0    0  0.11001964389E+03  0.24937123561E+02  0.69412397746E+02  0.18218675060E+03  0.12509096275E+03 0.  0.
          5    1    3    3  502    0  0.11835613383E+03 -0.21376186507E+02  0.57968974129E+02  0.13357765579E+03  0.41800000000E+01 0.  1.
         -5    1    3    3    0  502 -0.83364899443E+01  0.46313310068E+02  0.11443423617E+02  0.48609094809E+02  0.41800000000E+01 0.  1.
        -11    1    1    2    0    0 -0.35371303747E+02 -0.36661580340E+02  0.92817924513E+02  0.10587902395E+03  0.00000000000E+00 0.  1.
         11    1    1    2    0    0 -0.74648340139E+02  0.11724456778E+02  0.20009122637E+03  0.21388393217E+03  0.00000000000E+00 0. -1.
</event>
<event>
 7    1  0.8661710E-006  0.8680684E+02  0.7561462E-02  0.1310774E+00
         -2   -1    0    0    0  501 -0.00000000000E+00  0.00000000000E+00  0.80506007131E+02  0.80506007131E+02  0.00000000000E+00 0.  1.
          2   -1    0    0  501    0  0.00000000000E+00 -0.00000000000E+00 -0.19109161703E+03  0.19109161703E+03  0.00000000000E+00 0. -1.
         23    2    1    2    0    0 -0.48454927400E+02 -0.31408171774E+01 -0.23558731634E+02  0.13623255910E+03  0.12508617670E+03 0.  0.
          5    1    3    3  502    0 -0.30425693830E+02 -0.38576612062E+02 -0.63047885969E+02  0.80039903600E+02  0.41800000000E+01 0. -1.
         -5    1    3    3    0  502 -0.18029233570E+02  0.35435794884E+02  0.39489154335E+02  0.56192655501E+02  0.41800000000E+01 0. -1.
        -11    1    1    2    0    0 -0.15824314254E+02 -0.99990202915E+01 -0.62629757529E+02  0.65367238404E+02  0.00000000000E+00 0. -1.
         11    1    1    2    0    0  0.64279241655E+02  0.13139837469E+02 -0.24397120737E+02  0.69997826657E+02  0.00000000000E+00 0.  1.
</event>
<event>
 7    1  0.8661710E-006  0.1090362E+03  0.7561462E-02  0.1262365E+00
          1   -1    0    0  501    0  0.00000000000E+00  0.00000000000E+00  0.36021455183E+03  0.36021455183E+03  0.00000000000E+00 0. -1.
         -1   -1    0    0    0  501 -0.00000000000E+00 -0.00000000000E+00 -0.36745267828E+02  0.36745267828E+02  0.00000000000E+00 0.  1.
         23    2    1    2    0    0 -0.13531019759E+01  0.19306949787E+02  0.12758191745E+03  0.17971159353E+03  0.12507806359E+03 0.  0.
          5    1    3    3  502    0 -0.37758570232E+02  0.59086443637E+02  0.88469448632E+02  0.11296562835E+03  0.41800000000E+01 0.  1.
         -5    1    3    3    0  502  0.36405468257E+02 -0.39779493850E+02  0.39112468823E+02  0.66745965177E+02  0.41800000000E+01 0.  1.
        -11    1    1    2    0    0 -0.42531394561E+02  0.62030142741E+01  0.82800116546E+02  0.93291244013E+02  0.00000000000E+00 0.  1.
         11    1    1    2    0    0  0.43884496537E+02 -0.25509964061E+02  0.11308725000E+03  0.12395698212E+03  0.00000000000E+00 0. -1.
</event>
<event>
 7    1  0.8661710E-006  0.2476716E+03  0.7561462E-02  0.1114785E+00
          2   -1    0    0  501    0  0.00000000000E+00  0.00000000000E+00  0.11817960958E+04  0.11817960958E+04  0.00000000000E+00 0. -1.
         -2   -1    0    0    0  501 -0.00000000000E+00 -0.00000000000E+00 -0.64085223960E+02  0.64085223960E+02  0.00000000000E+00 0.  1.
         23    2    1    2    0    0  0.10492730540E+03  0.20406594830E+03  0.33368741890E+03  0.42387970166E+03  0.12519607531E+03 0.  0.
          5    1    3    3  502    0 -0.26322405221E+02  0.18978177384E+02  0.27379265107E+02  0.42663061203E+02  0.41800000000E+01 0. -1.
         -5    1    3    3    0  502  0.13124971062E+03  0.18508777092E+03  0.30630815379E+03  0.38121664046E+03  0.41800000000E+01 0. -1.
        -11    1    1    2    0    0 -0.57894200866E+02 -0.16393695089E+03  0.67116734666E+03  0.69332003403E+03  0.00000000000E+00 0. -1.
         11    1    1    2    0    0 -0.47033104532E+02 -0.40128997413E+02  0.11285610630E+03  0.12868158409E+03  0.00000000000E+00 0.  1.
</event>
<event>
 7    1  0.8661710E-006  0.8851950E+02  0.7561462E-02  0.1306477E+00
         -1   -1    0    0    0  501 -0.00000000000E+00  0.00000000000E+00  0.65166904265E+02  0.65166904265E+02  0.00000000000E+00 0.  1.
          1   -1    0    0  501    0  0.00000000000E+00 -0.00000000000E+00 -0.18568977713E+03  0.18568977713E+03  0.00000000000E+00 0. -1.
         23    2    1    2    0    0  0.16732261820E+02 -0.24223605824E+01 -0.66840125521E+02  0.14282995729E+03  0.12508780078E+03 0.  0.
          5    1    3    3  502    0 -0.51493161568E+02  0.16466380084E+02 -0.38307499746E+02  0.66389941242E+02  0.41800000000E+01 0.  1.
         -5    1    3    3    0  502  0.68225423388E+02 -0.18888740666E+02 -0.28532625775E+02  0.76440016052E+02  0.41800000000E+01 0.  1.
        -11    1    1    2    0    0 -0.81018954842E+01 -0.23353129821E+02  0.18513493530E+02  0.30882986020E+02  0.00000000000E+00 0.  1.
         11    1    1    2    0    0 -0.86303663360E+01  0.25775490403E+02 -0.72196240879E+02  0.77143738085E+02  0.00000000000E+00 0. -1.
</event>
<event>
 7    1  0.8661710E-006  0.8545686E+02  0.7561462E-02  0.1314242E+00
         -2   -1    0    0    0  501 -0.00000000000E+00  0.00000000000E+00  0.76966412093E+02  0.76966412093E+02  0.00000000000E+00 0.  1.
          2   -1    0    0  501    0  0.00000000000E+00 -0.00000000000E+00 -0.18449066040E+03  0.18449066040E+03  0.00000000000E+00 0. -1.
         23    2    1    2    0    0  0.26251716291E+02 -0.23638789666E+02 -0.26392663994E+02  0.13262788154E+03  0.12508252181E+03 0.  0.
          5    1    3    3  502    0 -0.22220443089E+02  0.24566694761E+02 -0.50053018477E+02  0.60166831736E+02  0.41800000000E+01 0.  1.
         -5    1    3    3    0  502  0.48472159381E+02 -0.48205484426E+02  0.23660354482E+02  0.72461049799E+02  0.41800000000E+01 0.  1.
        -11    1    1    2    0    0  0.14728729376E+02 -0.84564459723E+01  0.12916344589E+02  0.21337265641E+02  0.00000000000E+00 0.  1.
         11    1    1    2    0    0 -0.40980445667E+02  0.32095235638E+02 -0.94047928903E+02  0.10749192532E+03  0.00000000000E+00 0. -1.
</event>
<event>
 7    1  0.8661710E-006  0.1538283E+03  0.7561462E-02  0.1195846E+00
         -3   -1    0    0    0  501 -0.00000000000E+00  0.00000000000E+00  0.15979438607E+03  0.15979438607E+03  0.00000000000E+00 0.  1.
          3   -1    0    0  501    0  0.00000000000E+00 -0.00000000000E+00 -0.17953003297E+03  0.17953003297E+03  0.00000000000E+00 0. -1.
         23    2    1    2    0    0  0.12958707495E+03  0.11489579898E+02  0.18214344769E+02  0.18137609365E+03  0.12506280243E+03 0.  0.
          5    1    3    3  502    0  0.64655182725E+02 -0.47898011922E+02 -0.23464890867E+02  0.83920115006E+02  0.41800000000E+01 0. -1.
         -5    1    3    3    0  502  0.64931892229E+02  0.59387591820E+02  0.41679235636E+02  0.97455978646E+02  0.41800000000E+01 0. -1.
        -11    1    1    2    0    0 -0.29817515905E+02 -0.24215695002E+02  0.18474950900E+02  0.42624030194E+02  0.00000000000E+00 0.  1.
         11    1    1    2    0    0 -0.99769559049E+02  0.12726115104E+02 -0.56424942569E+02  0.11532429520E+03  0.00000000000E+00 0. -1.
</event>
<event>
 7    1  0.8661710E-006  0.1593488E+03  0.7561462E-02  0.1189434E+00
          2   -1    0    0  501    0  0.00000000000E+00  0.00000000000E+00  0.42657584491E+03  0.42657584491E+03  0.00000000000E+00 0. -1.
         -2   -1    0    0    0  501 -0.00000000000E+00 -0.00000000000E+00 -0.75217122428E+02  0.75217122428E+02  0.00000000000E+00 0.  1.
         23    2    1    2    0    0 -0.82032616164E+02  0.10700834321E+03  0.12446778945E+03  0.22207586569E+03  0.12508126911E+03 0.  0.
          5    1    3    3  502    0  0.12806011887E+02  0.82679054077E+02  0.74349072074E+02  0.11200480723E+03  0.41800000000E+01 0.  1.
         -5    1    3    3    0  502 -0.94838628051E+02  0.24329289128E+02  0.50118717380E+02  0.11007105847E+03  0.41800000000E+01 0.  1.
        -11    1    1    2    0    0  0.32690025315E+02 -0.62249537901E+02  0.39081963525E+02  0.80442790833E+02  0.00000000000E+00 0.  1.
         11    1    1    2    0    0  0.49342590849E+02 -0.44758805304E+02  0.18780896950E+03  0.19927431081E+03  0.00000000000E+00 0. -1.
</event>
<event>
 7    1  0.8661710E-006  0.9172826E+02  0.7561462E-02  0.1298720E+00
         -3   -1    0    0    0  501 -0.00000000000E+00  0.00000000000E+00  0.11470909463E+03  0.11470909463E+03  0.00000000000E+00 0.  1.
          3   -1    0    0  501    0  0.00000000000E+00 -0.00000000000E+00 -0.11262693881E+03  0.11262693881E+03  0.00000000000E+00 0. -1.
         23    2    1    2    0    0 -0.34813875214E+01 -0.28595486437E+02  0.21191032663E+02  0.13010628320E+03  0.12509501652E+03 0.  0.
          5    1    3    3  502    0 -0.51641747678E+02  0.16260277663E+02  0.32371078549E+02  0.63218872651E+02  0.41800000000E+01 0.  1.
         -5    1    3    3    0  502  0.48160360156E+02 -0.44855764100E+02 -0.11180045886E+02  0.66887410545E+02  0.41800000000E+01 0.  1.
        -11    1    1    2    0    0  0.22011809483E+02 -0.69829885961E+01  0.27385102697E+02  0.35822140307E+02  0.00000000000E+00 0.  1.
         11    1    1    2    0    0 -0.18530421961E+02  0.35578475033E+02 -0.46493979543E+02  0.61407609931E+02  0.00000000000E+00 0. -1.
</event>
<event>
 7    1  0.8661710E-006  0.9239765E+02  0.7561462E-02  0.1297147E+00
          1   -1    0    0  501    0  0.00000000000E+00  0.00000000000E+00  0.34871103942E+02  0.34871103942E+02  0.00000000000E+00 0. -1.
         -1   -1    0    0    0  501 -0.00000000000E+00 -0.00000000000E+00 -0.33697784775E+03  0.33697784775E+03  0.00000000000E+00 0.  1.
         23    2    1    2    0    0  0.92798504292E+01 -0.93916408439E+01 -0.17746316226E+03  0.21751772255E+03  0.12508583902E+03 0.  0.
          5    1    3    3  502    0  0.46110134643E+02 -0.31035006641E+02 -0.16293124420E+03  0.17220156472E+03  0.41800000000E+01 0.  1.
         -5    1    3    3    0  502 -0.36830284214E+02  0.21643365797E+02 -0.14531918057E+02  0.45316157832E+02  0.41800000000E+01 0.  1.
        -11    1    1    2    0    0  0.82355031916E+01  0.45373732990E+02 -0.41418821608E+02  0.61984820252E+02  0.00000000000E+00 0. -1.
         11    1    1    2    0    0 -0.17515353621E+02 -0.35982092146E+02 -0.83224759939E+02  0.92346408889E+02  0.00000000000E+00 0.  1.
</event>
<event>
 7    1  0.8661710E-006  0.1240469E+03  0.7561462E-02  0.1236566E+00
         -2   -1    0    0    0  501 -0.00000000000E+00  0.00000000000E+00  0.33068463742E+02  0.33068463742E+02  0.00000000000E+00 0.  1.
          2   -1    0    0  501    0  0.00000000000E+00 -0.00000000000E+00 -0.61305214741E+03  0.61305214741E+03  0.00000000000E+00 0. -1.
         23    2    1    2    0    0 -0.36775183568E+02  0.85101453597E+02 -0.32885140669E+03  0.36384880484E+03  0.12509210036E+03 0.  0.
          5    1    3    3  502    0  0.45533874107E+02  0.18466710789E+02 -0.92538081488E+02  0.10485762740E+03  0.41800000000E+01 0. -1.
         -5    1    3    3    0  502 -0.82309057675E+02  0.66634742808E+02 -0.23631332521E+03  0.25899117744E+03  0.41800000000E+01 0. -1.
        -11    1    1    2    0    0  0.13270775531E+02 -0.25940254317E+02 -0.69872256820E+01  0.29963838205E+02  0.00000000000E+00 0.  1.
         11    1    1    2    0    0  0.23504408037E+02 -0.59161199280E+02 -0.24414505130E+03  0.25230796811E+03  0.00000000000E+00 0. -1.
</event>
<event>
 7    1  0.8661710E-006  0.1458727E+03  0.7561462E-02  0.1205638E+00
         -2   -1    0    0    0  501 -0.00000000000E+00  0.00000000000E+00  0.29607640907E+02  0.29607640907E+02  0.00000000000E+00 0.  1.
          2   -1    0    0  501    0  0.00000000000E+00 -0.00000000000E+00 -0.83493936557E+03  0.83493936557E+03  0.00000000000E+00 0. -1.
         23    2    1    2    0    0 -0.86507972587E+02  0.72661197307E+02 -0.46449872166E+03  0.49413534391E+03  0.12508955496E+03 0.  0.
          5    1    3    3  502    0  0.17434363773E+02  0.53805757513E+02 -0.23029192124E+03  0.23717263326E+03  0.41800000000E+01 0. -1.
         -5    1    3    3    0  502 -0.10394233636E+03  0.18855439794E+02 -0.23420680043E+03  0.25696271065E+03  0.41800000000E+01 0. -1.
        -11    1    1    2    0    0  0.83508491076E+02 -0.33409303592E+02 -0.30202275519E+03  0.31513107479E+03  0.00000000000E+00 0. -1.
         11    1    1    2    0    0  0.29994815112E+01 -0.39251893715E+02 -0.38810247815E+02  0.55280587778E+02  0.00000000000E+00 0.  1.
</event>
<event>
 7    1  0.8661710E-006  0.1207340E+03  0.7561462E-02  0.1241891E+00
         -1   -1    0    0    0  501 -0.00000000000E+00  0.00000000000E+00  0.82143803305E+02  0.82143803305E+02  0.00000000000E+00 0.  1.
          1   -1    0    0  501    0  0.00000000000E+00 -0.00000000000E+00 -0.38890551537E+03  0.38890551537E+03  0.00000000000E+00 0. -1.
         23    2    1    2    0    0 -0.78290437331E+02 -0.48559988009E+02 -0.20138558122E+02  0.15665779411E+03  0.12509451595E+03 0.  0.
          5    1    3    3  502    0 -0.18874564407E+02 -0.79276487528E+02 -0.33696940949E+02  0.88283446272E+02  0.41800000000E+01 0. -1.
         -5    1    3    3    0  502 -0.59415872923E+02  0.30716499519E+02  0.13558382827E+02  0.68374347842E+02  0.41800000000E+01 0. -1.
        -11    1    1    2    0    0  0.86310656797E+01  0.10082336495E+02  0.33568792704E+01  0.13690049028E+02  0.00000000000E+00 0. -1.
         11    1    1    2    0    0  0.69659371651E+02  0.38477651515E+02 -0.28998003322E+03  0.30070147554E+03  0.00000000000E+00 0.  1.
</event>
<event>
 7    1  0.8661710E-006  0.6865026E+02  0.7561462E-02  0.1364744E+00
          2   -1    0    0  501    0  0.00000000000E+00  0.00000000000E+00  0.53469799223E+03  0.53469799223E+03  0.00000000000E+00 0. -1.
         -2   -1    0    0    0  501 -0.00000000000E+00 -0.00000000000E+00 -0.24251900415E+02  0.24251900415E+02  0.00000000000E+00 0.  1.
         23    2    1    2    0    0 -0.23838149824E+02  0.28908490630E+02  0.29020829134E+03  0.31823296550E+03  0.12508960687E+03 0.  0.
          5    1    3    3  502    0  0.88394999727E+01 -0.79198725795E+01 -0.86807892418E+01  0.15286910849E+02  0.41800000000E+01 0. -1.
         -5    1    3    3    0  502 -0.32677649797E+02  0.36828363210E+02  0.29888908059E+03  0.30294605465E+03  0.41800000000E+01 0. -1.
        -11    1    1    2    0    0 -0.33796857840E+01 -0.44035907275E+02  0.19692774492E+03  0.20181952364E+03  0.00000000000E+00 0. -1.
         11    1    1    2    0    0  0.27217835608E+02  0.15127416644E+02  0.23310055556E+02  0.38897403506E+02  0.00000000000E+00 0.  1.
</event>
<event>
 7    1  0.8661710E-006  0.1744509E+03  0.7561462E-02  0.1173284E+00
         -2   -1    0    0    0  501 -0.00000000000E+00  0.00000000000E+00  0.74216620590E+02  0.74216620590E+02  0.00000000000E+00 0.  1.
          2   -1    0    0  501    0  0.00000000000E+00 -0.00000000000E+00 -0.48308707968E+03  0.48308707968E+03  0.00000000000E+00 0. -1.
         23    2    1    2    0    0  0.99579317577E+02 -0.95168223821E+02 -0.10933595890E+03  0.21580945378E+03  0.12508531936E+03 0.  0.
          5    1    3    3  502    0 -0.18891957195E+02 -0.58942381261E+02 -0.39258956933E+02  0.73415587274E+02  0.41800000000E+01 0.  1.
         -5    1    3    3    0  502  0.11847127477E+03 -0.36225842561E+02 -0.70077001964E+02  0.14239386651E+03  0.41800000000E+01 0.  1.
        -11    1    1    2    0    0 -0.15895368458E+02  0.75217889417E+02 -0.16114372166E+03  0.17854325150E+03  0.00000000000E+00 0. -1.
         11    1    1    2    0    0 -0.83683949119E+02  0.19950334404E+02 -0.13839077853E+03  0.16295099498E+03  0.00000000000E+00 0.  1.
</event>
<event>
 7    1  0.8661710E-006  0.6503108E+02  0.7561462E-02  0.1377855E+00
          2   -1    0    0  501    0  0.00000000000E+00  0.00000000000E+00  0.23216182372E+03  0.23216182372E+03  0.00000000000E+00 0.  1.
         -2   -1    0    0    0  501 -0.00000000000E+00 -0.00000000000E+00 -0.59008499171E+02  0.59008499171E+02  0.00000000000E+00 0. -1.
         23    2    1    2    0    0 -0.14624145093E+02 -0.41361773556E+02  0.95248973140E+02  0.16322704828E+03  0.12508413358E+03 0.  0.
          5    1    3    3  502    0 -0.93256611838E+01 -0.83401507250E+01  0.12043297601E+03  0.12115320954E+03  0.41800000000E+01 0.  1.
         -5    1    3    3    0  502 -0.52984839092E+01 -0.33021622831E+02 -0.25184002868E+02  0.42073838743E+02  0.41800000000E+01 0.  1.
        -11    1    1    2    0    0 -0.28506242155E+02  0.21379383287E+02  0.71620992463E+02  0.79995315068E+02  0.00000000000E+00 0.  1.
         11    1    1    2    0    0  0.43130387247E+02  0.19982390269E+02  0.62833589478E+01  0.47947959546E+02  0.00000000000E+00 0. -1.
</event>
<event>
 7    1  0.9678221E-006  0.3034698E+03  0.7561462E-02  0.1083519E+00
         -2   -1    0    0    0  501 -0.00000000000E+00  0.00000000000E+00  0.18049634014E+04  0.18049634014E+04  0.00000000000E+00 0. -1.
          2   -1    0    0  501    0  0.00000000000E+00 -0.00000000000E+00 -0.54948918918E+02  0.54948918918E+02  0.00000000000E+00 0.  1.
         23    2    1    2    0    0  0.24855897559E+03  0.15504004988E+03  0.10466758434E+04  0.10940736629E+04  0.12509147513E+03 0.  0.
          5    1    3    3  502    0  0.25012807516E+03  0.16407827550E+03  0.10395128816E+04  0.10817070943E+04  0.41800000000E+01 0.  1.
         -5    1    3    3    0  502 -0.15690995732E+01 -0.90382256165E+01  0.71629618403E+01  0.12366568566E+02  0.41800000000E+01 0.  1.
        -11    1    1    2    0    0 -0.43810316669E+02 -0.53483745816E+02  0.10907622383E+03  0.12914130834E+03  0.00000000000E+00 0.  1.
         11    1    1    2    0    0 -0.20474865892E+03 -0.10155630406E+03  0.59426241521E+03  0.63669734911E+03  0.00000000000E+00 0. -1.
</event>
<event>
 7    1  0.8661710E-006  0.2604842E+03  0.7561462E-02  0.1106853E+00
         -1   -1    0    0    0  501 -0.00000000000E+00  0.00000000000E+00  0.10817178303E+04  0.10817178303E+04  0.00000000000E+00 0.  1.
          1   -1    0    0  501    0  0.00000000000E+00 -0.00000000000E+00 -0.90926358986E+02  0.90926358986E+02  0.00000000000E+00 0. -1.
         23    2    1    2    0    0 -0.25244678399E+03  0.11414191685E+02  0.78017040167E+03  0.82956158010E+03  0.12508755737E+03 0.  0.
          5    1    3    3  502    0 -0.17283649680E+03  0.42768946994E+02  0.37118006140E+03  0.41169618390E+03  0.41800000000E+01 0. -1.
         -5    1    3    3    0  502 -0.79610287190E+02 -0.31354755309E+02  0.40899034027E+03  0.41786539620E+03  0.41800000000E+01 0. -1.
        -11    1    1    2    0    0  0.48692873281E+02 -0.21442191940E+02  0.94233566941E+02  0.10821612007E+03  0.00000000000E+00 0.  1.
         11    1    1    2    0    0  0.20375391071E+03  0.10028000255E+02  0.11638750266E+03  0.23486648908E+03  0.00000000000E+00 0. -1.
</event>
<event>
 7    1  0.8661710E-006  0.7360920E+02  0.7561462E-02  0.1348233E+00
         -1   -1    0    0    0  501 -0.00000000000E+00  0.00000000000E+00  0.45202137114E+02  0.45202137114E+02  0.00000000000E+00 0.  1.
          1   -1    0    0  501    0  0.00000000000E+00 -0.00000000000E+00 -0.32826437125E+03  0.32826437125E+03  0.00000000000E+00 0. -1.
         23    2    1    2    0    0 -0.21684219554E+02  0.48230516004E+01 -0.82482382925E+02  0.15147417370E+03  0.12509042570E+03 0.  0.
          5    1    3    3  502    0 -0.23133792145E+02  0.23331026470E+02 -0.11175512908E+03  0.11655981474E+03  0.41800000000E+01 0. -1.
         -5    1    3    3    0  502  0.14495725914E+01 -0.18507974869E+02  0.29272746156E+02  0.34914358966E+02  0.41800000000E+01 0. -1.
        -11    1    1    2    0    0 -0.34024849343E+02  0.13230891988E+02 -0.80701100362E+02  0.88574344340E+02  0.00000000000E+00 0. -1.
         11    1    1    2    0    0  0.55709068897E+02 -0.18053943589E+02 -0.11987875085E+03  0.13341799032E+03  0.00000000000E+00 0.  1.
</event>
<event>
 7    1  0.8661710E-006  0.1694681E+03  0.7561462E-02  0.1178404E+00
          1   -1    0    0  501    0  0.00000000000E+00  0.00000000000E+00  0.47996683812E+03  0.47996683812E+03  0.00000000000E+00 0. -1.
         -1   -1    0    0    0  501 -0.00000000000E+00 -0.00000000000E+00 -0.64290486678E+02  0.64290486678E+02  0.00000000000E+00 0.  1.
         23    2    1    2    0    0  0.26895280424E+02 -0.13282311452E+03  0.25602190468E+03  0.31553191283E+03  0.12509131256E+03 0.  0.
          5    1    3    3  502    0  0.77087563114E+02 -0.78149917796E+02  0.14475738044E+03  0.18171976676E+03  0.41800000000E+01 0. -1.
         -5    1    3    3    0  502 -0.50192282690E+02 -0.54673196724E+02  0.11126452424E+03  0.13381214607E+03  0.41800000000E+01 0. -1.
        -11    1    1    2    0    0 -0.24289783412E+02  0.25212647629E+01  0.59635123502E+02  0.64441433172E+02  0.00000000000E+00 0. -1.
         11    1    1    2    0    0 -0.26054970125E+01  0.13030184976E+03  0.10001932326E+03  0.16428397880E+03  0.00000000000E+00 0.  1.
</event>
<event>
 7    1  0.8661710E-006  0.1633396E+03  0.7561462E-02  0.1184977E+00
          1   -1    0    0  501    0  0.00000000000E+00  0.00000000000E+00  0.22191756950E+03  0.22191756950E+03  0.00000000000E+00 0. -1.
         -1   -1    0    0    0  501 -0.00000000000E+00 -0.00000000000E+00 -0.16544434940E+03  0.16544434940E+03  0.00000000000E+00 0.  1.
         23    2    1    2    0    0  0.13071294298E+03  0.44044777059E+02 -0.47530107893E+02  0.19219225643E+03  0.12511169581E+03 0.  0.
          5    1    3    3  502    0  0.15276070005E+03  0.21505330998E+02 -0.41679279874E+02  0.15985288710E+03  0.41800000000E+01 0. -1.
         -5    1    3    3    0  502 -0.22047757072E+02  0.22539446061E+02 -0.58508280196E+01  0.32339369337E+02  0.41800000000E+01 0. -1.
        -11    1    1    2    0    0 -0.71139802353E+02 -0.38048595649E+02  0.67427232723E+01  0.80956972688E+02  0.00000000000E+00 0.  1.
         11    1    1    2    0    0 -0.59573140630E+02 -0.59961814098E+01  0.97260604717E+02  0.11421268978E+03  0.00000000000E+00 0. -1.
</event>
<event>
 7    1  0.8661710E-006  0.2000586E+03  0.7561462E-02  0.1149690E+00
         -2   -1    0    0    0  501 -0.00000000000E+00  0.00000000000E+00  0.71532232853E+02  0.71532232853E+02  0.00000000000E+00 0. -1.
          2   -1    0    0  501    0  0.00000000000E+00 -0.00000000000E+00 -0.58333720965E+03  0.58333720965E+03  0.00000000000E+00 0.  1.
         23    2    1    2    0    0 -0.16615486402E+03  0.36688921013E+02 -0.22059199240E+03  0.30538832467E+03  0.12509071096E+03 0.  0.
          5    1    3    3  502    0 -0.21390110557E+02  0.60498242095E+02 -0.71919541971E+02  0.96475214659E+02  0.41800000000E+01 0. -1.
         -5    1    3    3    0  502 -0.14476475346E+03 -0.23809321083E+02 -0.14867245043E+03  0.20891311001E+03  0.41800000000E+01 0. -1.
        -11    1    1    2    0    0  0.87289377475E+02 -0.61028459478E+02 -0.12744722968E+03  0.16609245811E+03  0.00000000000E+00 0. -1.
         11    1    1    2    0    0  0.78865486545E+02  0.24339538465E+02 -0.16376575472E+03  0.18338865973E+03  0.00000000000E+00 0.  1.
</event>
<event>
 7    1  0.8661710E-006  0.1108042E+03  0.7561462E-02  0.1259088E+00
          1   -1    0    0  501    0  0.00000000000E+00  0.00000000000E+00  0.10639037055E+03  0.10639037055E+03  0.00000000000E+00 0. -1.
         -1   -1    0    0    0  501 -0.00000000000E+00 -0.00000000000E+00 -0.12878543601E+03  0.12878543601E+03  0.00000000000E+00 0.  1.
         23    2    1    2    0    0 -0.54771893911E+02  0.99185610416E+01 -0.18184861667E+02  0.12924496811E+03  0.11521820330E+03 0.  0.
          5    1    3    3  502    0 -0.69385436648E+02  0.47455679977E+02  0.15823568571E+01  0.84180500320E+02  0.41800000000E+01 0. -1.
         -5    1    3    3    0  502  0.14613542737E+02 -0.37537118935E+02 -0.19767218524E+02  0.45064467792E+02  0.41800000000E+01 0.  1.
        -11    1    1    2    0    0  0.60047018996E+02  0.22482120069E+02  0.17635708543E+02  0.66498935547E+02  0.00000000000E+00 0. -1.
         11    1    1    2    0    0 -0.52751250849E+01 -0.32400681110E+02 -0.21845912332E+02  0.39431902905E+02  0.00000000000E+00 0.  1.
</event>
<event>
 7    1  0.8661710E-006  0.1062621E+03  0.7561462E-02  0.1267653E+00
         -1   -1    0    0    0  501 -0.00000000000E+00  0.00000000000E+00  0.85919187851E+02  0.85919187851E+02  0.00000000000E+00 0.  1.
          1   -1    0    0  501    0  0.00000000000E+00 -0.00000000000E+00 -0.38914072264E+03  0.38914072264E+03  0.00000000000E+00 0. -1.
         23    2    1    2    0    0  0.19274938888E+02 -0.41313528264E+02  0.21325861199E+02  0.13483728679E+03  0.12509184892E+03 0.  0.
          5    1    3    3  502    0  0.19156722268E+02 -0.85872695022E+02  0.98306003779E+01  0.88629638735E+02  0.41800000000E+01 0. -1.
         -5    1    3    3    0  502  0.11821661919E+00  0.44559166759E+02  0.11495260821E+02  0.46207648055E+02  0.41800000000E+01 0. -1.
        -11    1    1    2    0    0  0.16945889954E+02 -0.78052281794E+01 -0.12964850649E+02  0.22719421771E+02  0.00000000000E+00 0.  1.
         11    1    1    2    0    0 -0.36220828841E+02  0.49118756443E+02 -0.31158254534E+03  0.31750320193E+03  0.00000000000E+00 0. -1.
</event>
<event>
 7    1  0.8661710E-006  0.1229428E+03  0.7561462E-02  0.1238320E+00
         -2   -1    0    0    0  501 -0.00000000000E+00  0.00000000000E+00  0.30939163183E+02  0.30939163183E+02  0.00000000000E+00 0.  1.
          2   -1    0    0  501    0  0.00000000000E+00 -0.00000000000E+00 -0.60050850451E+03  0.60050850451E+03  0.00000000000E+00 0. -1.
         23    2    1    2    0    0 -0.16383471199E+02 -0.68160820846E+02 -0.21117622831E+03  0.25526054558E+03  0.12509288989E+03 0.  0.
          5    1    3    3  502    0 -0.19989866400E+02 -0.10021646277E+03 -0.11584656367E+03  0.15453424502E+03  0.41800000000E+01 0. -1.
         -5    1    3    3    0  502  0.36063952013E+01  0.32055641925E+02 -0.95329664640E+02  0.10072630057E+03  0.41800000000E+01 0. -1.
        -11    1    1    2    0    0  0.52920906801E+01  0.88103560323E+02 -0.31535337654E+03  0.32747212959E+03  0.00000000000E+00 0. -1.
         11    1    1    2    0    0  0.11091380518E+02 -0.19942739477E+02 -0.43039736479E+02  0.48714992516E+02  0.00000000000E+00 0.  1.
</event>
<event>
 7    1  0.8661710E-006  0.1034509E+03  0.7561462E-02  0.1273202E+00
         -2   -1    0    0    0  501 -0.00000000000E+00  0.00000000000E+00  0.87748451089E+03  0.87748451089E+03  0.00000000000E+00 0.  1.
          2   -1    0    0  501    0  0.00000000000E+00 -0.00000000000E+00 -0.29358990501E+02  0.29358990501E+02  0.00000000000E+00 0. -1.
         23    2    1    2    0    0 -0.91146115442E+02  0.32583894978E+01  0.69998555459E+03  0.71689907036E+03  0.12508504699E+03 0.  0.
          5    1    3    3  502    0 -0.99231865020E+02  0.31938719245E+01  0.28524275743E+03  0.30205639692E+03  0.41800000000E+01 0. -1.
         -5    1    3    3    0  502  0.80857495777E+01  0.64517573321E-01  0.41474279717E+03  0.41484267344E+03  0.41800000000E+01 0. -1.
        -11    1    1    2    0    0  0.63388425545E+02  0.15082722073E+02  0.39207878970E+02  0.76044978608E+02  0.00000000000E+00 0.  1.
         11    1    1    2    0    0  0.27757689897E+02 -0.18341111570E+02  0.10893208683E+03  0.11389945242E+03  0.00000000000E+00 0. -1.
</event>
<event>
 7    1  0.8661710E-006  0.1318203E+03  0.7561462E-02  0.1224780E+00
          4   -1    0    0  501    0  0.00000000000E+00  0.00000000000E+00  0.24025191747E+03  0.24025191747E+03  0.00000000000E+00 0. -1.
         -4   -1    0    0    0  501 -0.00000000000E+00 -0.00000000000E+00 -0.10175589612E+03  0.10175589612E+03  0.00000000000E+00 0.  1.
         23    2    1    2    0    0 -0.70544356152E+02 -0.81927483872E+02  0.34119388823E+02  0.16883109238E+03  0.12510470120E+03 0.  0.
          5    1    3    3  502    0  0.19967588267E+00  0.25854159697E+02 -0.15718690470E+02  0.30545491880E+02  0.41800000000E+01 0. -1.
         -5    1    3    3    0  502 -0.70744032034E+02 -0.10778164357E+03  0.49838079293E+02  0.13828560050E+03  0.41800000000E+01 0. -1.
        -11    1    1    2    0    0  0.56274408133E+01  0.10671077104E+02  0.69699103531E+02  0.70735457938E+02  0.00000000000E+00 0.  1.
         11    1    1    2    0    0  0.64916915338E+02  0.71256406768E+02  0.34677528991E+02  0.10244126327E+03  0.00000000000E+00 0. -1.
</event>
<event>
 7    1  0.8661710E-006  0.1232139E+03  0.7561462E-02  0.1237887E+00
          1   -1    0    0  501    0  0.00000000000E+00  0.00000000000E+00  0.15106560333E+03  0.15106560333E+03  0.00000000000E+00 0. -1.
         -1   -1    0    0    0  501 -0.00000000000E+00 -0.00000000000E+00 -0.11695087240E+03  0.11695087240E+03  0.00000000000E+00 0.  1.
         23    2    1    2    0    0  0.67612223422E+02  0.38001339677E+02  0.27085280512E+02  0.14965485618E+03  0.12508976371E+03 0.  0.
          5    1    3    3  502    0  0.48263685602E+02 -0.40795262939E+02 -0.19883929039E+01  0.63364524243E+02  0.41800000000E+01 0.  1.
         -5    1    3    3    0  502  0.19348537820E+02  0.78796602616E+02  0.29073673416E+02  0.86290331935E+02  0.41800000000E+01 0.  1.
        -11    1    1    2    0    0 -0.51562439756E+02  0.88580377751E+01  0.33575423366E+02  0.62164773635E+02  0.00000000000E+00 0. -1.
         11    1    1    2    0    0 -0.16049783666E+02 -0.46859377452E+02 -0.26545972956E+02  0.56196845918E+02  0.00000000000E+00 0.  1.
</event>
<event>
 7    1  0.8661710E-006  0.9969330E+02  0.7561462E-02  0.1280942E+00
          2   -1    0    0  501    0  0.00000000000E+00  0.00000000000E+00  0.31151950911E+03  0.31151950911E+03  0.00000000000E+00 0. -1.
         -2   -1    0    0    0  501 -0.00000000000E+00 -0.00000000000E+00 -0.88940819428E+02  0.88940819428E+02  0.00000000000E+00 0.  1.
         23    2    1    2    0    0  0.28182607630E+02  0.58549658821E+02 -0.11523015153E+02  0.14142990812E+03  0.12508923659E+03 0.  0.
          5    1    3    3  502    0  0.46428228249E+02  0.61096056201E+02  0.39940755173E+02  0.86608572240E+02  0.41800000000E+01 0.  1.
         -5    1    3    3    0  502 -0.18245620620E+02 -0.25463973797E+01 -0.51463770326E+02  0.54821335879E+02  0.41800000000E+01 0.  1.
        -11    1    1    2    0    0 -0.54440895926E+02 -0.22173207955E+02  0.17642038501E+03  0.18595594786E+03  0.00000000000E+00 0. -1.
         11    1    1    2    0    0  0.26258288296E+02 -0.36376450866E+02  0.57681319825E+02  0.73074472551E+02  0.00000000000E+00 0.  1.
</event>
<event>
 7    1  0.8661710E-006  0.7362292E+02  0.7561462E-02  0.1348189E+00
          1   -1    0    0  501    0  0.00000000000E+00  0.00000000000E+00  0.16917916819E+03  0.16917916819E+03  0.00000000000E+00 0. -1.
         -1   -1    0    0    0  501 -0.00000000000E+00 -0.00000000000E+00 -0.87697382836E+02  0.87697382836E+02  0.00000000000E+00 0.  1.
         23    2    1    2    0    0 -0.10485844635E+02  0.90228692119E+01 -0.10940737982E+02  0.12632836546E+03  0.12509113104E+03 0.  0.
          5    1    3    3  502    0  0.12086378569E+02  0.26738293748E+02 -0.61372452999E+02  0.68154730479E+02  0.41800000000E+01 0. -1.
         -5    1    3    3    0  502 -0.22572223204E+02 -0.17715424536E+02  0.50431715017E+02  0.58173634977E+02  0.41800000000E+01 0. -1.
        -11    1    1    2    0    0 -0.37385957141E+02  0.71820372824E+01  0.22331420278E+02  0.44135969260E+02  0.00000000000E+00 0.  1.
         11    1    1    2    0    0  0.47871801776E+02 -0.16204906494E+02  0.70091103056E+02  0.86412216308E+02  0.00000000000E+00 0. -1.
</event>
<event>
 7    1  0.8661710E-006  0.9652717E+02  0.7561462E-02  0.1287773E+00
         -1   -1    0    0    0  501 -0.00000000000E+00  0.00000000000E+00  0.11707586086E+02  0.11707586086E+02  0.00000000000E+00 0.  1.
          1   -1    0    0  501    0  0.00000000000E+00 -0.00000000000E+00 -0.10092357620E+04  0.10092357620E+04  0.00000000000E+00 0. -1.
         23    2    1    2    0    0 -0.64554924562E+01 -0.23179322615E+01 -0.63057327157E+03  0.64289760054E+03  0.12509047831E+03 0.  0.
          5    1    3    3  502    0 -0.46079340496E+02 -0.32997864699E+02 -0.49583453966E+03  0.49908068267E+03  0.41800000000E+01 0.  1.
         -5    1    3    3    0  502  0.39623848040E+02  0.30679932438E+02 -0.13473873192E+03  0.14381691787E+03  0.41800000000E+01 0.  1.
        -11    1    1    2    0    0 -0.28340021546E+02 -0.27961326126E+02 -0.10998082087E+03  0.11696483890E+03  0.00000000000E+00 0.  1.
         11    1    1    2    0    0  0.34795514002E+02  0.30279258388E+02 -0.25697408345E+03  0.26108090862E+03  0.00000000000E+00 0. -1.
</event>
<event>
 7    1  0.1456922E-005  0.3166836E+03  0.7561462E-02  0.1077186E+00
         -2   -1    0    0    0  501 -0.00000000000E+00  0.00000000000E+00  0.10942439245E+03  0.10942439245E+03  0.00000000000E+00 0.  1.
          2   -1    0    0  501    0  0.00000000000E+00 -0.00000000000E+00 -0.10427234090E+04  0.10427234090E+04  0.00000000000E+00 0. -1.
         23    2    1    2    0    0  0.23923551547E+03  0.18676370536E+03 -0.30343349889E+03  0.44702791743E+03  0.12509099574E+03 0.  0.
          5    1    3    3  502    0  0.19830518665E+03  0.80294893916E+02 -0.19153079043E+03  0.28718240393E+03  0.41800000000E+01 0. -1.
         -5    1    3    3    0  502  0.40930328814E+02  0.10646881145E+03 -0.11190270846E+03  0.15984551351E+03  0.41800000000E+01 0. -1.
        -11    1    1    2    0    0 -0.39389721550E+01 -0.10588951423E+02 -0.14942093546E+01  0.11396229880E+02  0.00000000000E+00 0.  1.
         11    1    1    2    0    0 -0.23529654331E+03 -0.17617475394E+03 -0.62837130832E+03  0.69372365416E+03  0.00000000000E+00 0. -1.
</event>
<event>
 7    1  0.8661710E-006  0.1190196E+03  0.7561462E-02  0.1244723E+00
          1   -1    0    0  501    0  0.00000000000E+00  0.00000000000E+00  0.14594434614E+03  0.14594434614E+03  0.00000000000E+00 0. -1.
         -1   -1    0    0    0  501 -0.00000000000E+00 -0.00000000000E+00 -0.11772091047E+03  0.11772091047E+03  0.00000000000E+00 0.  1.
         23    2    1    2    0    0  0.56105698850E+02  0.26668211874E+02 -0.31615302033E+02  0.14320061208E+03  0.12509134667E+03 0.  0.
          5    1    3    3  502    0  0.93606499860E+02  0.20272266051E+02 -0.40238385888E+02  0.10396990760E+03  0.41800000000E+01 0.  1.
         -5    1    3    3    0  502 -0.37500801010E+02  0.63959458227E+01  0.86230838547E+01  0.39230704487E+02  0.41800000000E+01 0.  1.
        -11    1    1    2    0    0 -0.12392488863E+00  0.26614596771E+02  0.96369125202E+01  0.28305868678E+02  0.00000000000E+00 0.  1.
         11    1    1    2    0    0 -0.55981773961E+02 -0.53282808645E+02  0.50201825183E+02  0.92158775841E+02  0.00000000000E+00 0. -1.
</event>
<event>
 7    1  0.8661710E-006  0.1554351E+03  0.7561462E-02  0.1193949E+00
          1   -1    0    0  501    0  0.00000000000E+00  0.00000000000E+00  0.63144695381E+03  0.63144695381E+03  0.00000000000E+00 0. -1.
         -1   -1    0    0    0  501 -0.00000000000E+00 -0.00000000000E+00 -0.46963645149E+02  0.46963645149E+02  0.00000000000E+00 0.  1.
         23    2    1    2    0    0 -0.94133923804E+02  0.87745832512E+02  0.24654901980E+03  0.30494861843E+03  0.12508682578E+03 0.  0.
          5    1    3    3  502    0 -0.12099812408E+03  0.88055761386E+02  0.22501039166E+03  0.27026193202E+03  0.41800000000E+01 0. -1.
         -5    1    3    3    0  502  0.26864200273E+02 -0.30992887470E+00  0.21538628149E+02  0.34686686419E+02  0.41800000000E+01 0. -1.
        -11    1    1    2    0    0  0.57995204428E+02 -0.76755650155E+02  0.31479103107E+03  0.32916297910E+03  0.00000000000E+00 0. -1.
         11    1    1    2    0    0  0.36138719376E+02 -0.10990182356E+02  0.23143257787E+02  0.44299001426E+02  0.00000000000E+00 0.  1.
</event>
<event>
 7    1  0.8661710E-006  0.1852631E+03  0.7561462E-02  0.1162804E+00
          1   -1    0    0  501    0  0.00000000000E+00  0.00000000000E+00  0.10667800105E+03  0.10667800105E+03  0.00000000000E+00 0. -1.
         -1   -1    0    0    0  501 -0.00000000000E+00 -0.00000000000E+00 -0.36299123432E+03  0.36299123432E+03  0.00000000000E+00 0.  1.
         23    2    1    2    0    0  0.83892832455E+02 -0.13989605131E+03 -0.11288169023E+03  0.23451402092E+03  0.12508252279E+03 0.  0.
          5    1    3    3  502    0  0.38706941705E+02  0.94582993408E+00  0.12145991125E+02  0.40793619977E+02  0.41800000000E+01 0. -1.
         -5    1    3    3    0  502  0.45185890750E+02 -0.14084188125E+03 -0.12502768136E+03  0.19372040094E+03  0.41800000000E+01 0. -1.
        -11    1    1    2    0    0  0.14774705288E+02  0.33546758599E+01 -0.24993553259E+02  0.29227101652E+02  0.00000000000E+00 0.  1.
         11    1    1    2    0    0 -0.98667537742E+02  0.13654137545E+03 -0.11843798978E+03  0.20592811279E+03  0.00000000000E+00 0. -1.
</event>
<event>
 7    1  0.8661710E-006  0.1175166E+03  0.7561462E-02  0.1247251E+00
         -1   -1    0    0    0  501 -0.00000000000E+00  0.00000000000E+00  0.23646393490E+03  0.23646393490E+03  0.00000000000E+00 0.  1.
          1   -1    0    0  501    0  0.00000000000E+00 -0.00000000000E+00 -0.87991258641E+02  0.87991258641E+02  0.00000000000E+00 0. -1.
         23    2    1    2    0    0  0.75326639067E+02 -0.14550778635E+02  0.14315095017E+03  0.20500216651E+03  0.12509143067E+03 0.  0.
          5    1    3    3  502    0 -0.21603860841E+02 -0.40090675814E+02  0.54255505512E+02  0.70958589112E+02  0.41800000000E+01 0.  1.
         -5    1    3    3    0  502  0.96930499908E+02  0.25539897179E+02  0.88895444656E+02  0.13404357740E+03  0.41800000000E+01 0.  1.
        -11    1    1    2    0    0 -0.66796251692E+02 -0.56618757944E+01  0.40261018121E+02  0.78196839180E+02  0.00000000000E+00 0.  1.
         11    1    1    2    0    0 -0.85303873752E+01  0.20212654429E+02 -0.34939292035E+02  0.41256187848E+02  0.00000000000E+00 0. -1.
</event>
<event>
 7    1  0.8661710E-006  0.2923482E+03  0.7561462E-02  0.1089129E+00
         -2   -1    0    0    0  501 -0.00000000000E+00  0.00000000000E+00  0.92736320605E+02  0.92736320605E+02  0.00000000000E+00 0. -1.
          2   -1    0    0  501    0  0.00000000000E+00 -0.00000000000E+00 -0.13057387500E+04  0.13057387500E+04  0.00000000000E+00 0.  1.
         23    2    1    2    0    0 -0.90277217591E+02 -0.26647415646E+03 -0.26605806136E+03  0.40693128200E+03  0.12509086371E+03 0.  0.
          5    1    3    3  502    0 -0.64283744018E+02 -0.50801599012E+02 -0.11911282783E+03  0.14463243191E+03  0.41800000000E+01 0.  1.
         -5    1    3    3    0  502 -0.25993473573E+02 -0.21567255744E+03 -0.14694523353E+03  0.26229885009E+03  0.41800000000E+01 0.  1.
        -11    1    1    2    0    0  0.60614707254E+02  0.23254476272E+03 -0.86787950478E+03  0.90053653130E+03  0.00000000000E+00 0.  1.
         11    1    1    2    0    0  0.29662510337E+02  0.33929393736E+02 -0.79064863292E+02  0.91007257327E+02  0.00000000000E+00 0. -1.
</event>
<event>
 6    1  0.8661710E-006  0.1629907E+03  0.7561462E-02  0.1185361E+00
          2   -1    0    0  501    0  0.00000000000E+00  0.00000000000E+00  0.11906847795E+03  0.11906847795E+03  0.00000000000E+00 0. -1.
         -2   -1    0    0    0  501 -0.00000000000E+00 -0.00000000000E+00 -0.37133039963E+03  0.37133039963E+03  0.00000000000E+00 0.  1.
          5    1    1    2  502    0 -0.14188545788E+03  0.18306544725E+00 -0.17193413850E+03  0.22295815090E+03  0.41800000000E+01 0. -1.
         -5    1    1    2    0  502  0.95742047754E+02 -0.22929142346E+02 -0.12092466926E+03  0.15598888843E+03  0.41800000000E+01 0.  1.
        -11    1    1    2    0    0  0.39260465357E+02 -0.18697132795E+02 -0.11058765197E+02  0.44869401628E+02  0.00000000000E+00 0.  1.
         11    1    1    2    0    0  0.68829447690E+01  0.41443209694E+02  0.51655651279E+02  0.66582436629E+02  0.00000000000E+00 0. -1.
</event>
<event>
 6    1  0.8661710E-006  0.1721647E+03  0.7561462E-02  0.1175609E+00
          3   -1    0    0  501    0  0.00000000000E+00  0.00000000000E+00  0.87267023718E+02  0.87267023718E+02  0.00000000000E+00 0. -1.
         -3   -1    0    0    0  501 -0.00000000000E+00 -0.00000000000E+00 -0.39452562040E+03  0.39452562040E+03  0.00000000000E+00 0.  1.
          5    1    1    2  502    0 -0.59830236024E+02 -0.43338085345E+02 -0.63249115078E+02  0.97343565489E+02  0.41800000000E+01 0. -1.
         -5    1    1    2    0  502 -0.43285347673E+02  0.12317285659E+03 -0.65762388183E+02  0.14624410424E+03  0.41800000000E+01 0.  1.
        -11    1    1    2    0    0  0.26998921667E+02 -0.52132414214E+02 -0.22916663063E+02  0.63023042047E+02  0.00000000000E+00 0.  1.
         11    1    1    2    0    0  0.76116662030E+02 -0.27702357035E+02 -0.15533043036E+03  0.17518193234E+03  0.00000000000E+00 0. -1.
</event>
<event>
 7    1  0.8661710E-006  0.1494478E+03  0.7561462E-02  0.1201153E+00
          2   -1    0    0  501    0  0.00000000000E+00  0.00000000000E+00  0.39354555424E+03  0.39354555424E+03  0.00000000000E+00 0. -1.
         -2   -1    0    0    0  501 -0.00000000000E+00 -0.00000000000E+00 -0.67797479162E+02  0.67797479162E+02  0.00000000000E+00 0.  1.
         23    2    1    2    0    0 -0.10546087438E+03 -0.19153140162E+02  0.94726526533E+02  0.19002475430E+03  0.12508978221E+03 0.  0.
          5    1    3    3  502    0 -0.51892748161E+02 -0.69568949278E+02  0.72212784746E+02  0.11298165646E+03  0.41800000000E+01 0.  1.
         -5    1    3    3    0  502 -0.53568126223E+02  0.50415809116E+02  0.22513741787E+02  0.77043097843E+02  0.41800000000E+01 0.  1.
        -11    1    1    2    0    0  0.63958681553E+02 -0.32759632878E+02  0.88037556242E+02  0.11364206000E+03  0.00000000000E+00 0.  1.
         11    1    1    2    0    0  0.41502192832E+02  0.51912773040E+02  0.14298399230E+03  0.15767621910E+03  0.00000000000E+00 0. -1.
</event>
<event>
 7    1  0.8661710E-006  0.1248759E+03  0.7561462E-02  0.1235263E+00
          2   -1    0    0  501    0  0.00000000000E+00  0.00000000000E+00  0.33700664859E+03  0.33700664859E+03  0.00000000000E+00 0. -1.
         -2   -1    0    0    0  501 -0.00000000000E+00 -0.00000000000E+00 -0.82121306534E+02  0.82121306534E+02  0.00000000000E+00 0.  1.
         23    2    1    2    0    0 -0.60525733027E+02  0.46426608691E+02  0.77185477339E+01  0.14671718989E+03  0.12509022135E+03 0.  0.
          5    1    3    3  502    0  0.10869020816E+02  0.69533255043E+02  0.11647928156E+02  0.71457370513E+02  0.41800000000E+01 0.  1.
         -5    1    3    3    0  502 -0.71394753843E+02 -0.23106646352E+02 -0.39293804224E+01  0.75259819375E+02  0.41800000000E+01 0.  1.
        -11    1    1    2    0    0  0.22053482751E+02 -0.59503732097E+02  0.90310796940E+02  0.11037703692E+03  0.00000000000E+00 0.  1.
         11    1    1    2    0    0  0.38472250275E+02  0.13077123406E+02  0.15685599738E+03  0.16203372832E+03  0.00000000000E+00 0. -1.
</event>
<event>
 7    1  0.8661710E-006  0.2015975E+03  0.7561462E-02  0.1148398E+00
          3   -1    0    0  501    0  0.00000000000E+00  0.00000000000E+00  0.15924214020E+03  0.15924214020E+03  0.00000000000E+00 0. -1.
         -3   -1    0    0    0  501 -0.00000000000E+00 -0.00000000000E+00 -0.30196968910E+03  0.30196968910E+03  0.00000000000E+00 0.  1.
         23    2    1    2    0    0  0.12769563669E+03  0.12805454466E+03 -0.13549145479E+03  0.25827715627E+03  0.12508002676E+03 0.  0.
          5    1    3    3  502    0 -0.86233477177E+01  0.47045885002E+02  0.24318100837E+01  0.48073522045E+02  0.41800000000E+01 0.  1.
         -5    1    3    3    0  502  0.13631898440E+03  0.81008659655E+02 -0.13792326487E+03  0.21020363422E+03  0.41800000000E+01 0.  1.
        -11    1    1    2    0    0 -0.13838582545E+03 -0.12004002467E+03 -0.20216454857E+02  0.18430667176E+03  0.00000000000E+00 0.  1.
         11    1    1    2    0    0  0.10690188768E+02 -0.80145199917E+01  0.12980360743E+02  0.18628001277E+02  0.00000000000E+00 0. -1.
</event>
<event>
 7    1  0.8661710E-006  0.1321724E+03  0.7561462E-02  0.1224267E+00
         -2   -1    0    0    0  501 -0.00000000000E+00  0.00000000000E+00  0.19380188073E+03  0.19380188073E+03  0.00000000000E+00 0.  1.
          2   -1    0    0  501    0  0.00000000000E+00 -0.00000000000E+00 -0.12979594856E+03  0.12979594856E+03  0.00000000000E+00 0. -1.
         23    2    1    2    0    0 -0.11502450181E+03  0.96545602806E+01  0.32454194756E+02  0.17327232927E+03  0.12508468644E+03 0.  0.
          5    1    3    3  502    0 -0.26762069376E+02 -0.37197097973E+02 -0.30398245927E+02  0.55148510500E+02  0.41800000000E+01 0.  1.
         -5    1    3    3    0  502 -0.88262432437E+02  0.46851658253E+02  0.62852440683E+02  0.11812381877E+03  0.41800000000E+01 0.  1.
        -11    1    1    2    0    0  0.85502435139E+02 -0.18533912619E+02  0.61817030004E+02  0.10712384203E+03  0.00000000000E+00 0.  1.
         11    1    1    2    0    0  0.29522066674E+02  0.88793523388E+01 -0.30265292583E+02  0.43201657999E+02  0.00000000000E+00 0. -1.
</event>
<event>
 7    1  0.8661710E-006  0.1374120E+03  0.7561462E-02  0.1216854E+00
          1   -1    0    0  501    0  0.00000000000E+00  0.00000000000E+00  0.10422981760E+03  0.10422981760E+03  0.00000000000E+00 0. -1.
         -1   -1    0    0    0  501 -0.00000000000E+00 -0.00000000000E+00 -0.46418183182E+03  0.46418183182E+03  0.00000000000E+00 0.  1.
         23    2    1    2    0    0 -0.23478823154E+02 -0.96428893626E+02 -0.40028043798E+03  0.43095593078E+03  0.12509515812E+03 0.  0.
          5    1    3    3  502    0  0.32096886500E+02  0.20708399132E+01 -0.31548939582E+02  0.45247171069E+02  0.41800000000E+01 0. -1.
         -5    1    3    3    0  502 -0.55575709654E+02 -0.98499733539E+02 -0.36873149840E+03  0.38570875971E+03  0.41800000000E+01 0. -1.
        -11    1    1    2    0    0  0.51606050054E+02  0.83727535943E+02  0.19625262211E+02  0.10029274946E+03  0.00000000000E+00 0. -1.
         11    1    1    2    0    0 -0.28127226900E+02  0.12701357683E+02  0.20703161549E+02  0.37162969178E+02  0.00000000000E+00 0.  1.
</event>
<event>
 7    1  0.8661710E-006  0.1239089E+03  0.7561462E-02  0.1236784E+00
         -1   -1    0    0    0  501 -0.00000000000E+00  0.00000000000E+00  0.20785879466E+03  0.20785879466E+03  0.00000000000E+00 0.  1.
          1   -1    0    0  501    0  0.00000000000E+00 -0.00000000000E+00 -0.93206919362E+02  0.93206919362E+02  0.00000000000E+00 0. -1.
         23    2    1    2    0    0  0.40246467949E+01 -0.86105541918E+02  0.81127017805E+02  0.17221601393E+03  0.12508557193E+03 0.  0.
          5    1    3    3  502    0  0.35498424123E+02 -0.97644436140E+02  0.89742617186E+02  0.13735277123E+03  0.41800000000E+01 0. -1.
         -5    1    3    3    0  502 -0.31473777329E+02  0.11538894223E+02 -0.86155993808E+01  0.34863242705E+02  0.41800000000E+01 0. -1.
        -11    1    1    2    0    0 -0.13212963717E+02 -0.80368484856E+01  0.30517203256E+02  0.34212176755E+02  0.00000000000E+00 0.  1.
         11    1    1    2    0    0  0.91883169220E+01  0.94142390403E+02  0.30076542348E+01  0.94637523333E+02  0.00000000000E+00 0. -1.
</event>
<event>
 7    1  0.8661710E-006  0.1254838E+03  0.7561462E-02  0.1234315E+00
         -1   -1    0    0    0  501 -0.00000000000E+00  0.00000000000E+00  0.53307167849E+03  0.53307167849E+03  0.00000000000E+00 0.  1.
          1   -1    0    0  501    0  0.00000000000E+00 -0.00000000000E+00 -0.42801296257E+02  0.42801296257E+02  0.00000000000E+00 0. -1.
         23    2    1    2    0    0 -0.62932232290E+02  0.73289614381E+02  0.34352246779E+03  0.37813787715E+03  0.12509490325E+03 0.  0.
          5    1    3    3  502    0  0.34362204886E+02  0.35519072467E+02  0.15331328463E+03  0.16113597139E+03  0.41800000000E+01 0.  1.
         -5    1    3    3    0  502 -0.97294437176E+02  0.37770541914E+02  0.19020918316E+03  0.21700190575E+03  0.41800000000E+01 0.  1.
        -11    1    1    2    0    0  0.42037383012E+02 -0.54411143521E+02  0.15400303199E+03  0.16865541192E+03  0.00000000000E+00 0.  1.
         11    1    1    2    0    0  0.20894849279E+02 -0.18878470860E+02 -0.72551175441E+01  0.29079685675E+02  0.00000000000E+00 0. -1.
</event>
<event>
 7    1  0.8661710E-006  0.2051132E+03  0.7561462E-02  0.1145495E+00
         -1   -1    0    0    0  501 -0.00000000000E+00  0.00000000000E+00  0.24243572035E+03  0.24243572035E+03  0.00000000000E+00 0.  1.
          1   -1    0    0  501    0  0.00000000000E+00 -0.00000000000E+00 -0.22735364976E+03  0.22735364976E+03  0.00000000000E+00 0. -1.
         23    2    1    2    0    0 -0.15051226110E+03 -0.11356798596E+03  0.94882768781E+02  0.24536100235E+03  0.12509058113E+03 0.  0.
          5    1    3    3  502    0  0.27279425496E+01 -0.48064340308E+02 -0.86939695792E+01  0.49098676019E+02  0.41800000000E+01 0.  1.
         -5    1    3    3    0  502 -0.15324020365E+03 -0.65503645649E+02  0.10357673836E+03  0.19626232633E+03  0.41800000000E+01 0.  1.
        -11    1    1    2    0    0  0.23728912312E+02 -0.17784670083E+01  0.15417522290E+02  0.28353557413E+02  0.00000000000E+00 0.  1.
         11    1    1    2    0    0  0.12678334879E+03  0.11534645297E+03 -0.95218220478E+02  0.19607481035E+03  0.00000000000E+00 0. -1.
</event>
<event>
 7    1  0.8661710E-006  0.7117106E+02  0.7561462E-02  0.1356155E+00
         -2   -1    0    0    0  501 -0.00000000000E+00  0.00000000000E+00  0.81914640863E+03  0.81914640863E+03  0.00000000000E+00 0.  1.
          2   -1    0    0  501    0  0.00000000000E+00 -0.00000000000E+00 -0.22602638153E+02  0.22602638153E+02  0.00000000000E+00 0. -1.
         23    2    1    2    0    0  0.84760645404E+01 -0.24898926577E+02  0.67662137902E+03  0.68858973663E+03  0.12509010603E+03 0.  0.
          5    1    3    3  502    0  0.33992013771E+02 -0.89589133966E+01  0.64014209305E+03  0.64112018439E+03  0.41800000000E+01 0. -1.
         -5    1    3    3    0  502 -0.25515949230E+02 -0.15940013181E+02  0.36479285968E+02  0.47469552242E+02  0.41800000000E+01 0. -1.
        -11    1    1    2    0    0 -0.29124587802E+02 -0.14161238787E+02  0.99212452474E+02  0.10436423250E+03  0.00000000000E+00 0.  1.
         11    1    1    2    0    0  0.20648523261E+02  0.39060165364E+02  0.20709938983E+02  0.48795077660E+02  0.00000000000E+00 0. -1.
</event>
<event>
 7    1  0.8661710E-006  0.1179880E+03  0.7561462E-02  0.1246454E+00
         -1   -1    0    0    0  501 -0.00000000000E+00  0.00000000000E+00  0.12683598149E+03  0.12683598149E+03  0.00000000000E+00 0.  1.
          1   -1    0    0  501    0  0.00000000000E+00 -0.00000000000E+00 -0.12503049726E+03  0.12503049726E+03  0.00000000000E+00 0. -1.
         23    2    1    2    0    0 -0.58376071109E+02  0.66581299581E+01  0.19422213820E+02  0.13956958218E+03  0.12510135694E+03 0.  0.
          5    1    3    3  502    0  0.34645865285E+02 -0.19247370034E+02 -0.41963758191E+01  0.40073422671E+02  0.41800000000E+01 0.  1.
         -5    1    3    3    0  502 -0.93021936394E+02  0.25905499992E+02  0.23618589639E+02  0.99496159508E+02  0.41800000000E+01 0.  1.
        -11    1    1    2    0    0 -0.13515704664E+02  0.18843822958E+02  0.16775473655E+02  0.28621328631E+02  0.00000000000E+00 0.  1.
         11    1    1    2    0    0  0.71891775772E+02 -0.25501952916E+02 -0.34392203239E+02  0.83675567939E+02  0.00000000000E+00 0. -1.
</event>
<event>
 7    1  0.8661710E-006  0.1468944E+03  0.7561462E-02  0.1204342E+00
         -1   -1    0    0    0  501 -0.00000000000E+00  0.00000000000E+00  0.11353989606E+03  0.11353989606E+03  0.00000000000E+00 0.  1.
          1   -1    0    0  501    0  0.00000000000E+00 -0.00000000000E+00 -0.40613858548E+03  0.40613858548E+03  0.00000000000E+00 0. -1.
         23    2    1    2    0    0 -0.61429993132E+02 -0.10021880066E+03  0.20886622022E+02  0.17291992251E+03  0.12509035358E+03 0.  0.
          5    1    3    3  502    0 -0.78907252918E+02 -0.32902096291E+02 -0.25386741715E+02  0.89279681665E+02  0.41800000000E+01 0.  1.
         -5    1    3    3    0  502  0.17477259786E+02 -0.67316704371E+02  0.46273363737E+02  0.83640240845E+02  0.41800000000E+01 0.  1.
        -11    1    1    2    0    0 -0.15331883747E+02  0.33398989898E+02 -0.37050756418E+02  0.52185416896E+02  0.00000000000E+00 0.  1.
         11    1    1    2    0    0  0.76761876879E+02  0.66819810764E+02 -0.27643455503E+03  0.29457314214E+03  0.00000000000E+00 0. -1.
</event>
<event>
 7    1  0.8661710E-006  0.1205251E+03  0.7561462E-02  0.1242233E+00
          1   -1    0    0  501    0  0.00000000000E+00  0.00000000000E+00  0.17319115234E+03  0.17319115234E+03  0.00000000000E+00 0. -1.
         -1   -1    0    0    0  501 -0.00000000000E+00 -0.00000000000E+00 -0.11932048861E+03  0.11932048861E+03  0.00000000000E+00 0.  1.
         23    2    1    2    0    0  0.92145619866E+02  0.17821640644E+02  0.17236740340E+02  0.15733107023E+03  0.12509010475E+03 0.  0.
          5    1    3    3  502    0  0.46636450247E+02  0.65725636838E+02  0.36223004267E+02  0.88455617501E+02  0.41800000000E+01 0. -1.
         -5    1    3    3    0  502  0.45509169619E+02 -0.47903996194E+02 -0.18986263926E+02  0.68875452729E+02  0.41800000000E+01 0. -1.
        -11    1    1    2    0    0 -0.68895789414E+02 -0.16573766932E+02 -0.20265076038E+02  0.73702054626E+02  0.00000000000E+00 0.  1.
         11    1    1    2    0    0 -0.23249830453E+02 -0.12478737111E+01  0.56898999428E+02  0.61478516091E+02  0.00000000000E+00 0. -1.
</event>
<event>
 7    1  0.8661710E-006  0.7495083E+02  0.7561462E-02  0.1344023E+00
          1   -1    0    0  501    0  0.00000000000E+00  0.00000000000E+00  0.37442075833E+03  0.37442075833E+03  0.00000000000E+00 0. -1.
         -1   -1    0    0    0  501 -0.00000000000E+00 -0.00000000000E+00 -0.32922236661E+02  0.32922236661E+02  0.00000000000E+00 0.  1.
         23    2    1    2    0    0  0.14476199346E+02 -0.72079252043E+01  0.21743429943E+03  0.25137034922E+03  0.12509142004E+03 0.  0.
          5    1    3    3  502    0 -0.26441920975E+02  0.37241360123E+02  0.16502975407E+03  0.17128451832E+03  0.41800000000E+01 0. -1.
         -5    1    3    3    0  502  0.40918120321E+02 -0.44449285327E+02  0.52404545363E+02  0.80085830903E+02  0.41800000000E+01 0. -1.
        -11    1    1    2    0    0 -0.19617613661E+00 -0.16122305749E+02 -0.10115004055E+02  0.19033668453E+02  0.00000000000E+00 0.  1.
         11    1    1    2    0    0 -0.14280023210E+02  0.23330230953E+02  0.13417922630E+03  0.13693897732E+03  0.00000000000E+00 0. -1.
</event>
<event>
 7    1  0.8661710E-006  0.7701930E+02  0.7561462E-02  0.1337730E+00
          2   -1    0    0  501    0  0.00000000000E+00  0.00000000000E+00  0.17889867239E+03  0.17889867239E+03  0.00000000000E+00 0. -1.
         -2   -1    0    0    0  501 -0.00000000000E+00 -0.00000000000E+00 -0.67134524126E+02  0.67134524126E+02  0.00000000000E+00 0.  1.
         23    2    1    2    0    0 -0.77519232804E+01 -0.11573108253E+02  0.63076497119E+02  0.14078377197E+03  0.12508955516E+03 0.  0.
          5    1    3    3  502    0 -0.51866606875E+02  0.29234715234E+02  0.52771352947E+02  0.79668698843E+02  0.41800000000E+01 0. -1.
         -5    1    3    3    0  502  0.44114683594E+02 -0.40807823487E+02  0.10305144172E+02  0.61115073123E+02  0.41800000000E+01 0. -1.
        -11    1    1    2    0    0  0.14826591077E+02 -0.53571660675E+01  0.73060345467E+02  0.74741829728E+02  0.00000000000E+00 0. -1.
         11    1    1    2    0    0 -0.70746677964E+01  0.16930274321E+02 -0.24372694325E+02  0.30507594819E+02  0.00000000000E+00 0.  1.
</event>
<event>
 7    1  0.8661710E-006  0.1938712E+03  0.7561462E-02  0.1155015E+00
          1   -1    0    0  501    0  0.00000000000E+00  0.00000000000E+00  0.23981978546E+03  0.23981978546E+03  0.00000000000E+00 0. -1.
         -1   -1    0    0    0  501 -0.00000000000E+00 -0.00000000000E+00 -0.29686704413E+03  0.29686704413E+03  0.00000000000E+00 0.  1.
         23    2    1    2    0    0  0.14177726301E+03 -0.11668327010E+03 -0.19043650883E+03  0.29262531156E+03  0.12509089192E+03 0.  0.
          5    1    3    3  502    0 -0.33449040387E+01  0.75856446179E+01 -0.61257103918E+02  0.61956723346E+02  0.41800000000E+01 0. -1.
         -5    1    3    3    0  502  0.14512216705E+03 -0.12426891472E+03 -0.12917940492E+03  0.23066858821E+03  0.41800000000E+01 0. -1.
        -11    1    1    2    0    0 -0.19037518077E+02  0.35233524159E+02  0.76124496752E+02  0.86016087594E+02  0.00000000000E+00 0. -1.
         11    1    1    2    0    0 -0.12273974493E+03  0.81449745944E+02  0.57264753413E+02  0.15804543044E+03  0.00000000000E+00 0.  1.
</event>
<event>
 7    1  0.8661710E-006  0.1100125E+03  0.7561462E-02  0.1260547E+00
         -1   -1    0    0    0  501 -0.00000000000E+00  0.00000000000E+00  0.36597324346E+02  0.36597324346E+02  0.00000000000E+00 0.  1.
          1   -1    0    0  501    0  0.00000000000E+00 -0.00000000000E+00 -0.43481557817E+03  0.43481557817E+03  0.00000000000E+00 0. -1.
         23    2    1    2    0    0  0.74925598270E+01 -0.56305085269E+02 -0.16520070275E+03  0.21485756847E+03  0.12508437735E+03 0.  0.
          5    1    3    3  502    0  0.41234516306E+02  0.65647492265E+01 -0.87665650955E+01  0.42868477124E+02  0.41800000000E+01 0. -1.
         -5    1    3    3    0  502 -0.33741956479E+02 -0.62869834495E+02 -0.15643413766E+03  0.17198909134E+03  0.41800000000E+01 0. -1.
        -11    1    1    2    0    0 -0.48996159018E+02  0.30056884176E+02 -0.14071761733E+03  0.15200489371E+03  0.00000000000E+00 0.  1.
         11    1    1    2    0    0  0.41503599191E+02  0.26248201092E+02 -0.92299933745E+02  0.10455044034E+03  0.00000000000E+00 0. -1.
</event>
<event>
 7    1  0.8661710E-006  0.1120924E+03  0.7561462E-02  0.1256743E+00
         -1   -1    0    0    0  501 -0.00000000000E+00  0.00000000000E+00  0.40147345535E+03  0.40147345535E+03  0.00000000000E+00 0. -1.
          1   -1    0    0  501    0  0.00000000000E+00 -0.00000000000E+00 -0.39274515365E+02  0.39274515365E+02  0.00000000000E+00 0.  1.
         23    2    1    2    0    0  0.76333941758E+01  0.28620840213E+02  0.30012829686E+03  0.32646122182E+03  0.12499005390E+03 0.  0.
          5    1    3    3  502    0 -0.15338060806E+02 -0.46788884354E+02  0.10950238609E+03  0.12013617593E+03  0.41800000000E+01 0.  1.
         -5    1    3    3    0  502  0.22971454982E+02  0.75409724568E+02  0.19062591077E+03  0.20632504589E+03  0.41800000000E+01 0.  1.
        -11    1    1    2    0    0 -0.49079864901E+02 -0.87116815623E+01  0.29260402533E+02  0.57800499052E+02  0.00000000000E+00 0. -1.
         11    1    1    2    0    0  0.41446470725E+02 -0.19909158651E+02  0.32810240594E+02  0.56486249845E+02  0.00000000000E+00 0.  1.
</event>
<event>
 7    1  0.8661710E-006  0.7358163E+02  0.7561462E-02  0.1348320E+00
          2   -1    0    0  501    0  0.00000000000E+00  0.00000000000E+00  0.19029628093E+03  0.19029628093E+03  0.00000000000E+00 0. -1.
         -2   -1    0    0    0  501 -0.00000000000E+00 -0.00000000000E+00 -0.60635205637E+02  0.60635205637E+02  0.00000000000E+00 0.  1.
         23    2    1    2    0    0  0.34071190566E+02 -0.17151060711E+02  0.35940036857E+02  0.13562601422E+03  0.12509086527E+03 0.  0.
          5    1    3    3  502    0  0.26338171363E+02  0.26605057265E+02  0.69994374176E+02  0.79487188648E+02  0.41800000000E+01 0.  1.
         -5    1    3    3    0  502  0.77330192026E+01 -0.43756117976E+02 -0.34054337318E+02  0.56138825571E+02  0.41800000000E+01 0.  1.
        -11    1    1    2    0    0 -0.41869852658E+02 -0.42505226078E+01  0.45522461078E+02  0.61995531828E+02  0.00000000000E+00 0.  1.
         11    1    1    2    0    0  0.77986620918E+01  0.21401583318E+02  0.48198577360E+02  0.53309940522E+02  0.00000000000E+00 0. -1.
</event>
<event>
 7    1  0.1535781E-005  0.1368568E+03  0.7561462E-02  0.1217622E+00
          2   -1    0    0  501    0  0.00000000000E+00  0.00000000000E+00  0.49480275332E+03  0.49480275332E+03  0.00000000000E+00 0. -1.
         -2   -1    0    0    0  501 -0.00000000000E+00 -0.00000000000E+00 -0.51384898567E+02  0.51384898567E+02  0.00000000000E+00 0.  1.
         23    2    1    2    0    0  0.62879290243E+02 -0.88359816321E+02  0.16764712419E+03  0.23561542833E+03  0.12509120488E+03 0.  0.
          5    1    3    3  502    0  0.19593020616E+02  0.12103056308E+02 -0.11181993972E+02  0.25939927101E+02  0.41800000000E+01 0.  1.
         -5    1    3    3    0  502  0.43286269628E+02 -0.10046287263E+03  0.17882911816E+03  0.20967550123E+03  0.41800000000E+01 0.  1.
        -11    1    1    2    0    0 -0.52110416551E+02  0.29067061790E+00  0.12814401527E+03  0.13833462564E+03  0.00000000000E+00 0.  1.
         11    1    1    2    0    0 -0.10768873693E+02  0.88069145703E+02  0.14762671530E+03  0.17223759791E+03  0.00000000000E+00 0. -1.
</event>
<event>
 7    1  0.8661710E-006  0.1185850E+03  0.7561462E-02  0.1245450E+00
         -2   -1    0    0    0  501 -0.00000000000E+00  0.00000000000E+00  0.16755590292E+02  0.16755590292E+02  0.00000000000E+00 0.  1.
          2   -1    0    0  501    0  0.00000000000E+00 -0.00000000000E+00 -0.86381212287E+03  0.86381212287E+03  0.00000000000E+00 0. -1.
         23    2    1    2    0    0  0.34937214563E+02  0.38692963653E+02 -0.46531447687E+03  0.48464765084E+03  0.12509208079E+03 0.  0.
          5    1    3    3  502    0  0.52661409415E+02  0.76404275107E+02 -0.34338931198E+03  0.35573097880E+03  0.41800000000E+01 0.  1.
         -5    1    3    3    0  502 -0.17724194852E+02 -0.37711311454E+02 -0.12192516489E+03  0.12891667204E+03  0.41800000000E+01 0.  1.
        -11    1    1    2    0    0 -0.62902437200E+02 -0.39765070865E+02 -0.31244978666E+03  0.32118973622E+03  0.00000000000E+00 0.  1.
         11    1    1    2    0    0  0.27965222636E+02  0.10721072122E+01 -0.69292269045E+02  0.74730326109E+02  0.00000000000E+00 0. -1.
</event>
<event>
 7    1  0.8661710E-006  0.1170762E+03  0.7561462E-02  0.1248000E+00
         -2   -1    0    0    0  501 -0.00000000000E+00  0.00000000000E+00  0.19878642650E+02  0.19878642650E+02  0.00000000000E+00 0.  1.
          2   -1    0    0  501    0  0.00000000000E+00 -0.00000000000E+00 -0.79061129434E+03  0.79061129434E+03  0.00000000000E+00 0. -1.
         23    2    1    2    0    0  0.37903651037E+02  0.47554077275E+02 -0.37583548313E+03  0.40074595635E+03  0.12508770572E+03 0.  0.
          5    1    3    3  502    0 -0.19018664123E+02 -0.30290490858E+02 -0.16471674008E+03  0.16860694020E+03  0.41800000000E+01 0. -1.
         -5    1    3    3    0  502  0.56922315159E+02  0.77844568133E+02 -0.21111874305E+03  0.23213901615E+03  0.41800000000E+01 0. -1.
        -11    1    1    2    0    0 -0.55357615834E+02 -0.49538105995E+01 -0.28864186046E+03  0.29394409244E+03  0.00000000000E+00 0. -1.
         11    1    1    2    0    0  0.17453964797E+02 -0.42600266675E+02 -0.10625530810E+03  0.11579988820E+03  0.00000000000E+00 0.  1.
</event>
<event>
 7    1  0.8661710E-006  0.1009619E+03  0.7561462E-02  0.1278286E+00
          2   -1    0    0  501    0  0.00000000000E+00  0.00000000000E+00  0.17001010212E+03  0.17001010212E+03  0.00000000000E+00 0. -1.
         -2   -1    0    0    0  501 -0.00000000000E+00 -0.00000000000E+00 -0.10208369503E+03  0.10208369503E+03  0.00000000000E+00 0.  1.
         23    2    1    2    0    0  0.29867673996E+02  0.44950092880E+02 -0.17039966181E+02  0.13730085627E+03  0.12509426799E+03 0.  0.
          5    1    3    3  502    0  0.78706840466E+02  0.31220245386E+02 -0.16648300424E+02  0.86395073732E+02  0.41800000000E+01 0. -1.
         -5    1    3    3    0  502 -0.48839166470E+02  0.13729847494E+02 -0.39166575743E+00  0.50905782538E+02  0.41800000000E+01 0. -1.
        -11    1    1    2    0    0 -0.37066680577E+02 -0.24166879217E+02 -0.27757968673E+01  0.44336011417E+02  0.00000000000E+00 0.  1.
         11    1    1    2    0    0  0.71990065812E+01 -0.20783213663E+02  0.87742170146E+02  0.90456929463E+02  0.00000000000E+00 0. -1.
</event>
<event>
 7    1  0.8661710E-006  0.8647082E+02  0.7561462E-02  0.1311630E+00
         -3   -1    0    0    0  501 -0.00000000000E+00  0.00000000000E+00  0.57364215949E+02  0.57364215949E+02  0.00000000000E+00 0.  1.
          3   -1    0    0  501    0  0.00000000000E+00 -0.00000000000E+00 -0.27807890694E+03  0.27807890694E+03  0.00000000000E+00 0. -1.
         23    2    1    2    0    0  0.56197329174E+02  0.19450824846E+02 -0.86233440653E+02  0.16316591993E+03  0.12510170561E+03 0.  0.
          5    1    3    3  502    0  0.60132491853E+02  0.48843106991E+02 -0.10291792562E+03  0.12888420187E+03  0.41800000000E+01 0. -1.
         -5    1    3    3    0  502 -0.39351626790E+01 -0.29392282145E+02  0.16684484966E+02  0.34281718067E+02  0.41800000000E+01 0. -1.
        -11    1    1    2    0    0 -0.32975337248E+02 -0.25183995049E+02 -0.64015684635E+01  0.41983169867E+02  0.00000000000E+00 0.  1.
         11    1    1    2    0    0 -0.23221991926E+02  0.57331702029E+01 -0.12807968188E+03  0.13029403309E+03  0.00000000000E+00 0. -1.
</event>
<event>
 7    1  0.8661710E-006  0.3424515E+03  0.7561462E-02  0.1065757E+00
         -1   -1    0    0    0  501 -0.00000000000E+00  0.00000000000E+00  0.10314485947E+03  0.10314485947E+03  0.00000000000E+00 0.  1.
          1   -1    0    0  501    0  0.00000000000E+00 -0.00000000000E+00 -0.12506394793E+04  0.12506394793E+04  0.00000000000E+00 0. -1.
         23    2    1    2    0    0 -0.28625664089E+03  0.18092614252E+03 -0.49003319013E+03  0.60865177839E+03  0.12508927375E+03 0.  0.
          5    1    3    3  502    0 -0.21175746350E+03  0.96875703254E+02 -0.23954372045E+03  0.33410296562E+03  0.41800000000E+01 0.  1.
         -5    1    3    3    0  502 -0.74499177388E+02  0.84050439269E+02 -0.25048946968E+03  0.27454881277E+03  0.41800000000E+01 0.  1.
        -11    1    1    2    0    0  0.94974605351E+02 -0.74531985712E+02 -0.15050428596E+03  0.19294230393E+03  0.00000000000E+00 0.  1.
         11    1    1    2    0    0  0.19128203554E+03 -0.10639415681E+03 -0.50695714374E+03  0.55219025645E+03  0.00000000000E+00 0. -1.
</event>
<event>
 7    1  0.8661710E-006  0.5540290E+02  0.7561462E-02  0.1418203E+00
          2   -1    0    0  501    0  0.00000000000E+00  0.00000000000E+00  0.28232005853E+03  0.28232005853E+03  0.00000000000E+00 0. -1.
         -2   -1    0    0    0  501 -0.00000000000E+00 -0.00000000000E+00 -0.41800164622E+02  0.41800164622E+02  0.00000000000E+00 0.  1.
         23    2    1    2    0    0 -0.54897461804E+01 -0.19540273984E+02  0.14440037523E+03  0.19212603156E+03  0.12509589928E+03 0.  0.
          5    1    3    3  502    0 -0.36553724702E+02 -0.16716268207E+02 -0.38292428701E+01  0.40592412016E+02  0.41800000000E+01 0.  1.
         -5    1    3    3    0  502  0.31063978521E+02 -0.28240057765E+01  0.14822961810E+03  0.15153361955E+03  0.41800000000E+01 0.  1.
        -11    1    1    2    0    0 -0.12812450924E+02  0.15626379447E+02 -0.11166766883E+02  0.23087644226E+02  0.00000000000E+00 0.  1.
         11    1    1    2    0    0  0.18302197104E+02  0.39138945367E+01  0.10728628556E+03  0.10890654736E+03  0.00000000000E+00 0. -1.
</event>
<event>
 7    1  0.8661710E-006  0.8479884E+02  0.7561462E-02  0.1315959E+00
         -2   -1    0    0    0  501 -0.00000000000E+00  0.00000000000E+00  0.46108608677E+02  0.46108608677E+02  0.00000000000E+00 0.  1.
          2   -1    0    0  501    0  0.00000000000E+00 -0.00000000000E+00 -0.33119120775E+03  0.33119120775E+03  0.00000000000E+00 0. -1.
         23    2    1    2    0    0  0.59611193348E+02  0.10684007148E+02 -0.17202746343E+03  0.22115331898E+03  0.12509076681E+03 0.  0.
          5    1    3    3  502    0 -0.96075411222E+01 -0.57716328141E+01  0.16054408520E+02  0.20020814786E+02  0.41800000000E+01 0. -1.
         -5    1    3    3    0  502  0.69218734470E+02  0.16455639962E+02 -0.18808187195E+03  0.20113250420E+03  0.41800000000E+01 0. -1.
        -11    1    1    2    0    0  0.12945706413E+02  0.47880266259E+00 -0.69690942539E+02  0.70884751805E+02  0.00000000000E+00 0. -1.
         11    1    1    2    0    0 -0.72556899760E+02 -0.11162809811E+02 -0.43364193102E+02  0.85261745637E+02  0.00000000000E+00 0.  1.
</event>
<event>
 7    1  0.1541017E-005  0.1785631E+03  0.7561462E-02  0.1169201E+00
         -1   -1    0    0    0  501 -0.00000000000E+00  0.00000000000E+00  0.25295980388E+02  0.25295980388E+02  0.00000000000E+00 0.  1.
          1   -1    0    0  501    0  0.00000000000E+00 -0.00000000000E+00 -0.15788937386E+04  0.15788937386E+04  0.00000000000E+00 0. -1.
         23    2    1    2    0    0 -0.15088047378E+03  0.46252169916E+02 -0.58665738086E+03  0.62025687941E+03  0.12509010093E+03 0.  0.
          5    1    3    3  502    0 -0.92972218411E+02 -0.10765864974E+02 -0.46190546350E+03  0.47131079646E+03  0.41800000000E+01 0. -1.
         -5    1    3    3    0  502 -0.57908255370E+02  0.57018034890E+02 -0.12475191736E+03  0.14894608295E+03  0.41800000000E+01 0. -1.
        -11    1    1    2    0    0  0.32821737740E+01 -0.33781136029E+02 -0.17683314490E+03  0.18006082015E+03  0.00000000000E+00 0.  1.
         11    1    1    2    0    0  0.14759830001E+03 -0.12471033887E+02 -0.79010723244E+03  0.80387201942E+03  0.00000000000E+00 0. -1.
</event>
<event>
 7    1  0.8661710E-006  0.1003712E+03  0.7561462E-02  0.1279517E+00
          1   -1    0    0  501    0  0.00000000000E+00  0.00000000000E+00  0.65265877123E+03  0.65265877123E+03  0.00000000000E+00 0. -1.
         -1   -1    0    0    0  501 -0.00000000000E+00 -0.00000000000E+00 -0.28814792548E+02  0.28814792548E+02  0.00000000000E+00 0.  1.
         23    2    1    2    0    0  0.23488099758E+02 -0.52841921821E+02  0.19169617534E+03  0.23609273638E+03  0.12509355299E+03 0.  0.
          5    1    3    3  502    0  0.40800503162E+02 -0.62003948866E+02  0.20077974379E+03  0.21410079087E+03  0.41800000000E+01 0.  1.
         -5    1    3    3    0  502 -0.17312403404E+02  0.91620270451E+01 -0.90835684577E+01  0.21991945506E+02  0.41800000000E+01 0.  1.
        -11    1    1    2    0    0 -0.57704774980E+02  0.37885534528E+02  0.24474253152E+03  0.25429129265E+03  0.00000000000E+00 0.  1.
         11    1    1    2    0    0  0.34216675221E+02  0.14956387292E+02  0.18740527182E+03  0.19108953475E+03  0.00000000000E+00 0. -1.
</event>
<event>
 7    1  0.8661710E-006  0.9776493E+02  0.7561462E-02  0.1285067E+00
          1   -1    0    0  501    0  0.00000000000E+00  0.00000000000E+00  0.51135548894E+02  0.51135548894E+02  0.00000000000E+00 0. -1.
         -1   -1    0    0    0  501 -0.00000000000E+00 -0.00000000000E+00 -0.25442803916E+03  0.25442803916E+03  0.00000000000E+00 0.  1.
         23    2    1    2    0    0 -0.91641516279E+01 -0.25278364189E+02 -0.13641465877E+03  0.18702589943E+03  0.12508697198E+03 0.  0.
          5    1    3    3  502    0  0.27325554924E+02  0.28033522091E+02 -0.39255051543E+01  0.39565721319E+02  0.41800000000E+01 0.  1.
         -5    1    3    3    0  502 -0.36489706552E+02 -0.53311886280E+02 -0.13248915361E+03  0.14746017811E+03  0.41800000000E+01 0.  1.
        -11    1    1    2    0    0 -0.14878425381E+02 -0.28701333536E+02 -0.45443189272E+01  0.32646361560E+02  0.00000000000E+00 0.  1.
         11    1    1    2    0    0  0.24042577009E+02  0.53979697725E+02 -0.62333512569E+02  0.85891327065E+02  0.00000000000E+00 0. -1.
</event>
<event>
 7    1  0.8661710E-006  0.1002495E+03  0.7561462E-02  0.1279772E+00
          1   -1    0    0  501    0  0.00000000000E+00  0.00000000000E+00  0.26899059310E+03  0.26899059310E+03  0.00000000000E+00 0. -1.
         -1   -1    0    0    0  501 -0.00000000000E+00 -0.00000000000E+00 -0.57440946472E+02  0.57440946472E+02  0.00000000000E+00 0.  1.
         23    2    1    2    0    0  0.95510914587E+01  0.38807161494E+02  0.57027116570E+02  0.14315746873E+03  0.12507897385E+03 0.  0.
          5    1    3    3  502    0 -0.43417646545E+02  0.55330778901E+02  0.11768733975E+02  0.71432223993E+02  0.41800000000E+01 0.  1.
         -5    1    3    3    0  502  0.52968738003E+02 -0.16523617407E+02  0.45258382595E+02  0.71725244740E+02  0.41800000000E+01 0.  1.
        -11    1    1    2    0    0  0.24614015285E+02 -0.28159027437E+01  0.44002156496E+01  0.25162292314E+02  0.00000000000E+00 0.  1.
         11    1    1    2    0    0 -0.34165106744E+02 -0.35991258751E+02  0.15012231441E+03  0.15811177853E+03  0.00000000000E+00 0. -1.
</event>
<event>
 7    1  0.8661710E-006  0.2219462E+03  0.7561462E-02  0.1132440E+00
         -1   -1    0    0    0  501 -0.00000000000E+00  0.00000000000E+00  0.74659560390E+03  0.74659560390E+03  0.00000000000E+00 0.  1.
          1   -1    0    0  501    0  0.00000000000E+00 -0.00000000000E+00 -0.77775932334E+02  0.77775932334E+02  0.00000000000E+00 0. -1.
         23    2    1    2    0    0  0.10126753650E+03  0.18781159562E+03  0.38925950473E+03  0.46119395788E+03  0.12509434585E+03 0.  0.
          5    1    3    3  502    0  0.27863731921E+02  0.73538948303E+01  0.14914044717E+03  0.15195661456E+03  0.41800000000E+01 0.  1.
         -5    1    3    3    0  502  0.73403804579E+02  0.18045770079E+03  0.24011905756E+03  0.30923734332E+03  0.41800000000E+01 0.  1.
        -11    1    1    2    0    0 -0.23460641300E+02 -0.99437304349E+02  0.18820708778E+03  0.21414968381E+03  0.00000000000E+00 0.  1.
         11    1    1    2    0    0 -0.77806895199E+02 -0.88374291272E+02  0.91353079055E+02  0.14902789454E+03  0.00000000000E+00 0. -1.
</event>
<event>
 7    1  0.8661710E-006  0.1312113E+03  0.7561462E-02  0.1225669E+00
         -2   -1    0    0    0  501 -0.00000000000E+00  0.00000000000E+00  0.28473708822E+02  0.28473708822E+02  0.00000000000E+00 0.  1.
          2   -1    0    0  501    0  0.00000000000E+00 -0.00000000000E+00 -0.10870396961E+04  0.10870396961E+04  0.00000000000E+00 0. -1.
         23    2    1    2    0    0  0.10109183695E+03 -0.41830991005E+02 -0.86169497330E+03  0.87757334378E+03  0.12508938966E+03 0.  0.
          5    1    3    3  502    0  0.59283309594E+02  0.19957881323E+02 -0.15894335786E+03  0.17086044373E+03  0.41800000000E+01 0. -1.
         -5    1    3    3    0  502  0.41808527357E+02 -0.61788872328E+02 -0.70275161544E+03  0.70671290005E+03  0.41800000000E+01 0. -1.
        -11    1    1    2    0    0 -0.45748505299E+02 -0.12529891565E+02 -0.36706112296E+02  0.59977183992E+02  0.00000000000E+00 0.  1.
         11    1    1    2    0    0 -0.55343331652E+02  0.54360882570E+02 -0.16016490171E+03  0.17796287718E+03  0.00000000000E+00 0. -1.
</event>
<event>
 7    1  0.8661710E-006  0.1238646E+03  0.7561462E-02  0.1236854E+00
         -2   -1    0    0    0  501 -0.00000000000E+00  0.00000000000E+00  0.66740229043E+03  0.66740229043E+03  0.00000000000E+00 0.  1.
          2   -1    0    0  501    0  0.00000000000E+00 -0.00000000000E+00 -0.32780487172E+02  0.32780487172E+02  0.00000000000E+00 0. -1.
         23    2    1    2    0    0  0.71738289624E+02  0.31742943817E+02  0.49261638207E+03  0.51426861360E+03  0.12508920965E+03 0.  0.
          5    1    3    3  502    0  0.90774594021E+02  0.62940615216E+02  0.38390481645E+03  0.39950210069E+03  0.41800000000E+01 0.  1.
         -5    1    3    3    0  502 -0.19036304397E+02 -0.31197671399E+02  0.10871156562E+03  0.11476651291E+03  0.41800000000E+01 0.  1.
        -11    1    1    2    0    0  0.49112388805E+01 -0.22697778937E+02  0.89752609587E+02  0.92708361887E+02  0.00000000000E+00 0.  1.
         11    1    1    2    0    0 -0.76649528505E+02 -0.90451648796E+01  0.52252811604E+02  0.93205802116E+02  0.00000000000E+00 0. -1.
</event>
<event>
 7    1  0.8661710E-006  0.1259479E+03  0.7561462E-02  0.1233595E+00
          2   -1    0    0  501    0  0.00000000000E+00  0.00000000000E+00  0.52591396619E+03  0.52591396619E+03  0.00000000000E+00 0. -1.
         -2   -1    0    0    0  501 -0.00000000000E+00 -0.00000000000E+00 -0.37033779895E+02  0.37033779895E+02  0.00000000000E+00 0.  1.
         23    2    1    2    0    0 -0.23457328862E+02  0.73379102871E+02  0.17965504368E+03  0.23207571566E+03  0.12509382104E+03 0.  0.
          5    1    3    3  502    0  0.21141882626E+02  0.91754812654E+02  0.14334797704E+03  0.17155768641E+03  0.41800000000E+01 0. -1.
         -5    1    3    3    0  502 -0.44599211488E+02 -0.18375709783E+02  0.36307066639E+02  0.60518029241E+02  0.41800000000E+01 0. -1.
        -11    1    1    2    0    0 -0.17995195129E+02  0.65808312200E+01  0.18964511391E+02  0.26958988846E+02  0.00000000000E+00 0.  1.
         11    1    1    2    0    0  0.41452523991E+02 -0.79959934091E+02  0.29026063122E+03  0.30391304158E+03  0.00000000000E+00 0. -1.
</event>
<event>
 7    1  0.8661710E-006  0.1341224E+03  0.7561462E-02  0.1221464E+00
          1   -1    0    0  501    0  0.00000000000E+00  0.00000000000E+00  0.33810872931E+02  0.33810872931E+02  0.00000000000E+00 0. -1.
         -1   -1    0    0    0  501 -0.00000000000E+00 -0.00000000000E+00 -0.78685942096E+03  0.78685942096E+03  0.00000000000E+00 0.  1.
         23    2    1    2    0    0 -0.77915264433E+02  0.85353255827E+02 -0.49903247248E+03  0.52729223310E+03  0.12509086215E+03 0.  0.
          5    1    3    3  502    0 -0.88212496333E+02  0.85696520386E+02 -0.25635464632E+03  0.28435983402E+03  0.41800000000E+01 0.  1.
         -5    1    3    3    0  502  0.10297231899E+02 -0.34326455960E+00 -0.24267782616E+03  0.24293239908E+03  0.41800000000E+01 0.  1.
        -11    1    1    2    0    0  0.43706688584E+02 -0.17533053651E+01 -0.33554969313E+02  0.55129707711E+02  0.00000000000E+00 0.  1.
         11    1    1    2    0    0  0.34208575849E+02 -0.83599950462E+02 -0.22046110624E+03  0.23824835307E+03  0.00000000000E+00 0. -1.
</event>
<event>
 7    1  0.8661710E-006  0.9933521E+02  0.7561462E-02  0.1281700E+00
         -1   -1    0    0    0  501 -0.00000000000E+00  0.00000000000E+00  0.16572725151E+03  0.16572725151E+03  0.00000000000E+00 0.  1.
          1   -1    0    0  501    0  0.00000000000E+00 -0.00000000000E+00 -0.80513210864E+02  0.80513210864E+02  0.00000000000E+00 0. -1.
         23    2    1    2    0    0  0.39596439561E+01  0.25187785697E+02  0.85362246743E+02  0.15357410613E+03  0.12509272392E+03 0.  0.
          5    1    3    3  502    0  0.36724938296E+02  0.54846928862E+02  0.11113316855E+02  0.67066272522E+02  0.41800000000E+01 0.  1.
         -5    1    3    3    0  502 -0.32765294340E+02 -0.29659143165E+02  0.74248929888E+02  0.86507833611E+02  0.41800000000E+01 0.  1.
        -11    1    1    2    0    0  0.13339162610E+02 -0.53402440036E+02 -0.13989307985E+02  0.56793085837E+02  0.00000000000E+00 0. -1.
         11    1    1    2    0    0 -0.17298806566E+02  0.28214654339E+02  0.13841101888E+02  0.35873270406E+02  0.00000000000E+00 0.  1.
</event>
<event>
 7    1  0.8661710E-006  0.8647535E+02  0.7561462E-02  0.1311619E+00
          3   -1    0    0  501    0  0.00000000000E+00  0.00000000000E+00  0.16090154241E+03  0.16090154241E+03  0.00000000000E+00 0. -1.
         -3   -1    0    0    0  501 -0.00000000000E+00 -0.00000000000E+00 -0.80289300126E+02  0.80289300126E+02  0.00000000000E+00 0.  1.
         23    2    1    2    0    0  0.32838335073E+02 -0.70816201010E+01  0.24470291801E+02  0.13181292439E+03  0.12508935311E+03 0.  0.
          5    1    3    3  502    0  0.35473465538E+01  0.33371069275E+02  0.61032311773E+02  0.69775550248E+02  0.41800000000E+01 0.  1.
         -5    1    3    3    0  502  0.29290988520E+02 -0.40452689376E+02 -0.36562019972E+02  0.62037374143E+02  0.41800000000E+01 0.  1.
        -11    1    1    2    0    0  0.25371842064E+02  0.16187304311E+02  0.36421658471E+02  0.47247184005E+02  0.00000000000E+00 0. -1.
         11    1    1    2    0    0 -0.58210177138E+02 -0.91056842098E+01  0.19720292007E+02  0.62130734135E+02  0.00000000000E+00 0.  1.
</event>
<event>
 7    1  0.8661710E-006  0.1162316E+03  0.7561462E-02  0.1249446E+00
         -2   -1    0    0    0  501 -0.00000000000E+00  0.00000000000E+00  0.54750252632E+03  0.54750252632E+03  0.00000000000E+00 0.  1.
          2   -1    0    0  501    0  0.00000000000E+00 -0.00000000000E+00 -0.46125937427E+02  0.46125937427E+02  0.00000000000E+00 0. -1.
         23    2    1    2    0    0 -0.80678838576E+02 -0.53647753104E+02  0.38676361654E+03  0.41787770635E+03  0.12509406852E+03 0.  0.
          5    1    3    3  502    0 -0.87086663830E+02 -0.51338565902E+02  0.14973630664E+03  0.18071571401E+03  0.41800000000E+01 0.  1.
         -5    1    3    3    0  502  0.64078252545E+01 -0.23091872025E+01  0.23702730991E+03  0.23716199234E+03  0.41800000000E+01 0.  1.
        -11    1    1    2    0    0  0.60241355047E+02 -0.57133643917E+01  0.23095524044E+02  0.64769333958E+02  0.00000000000E+00 0. -1.
         11    1    1    2    0    0  0.20437483529E+02  0.59361117496E+02  0.91517448309E+02  0.11098142344E+03  0.00000000000E+00 0.  1.
</event>
<event>
 7    1  0.8661710E-006  0.1691390E+03  0.7561462E-02  0.1178749E+00
          2   -1    0    0  501    0  0.00000000000E+00  0.00000000000E+00  0.15003890508E+03  0.15003890508E+03  0.00000000000E+00 0. -1.
         -2   -1    0    0    0  501 -0.00000000000E+00 -0.00000000000E+00 -0.25749086277E+03  0.25749086277E+03  0.00000000000E+00 0.  1.
         23    2    1    2    0    0 -0.19680860232E+02 -0.15850474792E+03 -0.92773977820E+02  0.22307174126E+03  0.12507157717E+03 0.  0.
          5    1    3    3  502    0  0.33765897000E+01 -0.27060464094E+02 -0.84959299717E+02  0.89326508290E+02  0.41800000000E+01 0.  1.
         -5    1    3    3    0  502 -0.23057449932E+02 -0.13144428383E+03 -0.78146781033E+01  0.13374523297E+03  0.41800000000E+01 0.  1.
        -11    1    1    2    0    0  0.46352337504E+02  0.64304291348E+02  0.17921632038E+02  0.81269711287E+02  0.00000000000E+00 0. -1.
         11    1    1    2    0    0 -0.26671477272E+02  0.94200456572E+02 -0.32599611910E+02  0.10318831530E+03  0.00000000000E+00 0.  1.
</event>
<event>
 7    1  0.8661710E-006  0.3360106E+03  0.7561462E-02  0.1068508E+00
          2   -1    0    0  501    0  0.00000000000E+00  0.00000000000E+00  0.57745150713E+03  0.57745150713E+03  0.00000000000E+00 0. -1.
         -2   -1    0    0    0  501 -0.00000000000E+00 -0.00000000000E+00 -0.26268465068E+03  0.26268465068E+03  0.00000000000E+00 0.  1.
         23    2    1    2    0    0 -0.17487876642E+03 -0.27759871699E+03 -0.33792965602E+02  0.35274851679E+03  0.12508365583E+03 0.  0.
          5    1    3    3  502    0 -0.28804684964E+02 -0.13106450546E+03 -0.54225174108E+02  0.14479453158E+03  0.41800000000E+01 0.  1.
         -5    1    3    3    0  502 -0.14607408146E+03 -0.14653421153E+03  0.20432208506E+02  0.20795398521E+03  0.41800000000E+01 0.  1.
        -11    1    1    2    0    0  0.22590324519E+02  0.14568427579E+02  0.27893822922E+01  0.27024849631E+02  0.00000000000E+00 0.  1.
         11    1    1    2    0    0  0.15228844190E+03  0.26303028941E+03  0.34577043976E+03  0.46036279139E+03  0.00000000000E+00 0. -1.
</event>
<event>
 7    1  0.8661710E-006  0.1427507E+03  0.7561462E-02  0.1209675E+00
         -1   -1    0    0    0  501 -0.00000000000E+00  0.00000000000E+00  0.71120430360E+02  0.71120430360E+02  0.00000000000E+00 0.  1.
          1   -1    0    0  501    0  0.00000000000E+00 -0.00000000000E+00 -0.41211481316E+03  0.41211481316E+03  0.00000000000E+00 0. -1.
         23    2    1    2    0    0  0.18622383777E+02 -0.13401143309E+03 -0.16238351178E+03  0.24560558686E+03  0.12509133472E+03 0.  0.
          5    1    3    3  502    0 -0.18583755056E+02 -0.46321427394E+02 -0.13854828446E+03  0.14732321648E+03  0.41800000000E+01 0. -1.
         -5    1    3    3    0  502  0.37206138833E+02 -0.87690005698E+02 -0.23835227320E+02  0.98282370380E+02  0.41800000000E+01 0. -1.
        -11    1    1    2    0    0 -0.14962287401E+00  0.10886865531E+03 -0.17516493299E+03  0.20624053977E+03  0.00000000000E+00 0. -1.
         11    1    1    2    0    0 -0.18472760903E+02  0.25142777779E+02 -0.34459380313E+01  0.31389116883E+02  0.00000000000E+00 0.  1.
</event>
<event>
 7    1  0.8661710E-006  0.2419491E+03  0.7561462E-02  0.1118501E+00
          2   -1    0    0  501    0  0.00000000000E+00  0.00000000000E+00  0.14635562555E+03  0.14635562555E+03  0.00000000000E+00 0. -1.
         -2   -1    0    0    0  501 -0.00000000000E+00 -0.00000000000E+00 -0.13875346008E+04  0.13875346008E+04  0.00000000000E+00 0.  1.
         23    2    1    2    0    0 -0.37947447275E+02  0.23226758786E+03 -0.12524290685E+04  0.12804743687E+04  0.12509115180E+03 0.  0.
          5    1    3    3  502    0 -0.25809127405E+02  0.20332270875E+03 -0.12115285882E+04  0.12287494567E+04  0.41800000000E+01 0.  1.
         -5    1    3    3    0  502 -0.12138319870E+02  0.28944879112E+02 -0.40900480325E+02  0.51724912053E+02  0.41800000000E+01 0.  1.
        -11    1    1    2    0    0 -0.21667065058E+02 -0.35049609622E+02  0.22740644801E+02  0.47064570208E+02  0.00000000000E+00 0.  1.
         11    1    1    2    0    0  0.59614512333E+02 -0.19721797824E+03 -0.11490551506E+02  0.20635128736E+03  0.00000000000E+00 0. -1.
</event>
<event>
 6    1  0.8661710E-006  0.1183397E+03  0.7561462E-02  0.1245861E+00
          3   -1    0    0  501    0  0.00000000000E+00  0.00000000000E+00  0.50479246807E+02  0.50479246807E+02  0.00000000000E+00 0. -1.
         -3   -1    0    0    0  501 -0.00000000000E+00 -0.00000000000E+00 -0.28171062155E+03  0.28171062155E+03  0.00000000000E+00 0.  1.
          5    1    1    2  502    0  0.74047631662E+01 -0.85623299673E+02 -0.82631764385E+02  0.11929652489E+03  0.41800000000E+01 0. -1.
         -5    1    1    2    0  502 -0.11880335859E+02  0.67421036678E+02 -0.76813068606E+02  0.10297795140E+03  0.41800000000E+01 0.  1.
        -11    1    1    2    0    0  0.39437394721E+02  0.24634593513E+02 -0.49717360679E+02  0.68073396072E+02  0.00000000000E+00 0.  1.
         11    1    1    2    0    0 -0.34961822027E+02 -0.64323305180E+01 -0.22069181069E+02  0.41841995990E+02  0.00000000000E+00 0. -1.
</event>
<event>
 7    1  0.8661710E-006  0.1372393E+03  0.7561462E-02  0.1217093E+00
          2   -1    0    0  501    0  0.00000000000E+00  0.00000000000E+00  0.41322524413E+03  0.41322524413E+03  0.00000000000E+00 0. -1.
         -2   -1    0    0    0  501 -0.00000000000E+00 -0.00000000000E+00 -0.71352884707E+02  0.71352884707E+02  0.00000000000E+00 0.  1.
         23    2    1    2    0    0 -0.68538525039E+02 -0.93955071954E+02  0.90981910190E+02  0.19352213962E+03  0.12509206842E+03 0.  0.
          5    1    3    3  502    0  0.78317094293E+01 -0.10045498685E+02  0.78116309714E+02  0.79258298996E+02  0.41800000000E+01 0.  1.
         -5    1    3    3    0  502 -0.76370234468E+02 -0.83909573269E+02  0.12865600477E+02  0.11426384063E+03  0.41800000000E+01 0.  1.
        -11    1    1    2    0    0  0.33414946792E+02 -0.12314458662E+02  0.59771574756E+02  0.69576186372E+02  0.00000000000E+00 0. -1.
         11    1    1    2    0    0  0.35123578247E+02  0.10626953062E+03  0.19111887447E+03  0.22147980284E+03  0.00000000000E+00 0.  1.
</event>
<event>
 7    1  0.1060172E-005  0.1604628E+03  0.7561462E-02  0.1188175E+00
         -2   -1    0    0    0  501 -0.00000000000E+00  0.00000000000E+00  0.13685129443E+03  0.13685129443E+03  0.00000000000E+00 0.  1.
          2   -1    0    0  501    0  0.00000000000E+00 -0.00000000000E+00 -0.22788810726E+03  0.22788810726E+03  0.00000000000E+00 0. -1.
         23    2    1    2    0    0  0.11975532713E+03 -0.70597424194E+02 -0.45918030510E+02  0.19256446183E+03  0.12508905530E+03 0.  0.
          5    1    3    3  502    0  0.41493264564E+02 -0.69883461192E+02  0.26768878295E+02  0.85670498992E+02  0.41800000000E+01 0.  1.
         -5    1    3    3    0  502  0.78262062567E+02 -0.71396300192E+00 -0.72686908806E+02  0.10689396284E+03  0.41800000000E+01 0.  1.
        -11    1    1    2    0    0 -0.23241116509E+02  0.59670668012E+02 -0.38721407489E+02  0.74833719107E+02  0.00000000000E+00 0. -1.
         11    1    1    2    0    0 -0.96514210622E+02  0.10926756183E+02 -0.63973748309E+01  0.97341220751E+02  0.00000000000E+00 0.  1.
</event>
<event>
 7    1  0.8661710E-006  0.1117616E+03  0.7561462E-02  0.1257342E+00
          3   -1    0    0  501    0  0.00000000000E+00  0.00000000000E+00  0.30622630898E+03  0.30622630898E+03  0.00000000000E+00 0. -1.
         -3   -1    0    0    0  501 -0.00000000000E+00 -0.00000000000E+00 -0.98157881494E+02  0.98157881494E+02  0.00000000000E+00 0.  1.
         23    2    1    2    0    0  0.11413148038E+02  0.60428425544E+02 -0.29486802510E+02  0.14247092864E+03  0.12508652774E+03 0.  0.
          5    1    3    3  502    0  0.22099991554E+02  0.97758347145E+02 -0.20141438429E+02  0.10231448580E+03  0.41800000000E+01 0. -1.
         -5    1    3    3    0  502 -0.10686843516E+02 -0.37329921602E+02 -0.93453640810E+01  0.40156442832E+02  0.41800000000E+01 0. -1.
        -11    1    1    2    0    0  0.23545064516E+02 -0.22321900955E+02  0.18629766611E+03  0.18910171264E+03  0.00000000000E+00 0. -1.
         11    1    1    2    0    0 -0.34958212554E+02 -0.38106524589E+02  0.51257563887E+02  0.72811549200E+02  0.00000000000E+00 0.  1.
</event>
<event>
 7    1  0.8661710E-006  0.1217961E+03  0.7561462E-02  0.1240163E+00
          1   -1    0    0  501    0  0.00000000000E+00  0.00000000000E+00  0.32076657597E+02  0.32076657597E+02  0.00000000000E+00 0. -1.
         -1   -1    0    0    0  501 -0.00000000000E+00 -0.00000000000E+00 -0.56570159061E+03  0.56570159061E+03  0.00000000000E+00 0.  1.
         23    2    1    2    0    0  0.52951377082E+02 -0.27035656491E+02 -0.40701666647E+03  0.42993564515E+03  0.12508923664E+03 0.  0.
          5    1    3    3  502    0 -0.35812627496E+02 -0.33489858552E+02 -0.15585517911E+03  0.16343935930E+03  0.41800000000E+01 0.  1.
         -5    1    3    3    0  502  0.88764004578E+02  0.64542020612E+01 -0.25116148737E+03  0.26649628585E+03  0.41800000000E+01 0.  1.
        -11    1    1    2    0    0 -0.51684221402E+02 -0.22044807471E+02 -0.42495381940E+02  0.70449199886E+02  0.00000000000E+00 0. -1.
         11    1    1    2    0    0 -0.12671556807E+01  0.49080463962E+02 -0.84112884594E+02  0.97393403170E+02  0.00000000000E+00 0.  1.
</event>
<event>
 7    1  0.8661710E-006  0.7901949E+02  0.7561462E-02  0.1331857E+00
          1   -1    0    0  501    0  0.00000000000E+00  0.00000000000E+00  0.23471080652E+02  0.23471080652E+02  0.00000000000E+00 0. -1.
         -1   -1    0    0    0  501 -0.00000000000E+00 -0.00000000000E+00 -0.61068328338E+03  0.61068328338E+03  0.00000000000E+00 0.  1.
         23    2    1    2    0    0 -0.40422954093E+02 -0.12713378857E+02 -0.38810070839E+03  0.40995733039E+03  0.12508879912E+03 0.  0.
          5    1    3    3  502    0 -0.29792279305E+02 -0.45098587527E+02 -0.63280198101E+02  0.83326576642E+02  0.41800000000E+01 0.  1.
         -5    1    3    3    0  502 -0.10630674788E+02  0.32385208670E+02 -0.32482051029E+03  0.32663075375E+03  0.41800000000E+01 0.  1.
        -11    1    1    2    0    0  0.24788656487E+02  0.34615883334E+02 -0.19157844655E+03  0.19625248546E+03  0.00000000000E+00 0.  1.
         11    1    1    2    0    0  0.15634297606E+02 -0.21902504477E+02 -0.75330477902E+01  0.27944548180E+02  0.00000000000E+00 0. -1.
</event>
<event>
 7    1  0.8661710E-006  0.2840243E+03  0.7561462E-02  0.1093511E+00
          2   -1    0    0  501    0  0.00000000000E+00  0.00000000000E+00  0.15598897502E+03  0.15598897502E+03  0.00000000000E+00 0. -1.
         -2   -1    0    0    0  501 -0.00000000000E+00 -0.00000000000E+00 -0.70172161888E+03  0.70172161888E+03  0.00000000000E+00 0.  1.
         23    2    1    2    0    0  0.10519838732E+03  0.24344979016E+03 -0.64000401015E+02  0.30012897442E+03  0.12508736521E+03 0.  0.
          5    1    3    3  502    0 -0.26252209172E+02  0.21157375427E+02  0.24096402345E+00  0.33975630753E+02  0.41800000000E+01 0. -1.
         -5    1    3    3    0  502  0.13145059649E+03  0.22229241473E+03 -0.64241365038E+02  0.26615334367E+03  0.41800000000E+01 0. -1.
        -11    1    1    2    0    0 -0.52326330774E+02 -0.40790165240E+02 -0.75309633189E+02  0.10036644521E+03  0.00000000000E+00 0. -1.
         11    1    1    2    0    0 -0.52872056541E+02 -0.20265962492E+03 -0.40642260966E+03  0.45721517426E+03  0.00000000000E+00 0.  1.
</event>
<event>
 7    1  0.8661710E-006  0.1187443E+03  0.7561462E-02  0.1245183E+00
         -1   -1    0    0    0  501 -0.00000000000E+00  0.00000000000E+00  0.23596118034E+03  0.23596118034E+03  0.00000000000E+00 0.  1.
          1   -1    0    0  501    0  0.00000000000E+00 -0.00000000000E+00 -0.69832239122E+02  0.69832239122E+02  0.00000000000E+00 0. -1.
         23    2    1    2    0    0 -0.27178760234E+02 -0.51755585309E+02  0.13121795795E+03  0.19048141849E+03  0.12509073781E+03 0.  0.
          5    1    3    3  502    0 -0.37765975237E+02  0.30816378131E+02  0.23482789726E+02  0.54266305016E+02  0.41800000000E+01 0. -1.
         -5    1    3    3    0  502  0.10587215004E+02 -0.82571963440E+02  0.10773516822E+03  0.13621511348E+03  0.41800000000E+01 0. -1.
        -11    1    1    2    0    0 -0.13374779219E+02 -0.19251711209E+02 -0.55319642964E+01  0.24085591806E+02  0.00000000000E+00 0.  1.
         11    1    1    2    0    0  0.40553539453E+02  0.71007296519E+02  0.40442947566E+02  0.91226409164E+02  0.00000000000E+00 0. -1.
</event>
<event>
 7    1  0.8661710E-006  0.1099517E+03  0.7561462E-02  0.1260659E+00
          1   -1    0    0  501    0  0.00000000000E+00  0.00000000000E+00  0.15859418114E+03  0.15859418114E+03  0.00000000000E+00 0. -1.
         -1   -1    0    0    0  501 -0.00000000000E+00 -0.00000000000E+00 -0.98467313365E+02  0.98467313365E+02  0.00000000000E+00 0.  1.
         23    2    1    2    0    0 -0.47079469977E+02 -0.33252254714E+02  0.36685931029E+02  0.14252834070E+03  0.12508509676E+03 0.  0.
          5    1    3    3  502    0  0.31180119111E+02  0.23620638654E+02  0.10722762792E+01  0.39354244684E+02  0.41800000000E+01 0. -1.
         -5    1    3    3    0  502 -0.78259589089E+02 -0.56872893369E+02  0.35613654750E+02  0.10317409602E+03  0.41800000000E+01 0. -1.
        -11    1    1    2    0    0  0.54316095681E+02  0.44594222047E+02 -0.16668952688E+02  0.72226981619E+02  0.00000000000E+00 0.  1.
         11    1    1    2    0    0 -0.72366257040E+01 -0.11341967333E+02  0.40109889437E+02  0.42306172188E+02  0.00000000000E+00 0. -1.
</event>
<event>
 7    1  0.8661710E-006  0.5537364E+02  0.7561462E-02  0.1418340E+00
          2   -1    0    0  501    0  0.00000000000E+00  0.00000000000E+00  0.31886276235E+02  0.31886276235E+02  0.00000000000E+00 0. -1.
         -2   -1    0    0    0  501 -0.00000000000E+00 -0.00000000000E+00 -0.38922191208E+03  0.38922191208E+03  0.00000000000E+00 0.  1.
         23    2    1    2    0    0  0.24145246843E+02  0.17714395860E+02 -0.21796033505E+03  0.25307944582E+03  0.12508279447E+03 0.  0.
          5    1    3    3  502    0  0.83290128781E+01  0.12836795591E+02  0.13597588359E+02  0.20893122930E+02  0.41800000000E+01 0. -1.
         -5    1    3    3    0  502  0.15816233965E+02  0.48776002688E+01 -0.23155792341E+03  0.23218632289E+03  0.41800000000E+01 0. -1.
        -11    1    1    2    0    0  0.21446225698E+02 -0.23547960515E+02 -0.14562153677E+02  0.35021469998E+02  0.00000000000E+00 0. -1.
         11    1    1    2    0    0 -0.45591472541E+02  0.58335646547E+01 -0.12481314711E+03  0.13300727250E+03  0.00000000000E+00 0.  1.
</event>
<event>
 7    1  0.8661710E-006  0.1086327E+03  0.7561462E-02  0.1263123E+00
         -1   -1    0    0    0  501 -0.00000000000E+00  0.00000000000E+00  0.12311306069E+03  0.12311306069E+03  0.00000000000E+00 0.  1.
          1   -1    0    0  501    0  0.00000000000E+00 -0.00000000000E+00 -0.16780311310E+03  0.16780311310E+03  0.00000000000E+00 0. -1.
         23    2    1    2    0    0 -0.58750125074E+02 -0.14875936048E+02  0.48859481454E+02  0.14733324654E+03  0.12508783289E+03 0.  0.
          5    1    3    3  502    0 -0.71593459961E+02 -0.48526813784E+02  0.12713456473E+00  0.86590783161E+02  0.41800000000E+01 0. -1.
         -5    1    3    3    0  502  0.12843334887E+02  0.33650877736E+02  0.48732346890E+02  0.60742463374E+02  0.41800000000E+01 0. -1.
        -11    1    1    2    0    0  0.75103926398E+02  0.49121811308E+01 -0.36977178090E+02  0.83857265537E+02  0.00000000000E+00 0.  1.
         11    1    1    2    0    0 -0.16353801324E+02  0.99637549176E+01 -0.56572355773E+02  0.59725661717E+02  0.00000000000E+00 0. -1.
</event>
<event>
 7    1  0.8661710E-006  0.1098004E+03  0.7561462E-02  0.1260940E+00
          3   -1    0    0  501    0  0.00000000000E+00  0.00000000000E+00  0.11066920542E+02  0.11066920542E+02  0.00000000000E+00 0. -1.
         -3   -1    0    0    0  501 -0.00000000000E+00 -0.00000000000E+00 -0.11398058954E+04  0.11398058954E+04  0.00000000000E+00 0.  1.
         23    2    1    2    0    0 -0.31804627069E+02  0.36855250802E+01 -0.65850478242E+03  0.67104487374E+03  0.12509019424E+03 0.  0.
          5    1    3    3  502    0 -0.73263169888E+02 -0.20194859541E+02 -0.48822279836E+03  0.49411971995E+03  0.41800000000E+01 0. -1.
         -5    1    3    3    0  502  0.41458542819E+02  0.23880384622E+02 -0.17028198407E+03  0.17692515378E+03  0.41800000000E+01 0. -1.
        -11    1    1    2    0    0  0.12291110363E+02  0.43075411554E+02 -0.21777161272E+03  0.22233091953E+03  0.00000000000E+00 0.  1.
         11    1    1    2    0    0  0.19513516706E+02 -0.46760936635E+02 -0.25246257976E+03  0.25749702272E+03  0.00000000000E+00 0. -1.
</event>
<event>
 7    1  0.8661710E-006  0.1412963E+03  0.7561462E-02  0.1211595E+00
          2   -1    0    0  501    0  0.00000000000E+00  0.00000000000E+00  0.30184409160E+02  0.30184409160E+02  0.00000000000E+00 0.  1.
         -2   -1    0    0    0  501 -0.00000000000E+00 -0.00000000000E+00 -0.77312309829E+03  0.77312309829E+03  0.00000000000E+00 0. -1.
         23    2    1    2    0    0  0.56638397286E+02 -0.89264177186E+02 -0.45537091226E+03  0.48393231180E+03  0.12510720719E+03 0.  0.
          5    1    3    3  502    0  0.69280891321E+02 -0.14988292888E+02 -0.11388126312E+03  0.13420471421E+03  0.41800000000E+01 0. -1.
         -5    1    3    3    0  502 -0.12642494035E+02 -0.74275884298E+02 -0.34148964914E+03  0.34972759759E+03  0.41800000000E+01 0. -1.
        -11    1    1    2    0    0  0.91984106795E+01  0.65482624196E+02 -0.17183888396E+03  0.18412274947E+03  0.00000000000E+00 0.  1.
         11    1    1    2    0    0 -0.65836807965E+02  0.23781552990E+02 -0.11572889290E+03  0.13525244618E+03  0.00000000000E+00 0. -1.
</event>
<event>
 7    1  0.8661710E-006  0.1392217E+03  0.7561462E-02  0.1214380E+00
         -2   -1    0    0    0  501 -0.00000000000E+00  0.00000000000E+00  0.23386076308E+03  0.23386076308E+03  0.00000000000E+00 0.  1.
          2   -1    0    0  501    0  0.00000000000E+00 -0.00000000000E+00 -0.12833043697E+03  0.12833043697E+03  0.00000000000E+00 0. -1.
         23    2    1    2    0    0 -0.69389955094E+02  0.98859504453E+02  0.10045700118E+03  0.20081605688E+03  0.12508921665E+03 0.  0.
          5    1    3    3  502    0 -0.20597745167E+02 -0.17621241126E+02 -0.13583853440E+02  0.30606677687E+02  0.41800000000E+01 0.  1.
         -5    1    3    3    0  502 -0.48792209927E+02  0.11648074558E+03  0.11404085462E+03  0.17020937919E+03  0.41800000000E+01 0.  1.
        -11    1    1    2    0    0 -0.25527378505E+01 -0.10038752818E+02 -0.37878853164E+02  0.39269588050E+02  0.00000000000E+00 0. -1.
         11    1    1    2    0    0  0.71942692944E+02 -0.88820751636E+02  0.42952178090E+02  0.12210555512E+03  0.00000000000E+00 0.  1.
</event>
<event>
 7    1  0.8661710E-006  0.1071694E+03  0.7561462E-02  0.1265903E+00
         -4   -1    0    0    0  501 -0.00000000000E+00  0.00000000000E+00  0.15456687917E+03  0.15456687917E+03  0.00000000000E+00 0.  1.
          4   -1    0    0  501    0  0.00000000000E+00 -0.00000000000E+00 -0.10238597419E+03  0.10238597419E+03  0.00000000000E+00 0. -1.
         23    2    1    2    0    0 -0.47712907690E+02  0.41071790358E+02  0.25111828579E+02  0.14226550322E+03  0.12508179703E+03 0.  0.
          5    1    3    3  502    0  0.26975668604E+02  0.45369815392E+02  0.39383417031E+02  0.65989641478E+02  0.41800000000E+01 0. -1.
         -5    1    3    3    0  502 -0.74688576294E+02 -0.42980250337E+01 -0.14271588452E+02  0.76275861745E+02  0.41800000000E+01 0. -1.
        -11    1    1    2    0    0 -0.50365966229E+01 -0.32658832606E+02 -0.23957543936E+02  0.40815812673E+02  0.00000000000E+00 0. -1.
         11    1    1    2    0    0  0.52749504313E+02 -0.84129577522E+01  0.51026620345E+02  0.73871537463E+02  0.00000000000E+00 0.  1.
</event>
<event>
 7    1  0.8661710E-006  0.9828557E+02  0.7561462E-02  0.1283943E+00
         -1   -1    0    0    0  501 -0.00000000000E+00  0.00000000000E+00  0.28992621660E+02  0.28992621660E+02  0.00000000000E+00 0.  1.
          1   -1    0    0  501    0  0.00000000000E+00 -0.00000000000E+00 -0.61629461475E+03  0.61629461475E+03  0.00000000000E+00 0. -1.
         23    2    1    2    0    0 -0.40103679056E+02 -0.67065727894E+02 -0.33395300752E+03  0.36507275370E+03  0.12508951727E+03 0.  0.
          5    1    3    3  502    0 -0.30867917578E+02 -0.88913845727E+02 -0.32655943682E+03  0.33987797586E+03  0.41800000000E+01 0.  1.
         -5    1    3    3    0  502 -0.92357614779E+01  0.21848117834E+02 -0.73935707050E+01  0.25194777846E+02  0.41800000000E+01 0.  1.
        -11    1    1    2    0    0  0.78090849169E+01  0.98206455915E+01  0.50963603901E+01  0.13542517355E+02  0.00000000000E+00 0.  1.
         11    1    1    2    0    0  0.32294594139E+02  0.57245082302E+02 -0.25844534596E+03  0.26667196535E+03  0.00000000000E+00 0. -1.
</event>
<event>
 7    1  0.8661710E-006  0.1247796E+03  0.7561462E-02  0.1235414E+00
          1   -1    0    0  501    0  0.00000000000E+00  0.00000000000E+00  0.25255144600E+03  0.25255144600E+03  0.00000000000E+00 0. -1.
         -1   -1    0    0    0  501 -0.00000000000E+00 -0.00000000000E+00 -0.72435366489E+02  0.72435366489E+02  0.00000000000E+00 0.  1.
         23    2    1    2    0    0  0.79396343206E+02  0.12630334446E+01  0.83385231221E+02  0.17001329872E+03  0.12508417321E+03 0.  0.
          5    1    3    3  502    0 -0.18163325661E+01 -0.47074364332E+02  0.52119077568E+02  0.70378728944E+02  0.41800000000E+01 0.  1.
         -5    1    3    3    0  502  0.81212675772E+02  0.48337397777E+02  0.31266153653E+02  0.99634569774E+02  0.41800000000E+01 0.  1.
        -11    1    1    2    0    0 -0.25156708166E+02  0.34497459326E+02  0.75300888681E+02  0.86563031958E+02  0.00000000000E+00 0. -1.
         11    1    1    2    0    0 -0.54239635040E+02 -0.35760492771E+02  0.21429959606E+02  0.68410481808E+02  0.00000000000E+00 0.  1.
</event>
<event>
 7    1  0.8661710E-006  0.9757498E+02  0.7561462E-02  0.1285480E+00
         -3   -1    0    0    0  501 -0.00000000000E+00  0.00000000000E+00  0.15141487697E+03  0.15141487697E+03  0.00000000000E+00 0.  1.
          3   -1    0    0  501    0  0.00000000000E+00 -0.00000000000E+00 -0.11651828382E+03  0.11651828382E+03  0.00000000000E+00 0. -1.
         23    2    1    2    0    0  0.13528252096E+02  0.12166176368E+02  0.94017422100E+02  0.15753758301E+03  0.12509110660E+03 0.  0.
          5    1    3    3  502    0 -0.16079842939E+02 -0.50382939505E+02  0.60707153087E+02  0.80621540410E+02  0.41800000000E+01 0. -1.
         -5    1    3    3    0  502  0.29608095035E+02  0.62549115873E+02  0.33310269013E+02  0.76916042603E+02  0.41800000000E+01 0. -1.
        -11    1    1    2    0    0 -0.38018899433E+02  0.10454823611E+02  0.33634233227E+01  0.39573383318E+02  0.00000000000E+00 0.  1.
         11    1    1    2    0    0  0.24490647337E+02 -0.22620999979E+02 -0.62484252271E+02  0.70822194465E+02  0.00000000000E+00 0. -1.
</event>
<event>
 7    1  0.8661710E-006  0.9003414E+02  0.7561462E-02  0.1302769E+00
         -3   -1    0    0    0  501 -0.00000000000E+00  0.00000000000E+00  0.20055422598E+03  0.20055422598E+03  0.00000000000E+00 0.  1.
          3   -1    0    0  501    0  0.00000000000E+00 -0.00000000000E+00 -0.97642456404E+02  0.97642456404E+02  0.00000000000E+00 0. -1.
         23    2    1    2    0    0 -0.27945383442E+02  0.73627352709E+02  0.98042830439E+02  0.17737431071E+03  0.12508924006E+03 0.  0.
          5    1    3    3  502    0  0.19955655810E+02  0.30525134972E+02  0.10612721902E+03  0.11229635382E+03  0.41800000000E+01 0.  1.
         -5    1    3    3    0  502 -0.47901039252E+02  0.43102217737E+02 -0.80843885781E+01  0.65077956898E+02  0.41800000000E+01 0.  1.
        -11    1    1    2    0    0  0.19985551440E+02 -0.49611705573E+02 -0.41702599974E+02  0.67822197258E+02  0.00000000000E+00 0. -1.
         11    1    1    2    0    0  0.79598320021E+01 -0.24015647135E+02  0.46571539111E+02  0.53000174415E+02  0.00000000000E+00 0.  1.
</event>
<event>
 7    1  0.8661710E-006  0.8167769E+02  0.7561462E-02  0.1324357E+00
         -2   -1    0    0    0  501 -0.00000000000E+00  0.00000000000E+00  0.24535745016E+03  0.24535745016E+03  0.00000000000E+00 0.  1.
          2   -1    0    0  501    0  0.00000000000E+00 -0.00000000000E+00 -0.50953935217E+02  0.50953935217E+02  0.00000000000E+00 0. -1.
         23    2    1    2    0    0  0.23689980940E+02 -0.16636686946E+01  0.12785031993E+03  0.18043606614E+03  0.12508991433E+03 0.  0.
          5    1    3    3  502    0  0.44477974218E+02  0.17464719319E+02 -0.14811826934E+01  0.47989299991E+02  0.41800000000E+01 0.  1.
         -5    1    3    3    0  502 -0.20787993278E+02 -0.19128388014E+02  0.12933150262E+03  0.13244676615E+03  0.41800000000E+01 0.  1.
        -11    1    1    2    0    0 -0.38841834508E+02 -0.31734475647E+02  0.14520910966E+02  0.52217065293E+02  0.00000000000E+00 0. -1.
         11    1    1    2    0    0  0.15151853568E+02  0.33398144341E+02  0.52032284046E+02  0.63658253942E+02  0.00000000000E+00 0.  1.
</event>
<event>
 6    1  0.8661710E-006  0.1858088E+03  0.7561462E-02  0.1162297E+00
         -2   -1    0    0    0  501 -0.00000000000E+00  0.00000000000E+00  0.11848036432E+03  0.11848036432E+03  0.00000000000E+00 0.  1.
          2   -1    0    0  501    0  0.00000000000E+00 -0.00000000000E+00 -0.43342408352E+03  0.43342408352E+03  0.00000000000E+00 0. -1.
          5    1    1    2  502    0 -0.96731886656E+02 -0.10431486119E+03 -0.77772610147E+02  0.16218723578E+03  0.41800000000E+01 0. -1.
         -5    1    1    2    0  502  0.11743273847E+03  0.17571102575E+02  0.10938767130E+01  0.11881860408E+03  0.41800000000E+01 0.  1.
        -11    1    1    2    0    0  0.19030692702E+02  0.59071915769E+02 -0.19932862690E+03  0.20876675980E+03  0.00000000000E+00 0.  1.
         11    1    1    2    0    0 -0.39731544514E+02  0.27671842845E+02 -0.38936358866E+02  0.62131848175E+02  0.00000000000E+00 0. -1.
</event>
<event>
 7    1  0.8661710E-006  0.6528141E+02  0.7561462E-02  0.1376916E+00
          1   -1    0    0  501    0  0.00000000000E+00  0.00000000000E+00  0.25004434840E+03  0.25004434840E+03  0.00000000000E+00 0. -1.
         -1   -1    0    0    0  501 -0.00000000000E+00 -0.00000000000E+00 -0.28105722856E+02  0.28105722856E+02  0.00000000000E+00 0.  1.
         23    2    1    2    0    0  0.23309566719E+02 -0.23667783029E+02  0.11392592554E+03  0.16434055239E+03  0.11368905310E+03 0.  0.
          5    1    3    3  502    0 -0.34272431760E+02 -0.11947417825E+02  0.96070310284E+02  0.10278286477E+03  0.41800000000E+01 0. -1.
         -5    1    3    3    0  502  0.57581998479E+02 -0.11720365204E+02  0.17855615260E+02  0.61557687625E+02  0.41800000000E+01 0.  1.
        -11    1    1    2    0    0 -0.62983166357E+01  0.14462398462E+02  0.37282217899E+02  0.40482014935E+02  0.00000000000E+00 0.  1.
         11    1    1    2    0    0 -0.17011250084E+02  0.92053845666E+01  0.70730482097E+02  0.73327503927E+02  0.00000000000E+00 0. -1.
</event>
<event>
 7    1  0.8661710E-006  0.1325754E+03  0.7561462E-02  0.1223684E+00
          4   -1    0    0  501    0  0.00000000000E+00  0.00000000000E+00  0.11973807488E+03  0.11973807488E+03  0.00000000000E+00 0. -1.
         -4   -1    0    0    0  501 -0.00000000000E+00 -0.00000000000E+00 -0.21334296963E+03  0.21334296963E+03  0.00000000000E+00 0.  1.
         23    2    1    2    0    0  0.11680349556E+03 -0.79972219462E+01 -0.39604944981E+02  0.17584949216E+03  0.12508988805E+03 0.  0.
          5    1    3    3  502    0  0.11180919211E+03  0.24807652685E+02  0.11064461208E+02  0.11513735178E+03  0.41800000000E+01 0.  1.
         -5    1    3    3    0  502  0.49943034518E+01 -0.32804874631E+02 -0.50669406189E+02  0.60712140385E+02  0.41800000000E+01 0.  1.
        -11    1    1    2    0    0 -0.68172113034E+02  0.58459123589E+01 -0.77326595617E+02  0.10325218679E+03  0.00000000000E+00 0.  1.
         11    1    1    2    0    0 -0.48631382529E+02  0.21513095873E+01  0.23326645844E+02  0.53979365557E+02  0.00000000000E+00 0. -1.
</event>
<event>
 7    1  0.8661710E-006  0.1081652E+03  0.7561462E-02  0.1264006E+00
          1   -1    0    0  501    0  0.00000000000E+00  0.00000000000E+00  0.71012663944E+02  0.71012663944E+02  0.00000000000E+00 0. -1.
         -1   -1    0    0    0  501 -0.00000000000E+00 -0.00000000000E+00 -0.20527967473E+03  0.20527967473E+03  0.00000000000E+00 0.  1.
         23    2    1    2    0    0  0.10310777268E+02 -0.55067598581E+02 -0.61865609936E+02  0.14713826788E+03  0.12117575517E+03 0.  0.
          5    1    3    3  502    0  0.51570255177E+02 -0.83050835868E+01  0.84287799520E+01  0.53075251897E+02  0.41800000000E+01 0. -1.
         -5    1    3    3    0  502 -0.41259477909E+02 -0.46762514994E+02 -0.70294389888E+02  0.94063015982E+02  0.41800000000E+01 0.  1.
        -11    1    1    2    0    0 -0.74718107335E+01  0.77980756427E+02 -0.71478656268E+02  0.10604727545E+03  0.00000000000E+00 0.  1.
         11    1    1    2    0    0 -0.28389665348E+01 -0.22913157846E+02 -0.92274457969E+00  0.23106795343E+02  0.00000000000E+00 0. -1.
</event>
<event>
 7    1  0.8661710E-006  0.1304558E+03  0.7561462E-02  0.1226781E+00
         -2   -1    0    0    0  501 -0.00000000000E+00  0.00000000000E+00  0.71505383221E+03  0.71505383221E+03  0.00000000000E+00 0.  1.
          2   -1    0    0  501    0  0.00000000000E+00 -0.00000000000E+00 -0.35414392646E+02  0.35414392646E+02  0.00000000000E+00 0. -1.
         23    2    1    2    0    0  0.70276744557E+02 -0.63531649453E+02  0.52466719229E+03  0.54763535133E+03  0.12511484344E+03 0.  0.
          5    1    3    3  502    0  0.55882311390E+02  0.13217117459E+02  0.36863575301E+03  0.37310496608E+03  0.41800000000E+01 0. -1.
         -5    1    3    3    0  502  0.14394433167E+02 -0.76748766912E+02  0.15603143929E+03  0.17453038525E+03  0.41800000000E+01 0. -1.
        -11    1    1    2    0    0 -0.88680976010E+02  0.57825271866E+02  0.10427750534E+03  0.14859971633E+03  0.00000000000E+00 0.  1.
         11    1    1    2    0    0  0.18404231453E+02  0.57063775869E+01  0.50694741924E+02  0.54233157195E+02  0.00000000000E+00 0. -1.
</event>
<event>
 7    1  0.8661710E-006  0.1348411E+03  0.7561462E-02  0.1220444E+00
          2   -1    0    0  501    0  0.00000000000E+00  0.00000000000E+00  0.73129860755E+02  0.73129860755E+02  0.00000000000E+00 0. -1.
         -2   -1    0    0    0  501 -0.00000000000E+00 -0.00000000000E+00 -0.26906970771E+03  0.26906970771E+03  0.00000000000E+00 0.  1.
         23    2    1    2    0    0 -0.89219739745E+02  0.56826957973E+01 -0.12325097273E+03  0.19705482217E+03  0.12508935075E+03 0.  0.
          5    1    3    3  502    0  0.12971581294E+02 -0.32480289486E+02 -0.63480763547E+02  0.72598284187E+02  0.41800000000E+01 0.  1.
         -5    1    3    3    0  502 -0.10219132104E+03  0.38162985283E+02 -0.59770209181E+02  0.12445653798E+03  0.41800000000E+01 0.  1.
        -11    1    1    2    0    0  0.65519516751E+02  0.37894296685E+02 -0.49073803835E+02  0.90205448945E+02  0.00000000000E+00 0. -1.
         11    1    1    2    0    0  0.23700222994E+02 -0.43576992482E+02 -0.23615070394E+02  0.54939297351E+02  0.00000000000E+00 0.  1.
</event>
<event>
 7    1  0.8661710E-006  0.1291059E+03  0.7561462E-02  0.1228789E+00
          3   -1    0    0  501    0  0.00000000000E+00  0.00000000000E+00  0.84311415383E+02  0.84311415383E+02  0.00000000000E+00 0. -1.
         -3   -1    0    0    0  501 -0.00000000000E+00 -0.00000000000E+00 -0.30950322399E+03  0.30950322399E+03  0.00000000000E+00 0.  1.
         23    2    1    2    0    0  0.10234504964E+03 -0.12159303239E+02 -0.19489914345E+03  0.25348633991E+03  0.12508913046E+03 0.  0.
          5    1    3    3  502    0  0.10290745987E+03  0.28421983386E+02 -0.18137313059E+03  0.21050282500E+03  0.41800000000E+01 0.  1.
         -5    1    3    3    0  502 -0.56241022487E+00 -0.40581286625E+02 -0.13526012868E+02  0.42983514904E+02  0.41800000000E+01 0.  1.
        -11    1    1    2    0    0 -0.89144911941E+02  0.24551786316E+02 -0.56585521603E+02  0.10840445928E+03  0.00000000000E+00 0.  1.
         11    1    1    2    0    0 -0.13200137700E+02 -0.12392483077E+02  0.26292856449E+02  0.31923840188E+02  0.00000000000E+00 0. -1.
</event>
<event>
 7    1  0.8661710E-006  0.1380617E+03  0.7561462E-02  0.1215961E+00
         -1   -1    0    0    0  501 -0.00000000000E+00  0.00000000000E+00  0.41524565056E+02  0.41524565056E+02  0.00000000000E+00 0.  1.
          1   -1    0    0  501    0  0.00000000000E+00 -0.00000000000E+00 -0.53077170905E+03  0.53077170905E+03  0.00000000000E+00 0. -1.
         23    2    1    2    0    0 -0.90243670933E+02 -0.19943536228E+02 -0.19006939243E+03  0.24564064789E+03  0.12518501979E+03 0.  0.
          5    1    3    3  502    0  0.30044249422E+02 -0.17345151843E+02 -0.49029570647E+02  0.60206996385E+02  0.41800000000E+01 0. -1.
         -5    1    3    3    0  502 -0.12028792035E+03 -0.25983843849E+01 -0.14103982178E+03  0.18543365151E+03  0.41800000000E+01 0. -1.
        -11    1    1    2    0    0  0.81026278553E+02 -0.16936857441E+02 -0.13686331945E+03  0.15994900177E+03  0.00000000000E+00 0.  1.
         11    1    1    2    0    0  0.92173923800E+01  0.36880393669E+02 -0.16231443211E+03  0.16670662444E+03  0.00000000000E+00 0. -1.
</event>
<event>
 7    1  0.8661710E-006  0.1338166E+03  0.7561462E-02  0.1221900E+00
         -2   -1    0    0    0  501 -0.00000000000E+00  0.00000000000E+00  0.89633663782E+02  0.89633663782E+02  0.00000000000E+00 0.  1.
          2   -1    0    0  501    0  0.00000000000E+00 -0.00000000000E+00 -0.23685390025E+03  0.23685390025E+03  0.00000000000E+00 0. -1.
         23    2    1    2    0    0  0.61002331425E+02 -0.70009277553E+02 -0.50771304656E+02  0.16383181916E+03  0.12506220936E+03 0.  0.
          5    1    3    3  502    0  0.78693150837E+02  0.41960933811E+01 -0.32023677674E+02  0.85165764953E+02  0.41800000000E+01 0.  1.
         -5    1    3    3    0  502 -0.17690819412E+02 -0.74205370934E+02 -0.18747626982E+02  0.78666054206E+02  0.41800000000E+01 0.  1.
        -11    1    1    2    0    0  0.61735466399E+01  0.36924033196E+02 -0.76490073997E+02  0.85160016003E+02  0.00000000000E+00 0. -1.
         11    1    1    2    0    0 -0.67175878065E+02  0.33085244357E+02 -0.19958857816E+02  0.77495728871E+02  0.00000000000E+00 0.  1.
</event>
<event>
 6    1  0.8661710E-006  0.1393234E+03  0.7561462E-02  0.1214242E+00
          4   -1    0    0  501    0  0.00000000000E+00  0.00000000000E+00  0.18144777013E+03  0.18144777013E+03  0.00000000000E+00 0. -1.
         -4   -1    0    0    0  501 -0.00000000000E+00 -0.00000000000E+00 -0.20170423928E+03  0.20170423928E+03  0.00000000000E+00 0.  1.
          5    1    1    2  502    0  0.76708125721E+02 -0.34822769115E+01  0.68424648884E+01  0.77204627645E+02  0.41800000000E+01 0. -1.
         -5    1    1    2    0  502  0.12501894057E+02 -0.59081630517E+02 -0.12173189491E+03  0.13595242940E+03  0.41800000000E+01 0.  1.
        -11    1    1    2    0    0 -0.51302398180E+01  0.56695762887E+02  0.39014677907E+02  0.69013578244E+02  0.00000000000E+00 0.  1.
         11    1    1    2    0    0 -0.84079779960E+02  0.58681445417E+01  0.55618282966E+02  0.10098137412E+03  0.00000000000E+00 0. -1.
</event>
<event>
 7    1  0.8661710E-006  0.1065766E+03  0.7561462E-02  0.1267044E+00
          4   -1    0    0  501    0  0.00000000000E+00  0.00000000000E+00  0.71177642120E+02  0.71177642120E+02  0.00000000000E+00 0. -1.
         -4   -1    0    0    0  501 -0.00000000000E+00 -0.00000000000E+00 -0.21492447583E+03  0.21492447583E+03  0.00000000000E+00 0.  1.
         23    2    1    2    0    0 -0.33145720910E+02  0.42921732944E+02 -0.10460609178E+03  0.17185407596E+03  0.12510185856E+03 0.  0.
          5    1    3    3  502    0 -0.30259366478E+02 -0.34624813540E+02 -0.63927798061E+01  0.46613807032E+02  0.41800000000E+01 0.  1.
         -5    1    3    3    0  502 -0.28863544326E+01  0.77546546485E+02 -0.98213311969E+02  0.12524026893E+03  0.41800000000E+01 0.  1.
        -11    1    1    2    0    0 -0.17337593188E+02  0.65983209991E+01 -0.39380752143E+02  0.43531294684E+02  0.00000000000E+00 0.  1.
         11    1    1    2    0    0  0.50483314098E+02 -0.49520053943E+02  0.24001020405E+00  0.70716747308E+02  0.00000000000E+00 0. -1.
</event>
<event>
 7    1  0.8661710E-006  0.2635820E+02  0.7561462E-02  0.1642227E+00
         -1   -1    0    0    0  501 -0.00000000000E+00  0.00000000000E+00  0.31732967601E+02  0.31732967601E+02  0.00000000000E+00 0.  1.
          1   -1    0    0  501    0  0.00000000000E+00 -0.00000000000E+00 -0.32430526213E+03  0.32430526213E+03  0.00000000000E+00 0. -1.
         23    2    1    2    0    0 -0.22193969868E+01 -0.12137083416E+02 -0.18596503076E+03  0.22445998028E+03  0.12508819115E+03 0.  0.
          5    1    3    3  502    0 -0.60345212171E+01 -0.76729238932E+01  0.17714226605E+02  0.20653218433E+02  0.41800000000E+01 0. -1.
         -5    1    3    3    0  502  0.38151242303E+01 -0.44641595229E+01 -0.20367925736E+03  0.20380676184E+03  0.41800000000E+01 0. -1.
        -11    1    1    2    0    0 -0.24692616755E+01 -0.11004232035E+02  0.84695910614E+01  0.14104054334E+02  0.00000000000E+00 0.  1.
         11    1    1    2    0    0  0.46886586623E+01  0.23141315452E+02 -0.11507685483E+03  0.11747419511E+03  0.00000000000E+00 0. -1.
</event>
<event>
 7    1  0.8661710E-006  0.2626684E+03  0.7561462E-02  0.1105551E+00
         -1   -1    0    0    0  501 -0.00000000000E+00  0.00000000000E+00  0.39587045760E+03  0.39587045760E+03  0.00000000000E+00 0.  1.
          1   -1    0    0  501    0  0.00000000000E+00 -0.00000000000E+00 -0.19625186024E+03  0.19625186024E+03  0.00000000000E+00 0. -1.
         23    2    1    2    0    0  0.23877210965E+03  0.87255828741E+02  0.13905793717E+03  0.31560951959E+03  0.12508620615E+03 0.  0.
          5    1    3    3  502    0  0.54962413637E+02 -0.16716212627E+02 -0.81207948348E+01  0.58169737718E+02  0.41800000000E+01 0. -1.
         -5    1    3    3    0  502  0.18380969601E+03  0.10397204137E+03  0.14717873200E+03  0.25743978187E+03  0.41800000000E+01 0. -1.
        -11    1    1    2    0    0 -0.13473968416E+03 -0.31044646179E+02  0.75143990978E+02  0.15736953938E+03  0.00000000000E+00 0. -1.
         11    1    1    2    0    0 -0.10403242549E+03 -0.56211182562E+02 -0.14583330787E+02  0.11914325887E+03  0.00000000000E+00 0.  1.
</event>
<event>
 7    1  0.8661710E-006  0.1689239E+03  0.7561462E-02  0.1178975E+00
         -2   -1    0    0    0  501 -0.00000000000E+00  0.00000000000E+00  0.94588030947E+02  0.94588030947E+02  0.00000000000E+00 0.  1.
          2   -1    0    0  501    0  0.00000000000E+00 -0.00000000000E+00 -0.45830965964E+03  0.45830965964E+03  0.00000000000E+00 0. -1.
         23    2    1    2    0    0  0.16756787966E+03  0.14434080446E+02 -0.11793584404E+03  0.24050536708E+03  0.12508649533E+03 0.  0.
          5    1    3    3  502    0  0.15776391315E+03  0.11734741746E+02 -0.14290133039E+03  0.21322621575E+03  0.41800000000E+01 0.  1.
         -5    1    3    3    0  502  0.98039665089E+01  0.26993387001E+01  0.24965486349E+02  0.27279151331E+02  0.41800000000E+01 0.  1.
        -11    1    1    2    0    0 -0.84822682415E+02 -0.13202662359E+02 -0.20039320245E+03  0.21800603967E+03  0.00000000000E+00 0. -1.
         11    1    1    2    0    0 -0.82745197244E+02 -0.12314180864E+01 -0.45392582206E+02  0.94386283838E+02  0.00000000000E+00 0.  1.
</event>
<event>
 7    1  0.8661710E-006  0.6962790E+02  0.7561462E-02  0.1361363E+00
          2   -1    0    0  501    0  0.00000000000E+00  0.00000000000E+00  0.21276033677E+02  0.21276033677E+02  0.00000000000E+00 0. -1.
         -2   -1    0    0    0  501 -0.00000000000E+00 -0.00000000000E+00 -0.65141495836E+03  0.65141495836E+03  0.00000000000E+00 0.  1.
         23    2    1    2    0    0  0.39238900976E+01 -0.33405820413E+02 -0.40695512305E+03  0.42707272337E+03  0.12508914069E+03 0.  0.
          5    1    3    3  502    0 -0.24657563540E+02 -0.33220026067E+02 -0.36016702331E+02  0.55011279011E+02  0.41800000000E+01 0.  1.
         -5    1    3    3    0  502  0.28581453638E+02 -0.18579434671E+00 -0.37093842072E+03  0.37206144436E+03  0.41800000000E+01 0.  1.
        -11    1    1    2    0    0  0.18608413886E+01  0.50606470319E+02 -0.22170028104E+03  0.22741040474E+03  0.00000000000E+00 0.  1.
         11    1    1    2    0    0 -0.57847314861E+01 -0.17200649906E+02 -0.14835205881E+01  0.18207863930E+02  0.00000000000E+00 0. -1.
</event>
<event>
 7    1  0.8661710E-006  0.1273403E+03  0.7561462E-02  0.1231456E+00
         -1   -1    0    0    0  501 -0.00000000000E+00  0.00000000000E+00  0.15213626663E+03  0.15213626663E+03  0.00000000000E+00 0.  1.
          1   -1    0    0  501    0  0.00000000000E+00 -0.00000000000E+00 -0.13023468329E+03  0.13023468329E+03  0.00000000000E+00 0. -1.
         23    2    1    2    0    0  0.72317429087E+02 -0.12022150781E+02  0.68035988797E+02  0.16016273330E+03  0.12509541441E+03 0.  0.
          5    1    3    3  502    0 -0.28723325176E+02  0.23683475044E+02  0.13269530183E+02  0.39742788410E+02  0.41800000000E+01 0. -1.
         -5    1    3    3    0  502  0.10104075426E+03 -0.35705625825E+02  0.54766458614E+02  0.12041994489E+03  0.41800000000E+01 0. -1.
        -11    1    1    2    0    0 -0.68754026798E+02  0.41481832388E+02 -0.45984524444E+02  0.92533426974E+02  0.00000000000E+00 0. -1.
         11    1    1    2    0    0 -0.35634022892E+01 -0.29459681606E+02 -0.14988101512E+00  0.29674789646E+02  0.00000000000E+00 0.  1.
</event>
<event>
 7    1  0.8661710E-006  0.1387014E+03  0.7561462E-02  0.1215087E+00
          1   -1    0    0  501    0  0.00000000000E+00  0.00000000000E+00  0.38741804670E+03  0.38741804670E+03  0.00000000000E+00 0. -1.
         -1   -1    0    0    0  501 -0.00000000000E+00 -0.00000000000E+00 -0.55276908490E+02  0.55276908490E+02  0.00000000000E+00 0.  1.
         23    2    1    2    0    0 -0.67341782204E+02  0.59374606994E+02  0.24472064727E+03  0.28913067036E+03  0.12509232491E+03 0.  0.
          5    1    3    3  502    0 -0.95552475744E+02  0.72415823471E+02  0.21340371184E+03  0.24481205799E+03  0.41800000000E+01 0. -1.
         -5    1    3    3    0  502  0.28210693540E+02 -0.13041216476E+02  0.31316935432E+02  0.44318612366E+02  0.41800000000E+01 0. -1.
        -11    1    1    2    0    0  0.79486010035E+02 -0.16058848847E+02  0.60058722869E+02  0.10091066648E+03  0.00000000000E+00 0.  1.
         11    1    1    2    0    0 -0.12144227831E+02 -0.43315758147E+02  0.27361768063E+02  0.52653618347E+02  0.00000000000E+00 0. -1.
</event>
<event>
 7    1  0.8661710E-006  0.1256793E+03  0.7561462E-02  0.1234012E+00
         -2   -1    0    0    0  501 -0.00000000000E+00  0.00000000000E+00  0.46772647737E+03  0.46772647737E+03  0.00000000000E+00 0.  1.
          2   -1    0    0  501    0  0.00000000000E+00 -0.00000000000E+00 -0.36676671310E+02  0.36676671310E+02  0.00000000000E+00 0. -1.
         23    2    1    2    0    0 -0.30110565081E+02 -0.65641261998E+02  0.28556266307E+03  0.32001556346E+03  0.12509398432E+03 0.  0.
          5    1    3    3  502    0  0.28145837618E+02  0.24149535919E+02  0.75197059730E+02  0.83949142058E+02  0.41800000000E+01 0. -1.
         -5    1    3    3    0  502 -0.58256402698E+02 -0.89790797917E+02  0.21036560334E+03  0.23606642140E+03  0.41800000000E+01 0. -1.
        -11    1    1    2    0    0  0.41879621550E+02  0.17076547177E+01  0.28934812554E+02  0.50931740235E+02  0.00000000000E+00 0. -1.
         11    1    1    2    0    0 -0.11769056469E+02  0.63933607280E+02  0.11655233043E+03  0.13345584498E+03  0.00000000000E+00 0.  1.
</event>
<event>
 7    1  0.8661710E-006  0.2632573E+03  0.7561462E-02  0.1105202E+00
         -2   -1    0    0    0  501 -0.00000000000E+00  0.00000000000E+00  0.62837451672E+02  0.62837451672E+02  0.00000000000E+00 0. -1.
          2   -1    0    0  501    0  0.00000000000E+00 -0.00000000000E+00 -0.12820659169E+04  0.12820659169E+04  0.00000000000E+00 0.  1.
         23    2    1    2    0    0 -0.23689644666E+03  0.10278125860E+03 -0.52086273168E+03  0.59466770997E+03  0.12509111265E+03 0.  0.
          5    1    3    3  502    0 -0.15195579108E+03  0.83454649513E+02 -0.45012524471E+03  0.48237480168E+03  0.41800000000E+01 0.  1.
         -5    1    3    3    0  502 -0.84940655585E+02  0.19326609091E+02 -0.70737486974E+02  0.11229290830E+03  0.41800000000E+01 0.  1.
        -11    1    1    2    0    0  0.10641303173E+03 -0.80693274624E+02 -0.44188597126E+03  0.46162576779E+03  0.00000000000E+00 0.  1.
         11    1    1    2    0    0  0.13048341494E+03 -0.22087983980E+02 -0.25647976224E+03  0.28860989076E+03  0.00000000000E+00 0. -1.
</event>
<event>
 6    1  0.8661710E-006  0.1211719E+03  0.7561462E-02  0.1241176E+00
         -2   -1    0    0    0  501 -0.00000000000E+00  0.00000000000E+00  0.45053417664E+02  0.45053417664E+02  0.00000000000E+00 0.  1.
          2   -1    0    0  501    0  0.00000000000E+00 -0.00000000000E+00 -0.36402353030E+03  0.36402353030E+03  0.00000000000E+00 0. -1.
          5    1    1    2  502    0 -0.74040510692E+02 -0.56434110700E+02 -0.12914909801E+03  0.15926006402E+03  0.41800000000E+01 0. -1.
         -5    1    1    2    0  502  0.46140316917E+02  0.31441296668E+02 -0.34231752358E+02  0.65625979999E+02  0.41800000000E+01 0.  1.
        -11    1    1    2    0    0 -0.30923611346E+02  0.83858085905E+01 -0.27335451807E+02  0.42116724112E+02  0.00000000000E+00 0.  1.
         11    1    1    2    0    0  0.58823805122E+02  0.16607005442E+02 -0.12825381046E+03  0.14207417984E+03  0.00000000000E+00 0. -1.
</event>
<event>
 7    1  0.8661710E-006  0.9374962E+02  0.7561462E-02  0.1294017E+00
         -2   -1    0    0    0  501 -0.00000000000E+00  0.00000000000E+00  0.23222696388E+02  0.23222696388E+02  0.00000000000E+00 0.  1.
          2   -1    0    0  501    0  0.00000000000E+00 -0.00000000000E+00 -0.57184069719E+03  0.57184069719E+03  0.00000000000E+00 0. -1.
         23    2    1    2    0    0  0.61452347903E+01  0.73318061055E+01 -0.20471018689E+03  0.24009594708E+03  0.12509310091E+03 0.  0.
          5    1    3    3  502    0  0.52720790231E+02 -0.53334912216E+01 -0.17584059670E+03  0.18369898121E+03  0.41800000000E+01 0. -1.
         -5    1    3    3    0  502 -0.46575555441E+02  0.12665297327E+02 -0.28869590192E+02  0.56396965866E+02  0.41800000000E+01 0. -1.
        -11    1    1    2    0    0 -0.12406998701E+02  0.38082828012E+02 -0.19862514421E+03  0.20262325463E+03  0.00000000000E+00 0.  1.
         11    1    1    2    0    0  0.62617639105E+01 -0.45414634118E+02 -0.14528266970E+03  0.15234419187E+03  0.00000000000E+00 0. -1.
</event>
<event>
 7    1  0.8661710E-006  0.2384527E+03  0.7561462E-02  0.1120828E+00
         -4   -1    0    0    0  501 -0.00000000000E+00  0.00000000000E+00  0.20559624643E+03  0.20559624643E+03  0.00000000000E+00 0.  1.
          4   -1    0    0  501    0  0.00000000000E+00 -0.00000000000E+00 -0.34290365414E+03  0.34290365414E+03  0.00000000000E+00 0. -1.
         23    2    1    2    0    0  0.37932303041E+02  0.22087649995E+03  0.34640428255E+02  0.25898475192E+03  0.12509138504E+03 0.  0.
          5    1    3    3  502    0  0.63692315823E+02  0.20637681807E+03  0.54919700252E+02  0.22289402865E+03  0.41800000000E+01 0.  1.
         -5    1    3    3    0  502 -0.25760012782E+02  0.14499681874E+02 -0.20279271997E+02  0.36090723264E+02  0.41800000000E+01 0.  1.
        -11    1    1    2    0    0  0.33014687602E+01 -0.14187961630E+03 -0.12324945995E+03  0.18796583359E+03  0.00000000000E+00 0. -1.
         11    1    1    2    0    0 -0.41233771801E+02 -0.78996883648E+02 -0.48698376024E+02  0.10154931507E+03  0.00000000000E+00 0.  1.
</event>
<event>
 6    1  0.8661710E-006  0.1157452E+03  0.7561462E-02  0.1250286E+00
          2   -1    0    0  501    0  0.00000000000E+00  0.00000000000E+00  0.29511839075E+03  0.29511839075E+03  0.00000000000E+00 0. -1.
         -2   -1    0    0    0  501 -0.00000000000E+00 -0.00000000000E+00 -0.64245008632E+02  0.64245008632E+02  0.00000000000E+00 0.  1.
          5    1    1    2  502    0  0.97239752398E+02  0.20477102583E+02  0.11682663973E+03  0.15343017085E+03  0.41800000000E+01 0. -1.
         -5    1    1    2    0  502 -0.31108735204E+02  0.35331735767E+01 -0.13200312642E+02  0.34233862993E+02  0.41800000000E+01 0.  1.
        -11    1    1    2    0    0  0.14101879946E+02 -0.13505599818E+02  0.69756897577E+02  0.72438173665E+02  0.00000000000E+00 0. -1.
         11    1    1    2    0    0 -0.80232897140E+02 -0.10504676342E+02  0.57490157457E+02  0.99261191877E+02  0.00000000000E+00 0.  1.
</event>
<event>
 7    1  0.8661710E-006  0.2361594E+03  0.7561462E-02  0.1122378E+00
         -2   -1    0    0    0  501 -0.00000000000E+00  0.00000000000E+00  0.69777251088E+02  0.69777251088E+02  0.00000000000E+00 0.  1.
          2   -1    0    0  501    0  0.00000000000E+00 -0.00000000000E+00 -0.10199577593E+04  0.10199577593E+04  0.00000000000E+00 0. -1.
         23    2    1    2    0    0 -0.10588035421E+01 -0.21770630137E+03 -0.26495646053E+03  0.36501939626E+03  0.12506030124E+03 0.  0.
          5    1    3    3  502    0  0.39590788009E+02 -0.17342294118E+03 -0.14040693251E+03  0.22665949378E+03  0.41800000000E+01 0. -1.
         -5    1    3    3    0  502 -0.40649591551E+02 -0.44283360188E+02 -0.12454952803E+03  0.13835990248E+03  0.41800000000E+01 0. -1.
        -11    1    1    2    0    0  0.34699117492E+02  0.18117285344E+03 -0.57387488542E+03  0.60279350999E+03  0.00000000000E+00 0.  1.
         11    1    1    2    0    0 -0.33640313950E+02  0.36533447936E+02 -0.11134916229E+03  0.12192210416E+03  0.00000000000E+00 0. -1.
</event>
<event>
 7    1  0.8661710E-006  0.1125504E+03  0.7561462E-02  0.1255918E+00
          2   -1    0    0  501    0  0.00000000000E+00  0.00000000000E+00  0.12774571673E+03  0.12774571673E+03  0.00000000000E+00 0. -1.
         -2   -1    0    0    0  501 -0.00000000000E+00 -0.00000000000E+00 -0.11339774219E+03  0.11339774219E+03  0.00000000000E+00 0.  1.
         23    2    1    2    0    0 -0.50681496323E+02  0.14265831561E+02  0.17033094882E+02  0.13678347412E+03  0.12508982553E+03 0.  0.
          5    1    3    3  502    0 -0.38633175907E+02  0.61304672362E+02  0.40034312327E+02  0.82891517646E+02  0.41800000000E+01 0. -1.
         -5    1    3    3    0  502 -0.12048320416E+02 -0.47038840801E+02 -0.23001217445E+02  0.53891956475E+02  0.41800000000E+01 0. -1.
        -11    1    1    2    0    0 -0.25483617659E+02 -0.10381389285E+02 -0.54248170750E+01  0.28046687019E+02  0.00000000000E+00 0.  1.
         11    1    1    2    0    0  0.76165113982E+02 -0.38844422763E+01  0.27396967377E+01  0.76313297779E+02  0.00000000000E+00 0. -1.
</event>
<event>
 7    1  0.8661710E-006  0.1084165E+03  0.7561462E-02  0.1263531E+00
          1   -1    0    0  501    0  0.00000000000E+00  0.00000000000E+00  0.77980193250E+03  0.77980193250E+03  0.00000000000E+00 0. -1.
         -1   -1    0    0    0  501 -0.00000000000E+00 -0.00000000000E+00 -0.15670659682E+02  0.15670659682E+02  0.00000000000E+00 0.  1.
         23    2    1    2    0    0  0.51933117039E+00 -0.21520837345E+02  0.41560287406E+03  0.43455464991E+03  0.12509427921E+03 0.  0.
          5    1    3    3  502    0 -0.61817176202E+02 -0.67786932207E+01  0.18725376631E+03  0.19735440039E+03  0.41800000000E+01 0.  1.
         -5    1    3    3    0  502  0.62336507373E+02 -0.14742144124E+02  0.22834910774E+03  0.23720024952E+03  0.41800000000E+01 0.  1.
        -11    1    1    2    0    0  0.23265223821E+02 -0.27382934994E+02  0.18872340008E+03  0.19211355368E+03  0.00000000000E+00 0. -1.
         11    1    1    2    0    0 -0.23784554992E+02  0.48903772339E+02  0.15980499868E+03  0.16880438859E+03  0.00000000000E+00 0.  1.
</event>
<event>
 7    1  0.8661710E-006  0.1589946E+03  0.7561462E-02  0.1189837E+00
          2   -1    0    0  501    0  0.00000000000E+00  0.00000000000E+00  0.71737772692E+03  0.71737772692E+03  0.00000000000E+00 0. -1.
         -2   -1    0    0    0  501 -0.00000000000E+00 -0.00000000000E+00 -0.37171223716E+02  0.37171223716E+02  0.00000000000E+00 0.  1.
         23    2    1    2    0    0 -0.57514665574E+02  0.10443969154E+03  0.30438500216E+03  0.35001856314E+03  0.12508868485E+03 0.  0.
          5    1    3    3  502    0 -0.93320572244E+02  0.91420284286E+02  0.20102530423E+03  0.23978123972E+03  0.41800000000E+01 0. -1.
         -5    1    3    3    0  502  0.35805906670E+02  0.13019407253E+02  0.10335969793E+03  0.11023732342E+03  0.41800000000E+01 0. -1.
        -11    1    1    2    0    0  0.67723909560E+02 -0.11550816636E+03  0.34844137504E+03  0.37328281002E+03  0.00000000000E+00 0. -1.
         11    1    1    2    0    0 -0.10209243987E+02  0.11068474824E+02  0.27380126005E+02  0.31247577470E+02  0.00000000000E+00 0.  1.
</event>
<event>
 7    1  0.8661710E-006  0.1242381E+03  0.7561462E-02  0.1236265E+00
         -1   -1    0    0    0  501 -0.00000000000E+00  0.00000000000E+00  0.36877635742E+02  0.36877635742E+02  0.00000000000E+00 0.  1.
          1   -1    0    0  501    0  0.00000000000E+00 -0.00000000000E+00 -0.60927580060E+03  0.60927580060E+03  0.00000000000E+00 0. -1.
         23    2    1    2    0    0  0.25548374425E+01 -0.10172669078E+03 -0.29369188895E+03  0.33504945126E+03  0.12509341447E+03 0.  0.
          5    1    3    3  502    0 -0.16686048927E+02 -0.10097087319E+02 -0.20515184851E+03  0.20611921005E+03  0.41800000000E+01 0. -1.
         -5    1    3    3    0  502  0.19240886370E+02 -0.91629603465E+02 -0.88540040436E+02  0.12893024122E+03  0.41800000000E+01 0. -1.
        -11    1    1    2    0    0 -0.43142749908E+02  0.30519629799E+02 -0.14436715428E+03  0.15373555187E+03  0.00000000000E+00 0.  1.
         11    1    1    2    0    0  0.40587912465E+02  0.71207060985E+02 -0.13433912163E+03  0.15736843321E+03  0.00000000000E+00 0. -1.
</event>
<event>
 7    1  0.8661710E-006  0.1056207E+03  0.7561462E-02  0.1268902E+00
          1   -1    0    0  501    0  0.00000000000E+00  0.00000000000E+00  0.98037532998E+02  0.98037532998E+02  0.00000000000E+00 0. -1.
         -1   -1    0    0    0  501 -0.00000000000E+00 -0.00000000000E+00 -0.15910024882E+03  0.15910024882E+03  0.00000000000E+00 0.  1.
         23    2    1    2    0    0 -0.15438295417E+02 -0.49060718715E+02 -0.71459297703E+02  0.15296823585E+03  0.12509018692E+03 0.  0.
          5    1    3    3  502    0 -0.64364607688E+02 -0.40770816078E+02 -0.15146349548E+02  0.77794257315E+02  0.41800000000E+01 0.  1.
         -5    1    3    3    0  502  0.48926312272E+02 -0.82899026364E+01 -0.56312948155E+02  0.75173978531E+02  0.41800000000E+01 0.  1.
        -11    1    1    2    0    0 -0.19960713467E+02  0.45343786930E+02  0.35210238928E+02  0.60780342386E+02  0.00000000000E+00 0. -1.
         11    1    1    2    0    0  0.35399008883E+02  0.37169317846E+01 -0.24813657047E+02  0.43389203586E+02  0.00000000000E+00 0.  1.
</event>
<event>
 7    1  0.8661710E-006  0.1105522E+03  0.7561462E-02  0.1259551E+00
         -2   -1    0    0    0  501 -0.00000000000E+00  0.00000000000E+00  0.64858487473E+03  0.64858487473E+03  0.00000000000E+00 0.  1.
          2   -1    0    0  501    0  0.00000000000E+00 -0.00000000000E+00 -0.34426711399E+02  0.34426711399E+02  0.00000000000E+00 0. -1.
         23    2    1    2    0    0 -0.16766725331E+01 -0.41901934133E+02  0.55010922409E+03  0.56570763507E+03  0.12508551726E+03 0.  0.
          5    1    3    3  502    0  0.36748267527E+02  0.26929454081E+02  0.29907029589E+03  0.30254940910E+03  0.41800000000E+01 0.  1.
         -5    1    3    3    0  502 -0.38424940060E+02 -0.68831388214E+02  0.25103892820E+03  0.26315822597E+03  0.41800000000E+01 0.  1.
        -11    1    1    2    0    0  0.31595680794E+02  0.55253872581E+02  0.31110939698E+02  0.70846087041E+02  0.00000000000E+00 0. -1.
         11    1    1    2    0    0 -0.29919008260E+02 -0.13351938448E+02  0.32937999541E+02  0.46457864021E+02  0.00000000000E+00 0.  1.
</event>
<event>
 7    1  0.8661710E-006  0.1294144E+03  0.7561462E-02  0.1228327E+00
         -1   -1    0    0    0  501 -0.00000000000E+00  0.00000000000E+00  0.35860717870E+03  0.35860717870E+03  0.00000000000E+00 0. -1.
          1   -1    0    0  501    0  0.00000000000E+00 -0.00000000000E+00 -0.71647425013E+02  0.71647425013E+02  0.00000000000E+00 0.  1.
         23    2    1    2    0    0  0.64569043011E+02  0.75238512162E+02  0.24185848546E+03  0.28977775576E+03  0.12508247565E+03 0.  0.
          5    1    3    3  502    0  0.28569770646E+02 -0.16145938885E+02  0.15532827216E+03  0.15881205140E+03  0.41800000000E+01 0.  1.
         -5    1    3    3    0  502  0.35999272366E+02  0.91384451047E+02  0.86530213302E+02  0.13096570436E+03  0.41800000000E+01 0.  1.
        -11    1    1    2    0    0  0.16023352453E+02 -0.32453317317E+02  0.31970458387E+02  0.48291571088E+02  0.00000000000E+00 0. -1.
         11    1    1    2    0    0 -0.80592395464E+02 -0.42785194845E+02  0.13130809840E+02  0.92185276870E+02  0.00000000000E+00 0.  1.
</event>
<event>
 7    1  0.8661710E-006  0.1095487E+03  0.7561462E-02  0.1261408E+00
          2   -1    0    0  501    0  0.00000000000E+00  0.00000000000E+00  0.20944294083E+03  0.20944294083E+03  0.00000000000E+00 0. -1.
         -2   -1    0    0    0  501 -0.00000000000E+00 -0.00000000000E+00 -0.70916698596E+02  0.70916698596E+02  0.00000000000E+00 0.  1.
         23    2    1    2    0    0  0.15306577400E+01  0.45672190905E+02  0.40767358616E+02  0.13928590698E+03  0.12510113676E+03 0.  0.
          5    1    3    3  502    0  0.19811111660E+02 -0.37459110157E+02 -0.44498273166E+01  0.42812830345E+02  0.41800000000E+01 0.  1.
         -5    1    3    3    0  502 -0.18280453920E+02  0.83131301062E+02  0.45217185932E+02  0.96473076635E+02  0.41800000000E+01 0.  1.
        -11    1    1    2    0    0 -0.36650752156E+02 -0.42368702979E+02  0.27390614011E+02  0.62358883582E+02  0.00000000000E+00 0. -1.
         11    1    1    2    0    0  0.35120094416E+02 -0.33034879256E+01  0.70368269607E+02  0.78714848865E+02  0.00000000000E+00 0.  1.
</event>
<event>
 7    1  0.8661710E-006  0.1514319E+03  0.7561462E-02  0.1198724E+00
         -4   -1    0    0    0  501 -0.00000000000E+00  0.00000000000E+00  0.10298535919E+03  0.10298535919E+03  0.00000000000E+00 0.  1.
          4   -1    0    0  501    0  0.00000000000E+00 -0.00000000000E+00 -0.31474835999E+03  0.31474835999E+03  0.00000000000E+00 0. -1.
         23    2    1    2    0    0 -0.12712198329E+03  0.65129903419E+02 -0.10291232992E+03  0.21596243030E+03  0.12508765207E+03 0.  0.
          5    1    3    3  502    0 -0.91150217839E+02  0.26239712601E+02 -0.12621406574E+03  0.15793779636E+03  0.41800000000E+01 0. -1.
         -5    1    3    3    0  502 -0.35971765448E+02  0.38890190818E+02  0.23301735824E+02  0.58024633938E+02  0.41800000000E+01 0. -1.
        -11    1    1    2    0    0  0.61171194674E+01 -0.27332716474E+02  0.82438395750E+01  0.29196873657E+02  0.00000000000E+00 0.  1.
         11    1    1    2    0    0  0.12100486382E+03 -0.37797186945E+02 -0.11709451046E+03  0.17257441522E+03  0.00000000000E+00 0. -1.
</event>
<event>
 7    1  0.8661710E-006  0.2430495E+03  0.7561462E-02  0.1117778E+00
          2   -1    0    0  501    0  0.00000000000E+00  0.00000000000E+00  0.51363038179E+03  0.51363038179E+03  0.00000000000E+00 0. -1.
         -2   -1    0    0    0  501 -0.00000000000E+00 -0.00000000000E+00 -0.13667562222E+03  0.13667562222E+03  0.00000000000E+00 0.  1.
         23    2    1    2    0    0 -0.16418359722E+03 -0.16329809125E+03  0.11090741789E+03  0.28560462250E+03  0.12508806839E+03 0.  0.
          5    1    3    3  502    0 -0.76485853848E+02 -0.91619477190E+01  0.14401062866E+01  0.77159402739E+02  0.41800000000E+01 0. -1.
         -5    1    3    3    0  502 -0.87697743370E+02 -0.15413614353E+03  0.10946731160E+03  0.20844521976E+03  0.41800000000E+01 0. -1.
        -11    1    1    2    0    0  0.81170399346E+02  0.80890813107E+02  0.19964841640E+03  0.23019871317E+03  0.00000000000E+00 0. -1.
         11    1    1    2    0    0  0.83013197872E+02  0.82407278139E+02  0.66398925286E+02  0.13450266834E+03  0.00000000000E+00 0.  1.
</event>
<event>
 7    1  0.8661710E-006  0.7911342E+02  0.7561462E-02  0.1331586E+00
         -1   -1    0    0    0  501 -0.00000000000E+00  0.00000000000E+00  0.23782811114E+02  0.23782811114E+02  0.00000000000E+00 0.  1.
          1   -1    0    0  501    0  0.00000000000E+00 -0.00000000000E+00 -0.52504993006E+03  0.52504993006E+03  0.00000000000E+00 0. -1.
         23    2    1    2    0    0 -0.27797549249E+01 -0.25596729773E+02 -0.24685278905E+03  0.27793293930E+03  0.12508996632E+03 0.  0.
          5    1    3    3  502    0  0.13665290630E+02  0.19088837114E+02  0.25590687210E+01  0.23982183035E+02  0.41800000000E+01 0. -1.
         -5    1    3    3    0  502 -0.16445045555E+02 -0.44685566888E+02 -0.24941185777E+03  0.25395075626E+03  0.41800000000E+01 0. -1.
        -11    1    1    2    0    0  0.17031711618E+02  0.53013991836E+02 -0.20657985028E+03  0.21395279169E+03  0.00000000000E+00 0. -1.
         11    1    1    2    0    0 -0.14251956693E+02 -0.27417262063E+02 -0.47834479620E+02  0.56947010186E+02  0.00000000000E+00 0.  1.
</event>
<event>
 7    1  0.8661710E-006  0.1449480E+03  0.7561462E-02  0.1206822E+00
          2   -1    0    0  501    0  0.00000000000E+00  0.00000000000E+00  0.67110290386E+03  0.67110290386E+03  0.00000000000E+00 0. -1.
         -2   -1    0    0    0  501 -0.00000000000E+00 -0.00000000000E+00 -0.39045629093E+02  0.39045629093E+02  0.00000000000E+00 0.  1.
         23    2    1    2    0    0 -0.70302484128E+02  0.94117939853E+02  0.28542568176E+03  0.33304125120E+03  0.12509208334E+03 0.  0.
          5    1    3    3  502    0 -0.23458431202E+01 -0.29680525906E+02  0.43440466092E+02  0.52829755747E+02  0.41800000000E+01 0. -1.
         -5    1    3    3    0  502 -0.67956641008E+02  0.12379846576E+03  0.24198521567E+03  0.28021149545E+03  0.41800000000E+01 0. -1.
        -11    1    1    2    0    0  0.44174949890E+02 -0.45904728979E+02  0.68200062613E+02  0.93326946167E+02  0.00000000000E+00 0.  1.
         11    1    1    2    0    0  0.26127534238E+02 -0.48213210874E+02  0.27843153039E+03  0.28378033558E+03  0.00000000000E+00 0. -1.
</event>
<event>
 7    1  0.8661710E-006  0.9801634E+02  0.7561462E-02  0.1284523E+00
          2   -1    0    0  501    0  0.00000000000E+00  0.00000000000E+00  0.52138747502E+03  0.52138747502E+03  0.00000000000E+00 0. -1.
         -2   -1    0    0    0  501 -0.00000000000E+00 -0.00000000000E+00 -0.30936908104E+02  0.30936908104E+02  0.00000000000E+00 0.  1.
         23    2    1    2    0    0 -0.31915804013E+01 -0.29008284561E+02  0.13200695321E+03  0.18418729177E+03  0.12508979173E+03 0.  0.
          5    1    3    3  502    0  0.55858863967E+01  0.42427565234E+02  0.92436163379E+02  0.10194712904E+03  0.41800000000E+01 0.  1.
         -5    1    3    3    0  502 -0.87774667980E+01 -0.71435849794E+02  0.39570789833E+02  0.82240162738E+02  0.41800000000E+01 0.  1.
        -11    1    1    2    0    0  0.39001050670E+02  0.20807441326E+02  0.24304296803E+03  0.24703019224E+03  0.00000000000E+00 0. -1.
         11    1    1    2    0    0 -0.35809470269E+02  0.82008432341E+01  0.11540064567E+03  0.12110689911E+03  0.00000000000E+00 0.  1.
</event>
<event>
 7    1  0.8661710E-006  0.1004218E+03  0.7561462E-02  0.1279412E+00
          1   -1    0    0  501    0  0.00000000000E+00  0.00000000000E+00  0.27249240612E+03  0.27249240612E+03  0.00000000000E+00 0. -1.
         -1   -1    0    0    0  501 -0.00000000000E+00 -0.00000000000E+00 -0.48643941976E+02  0.48643941976E+02  0.00000000000E+00 0.  1.
         23    2    1    2    0    0 -0.40578403544E+02  0.10383161250E+02  0.12401281182E+03  0.18105834703E+03  0.12509408724E+03 0.  0.
          5    1    3    3  502    0 -0.62881765203E+02 -0.36573895271E+02  0.99775152539E+02  0.12354885542E+03  0.41800000000E+01 0.  1.
         -5    1    3    3    0  502  0.22303361659E+02  0.46957056521E+02  0.24237659283E+02  0.57509491616E+02  0.41800000000E+01 0.  1.
        -11    1    1    2    0    0  0.57674430260E+01  0.25315865641E+02  0.83754680993E+02  0.87686960492E+02  0.00000000000E+00 0. -1.
         11    1    1    2    0    0  0.34810960518E+02 -0.35699026891E+02  0.16080971328E+02  0.52391040570E+02  0.00000000000E+00 0.  1.
</event>
<event>
 7    1  0.8661710E-006  0.1135256E+03  0.7561462E-02  0.1254177E+00
         -1   -1    0    0    0  501 -0.00000000000E+00  0.00000000000E+00  0.10082528565E+03  0.10082528565E+03  0.00000000000E+00 0.  1.
          1   -1    0    0  501    0  0.00000000000E+00 -0.00000000000E+00 -0.15932354239E+03  0.15932354239E+03  0.00000000000E+00 0. -1.
         23    2    1    2    0    0  0.31154411542E+02 -0.20281332885E+02  0.23600898748E+02  0.13261634617E+03  0.12509261780E+03 0.  0.
          5    1    3    3  502    0  0.77942669967E+02  0.59890354337E+00  0.60274685773E+01  0.78289343237E+02  0.41800000000E+01 0. -1.
         -5    1    3    3    0  502 -0.46788258425E+02 -0.20880236428E+02  0.17573430171E+02  0.54327002933E+02  0.41800000000E+01 0. -1.
        -11    1    1    2    0    0  0.13614998441E+02  0.44605662371E+02 -0.39839123746E+02  0.61336686241E+02  0.00000000000E+00 0.  1.
         11    1    1    2    0    0 -0.44769409983E+02 -0.24324329486E+02 -0.42260031746E+02  0.66195795624E+02  0.00000000000E+00 0. -1.
</event>
<event>
 7    1  0.8661710E-006  0.1216662E+03  0.7561462E-02  0.1240373E+00
         -2   -1    0    0    0  501 -0.00000000000E+00  0.00000000000E+00  0.12284326848E+03  0.12284326848E+03  0.00000000000E+00 0. -1.
          2   -1    0    0  501    0  0.00000000000E+00 -0.00000000000E+00 -0.12536612230E+03  0.12536612230E+03  0.00000000000E+00 0.  1.
         23    2    1    2    0    0 -0.39946021071E+01  0.56105031720E+02  0.20846596658E+02  0.13866248963E+03  0.12501589502E+03 0.  0.
          5    1    3    3  502    0 -0.17561132361E+02  0.94456268566E+02  0.15871864098E+02  0.97466755928E+02  0.41800000000E+01 0.  1.
         -5    1    3    3    0  502  0.13566530254E+02 -0.38351236846E+02  0.49747325603E+01  0.41195733697E+02  0.41800000000E+01 0.  1.
        -11    1    1    2    0    0  0.47111876862E+02 -0.28009959165E+02 -0.18529126385E+02  0.57856851613E+02  0.00000000000E+00 0.  1.
         11    1    1    2    0    0 -0.43117274755E+02 -0.28095072555E+02 -0.48403240960E+01  0.51690049541E+02  0.00000000000E+00 0. -1.
</event>
<event>
 7    1  0.8661710E-006  0.1185365E+03  0.7561462E-02  0.1245531E+00
          2   -1    0    0  501    0  0.00000000000E+00  0.00000000000E+00  0.42474382278E+03  0.42474382278E+03  0.00000000000E+00 0. -1.
         -2   -1    0    0    0  501 -0.00000000000E+00 -0.00000000000E+00 -0.50757379165E+02  0.50757379165E+02  0.00000000000E+00 0.  1.
         23    2    1    2    0    0 -0.13953965515E+02  0.80217720537E+02  0.11212946557E+03  0.18668273723E+03  0.12509129262E+03 0.  0.
          5    1    3    3  502    0 -0.49800950429E+02 -0.86304126871E+01  0.22728331084E+02  0.55575787179E+02  0.41800000000E+01 0. -1.
         -5    1    3    3    0  502  0.35846984913E+02  0.88848133224E+02  0.89401134482E+02  0.13110695005E+03  0.41800000000E+01 0. -1.
        -11    1    1    2    0    0  0.26039610665E+02 -0.34818180298E+02  0.22484428480E+03  0.22900943083E+03  0.00000000000E+00 0. -1.
         11    1    1    2    0    0 -0.12085645150E+02 -0.45399540238E+02  0.37012693246E+02  0.59809033882E+02  0.00000000000E+00 0.  1.
</event>
<event>
 7    1  0.8661710E-006  0.4348112E+02  0.7561462E-02  0.1484053E+00
         -1   -1    0    0    0  501 -0.00000000000E+00  0.00000000000E+00  0.37841657122E+02  0.37841657122E+02  0.00000000000E+00 0.  1.
          1   -1    0    0  501    0  0.00000000000E+00 -0.00000000000E+00 -0.24346606740E+03  0.24346606740E+03  0.00000000000E+00 0. -1.
         23    2    1    2    0    0 -0.32853780080E+02  0.16137608824E+02 -0.12184339561E+03  0.17841802416E+03  0.12508950799E+03 0.  0.
          5    1    3    3  502    0 -0.26969550986E+02  0.18189970063E+02 -0.14780164586E+03  0.15139693065E+03  0.41800000000E+01 0. -1.
         -5    1    3    3    0  502 -0.58842290941E+01 -0.20523612391E+01  0.25958250250E+02  0.27021093515E+02  0.41800000000E+01 0. -1.
        -11    1    1    2    0    0  0.34838000914E+02 -0.48196333294E+01 -0.25385481831E+02  0.43374391764E+02  0.00000000000E+00 0.  1.
         11    1    1    2    0    0 -0.19842208340E+01 -0.11317975494E+02 -0.58395532845E+02  0.59515308601E+02  0.00000000000E+00 0. -1.
</event>
<event>
 7    1  0.8661710E-006  0.1021898E+03  0.7561462E-02  0.1275757E+00
          3   -1    0    0  501    0  0.00000000000E+00  0.00000000000E+00  0.22618633595E+02  0.22618633595E+02  0.00000000000E+00 0. -1.
         -3   -1    0    0    0  501 -0.00000000000E+00 -0.00000000000E+00 -0.69301455643E+03  0.69301455643E+03  0.00000000000E+00 0.  1.
         23    2    1    2    0    0 -0.27393162571E+02  0.41907526399E+02 -0.47168808851E+03  0.49055459596E+03  0.12509009814E+03 0.  0.
          5    1    3    3  502    0  0.12183449091E+02  0.69483072340E+02 -0.38343720112E+03  0.38989472089E+03  0.41800000000E+01 0.  1.
         -5    1    3    3    0  502 -0.39576611662E+02 -0.27575545941E+02 -0.88250887385E+02  0.10065987507E+03  0.41800000000E+01 0.  1.
        -11    1    1    2    0    0 -0.91931677587E+01 -0.47414393409E+02 -0.41819556601E+02  0.63886730626E+02  0.00000000000E+00 0. -1.
         11    1    1    2    0    0  0.36586330330E+02  0.55068670104E+01 -0.15688827773E+03  0.16119186344E+03  0.00000000000E+00 0.  1.
</event>
<event>
 7    1  0.8661710E-006  0.3609454E+03  0.7561462E-02  0.1058210E+00
         -1   -1    0    0    0  501 -0.00000000000E+00  0.00000000000E+00  0.60868786868E+02  0.60868786868E+02  0.00000000000E+00 0.  1.
          1   -1    0    0  501    0  0.00000000000E+00 -0.00000000000E+00 -0.23394814519E+04  0.23394814519E+04  0.00000000000E+00 0. -1.
         23    2    1    2    0    0 -0.18165920698E+02 -0.35360432998E+03 -0.92755608238E+03  0.10006870677E+04  0.12509315948E+03 0.  0.
          5    1    3    3  502    0  0.18994516510E+02 -0.30313825672E+03 -0.83753983148E+03  0.89092313701E+03  0.41800000000E+01 0. -1.
         -5    1    3    3    0  502 -0.37160437209E+02 -0.50466073258E+02 -0.90016250906E+02  0.10976393065E+03  0.41800000000E+01 0. -1.
        -11    1    1    2    0    0  0.20928836961E+01  0.27875288946E+03 -0.90087160424E+03  0.94301495262E+03  0.00000000000E+00 0.  1.
         11    1    1    2    0    0  0.16073037002E+02  0.74851440515E+02 -0.45018497841E+03  0.45664821849E+03  0.00000000000E+00 0. -1.
</event>
<event>
 7    1  0.8661710E-006  0.9424849E+02  0.7561462E-02  0.1292878E+00
          2   -1    0    0  501    0  0.00000000000E+00  0.00000000000E+00  0.51745965466E+03  0.51745965466E+03  0.00000000000E+00 0.  1.
         -2   -1    0    0    0  501 -0.00000000000E+00 -0.00000000000E+00 -0.31036237182E+02  0.31036237182E+02  0.00000000000E+00 0. -1.
         23    2    1    2    0    0 -0.31753650113E+02 -0.39647958165E+02  0.18072934534E+03  0.22558966423E+03  0.12508934991E+03 0.  0.
          5    1    3    3  502    0  0.66301168869E+01 -0.49098703898E+02  0.17902662668E+03  0.18580270890E+03  0.41800000000E+01 0. -1.
         -5    1    3    3    0  502 -0.38383767000E+02  0.94507457325E+01  0.17027186596E+01  0.39786955335E+02  0.41800000000E+01 0. -1.
        -11    1    1    2    0    0 -0.11093496947E+01 -0.25782542639E+02  0.13049898635E+03  0.13302614630E+03  0.00000000000E+00 0.  1.
         11    1    1    2    0    0  0.32862999808E+02  0.65430500804E+02  0.17519508580E+03  0.18988008131E+03  0.00000000000E+00 0. -1.
</event>
<event>
 7    1  0.8661710E-006  0.1248785E+03  0.7561462E-02  0.1235259E+00
         -1   -1    0    0    0  501 -0.00000000000E+00  0.00000000000E+00  0.28728858223E+02  0.28728858223E+02  0.00000000000E+00 0.  1.
          1   -1    0    0  501    0  0.00000000000E+00 -0.00000000000E+00 -0.66776599075E+03  0.66776599075E+03  0.00000000000E+00 0. -1.
         23    2    1    2    0    0  0.29102699983E+02 -0.57285460762E+02 -0.20754945989E+03  0.25070489002E+03  0.12509025708E+03 0.  0.
          5    1    3    3  502    0 -0.25793063231E+02 -0.77192781216E+02 -0.13194964694E+03  0.15508768265E+03  0.41800000000E+01 0. -1.
         -5    1    3    3    0  502  0.54895763214E+02  0.19907320454E+02 -0.75599812953E+02  0.95617207369E+02  0.41800000000E+01 0. -1.
        -11    1    1    2    0    0 -0.29575898838E+02  0.80880597413E+02 -0.29644171310E+03  0.30869741511E+03  0.00000000000E+00 0.  1.
         11    1    1    2    0    0  0.47319885488E+00 -0.23595136652E+02 -0.13504595954E+03  0.13709254385E+03  0.00000000000E+00 0. -1.
</event>
<event>
 7    1  0.8661710E-006  0.1461107E+03  0.7561462E-02  0.1205335E+00
          3   -1    0    0  501    0  0.00000000000E+00  0.00000000000E+00  0.12338459481E+03  0.12338459481E+03  0.00000000000E+00 0. -1.
         -3   -1    0    0    0  501 -0.00000000000E+00 -0.00000000000E+00 -0.18800647799E+03  0.18800647799E+03  0.00000000000E+00 0.  1.
         23    2    1    2    0    0 -0.88697884070E+02  0.57515693909E+02 -0.33301923183E+02  0.16713341332E+03  0.12509672288E+03 0.  0.
          5    1    3    3  502    0 -0.10052996254E+03  0.79275181486E+02 -0.34795524867E+01  0.12814213770E+03  0.41800000000E+01 0.  1.
         -5    1    3    3    0  502  0.11832078468E+02 -0.21759487578E+02 -0.29822370696E+02  0.38991275620E+02  0.41800000000E+01 0.  1.
        -11    1    1    2    0    0  0.68445001942E+02 -0.82273364389E+02 -0.14145961125E+02  0.10795245710E+03  0.00000000000E+00 0. -1.
         11    1    1    2    0    0  0.20252882127E+02  0.24757670481E+02 -0.17173998877E+02  0.36305202376E+02  0.00000000000E+00 0.  1.
</event>
<event>
 7    1  0.8661710E-006  0.1144888E+03  0.7561462E-02  0.1252476E+00
          2   -1    0    0  501    0  0.00000000000E+00  0.00000000000E+00  0.36873822177E+03  0.36873822177E+03  0.00000000000E+00 0. -1.
         -2   -1    0    0    0  501 -0.00000000000E+00 -0.00000000000E+00 -0.45381401992E+02  0.45381401992E+02  0.00000000000E+00 0.  1.
         23    2    1    2    0    0  0.49832354138E+02  0.35999708419E+02  0.12500980482E+03  0.18722695241E+03  0.12508891989E+03 0.  0.
          5    1    3    3  502    0  0.83159240901E+02  0.44191460535E+02  0.11952247342E+03  0.15222167580E+03  0.41800000000E+01 0. -1.
         -5    1    3    3    0  502 -0.33326886763E+02 -0.81917521163E+01  0.54873314010E+01  0.35005276602E+02  0.41800000000E+01 0. -1.
        -11    1    1    2    0    0  0.15429564273E+01  0.22346230406E+02  0.94800404998E+02  0.97410736142E+02  0.00000000000E+00 0. -1.
         11    1    1    2    0    0 -0.51375310565E+02 -0.58345938825E+02  0.10354660995E+03  0.12948193521E+03  0.00000000000E+00 0.  1.
</event>
<event>
 7    1  0.8661710E-006  0.1646416E+03  0.7561462E-02  0.1183554E+00
         -1   -1    0    0    0  501 -0.00000000000E+00  0.00000000000E+00  0.39973925511E+03  0.39973925511E+03  0.00000000000E+00 0.  1.
          1   -1    0    0  501    0  0.00000000000E+00 -0.00000000000E+00 -0.88587175022E+02  0.88587175022E+02  0.00000000000E+00 0. -1.
         23    2    1    2    0    0 -0.11574627356E+03 -0.68849853617E+02  0.26074292741E+03  0.31901794583E+03  0.12509225947E+03 0.  0.
          5    1    3    3  502    0 -0.21057492041E+02 -0.72573403633E+02  0.58567658456E+02  0.95697230383E+02  0.41800000000E+01 0. -1.
         -5    1    3    3    0  502 -0.94688781518E+02  0.37235500153E+01  0.20217526896E+03  0.22332071545E+03  0.41800000000E+01 0. -1.
        -11    1    1    2    0    0  0.12758395009E+03  0.71999008061E+02  0.36901201196E+02  0.15107355868E+03  0.00000000000E+00 0. -1.
         11    1    1    2    0    0 -0.11837676530E+02 -0.31491544436E+01  0.13507951476E+02  0.18234925622E+02  0.00000000000E+00 0.  1.
</event>
<event>
 6    1  0.8661710E-006  0.1122163E+03  0.7561462E-02  0.1256520E+00
          1   -1    0    0  501    0  0.00000000000E+00  0.00000000000E+00  0.51811289237E+02  0.51811289237E+02  0.00000000000E+00 0. -1.
         -1   -1    0    0    0  501 -0.00000000000E+00 -0.00000000000E+00 -0.24944502155E+03  0.24944502155E+03  0.00000000000E+00 0.  1.
          5    1    1    2  502    0  0.46241670321E+02 -0.45007606360E+02 -0.48626478080E+02  0.80907252301E+02  0.41800000000E+01 0. -1.
         -5    1    1    2    0  502 -0.46692455310E+02  0.55214359582E+02 -0.82163213386E+02  0.10953116872E+03  0.41800000000E+01 0.  1.
        -11    1    1    2    0    0 -0.41905592813E+02 -0.15438671191E+02 -0.25645374980E+02  0.51498704207E+02  0.00000000000E+00 0.  1.
         11    1    1    2    0    0  0.42356377802E+02  0.52319179690E+01 -0.41198665865E+02  0.59319185558E+02  0.00000000000E+00 0. -1.
</event>
<event>
 7    1  0.8661710E-006  0.1095827E+03  0.7561462E-02  0.1261345E+00
          2   -1    0    0  501    0  0.00000000000E+00  0.00000000000E+00  0.10457513955E+03  0.10457513955E+03  0.00000000000E+00 0. -1.
         -2   -1    0    0    0  501 -0.00000000000E+00 -0.00000000000E+00 -0.18083889905E+03  0.18083889905E+03  0.00000000000E+00 0.  1.
         23    2    1    2    0    0 -0.44410919994E+02 -0.36857830618E+02 -0.10769216518E+03  0.17485655720E+03  0.12508550541E+03 0.  0.
          5    1    3    3  502    0  0.38058524683E+02 -0.37641384160E+02 -0.55203354640E+02  0.77007842886E+02  0.41800000000E+01 0.  1.
         -5    1    3    3    0  502 -0.82469444677E+02  0.78355354291E+00 -0.52488810539E+02  0.97848714316E+02  0.41800000000E+01 0.  1.
        -11    1    1    2    0    0  0.17198950083E+02 -0.15970004268E+02 -0.20862365800E+02  0.31401962153E+02  0.00000000000E+00 0.  1.
         11    1    1    2    0    0  0.27211969911E+02  0.52827834885E+02  0.52290771473E+02  0.79155519241E+02  0.00000000000E+00 0. -1.
</event>
<event>
 7    1  0.8661710E-006  0.8617243E+02  0.7561462E-02  0.1312395E+00
          1   -1    0    0  501    0  0.00000000000E+00  0.00000000000E+00  0.93233390836E+03  0.93233390836E+03  0.00000000000E+00 0. -1.
         -1   -1    0    0    0  501 -0.00000000000E+00 -0.00000000000E+00 -0.13586587374E+02  0.13586587374E+02  0.00000000000E+00 0.  1.
         23    2    1    2    0    0 -0.56026550508E+01  0.26556278751E+02  0.45969445232E+03  0.47718235123E+03  0.12508949258E+03 0.  0.
          5    1    3    3  502    0 -0.26097289057E+02  0.45298998117E+02  0.75304219312E+02  0.91767453777E+02  0.41800000000E+01 0.  1.
         -5    1    3    3    0  502  0.20494634006E+02 -0.18742719366E+02  0.38439023301E+03  0.38541489746E+03  0.41800000000E+01 0.  1.
        -11    1    1    2    0    0  0.21336806613E+02 -0.55173983047E+02  0.34765062467E+03  0.35264767765E+03  0.00000000000E+00 0. -1.
         11    1    1    2    0    0 -0.15734151562E+02  0.28617704295E+02  0.11140224400E+03  0.11609046684E+03  0.00000000000E+00 0.  1.
</event>
<event>
 7    1  0.8661710E-006  0.1762866E+03  0.7561462E-02  0.1171446E+00
          3   -1    0    0  501    0  0.00000000000E+00  0.00000000000E+00  0.75958204788E+02  0.75958204788E+02  0.00000000000E+00 0.  1.
         -3   -1    0    0    0  501 -0.00000000000E+00 -0.00000000000E+00 -0.47505749512E+03  0.47505749512E+03  0.00000000000E+00 0. -1.
         23    2    1    2    0    0 -0.87244833305E+02 -0.12861591902E+03 -0.21485235175E+03  0.29320543823E+03  0.12511666712E+03 0.  0.
          5    1    3    3  502    0 -0.10405447200E+03 -0.12482931551E+03 -0.13471078666E+03  0.21112593303E+03  0.41800000000E+01 0. -1.
         -5    1    3    3    0  502  0.16809638694E+02 -0.37866035096E+01 -0.80141565086E+02  0.82079505198E+02  0.41800000000E+01 0. -1.
        -11    1    1    2    0    0 -0.13346536446E+02  0.95650046489E+01 -0.48225204789E+02  0.50943986161E+02  0.00000000000E+00 0. -1.
         11    1    1    2    0    0  0.10059136975E+03  0.11905091438E+03 -0.13602173380E+03  0.20686627552E+03  0.00000000000E+00 0.  1.
</event>
<event>
 6    1  0.8661710E-006  0.9450002E+02  0.7561462E-02  0.1292306E+00
         -2   -1    0    0    0  501 -0.00000000000E+00  0.00000000000E+00  0.81367004728E+02  0.81367004728E+02  0.00000000000E+00 0.  1.
          2   -1    0    0  501    0  0.00000000000E+00 -0.00000000000E+00 -0.25985642557E+03  0.25985642557E+03  0.00000000000E+00 0. -1.
          5    1    1    2  502    0 -0.23962533046E+02  0.60650809045E+02 -0.12592732489E+03  0.14187278521E+03  0.41800000000E+01 0. -1.
         -5    1    1    2    0  502  0.29255590738E+01 -0.34151599135E+02  0.47589247972E+02  0.58797104877E+02  0.41800000000E+01 0.  1.
        -11    1    1    2    0    0  0.49400887295E+02  0.12853628453E+01 -0.84470800919E+02  0.97864273517E+02  0.00000000000E+00 0.  1.
         11    1    1    2    0    0 -0.28363913323E+02 -0.27784572756E+02 -0.15680543001E+02  0.42689266695E+02  0.00000000000E+00 0. -1.
</event>
<event>
 6    1  0.8661710E-006  0.1782922E+03  0.7561462E-02  0.1169466E+00
         -1   -1    0    0    0  501 -0.00000000000E+00  0.00000000000E+00  0.49651524953E+02  0.49651524953E+02  0.00000000000E+00 0.  1.
          1   -1    0    0  501    0  0.00000000000E+00 -0.00000000000E+00 -0.67371144865E+03  0.67371144865E+03  0.00000000000E+00 0. -1.
          5    1    1    2  502    0 -0.51935640195E+02 -0.14300060131E+03 -0.30572962954E+03  0.34151802511E+03  0.41800000000E+01 0. -1.
         -5    1    1    2    0  502 -0.14212272645E+02  0.78676954770E+02 -0.11303981889E+03  0.13851904187E+03  0.41800000000E+01 0.  1.
        -11    1    1    2    0    0  0.41503727263E+02 -0.12743555551E+02 -0.11035589569E+03  0.11858912808E+03  0.00000000000E+00 0. -1.
         11    1    1    2    0    0  0.24644185577E+02  0.77067202094E+02 -0.94934579577E+02  0.12473677854E+03  0.00000000000E+00 0.  1.
</event>
<event>
 7    1  0.8661710E-006  0.8311248E+02  0.7561462E-02  0.1320444E+00
          2   -1    0    0  501    0  0.00000000000E+00  0.00000000000E+00  0.26516649019E+03  0.26516649019E+03  0.00000000000E+00 0.  1.
         -2   -1    0    0    0  501 -0.00000000000E+00 -0.00000000000E+00 -0.79831035120E+02  0.79831035120E+02  0.00000000000E+00 0. -1.
         23    2    1    2    0    0  0.54284509649E+02  0.25991489062E+02  0.10429689863E+02  0.13920748949E+03  0.12509029222E+03 0.  0.
          5    1    3    3  502    0  0.32187579801E+02  0.16433545752E+02 -0.56924808093E+02  0.67557441454E+02  0.41800000000E+01 0. -1.
         -5    1    3    3    0  502  0.22096929848E+02  0.95579433097E+01  0.67354497956E+02  0.71650048038E+02  0.41800000000E+01 0. -1.
        -11    1    1    2    0    0 -0.44042406362E+02  0.26851239821E+02  0.61569005703E+02  0.80321012826E+02  0.00000000000E+00 0. -1.
         11    1    1    2    0    0 -0.10242103287E+02 -0.52842728883E+02  0.11333675950E+03  0.12546902299E+03  0.00000000000E+00 0.  1.
</event>
<event>
 7    1  0.8661710E-006  0.1095846E+03  0.7561462E-02  0.1261341E+00
          2   -1    0    0  501    0  0.00000000000E+00  0.00000000000E+00  0.76546049820E+03  0.76546049820E+03  0.00000000000E+00 0. -1.
         -2   -1    0    0    0  501 -0.00000000000E+00 -0.00000000000E+00 -0.28582435893E+02  0.28582435893E+02  0.00000000000E+00 0.  1.
         23    2    1    2    0    0 -0.47925892555E+01  0.74807725993E+02  0.22125617581E+03  0.26499274029E+03  0.12509073624E+03 0.  0.
          5    1    3    3  502    0 -0.31661948577E+02  0.52254484214E+01  0.17312481983E+03  0.17612342247E+03  0.41800000000E+01 0. -1.
         -5    1    3    3    0  502  0.26869359322E+02  0.69582277572E+02  0.48131355979E+02  0.88869317826E+02  0.41800000000E+01 0. -1.
        -11    1    1    2    0    0  0.44135502937E+02 -0.40438370480E+02  0.35871484046E+03  0.36367504890E+03  0.00000000000E+00 0. -1.
         11    1    1    2    0    0 -0.39342913681E+02 -0.34369355513E+02  0.15690704604E+03  0.16537514490E+03  0.00000000000E+00 0.  1.
</event>
<event>
 7    1  0.8661710E-006  0.9019863E+02  0.7561462E-02  0.1302371E+00
         -2   -1    0    0    0  501 -0.00000000000E+00  0.00000000000E+00  0.13643716440E+03  0.13643716440E+03  0.00000000000E+00 0. -1.
          2   -1    0    0  501    0  0.00000000000E+00 -0.00000000000E+00 -0.11975710936E+03  0.11975710936E+03  0.00000000000E+00 0.  1.
         23    2    1    2    0    0  0.33469367086E+02  0.48227178179E+02  0.40193753792E+02  0.14390517577E+03  0.12508837885E+03 0.  0.
          5    1    3    3  502    0 -0.27542329735E+02  0.51378678007E+02 -0.16209913008E+02  0.60651316232E+02  0.41800000000E+01 0. -1.
         -5    1    3    3    0  502  0.61011696821E+02 -0.31514998277E+01  0.56403666800E+02  0.83253859542E+02  0.41800000000E+01 0. -1.
        -11    1    1    2    0    0 -0.20024681790E+02 -0.15460050795E+02 -0.57738069113E+02  0.63037176938E+02  0.00000000000E+00 0.  1.
         11    1    1    2    0    0 -0.13444685296E+02 -0.32767127384E+02  0.34224370370E+02  0.49251921048E+02  0.00000000000E+00 0. -1.
</event>
<event>
 7    1  0.8661710E-006  0.7571252E+02  0.7561462E-02  0.1341679E+00
          2   -1    0    0  501    0  0.00000000000E+00  0.00000000000E+00  0.15622186970E+03  0.15622186970E+03  0.00000000000E+00 0. -1.
         -2   -1    0    0    0  501 -0.00000000000E+00 -0.00000000000E+00 -0.17185894316E+03  0.17185894316E+03  0.00000000000E+00 0.  1.
         23    2    1    2    0    0 -0.33095124813E+02  0.27676534887E+02 -0.11986097901E+03  0.17853763116E+03  0.12509098121E+03 0.  0.
          5    1    3    3  502    0 -0.44850861368E+02  0.46768610888E+02 -0.13592654429E+03  0.15063997004E+03  0.41800000000E+01 0.  1.
         -5    1    3    3    0  502  0.11755736555E+02 -0.19092076001E+02  0.16065565286E+02  0.27897661119E+02  0.41800000000E+01 0.  1.
        -11    1    1    2    0    0 -0.97338650116E+01 -0.16927753235E+02 -0.13547208102E+02  0.23766022070E+02  0.00000000000E+00 0.  1.
         11    1    1    2    0    0  0.42828989825E+02 -0.10748781652E+02  0.11777111364E+03  0.12577715963E+03  0.00000000000E+00 0. -1.
</event>
<event>
 7    1  0.8661710E-006  0.1133595E+03  0.7561462E-02  0.1254472E+00
          1   -1    0    0  501    0  0.00000000000E+00  0.00000000000E+00  0.85279442431E+02  0.85279442431E+02  0.00000000000E+00 0. -1.
         -1   -1    0    0    0  501 -0.00000000000E+00 -0.00000000000E+00 -0.15539079120E+03  0.15539079120E+03  0.00000000000E+00 0.  1.
         23    2    1    2    0    0 -0.38862578225E+02 -0.18745354221E+02 -0.58132980187E+02  0.14452838908E+03  0.12508926242E+03 0.  0.
          5    1    3    3  502    0 -0.94604124907E+01 -0.70731048538E+02 -0.22907770000E+02  0.75064098997E+02  0.41800000000E+01 0.  1.
         -5    1    3    3    0  502 -0.29402165734E+02  0.51985694317E+02 -0.35225210187E+02  0.69464290079E+02  0.41800000000E+01 0.  1.
        -11    1    1    2    0    0 -0.25858713757E+02 -0.51631948970E+01 -0.22816753225E+01  0.26467672753E+02  0.00000000000E+00 0. -1.
         11    1    1    2    0    0  0.64721291982E+02  0.23908549118E+02 -0.96966932637E+01  0.69674171807E+02  0.00000000000E+00 0.  1.
</event>
<event>
 7    1  0.8661710E-006  0.1514796E+03  0.7561462E-02  0.1198667E+00
         -2   -1    0    0    0  501 -0.00000000000E+00  0.00000000000E+00  0.23855664999E+03  0.23855664999E+03  0.00000000000E+00 0.  1.
          2   -1    0    0  501    0  0.00000000000E+00 -0.00000000000E+00 -0.16660749267E+03  0.16660749267E+03  0.00000000000E+00 0. -1.
         23    2    1    2    0    0 -0.86022784330E+02 -0.89411049554E+02  0.15112682555E+03  0.23212438284E+03  0.12509259171E+03 0.  0.
          5    1    3    3  502    0 -0.84144567365E+02 -0.15915030170E+02  0.12961783875E+03  0.15540866426E+03  0.41800000000E+01 0. -1.
         -5    1    3    3    0  502 -0.18782169646E+01 -0.73496019384E+02  0.21508986795E+02  0.76715718580E+02  0.41800000000E+01 0. -1.
        -11    1    1    2    0    0 -0.13024270255E+02  0.73346731762E+01 -0.33244300062E+02  0.36450137625E+02  0.00000000000E+00 0. -1.
         11    1    1    2    0    0  0.99047054585E+02  0.82076376378E+02 -0.45933368161E+02  0.13658962220E+03  0.00000000000E+00 0.  1.
</event>
<event>
 7    1  0.8661710E-006  0.8533615E+02  0.7561462E-02  0.1314556E+00
         -1   -1    0    0    0  501 -0.00000000000E+00  0.00000000000E+00  0.16584454919E+03  0.16584454919E+03  0.00000000000E+00 0.  1.
          1   -1    0    0  501    0  0.00000000000E+00 -0.00000000000E+00 -0.89913080675E+02  0.89913080675E+02  0.00000000000E+00 0. -1.
         23    2    1    2    0    0  0.21184334395E+02  0.49202381029E+02  0.65787831590E+02  0.15115079237E+03  0.12509545526E+03 0.  0.
          5    1    3    3  502    0 -0.18518952646E+02  0.31416583129E+02  0.92783194355E+02  0.99780493371E+02  0.41800000000E+01 0. -1.
         -5    1    3    3    0  502  0.39703287041E+02  0.17785797899E+02 -0.26995362765E+02  0.51370299003E+02  0.41800000000E+01 0. -1.
        -11    1    1    2    0    0 -0.43923377323E+02 -0.10167853693E+02  0.31137408873E+02  0.54792212544E+02  0.00000000000E+00 0.  1.
         11    1    1    2    0    0  0.22739042927E+02 -0.39034527336E+02 -0.20993771951E+02  0.49814624944E+02  0.00000000000E+00 0. -1.
</event>
<event>
 7    1  0.8661710E-006  0.8641416E+02  0.7561462E-02  0.1311775E+00
          1   -1    0    0  501    0  0.00000000000E+00  0.00000000000E+00  0.18376993102E+03  0.18376993102E+03  0.00000000000E+00 0. -1.
         -1   -1    0    0    0  501 -0.00000000000E+00 -0.00000000000E+00 -0.81919379154E+02  0.81919379154E+02  0.00000000000E+00 0.  1.
         23    2    1    2    0    0 -0.37796396097E+01 -0.52047516962E+02  0.31637363891E+02  0.13918234833E+03  0.12509026179E+03 0.  0.
          5    1    3    3  502    0 -0.20345915995E+01 -0.61404897492E+02  0.73592442596E+02  0.95958433743E+02  0.41800000000E+01 0.  1.
         -5    1    3    3    0  502 -0.17450480103E+01  0.93573805308E+01 -0.41955078705E+02  0.43223914586E+02  0.41800000000E+01 0.  1.
        -11    1    1    2    0    0  0.34399382248E+02 -0.62870793475E+01  0.42489268371E+02  0.55028926870E+02  0.00000000000E+00 0.  1.
         11    1    1    2    0    0 -0.30619742638E+02  0.58334596309E+02  0.27723919603E+02  0.71478034976E+02  0.00000000000E+00 0. -1.
</event>
<event>
 6    1  0.8661710E-006  0.3681202E+03  0.7561462E-02  0.1055414E+00
         -2   -1    0    0    0  501 -0.00000000000E+00  0.00000000000E+00  0.80350927306E+02  0.80350927306E+02  0.00000000000E+00 0.  1.
          2   -1    0    0  501    0  0.00000000000E+00 -0.00000000000E+00 -0.21954953332E+04  0.21954953332E+04  0.00000000000E+00 0. -1.
          5    1    1    2  502    0  0.35413124626E+02  0.17344507654E+03 -0.10179736460E+04  0.10332594545E+04  0.41800000000E+01 0. -1.
         -5    1    1    2    0  502 -0.27915532826E+03 -0.51380959373E+02 -0.42687696056E+03  0.51264911210E+03  0.41800000000E+01 0.  1.
        -11    1    1    2    0    0  0.12028966284E+03 -0.81688462501E+02 -0.24141881802E+03  0.28182557298E+03  0.00000000000E+00 0.  1.
         11    1    1    2    0    0  0.12345254080E+03 -0.40375654661E+02 -0.42887498131E+03  0.44811212092E+03  0.00000000000E+00 0. -1.
</event>
<event>
 7    1  0.8661710E-006  0.1058955E+03  0.7561462E-02  0.1268365E+00
         -1   -1    0    0    0  501 -0.00000000000E+00  0.00000000000E+00  0.42740157327E+02  0.42740157327E+02  0.00000000000E+00 0.  1.
          1   -1    0    0  501    0  0.00000000000E+00 -0.00000000000E+00 -0.30272492758E+03  0.30272492758E+03  0.00000000000E+00 0. -1.
         23    2    1    2    0    0 -0.34495816524E+02  0.10197534614E+02 -0.15755452459E+03  0.20436457987E+03  0.12508997648E+03 0.  0.
          5    1    3    3  502    0 -0.15989782769E+02  0.61376147385E+02 -0.40933179860E+02  0.75602263421E+02  0.41800000000E+01 0.  1.
         -5    1    3    3    0  502 -0.18506033754E+02 -0.51178612771E+02 -0.11662134473E+03  0.12876231645E+03  0.41800000000E+01 0.  1.
        -11    1    1    2    0    0 -0.25530278921E+02  0.13776301171E+02 -0.15860700971E+02  0.33062719958E+02  0.00000000000E+00 0.  1.
         11    1    1    2    0    0  0.60026095445E+02 -0.23973835785E+02 -0.86569544690E+02  0.10803778508E+03  0.00000000000E+00 0. -1.
</event>
<event>
 7    1  0.8661710E-006  0.1589436E+03  0.7561462E-02  0.1189895E+00
          1   -1    0    0  501    0  0.00000000000E+00  0.00000000000E+00  0.45365978745E+02  0.45365978745E+02  0.00000000000E+00 0. -1.
         -1   -1    0    0    0  501 -0.00000000000E+00 -0.00000000000E+00 -0.10101786091E+04  0.10101786091E+04  0.00000000000E+00 0.  1.
         23    2    1    2    0    0  0.12614198945E+03  0.73422388334E+02 -0.78006724459E+03  0.80340211929E+03  0.12508961022E+03 0.  0.
          5    1    3    3  502    0  0.10715110732E+03  0.66451769276E+02 -0.33675659188E+03  0.35961044481E+03  0.41800000000E+01 0. -1.
         -5    1    3    3    0  502  0.18990882136E+02  0.69706190582E+01 -0.44331065271E+03  0.44379167448E+03  0.41800000000E+01 0. -1.
        -11    1    1    2    0    0 -0.55013355492E+02 -0.82719809945E+02 -0.11685713058E+03  0.15337739470E+03  0.00000000000E+00 0.  1.
         11    1    1    2    0    0 -0.71128633962E+02  0.92974216106E+01 -0.67888255148E+02  0.98765073811E+02  0.00000000000E+00 0. -1.
</event>
<event>
 7    1  0.8661710E-006  0.7041475E+02  0.7561462E-02  0.1358688E+00
         -2   -1    0    0    0  501 -0.00000000000E+00  0.00000000000E+00  0.86783623847E+02  0.86783623847E+02  0.00000000000E+00 0.  1.
          2   -1    0    0  501    0  0.00000000000E+00 -0.00000000000E+00 -0.31932976814E+03  0.31932976814E+03  0.00000000000E+00 0. -1.
         23    2    1    2    0    0  0.55175418316E+01  0.40716343197E+02  0.18206108557E+02  0.13578203158E+03  0.12812897346E+03 0.  0.
          5    1    3    3  502    0 -0.53597114815E+01  0.86429561109E+01 -0.54429922739E+02  0.55529416410E+02  0.41800000000E+01 0. -1.
         -5    1    3    3    0  502  0.10877253313E+02  0.32073387087E+02  0.72636031295E+02  0.80252615167E+02  0.41800000000E+01 0.  1.
        -11    1    1    2    0    0 -0.15734615480E+02  0.24816847393E+02 -0.41722950191E+02  0.51031937172E+02  0.00000000000E+00 0.  1.
         11    1    1    2    0    0  0.10217073648E+02 -0.65533190591E+02 -0.20902930266E+03  0.21929942324E+03  0.00000000000E+00 0. -1.
</event>
<event>
 7    1  0.8661710E-006  0.1145494E+03  0.7561462E-02  0.1252370E+00
          2   -1    0    0  501    0  0.00000000000E+00  0.00000000000E+00  0.41071332086E+03  0.41071332086E+03  0.00000000000E+00 0. -1.
         -2   -1    0    0    0  501 -0.00000000000E+00 -0.00000000000E+00 -0.45876949429E+02  0.45876949429E+02  0.00000000000E+00 0.  1.
         23    2    1    2    0    0  0.62649844452E+02  0.90950710421E+01  0.10931945850E+03  0.17778061061E+03  0.12508988039E+03 0.  0.
          5    1    3    3  502    0  0.77720359020E+02 -0.38930380484E+02  0.85275744534E+02  0.12184192110E+03  0.41800000000E+01 0. -1.
         -5    1    3    3    0  502 -0.15070514567E+02  0.48025451526E+02  0.24043713967E+02  0.55938689518E+02  0.41800000000E+01 0. -1.
        -11    1    1    2    0    0 -0.64439833090E+01 -0.30685772641E+02  0.23708827998E+02  0.39309669148E+02  0.00000000000E+00 0.  1.
         11    1    1    2    0    0 -0.56205861143E+02  0.21590701599E+02  0.23180808493E+03  0.23949999052E+03  0.00000000000E+00 0. -1.
</event>
<event>
 7    1  0.8661710E-006  0.1132945E+03  0.7561462E-02  0.1254588E+00
         -1   -1    0    0    0  501 -0.00000000000E+00  0.00000000000E+00  0.33908775357E+03  0.33908775357E+03  0.00000000000E+00 0.  1.
          1   -1    0    0  501    0  0.00000000000E+00 -0.00000000000E+00 -0.42793428740E+02  0.42793428740E+02  0.00000000000E+00 0. -1.
         23    2    1    2    0    0 -0.44674948101E+02 -0.24101388839E+02  0.13734541472E+03  0.19258281415E+03  0.12509056490E+03 0.  0.
          5    1    3    3  502    0  0.28253086642E+02  0.31970837306E+02  0.45835578483E+02  0.62759413618E+02  0.41800000000E+01 0.  1.
         -5    1    3    3    0  502 -0.72928034743E+02 -0.56072226145E+02  0.91509836242E+02  0.12982340053E+03  0.41800000000E+01 0.  1.
        -11    1    1    2    0    0  0.24780375530E+02  0.51862185863E+02  0.13734106406E+03  0.14888358275E+03  0.00000000000E+00 0.  1.
         11    1    1    2    0    0  0.19894572572E+02 -0.27760797023E+02  0.21607846037E+02  0.40414785407E+02  0.00000000000E+00 0. -1.
</event>
<event>
 7    1  0.8661710E-006  0.1187502E+03  0.7561462E-02  0.1245173E+00
          1   -1    0    0  501    0  0.00000000000E+00  0.00000000000E+00  0.30459817221E+03  0.30459817221E+03  0.00000000000E+00 0. -1.
         -1   -1    0    0    0  501 -0.00000000000E+00 -0.00000000000E+00 -0.56761876149E+02  0.56761876149E+02  0.00000000000E+00 0.  1.
         23    2    1    2    0    0 -0.42794186513E+02  0.39790927356E+02  0.78382036936E+02  0.15876297574E+03  0.12508908207E+03 0.  0.
          5    1    3    3  502    0 -0.85542672741E+02  0.27845884462E+02  0.35188916543E+02  0.96688543213E+02  0.41800000000E+01 0.  1.
         -5    1    3    3    0  502  0.42748486228E+02  0.11945042894E+02  0.43193120392E+02  0.62074432529E+02  0.41800000000E+01 0.  1.
        -11    1    1    2    0    0 -0.25260254788E+02 -0.28345632339E+01  0.14238728943E+02  0.29135144115E+02  0.00000000000E+00 0.  1.
         11    1    1    2    0    0  0.68054441301E+02 -0.36956364122E+02  0.15521553018E+03  0.17346192850E+03  0.00000000000E+00 0. -1.
</event>
<event>
 7    1  0.8661710E-006  0.1685157E+03  0.7561462E-02  0.1179405E+00
         -1   -1    0    0    0  501 -0.00000000000E+00  0.00000000000E+00  0.52461370029E+02  0.52461370029E+02  0.00000000000E+00 0.  1.
          1   -1    0    0  501    0  0.00000000000E+00 -0.00000000000E+00 -0.64927859421E+03  0.64927859421E+03  0.00000000000E+00 0. -1.
         23    2    1    2    0    0 -0.72583119928E+02  0.11015547974E+03 -0.18350294469E+03  0.25831315324E+03  0.12509922227E+03 0.  0.
          5    1    3    3  502    0 -0.94228906541E+02  0.31821408638E+02 -0.88238595787E+02  0.13302334781E+03  0.41800000000E+01 0.  1.
         -5    1    3    3    0  502  0.21645786613E+02  0.78334071104E+02 -0.95264348901E+02  0.12528980543E+03  0.41800000000E+01 0.  1.
        -11    1    1    2    0    0  0.86310555280E+02 -0.62625899642E+02 -0.32689656178E+03  0.34385007978E+03  0.00000000000E+00 0.  1.
         11    1    1    2    0    0 -0.13727435353E+02 -0.47529580101E+02 -0.86417717710E+02  0.99576731218E+02  0.00000000000E+00 0. -1.
</event>
<event>
 7    1  0.8661710E-006  0.1000443E+03  0.7561462E-02  0.1280203E+00
          2   -1    0    0  501    0  0.00000000000E+00  0.00000000000E+00  0.11142667533E+03  0.11142667533E+03  0.00000000000E+00 0. -1.
         -2   -1    0    0    0  501 -0.00000000000E+00 -0.00000000000E+00 -0.11574931269E+03  0.11574931269E+03  0.00000000000E+00 0.  1.
         23    2    1    2    0    0  0.31053240125E+02  0.50597051768E+01 -0.19358835867E+02  0.13044621547E+03  0.12510614000E+03 0.  0.
          5    1    3    3  502    0 -0.31491414901E+02  0.23784081879E+02  0.28949910801E+02  0.49121904469E+02  0.41800000000E+01 0.  1.
         -5    1    3    3    0  502  0.62544655026E+02 -0.18724376703E+02 -0.48308746668E+02  0.81324311002E+02  0.41800000000E+01 0.  1.
        -11    1    1    2    0    0  0.30564793337E+02  0.88384121946E+01  0.79255684106E-01  0.31817140087E+02  0.00000000000E+00 0.  1.
         11    1    1    2    0    0 -0.61618033462E+02 -0.13898117371E+02  0.14956942824E+02  0.64912632460E+02  0.00000000000E+00 0. -1.
</event>
<event>
 7    1  0.8661710E-006  0.8365548E+02  0.7561462E-02  0.1318987E+00
         -1   -1    0    0    0  501 -0.00000000000E+00  0.00000000000E+00  0.10031840193E+04  0.10031840193E+04  0.00000000000E+00 0.  1.
          1   -1    0    0  501    0  0.00000000000E+00 -0.00000000000E+00 -0.16691585597E+02  0.16691585597E+02  0.00000000000E+00 0. -1.
         23    2    1    2    0    0 -0.28842488939E+02  0.27925352666E+02  0.64394673733E+03  0.65721125953E+03  0.12509006616E+03 0.  0.
          5    1    3    3  502    0 -0.31175955186E+02  0.13251064884E+02  0.64048319305E+03  0.64139202043E+03  0.41800000000E+01 0.  1.
         -5    1    3    3    0  502  0.23334662470E+01  0.14674287783E+02  0.34635442804E+01  0.15819239098E+02  0.41800000000E+01 0.  1.
        -11    1    1    2    0    0  0.61864886933E+02 -0.48696793892E+02  0.20188046759E+03  0.21668955943E+03  0.00000000000E+00 0. -1.
         11    1    1    2    0    0 -0.33022397995E+02  0.20771441225E+02  0.14066522880E+03  0.14597478595E+03  0.00000000000E+00 0.  1.
</event>
<event>
 7    1  0.8661710E-006  0.2801088E+03  0.7561462E-02  0.1095630E+00
         -1   -1    0    0    0  501 -0.00000000000E+00  0.00000000000E+00  0.15629246585E+03  0.15629246585E+03  0.00000000000E+00 0.  1.
          1   -1    0    0  501    0  0.00000000000E+00 -0.00000000000E+00 -0.52407496200E+03  0.52407496200E+03  0.00000000000E+00 0. -1.
         23    2    1    2    0    0 -0.24782419679E+03  0.85881854974E+02 -0.14815706630E+03  0.32617466038E+03  0.12508743840E+03 0.  0.
          5    1    3    3  502    0 -0.17798243054E+03  0.11230852429E+03 -0.80631266506E+02  0.22541034525E+03  0.41800000000E+01 0.  1.
         -5    1    3    3    0  502 -0.69841766256E+02 -0.26426669314E+02 -0.67525799795E+02  0.10076431513E+03  0.41800000000E+01 0.  1.
        -11    1    1    2    0    0  0.15775565011E+03 -0.11598260162E+02 -0.15145716885E+03  0.21899917529E+03  0.00000000000E+00 0.  1.
         11    1    1    2    0    0  0.90068546679E+02 -0.74283594812E+02 -0.68168261003E+02  0.13519359218E+03  0.00000000000E+00 0. -1.
</event>
<event>
 7    1  0.8661710E-006  0.1067612E+03  0.7561462E-02  0.1266688E+00
         -1   -1    0    0    0  501 -0.00000000000E+00  0.00000000000E+00  0.11187637100E+03  0.11187637100E+03  0.00000000000E+00 0.  1.
          1   -1    0    0  501    0  0.00000000000E+00 -0.00000000000E+00 -0.13916574624E+03  0.13916574624E+03  0.00000000000E+00 0. -1.
         23    2    1    2    0    0  0.92400702503E+01 -0.13837821355E+02  0.18386261662E+02  0.11608940197E+03  0.11341001029E+03 0.  0.
          5    1    3    3  502    0 -0.45709636925E+02  0.79829336197E+01  0.30376515708E+02  0.55617472466E+02  0.41800000000E+01 0. -1.
         -5    1    3    3    0  502  0.54949707175E+02 -0.21820754975E+02 -0.11990254046E+02  0.60471929508E+02  0.41800000000E+01 0.  1.
        -11    1    1    2    0    0 -0.32011781656E+02 -0.38804915639E+02  0.13964987699E+02  0.52207245896E+02  0.00000000000E+00 0.  1.
         11    1    1    2    0    0  0.22771711406E+02  0.52642736994E+02 -0.59640624603E+02  0.82745469372E+02  0.00000000000E+00 0. -1.
</event>
<event>
 7    1  0.8661710E-006  0.1480645E+03  0.7561462E-02  0.1202872E+00
         -2   -1    0    0    0  501 -0.00000000000E+00  0.00000000000E+00  0.62668489283E+02  0.62668489283E+02  0.00000000000E+00 0.  1.
          2   -1    0    0  501    0  0.00000000000E+00 -0.00000000000E+00 -0.35988343581E+03  0.35988343581E+03  0.00000000000E+00 0. -1.
         23    2    1    2    0    0 -0.68903530024E+02 -0.75852758730E+02 -0.13818632724E+03  0.21270793353E+03  0.12509143254E+03 0.  0.
          5    1    3    3  502    0  0.13061241132E+02  0.26895494732E+02 -0.26926092825E+02  0.40453065787E+02  0.41800000000E+01 0. -1.
         -5    1    3    3    0  502 -0.81964771156E+02 -0.10274825346E+03 -0.11126023441E+03  0.17225486774E+03  0.41800000000E+01 0. -1.
        -11    1    1    2    0    0  0.23316859931E+02 -0.18423553205E+02 -0.53351982889E+02  0.61069938168E+02  0.00000000000E+00 0.  1.
         11    1    1    2    0    0  0.45586670093E+02  0.94276311935E+02 -0.10567663640E+03  0.14877405340E+03  0.00000000000E+00 0. -1.
</event>
<event>
 7    1  0.8661710E-006  0.1477321E+03  0.7561462E-02  0.1203288E+00
          2   -1    0    0  501    0  0.00000000000E+00  0.00000000000E+00  0.24282076909E+03  0.24282076909E+03  0.00000000000E+00 0. -1.
         -2   -1    0    0    0  501 -0.00000000000E+00 -0.00000000000E+00 -0.11280128726E+03  0.11280128726E+03  0.00000000000E+00 0.  1.
         23    2    1    2    0    0  0.98023890100E+02  0.61242825429E+02  0.20617496096E+02  0.17155888342E+03  0.12509197671E+03 0.  0.
          5    1    3    3  502    0  0.99988525992E+01  0.78750475107E+02  0.18840140712E+02  0.81694783707E+02  0.41800000000E+01 0. -1.
         -5    1    3    3    0  502  0.88025037501E+02 -0.17507649679E+02  0.17773553840E+01  0.89864099709E+02  0.41800000000E+01 0. -1.
        -11    1    1    2    0    0 -0.90096385204E+02 -0.31658110153E+02  0.31826870330E+02  0.10066053964E+03  0.00000000000E+00 0.  1.
         11    1    1    2    0    0 -0.79275048961E+01 -0.29584715276E+02  0.77575115406E+02  0.83402633304E+02  0.00000000000E+00 0. -1.
</event>
<event>
 7    1  0.8661710E-006  0.9465419E+02  0.7561462E-02  0.1291957E+00
          1   -1    0    0  501    0  0.00000000000E+00  0.00000000000E+00  0.10499037997E+03  0.10499037997E+03  0.00000000000E+00 0. -1.
         -1   -1    0    0    0  501 -0.00000000000E+00 -0.00000000000E+00 -0.16068970028E+03  0.16068970028E+03  0.00000000000E+00 0.  1.
         23    2    1    2    0    0  0.32093020864E+02 -0.60246814202E+02 -0.52618519324E+02  0.15191032500E+03  0.12509355561E+03 0.  0.
          5    1    3    3  502    0 -0.64655816266E+00 -0.66083856542E+02  0.22269777238E+02  0.69863506290E+02  0.41800000000E+01 0. -1.
         -5    1    3    3    0  502  0.32739579027E+02  0.58370423403E+01 -0.74888296561E+02  0.82046818707E+02  0.41800000000E+01 0. -1.
        -11    1    1    2    0    0 -0.49156520503E+02  0.42987931038E+02 -0.34669252897E+02  0.73934314221E+02  0.00000000000E+00 0.  1.
         11    1    1    2    0    0  0.17063499638E+02  0.17258883163E+02  0.31588451909E+02  0.39835441029E+02  0.00000000000E+00 0. -1.
</event>
<event>
 7    1  0.8661710E-006  0.1014909E+03  0.7561462E-02  0.1277192E+00
          2   -1    0    0  501    0  0.00000000000E+00  0.00000000000E+00  0.28822745717E+03  0.28822745717E+03  0.00000000000E+00 0. -1.
         -2   -1    0    0    0  501 -0.00000000000E+00 -0.00000000000E+00 -0.73565498650E+02  0.73565498650E+02  0.00000000000E+00 0.  1.
         23    2    1    2    0    0  0.45640217813E+02  0.79657331365E+02  0.77111230722E+02  0.17326658737E+03  0.12508736336E+03 0.  0.
          5    1    3    3  502    0  0.41816813337E+01  0.39877655957E+02 -0.30939674121E+02  0.50817809262E+02  0.41800000000E+01 0. -1.
         -5    1    3    3    0  502  0.41458536480E+02  0.39779675408E+02  0.10805090484E+03  0.12244877811E+03  0.41800000000E+01 0. -1.
        -11    1    1    2    0    0  0.10933190243E+02 -0.70280604991E+01 -0.87510311436E+01  0.15668721369E+02  0.00000000000E+00 0.  1.
         11    1    1    2    0    0 -0.56573408056E+02 -0.72629270866E+02  0.14630175894E+03  0.17285764708E+03  0.00000000000E+00 0. -1.
</event>
<event>
 7    1  0.8661710E-006  0.1148835E+03  0.7561462E-02  0.1251785E+00
          1   -1    0    0  501    0  0.00000000000E+00  0.00000000000E+00  0.25629371857E+03  0.25629371857E+03  0.00000000000E+00 0. -1.
         -1   -1    0    0    0  501 -0.00000000000E+00 -0.00000000000E+00 -0.52282025535E+02  0.52282025535E+02  0.00000000000E+00 0.  1.
         23    2    1    2    0    0 -0.32659610377E+02  0.17626133758E+02  0.12602872439E+03  0.18140440003E+03  0.12508791403E+03 0.  0.
          5    1    3    3  502    0  0.15615670953E+02 -0.46543316752E+02  0.38346784738E+02  0.62434588277E+02  0.41800000000E+01 0. -1.
         -5    1    3    3    0  502 -0.48275281330E+02  0.64169450510E+02  0.87681939654E+02  0.11896981175E+03  0.41800000000E+01 0. -1.
        -11    1    1    2    0    0  0.65573863234E+02 -0.10484744225E+02  0.56789761852E+02  0.87378134862E+02  0.00000000000E+00 0.  1.
         11    1    1    2    0    0 -0.32914252856E+02 -0.71413895336E+01  0.21193206790E+02  0.39793209215E+02  0.00000000000E+00 0. -1.
</event>
<event>
 6    1  0.8661710E-006  0.1311714E+03  0.7561462E-02  0.1225728E+00
         -2   -1    0    0    0  501 -0.00000000000E+00  0.00000000000E+00  0.61538795751E+02  0.61538795751E+02  0.00000000000E+00 0.  1.
          2   -1    0    0  501    0  0.00000000000E+00 -0.00000000000E+00 -0.33437835566E+03  0.33437835566E+03  0.00000000000E+00 0. -1.
          5    1    1    2  502    0  0.75666715113E+02  0.19516079178E+02 -0.12560635352E+03  0.14798904543E+03  0.41800000000E+01 0. -1.
         -5    1    1    2    0  502 -0.19197791306E+02 -0.73068370405E+02 -0.39069163285E+02  0.85155233923E+02  0.41800000000E+01 0.  1.
        -11    1    1    2    0    0 -0.74434154653E+02  0.33876541592E+02 -0.43051975664E+02  0.92420430954E+02  0.00000000000E+00 0. -1.
         11    1    1    2    0    0  0.17965230845E+02  0.19675749636E+02 -0.65112067439E+02  0.70352441104E+02  0.00000000000E+00 0.  1.
</event>
<event>
 7    1  0.8661710E-006  0.3447311E+03  0.7561462E-02  0.1064799E+00
         -2   -1    0    0    0  501 -0.00000000000E+00  0.00000000000E+00  0.14554119469E+03  0.14554119469E+03  0.00000000000E+00 0.  1.
          2   -1    0    0  501    0  0.00000000000E+00 -0.00000000000E+00 -0.11673288081E+04  0.11673288081E+04  0.00000000000E+00 0. -1.
         23    2    1    2    0    0  0.33820235477E+03  0.13627306748E+02 -0.18150710157E+03  0.40392960851E+03  0.12509102464E+03 0.  0.
          5    1    3    3  502    0  0.21305749952E+03  0.53055368862E+02 -0.66635081198E+02  0.22949090769E+03  0.41800000000E+01 0. -1.
         -5    1    3    3    0  502  0.12514485525E+03 -0.39428062114E+02 -0.11487202038E+03  0.17443870082E+03  0.41800000000E+01 0. -1.
        -11    1    1    2    0    0 -0.12578941231E+03 -0.91681556675E+01 -0.22400877264E+03  0.25707384454E+03  0.00000000000E+00 0.  1.
         11    1    1    2    0    0 -0.21241294245E+03 -0.44591510803E+01 -0.61627173921E+03  0.65186654976E+03  0.00000000000E+00 0. -1.
</event>
<event>
 7    1  0.8661710E-006  0.1891840E+03  0.7561462E-02  0.1159199E+00
          2   -1    0    0  501    0  0.00000000000E+00  0.00000000000E+00  0.41748967973E+03  0.41748967973E+03  0.00000000000E+00 0.  1.
         -2   -1    0    0    0  501 -0.00000000000E+00 -0.00000000000E+00 -0.11814053399E+03  0.11814053399E+03  0.00000000000E+00 0. -1.
         23    2    1    2    0    0  0.18300489422E+03 -0.41901565774E+02  0.97877434251E+02  0.24591373693E+03  0.12508813435E+03 0.  0.
          5    1    3    3  502    0  0.13465345246E+03 -0.16163738701E+02  0.23354105802E+01  0.13570462502E+03  0.41800000000E+01 0.  1.
         -5    1    3    3    0  502  0.48351441756E+02 -0.25737827073E+02  0.95542023671E+02  0.11020911192E+03  0.41800000000E+01 0.  1.
        -11    1    1    2    0    0 -0.65483257329E+02  0.15878018084E+02  0.17075310767E+02  0.69510680377E+02  0.00000000000E+00 0. -1.
         11    1    1    2    0    0 -0.11752163689E+03  0.26023547690E+02  0.18439640072E+03  0.22020579640E+03  0.00000000000E+00 0.  1.
</event>
<event>
 7    1  0.8661710E-006  0.2709666E+03  0.7561462E-02  0.1100728E+00
          1   -1    0    0  501    0  0.00000000000E+00  0.00000000000E+00  0.23932636936E+04  0.23932636936E+04  0.00000000000E+00 0. -1.
         -1   -1    0    0    0  501 -0.00000000000E+00 -0.00000000000E+00 -0.33975234333E+02  0.33975234333E+02  0.00000000000E+00 0.  1.
         23    2    1    2    0    0  0.16346912467E+03 -0.20679200993E+03  0.12605603156E+04  0.12938876264E+04  0.12509112756E+03 0.  0.
          5    1    3    3  502    0  0.13424762304E+02 -0.20147774128E+02  0.39606525481E+03  0.39682655596E+03  0.41800000000E+01 0. -1.
         -5    1    3    3    0  502  0.15004436236E+03 -0.18664423580E+03  0.86449506083E+03  0.89706107040E+03  0.41800000000E+01 0. -1.
        -11    1    1    2    0    0 -0.42467136437E+02  0.12443122674E+03  0.53823552130E+03  0.55406142642E+03  0.00000000000E+00 0. -1.
         11    1    1    2    0    0 -0.12100198823E+03  0.82360783182E+02  0.56049262230E+03  0.57928987512E+03  0.00000000000E+00 0.  1.
</event>
<event>
 7    1  0.8661710E-006  0.8675310E+02  0.7561462E-02  0.1310911E+00
          3   -1    0    0  501    0  0.00000000000E+00  0.00000000000E+00  0.84430189462E+02  0.84430189462E+02  0.00000000000E+00 0. -1.
         -3   -1    0    0    0  501 -0.00000000000E+00 -0.00000000000E+00 -0.28823328007E+03  0.28823328007E+03  0.00000000000E+00 0.  1.
         23    2    1    2    0    0 -0.30571125344E+02  0.53119616433E+02 -0.22002674839E+03  0.26041141415E+03  0.12508416070E+03 0.  0.
          5    1    3    3  502    0 -0.16222792281E+02  0.36115938712E+02 -0.23159292848E+03  0.23498999327E+03  0.41800000000E+01 0. -1.
         -5    1    3    3    0  502 -0.14348333063E+02  0.17003677721E+02  0.11566180085E+02  0.25421420878E+02  0.41800000000E+01 0. -1.
        -11    1    1    2    0    0 -0.14071872798E+02 -0.63650860664E+02  0.85461008961E+01  0.65745612081E+02  0.00000000000E+00 0.  1.
         11    1    1    2    0    0  0.44642998143E+02  0.10531244231E+02  0.76775568919E+01  0.46506443296E+02  0.00000000000E+00 0. -1.
</event>
<event>
 7    1  0.8661710E-006  0.2328177E+03  0.7561462E-02  0.1124672E+00
         -2   -1    0    0    0  501 -0.00000000000E+00  0.00000000000E+00  0.15638685805E+03  0.15638685805E+03  0.00000000000E+00 0.  1.
          2   -1    0    0  501    0  0.00000000000E+00 -0.00000000000E+00 -0.38803914691E+03  0.38803914691E+03  0.00000000000E+00 0. -1.
         23    2    1    2    0    0 -0.86573525532E+02 -0.20306997129E+03 -0.81921610858E+02  0.26662943754E+03  0.12509083929E+03 0.  0.
          5    1    3    3  502    0 -0.97071990655E+02 -0.10040364171E+03 -0.86370456304E+01  0.13998547638E+03  0.41800000000E+01 0.  1.
         -5    1    3    3    0  502  0.10498465123E+02 -0.10266632957E+03 -0.73284565227E+02  0.12664396116E+03  0.41800000000E+01 0.  1.
        -11    1    1    2    0    0  0.66820344606E+02  0.12107966191E+03 -0.49689503642E+02  0.14694995663E+03  0.00000000000E+00 0.  1.
         11    1    1    2    0    0  0.19753180926E+02  0.81990309380E+02 -0.10004117436E+03  0.13084661080E+03  0.00000000000E+00 0. -1.
</event>
<event>
 7    1  0.8661710E-006  0.1163045E+03  0.7561462E-02  0.1249321E+00
          2   -1    0    0  501    0  0.00000000000E+00  0.00000000000E+00  0.26157342370E+02  0.26157342370E+02  0.00000000000E+00 0. -1.
         -2   -1    0    0    0  501 -0.00000000000E+00 -0.00000000000E+00 -0.78608698460E+03  0.78608698460E+03  0.00000000000E+00 0.  1.
         23    2    1    2    0    0  0.25308524779E+00 -0.43669326561E+02 -0.64706335431E+03  0.66048979936E+03  0.12509482978E+03 0.  0.
          5    1    3    3  502    0 -0.74149131203E+01  0.43694199680E+02 -0.20155777117E+03  0.20641504679E+03  0.41800000000E+01 0. -1.
         -5    1    3    3    0  502  0.76679983681E+01 -0.87363526241E+02 -0.44550558313E+03  0.45407475257E+03  0.41800000000E+01 0. -1.
        -11    1    1    2    0    0 -0.41960884520E+02  0.30439747026E+01 -0.36310250153E+02  0.55573517774E+02  0.00000000000E+00 0.  1.
         11    1    1    2    0    0  0.41707799272E+02  0.40625351858E+02 -0.76556037767E+02  0.96181009832E+02  0.00000000000E+00 0. -1.
</event>
<event>
 7    1  0.8661710E-006  0.8839432E+02  0.7561462E-02  0.1306787E+00
          1   -1    0    0  501    0  0.00000000000E+00  0.00000000000E+00  0.10645718030E+03  0.10645718030E+03  0.00000000000E+00 0. -1.
         -1   -1    0    0    0  501 -0.00000000000E+00 -0.00000000000E+00 -0.21177301626E+03  0.21177301626E+03  0.00000000000E+00 0.  1.
         23    2    1    2    0    0 -0.40307120165E+02 -0.77544991220E+02 -0.11568105395E+03  0.19148602201E+03  0.12508757244E+03 0.  0.
          5    1    3    3  502    0 -0.29014831280E+02 -0.55763733731E+02 -0.14194840190E+03  0.15530059767E+03  0.41800000000E+01 0. -1.
         -5    1    3    3    0  502 -0.11292288884E+02 -0.21781257490E+02  0.26267347949E+02  0.36185424335E+02  0.41800000000E+01 0. -1.
        -11    1    1    2    0    0  0.15744546715E+02  0.15167507350E+02 -0.38164777050E+02  0.43982885738E+02  0.00000000000E+00 0.  1.
         11    1    1    2    0    0  0.24562573449E+02  0.62377483870E+02  0.48529995043E+02  0.82761288820E+02  0.00000000000E+00 0. -1.
</event>
<event>
 7    1  0.8661710E-006  0.1255266E+03  0.7561462E-02  0.1234249E+00
          2   -1    0    0  501    0  0.00000000000E+00  0.00000000000E+00  0.73976839859E+03  0.73976839859E+03  0.00000000000E+00 0. -1.
         -2   -1    0    0    0  501 -0.00000000000E+00 -0.00000000000E+00 -0.25289963915E+02  0.25289963915E+02  0.00000000000E+00 0.  1.
         23    2    1    2    0    0 -0.40334648691E+02 -0.53549722059E+02  0.24753587750E+03  0.28533339248E+03  0.12508668034E+03 0.  0.
          5    1    3    3  502    0 -0.19965972609E+02  0.40319219418E+02  0.91633930435E+02  0.10216912021E+03  0.41800000000E+01 0.  1.
         -5    1    3    3    0  502 -0.20368676082E+02 -0.93868941477E+02  0.15590194706E+03  0.18316427227E+03  0.41800000000E+01 0.  1.
        -11    1    1    2    0    0  0.34134516218E+02 -0.17530511744E+02  0.14733999369E+03  0.15225491053E+03  0.00000000000E+00 0.  1.
         11    1    1    2    0    0  0.62001324730E+01  0.71080233803E+02  0.31960256348E+03  0.32747005949E+03  0.00000000000E+00 0. -1.
</event>
<event>
 7    1  0.8661710E-006  0.1323595E+03  0.7561462E-02  0.1223996E+00
          1   -1    0    0  501    0  0.00000000000E+00  0.00000000000E+00  0.14534973331E+03  0.14534973331E+03  0.00000000000E+00 0. -1.
         -1   -1    0    0    0  501 -0.00000000000E+00 -0.00000000000E+00 -0.18638410166E+03  0.18638410166E+03  0.00000000000E+00 0.  1.
         23    2    1    2    0    0  0.34695236663E+02  0.68112939689E+02 -0.11974209306E+03  0.18926880357E+03  0.12506549945E+03 0.  0.
          5    1    3    3  502    0  0.75635646320E+02  0.12191106248E+02 -0.55709595795E+02  0.94817749021E+02  0.41800000000E+01 0. -1.
         -5    1    3    3    0  502 -0.40940409657E+02  0.55921833441E+02 -0.64032497268E+02  0.94451054545E+02  0.41800000000E+01 0. -1.
        -11    1    1    2    0    0 -0.65637513877E+02 -0.51576589843E+02  0.59027763277E+02  0.10223846969E+03  0.00000000000E+00 0.  1.
         11    1    1    2    0    0  0.30942277214E+02 -0.16536349846E+02  0.19679961437E+02  0.40226561717E+02  0.00000000000E+00 0. -1.
</event>
<event>
 6    1  0.8661710E-006  0.2252605E+03  0.7561462E-02  0.1130021E+00
         -2   -1    0    0    0  501 -0.00000000000E+00  0.00000000000E+00  0.14459552408E+03  0.14459552408E+03  0.00000000000E+00 0.  1.
          2   -1    0    0  501    0  0.00000000000E+00 -0.00000000000E+00 -0.49685507473E+03  0.49685507473E+03  0.00000000000E+00 0. -1.
          5    1    1    2  502    0  0.17803161664E+03 -0.61960487553E+02 -0.28318886235E+02  0.19066669939E+03  0.41800000000E+01 0. -1.
         -5    1    1    2    0  502 -0.19919845536E+03  0.53751835909E+01 -0.17404252350E+03  0.26460761441E+03  0.41800000000E+01 0.  1.
        -11    1    1    2    0    0  0.88416031504E+01  0.44580623722E+02 -0.15992824958E+03  0.16626079204E+03  0.00000000000E+00 0.  1.
         11    1    1    2    0    0  0.12325235576E+02  0.12004680239E+02  0.10030108668E+02  0.19915492953E+02  0.00000000000E+00 0. -1.
</event>
<event>
 7    1  0.8661710E-006  0.2080898E+03  0.7561462E-02  0.1143088E+00
          2   -1    0    0  501    0  0.00000000000E+00  0.00000000000E+00  0.13778600541E+04  0.13778600541E+04  0.00000000000E+00 0. -1.
         -2   -1    0    0    0  501 -0.00000000000E+00 -0.00000000000E+00 -0.31778480796E+02  0.31778480796E+02  0.00000000000E+00 0.  1.
         23    2    1    2    0    0  0.14895481510E+03  0.97547997853E+02  0.68133015596E+03  0.71523405965E+03  0.12508329157E+03 0.  0.
          5    1    3    3  502    0  0.16643121098E+03  0.62321320800E+02  0.57095642574E+03  0.59798997275E+03  0.41800000000E+01 0. -1.
         -5    1    3    3    0  502 -0.17476395885E+02  0.35226677053E+02  0.11037373022E+03  0.11724408690E+03  0.41800000000E+01 0. -1.
        -11    1    1    2    0    0 -0.22150408962E+02 -0.63965947693E+02  0.18319326564E+03  0.19529991208E+03  0.00000000000E+00 0.  1.
         11    1    1    2    0    0 -0.12680440614E+03 -0.33582050160E+02  0.48155815172E+03  0.49910456319E+03  0.00000000000E+00 0. -1.
</event>
<event>
 7    1  0.8661710E-006  0.9844761E+02  0.7561462E-02  0.1283595E+00
         -1   -1    0    0    0  501 -0.00000000000E+00  0.00000000000E+00  0.39994123374E+03  0.39994123374E+03  0.00000000000E+00 0.  1.
          1   -1    0    0  501    0  0.00000000000E+00 -0.00000000000E+00 -0.28533938240E+02  0.28533938240E+02  0.00000000000E+00 0. -1.
         23    2    1    2    0    0 -0.25890680569E+02  0.87839678083E+01  0.22105697252E+03  0.25065571729E+03  0.11495485234E+03 0.  0.
          5    1    3    3  502    0 -0.12464822354E+02  0.55856936592E+02  0.17161960256E+03  0.18095891673E+03  0.41800000000E+01 0. -1.
         -5    1    3    3    0  502 -0.13425858215E+02 -0.47072968784E+02  0.49437369959E+02  0.69696800554E+02  0.41800000000E+01 0.  1.
        -11    1    1    2    0    0 -0.60162911901E+01  0.35386518936E+02  0.34460117020E+02  0.49758427900E+02  0.00000000000E+00 0. -1.
         11    1    1    2    0    0  0.31906971759E+02 -0.44170486744E+02  0.11589020596E+03  0.12806102679E+03  0.00000000000E+00 0.  1.
</event>
<event>
 6    1  0.8661710E-006  0.1165381E+03  0.7561462E-02  0.1248920E+00
         -1   -1    0    0    0  501 -0.00000000000E+00  0.00000000000E+00  0.70961322777E+02  0.70961322777E+02  0.00000000000E+00 0.  1.
          1   -1    0    0  501    0  0.00000000000E+00 -0.00000000000E+00 -0.27801200938E+03  0.27801200938E+03  0.00000000000E+00 0. -1.
          5    1    1    2  502    0  0.52406901728E+02  0.87663225089E+02 -0.89037677131E+02  0.13555996729E+03  0.41800000000E+01 0. -1.
         -5    1    1    2    0  502 -0.44250833934E+02 -0.44453226918E+01 -0.39090208905E+01  0.44840272547E+02  0.41800000000E+01 0.  1.
        -11    1    1    2    0    0  0.55011406921E+01 -0.49556138671E+02 -0.10988466579E+01  0.49872646740E+02  0.00000000000E+00 0.  1.
         11    1    1    2    0    0 -0.13657208486E+02 -0.33661763726E+02 -0.11300514192E+03  0.11870044558E+03  0.00000000000E+00 0. -1.
</event>
<event>
 7    1  0.8661710E-006  0.1174193E+03  0.7561462E-02  0.1247416E+00
         -1   -1    0    0    0  501 -0.00000000000E+00  0.00000000000E+00  0.50443898957E+02  0.50443898957E+02  0.00000000000E+00 0.  1.
          1   -1    0    0  501    0  0.00000000000E+00 -0.00000000000E+00 -0.31075252435E+03  0.31075252435E+03  0.00000000000E+00 0. -1.
         23    2    1    2    0    0 -0.10628232776E+01  0.56678953239E+02 -0.10757124107E+03  0.17444968083E+03  0.12508991128E+03 0.  0.
          5    1    3    3  502    0 -0.56931143576E+02  0.53254710710E+00 -0.35127445618E+02  0.67028714376E+02  0.41800000000E+01 0.  1.
         -5    1    3    3    0  502  0.55868320298E+02  0.56146406132E+02 -0.72443795449E+02  0.10742096645E+03  0.41800000000E+01 0.  1.
        -11    1    1    2    0    0  0.27936133741E+02 -0.64630671423E+02 -0.69562016874E+02  0.98976893508E+02  0.00000000000E+00 0.  1.
         11    1    1    2    0    0 -0.26873310463E+02  0.79517181842E+01 -0.83175367456E+02  0.87769848973E+02  0.00000000000E+00 0. -1.
</event>
<event>
 7    1  0.8661710E-006  0.9233851E+02  0.7561462E-02  0.1297285E+00
          2   -1    0    0  501    0  0.00000000000E+00  0.00000000000E+00  0.44097437819E+02  0.44097437819E+02  0.00000000000E+00 0. -1.
         -2   -1    0    0    0  501 -0.00000000000E+00 -0.00000000000E+00 -0.34007646571E+03  0.34007646571E+03  0.00000000000E+00 0.  1.
         23    2    1    2    0    0 -0.15183242678E+02 -0.48954994200E+02 -0.20568822698E+03  0.24613843090E+03  0.12509739458E+03 0.  0.
          5    1    3    3  502    0  0.30367785206E+02 -0.56426277550E+02 -0.43761026693E+02  0.77708603344E+02  0.41800000000E+01 0.  1.
         -5    1    3    3    0  502 -0.45551027884E+02  0.74712833501E+01 -0.16192720029E+03  0.16842982755E+03  0.41800000000E+01 0.  1.
        -11    1    1    2    0    0 -0.12976412309E+02 -0.44670729954E+01 -0.74310932511E+02  0.75567563863E+02  0.00000000000E+00 0.  1.
         11    1    1    2    0    0  0.28159654987E+02  0.53422067195E+02 -0.15979868403E+02  0.62467908774E+02  0.00000000000E+00 0. -1.
</event>
<event>
 7    1  0.8661710E-006  0.1300324E+03  0.7561462E-02  0.1227408E+00
         -1   -1    0    0    0  501 -0.00000000000E+00  0.00000000000E+00  0.21891029371E+03  0.21891029371E+03  0.00000000000E+00 0.  1.
          1   -1    0    0  501    0  0.00000000000E+00 -0.00000000000E+00 -0.11036000392E+03  0.11036000392E+03  0.00000000000E+00 0. -1.
         23    2    1    2    0    0  0.74556306935E+02 -0.24207916073E+02  0.14179148479E+03  0.20468916292E+03  0.12509261430E+03 0.  0.
          5    1    3    3  502    0  0.90569790970E+02 -0.54376651172E+02  0.13158931713E+03  0.16879848344E+03  0.41800000000E+01 0. -1.
         -5    1    3    3    0  502 -0.16013484036E+02  0.30168735100E+02  0.10202167660E+02  0.35890679479E+02  0.41800000000E+01 0. -1.
        -11    1    1    2    0    0 -0.41193771558E+02 -0.33619394328E+02 -0.17642406687E+02  0.56021826139E+02  0.00000000000E+00 0.  1.
         11    1    1    2    0    0 -0.33362535377E+02  0.57827310401E+02 -0.15598788310E+02  0.68559308571E+02  0.00000000000E+00 0. -1.
</event>
<event>
 7    1  0.8661710E-006  0.8444580E+02  0.7561462E-02  0.1316888E+00
         -2   -1    0    0    0  501 -0.00000000000E+00  0.00000000000E+00  0.65404165733E+02  0.65404165733E+02  0.00000000000E+00 0.  1.
          2   -1    0    0  501    0  0.00000000000E+00 -0.00000000000E+00 -0.20960343209E+03  0.20960343209E+03  0.00000000000E+00 0. -1.
         23    2    1    2    0    0 -0.49385284848E+01 -0.20123248104E+01 -0.26573101725E+02  0.12801730729E+03  0.12511539760E+03 0.  0.
          5    1    3    3  502    0 -0.41075822127E+02 -0.12471234495E+02  0.35131598095E+02  0.55627838696E+02  0.41800000000E+01 0. -1.
         -5    1    3    3    0  502  0.36137293642E+02  0.10458909685E+02 -0.61704699820E+02  0.72389468595E+02  0.41800000000E+01 0. -1.
        -11    1    1    2    0    0 -0.17915576205E+02  0.39857516939E+02 -0.63887262035E+02  0.77402660017E+02  0.00000000000E+00 0. -1.
         11    1    1    2    0    0  0.22854104690E+02 -0.37845192129E+02 -0.53738902597E+02  0.69587630515E+02  0.00000000000E+00 0.  1.
</event>
<event>
 7    1  0.8661710E-006  0.1139685E+03  0.7561462E-02  0.1253392E+00
          2   -1    0    0  501    0  0.00000000000E+00  0.00000000000E+00  0.19997410075E+03  0.19997410075E+03  0.00000000000E+00 0. -1.
         -2   -1    0    0    0  501 -0.00000000000E+00 -0.00000000000E+00 -0.92546419832E+02  0.92546419832E+02  0.00000000000E+00 0.  1.
         23    2    1    2    0    0  0.56216062461E+01  0.79993394388E+02  0.38757623686E+02  0.15356017962E+03  0.12509208516E+03 0.  0.
          5    1    3    3  502    0  0.51482715324E+02  0.86973622202E+02  0.34111510108E+02  0.10675180775E+03  0.41800000000E+01 0. -1.
         -5    1    3    3    0  502 -0.45861109078E+02 -0.69802278143E+01  0.46461135785E+01  0.46808371875E+02  0.41800000000E+01 0. -1.
        -11    1    1    2    0    0 -0.17469184964E+01 -0.35485582608E+02 -0.19200242783E+02  0.40384744895E+02  0.00000000000E+00 0.  1.
         11    1    1    2    0    0 -0.38746877497E+01 -0.44507811779E+02  0.87870300018E+02  0.98575596066E+02  0.00000000000E+00 0. -1.
</event>
<event>
 7    1  0.8661710E-006  0.9995594E+02  0.7561462E-02  0.1280389E+00
          2   -1    0    0  501    0  0.00000000000E+00  0.00000000000E+00  0.13086973986E+03  0.13086973986E+03  0.00000000000E+00 0. -1.
         -2   -1    0    0    0  501 -0.00000000000E+00 -0.00000000000E+00 -0.13124977178E+03  0.13124977178E+03  0.00000000000E+00 0.  1.
         23    2    1    2    0    0  0.38228234551E+02  0.31214375102E+02 -0.53706162398E+02  0.14480426534E+03  0.12509271862E+03 0.  0.
          5    1    3    3  502    0  0.30598649727E+02  0.79195713521E+02 -0.41200233875E+02  0.94462532660E+02  0.41800000000E+01 0.  1.
         -5    1    3    3    0  502  0.76295848240E+01 -0.47981338419E+02 -0.12505928523E+02  0.50341732680E+02  0.41800000000E+01 0.  1.
        -11    1    1    2    0    0  0.59143121629E+01 -0.19637355291E+02 -0.21473348966E+02  0.29693594040E+02  0.00000000000E+00 0.  1.
         11    1    1    2    0    0 -0.44142546714E+02 -0.11577019811E+02  0.74799479452E+02  0.87621652258E+02  0.00000000000E+00 0. -1.
</event>
<event>
 7    1  0.8661710E-006  0.1138872E+03  0.7561462E-02  0.1253536E+00
         -2   -1    0    0    0  501 -0.00000000000E+00  0.00000000000E+00  0.20870296129E+02  0.20870296129E+02  0.00000000000E+00 0. -1.
          2   -1    0    0  501    0  0.00000000000E+00 -0.00000000000E+00 -0.84757772023E+03  0.84757772023E+03  0.00000000000E+00 0.  1.
         23    2    1    2    0    0 -0.55095399214E+02 -0.30476428020E+02 -0.32035067261E+03  0.34962261411E+03  0.12508838146E+03 0.  0.
          5    1    3    3  502    0 -0.56722761806E+02 -0.62557562110E+02 -0.29924649669E+03  0.31096118482E+03  0.41800000000E+01 0. -1.
         -5    1    3    3    0  502  0.16273625919E+01  0.32081134090E+02 -0.21104175919E+02  0.38661429290E+02  0.41800000000E+01 0. -1.
        -11    1    1    2    0    0  0.16531999986E+02 -0.32800463730E+02 -0.21949868924E+03  0.22255078527E+03  0.00000000000E+00 0.  1.
         11    1    1    2    0    0  0.38563399228E+02  0.63276891750E+02 -0.28685806226E+03  0.29627461699E+03  0.00000000000E+00 0. -1.
</event>
<event>
 7    1  0.8661710E-006  0.8152676E+02  0.7561462E-02  0.1324774E+00
          2   -1    0    0  501    0  0.00000000000E+00  0.00000000000E+00  0.29350544225E+03  0.29350544225E+03  0.00000000000E+00 0. -1.
         -2   -1    0    0    0  501 -0.00000000000E+00 -0.00000000000E+00 -0.71280415815E+02  0.71280415815E+02  0.00000000000E+00 0.  1.
         23    2    1    2    0    0  0.59380779648E+01  0.54348928576E+02  0.22746788996E+02  0.13839802250E+03  0.12509008520E+03 0.  0.
          5    1    3    3  502    0 -0.11613672601E+02 -0.22393449776E+00  0.65569521233E+02  0.66721526157E+02  0.41800000000E+01 0. -1.
         -5    1    3    3    0  502  0.17551750566E+02  0.54572863073E+02 -0.42822732237E+02  0.71676496344E+02  0.41800000000E+01 0. -1.
        -11    1    1    2    0    0 -0.19827584109E+02  0.13491709437E+02  0.11342290334E+03  0.11593064443E+03  0.00000000000E+00 0. -1.
         11    1    1    2    0    0  0.13889506144E+02 -0.67840638013E+02  0.86055334094E+02  0.11045719113E+03  0.00000000000E+00 0.  1.
</event>
<event>
 7    1  0.8661710E-006  0.9373676E+02  0.7561462E-02  0.1294047E+00
          3   -1    0    0  501    0  0.00000000000E+00  0.00000000000E+00  0.66439474238E+03  0.66439474238E+03  0.00000000000E+00 0. -1.
         -3   -1    0    0    0  501 -0.00000000000E+00 -0.00000000000E+00 -0.18838411180E+02  0.18838411180E+02  0.00000000000E+00 0.  1.
         23    2    1    2    0    0 -0.33080463530E+02  0.19680547281E+02  0.25269112777E+03  0.28457340249E+03  0.12509026476E+03 0.  0.
          5    1    3    3  502    0  0.57879671320E+01 -0.44245653423E+02  0.15562229429E+03  0.16194736580E+03  0.41800000000E+01 0.  1.
         -5    1    3    3    0  502 -0.38868430662E+02  0.63926200704E+02  0.97068833482E+02  0.12262603668E+03  0.41800000000E+01 0.  1.
        -11    1    1    2    0    0  0.44930957297E+02 -0.21132740462E+00  0.26012894819E+03  0.26398088050E+03  0.00000000000E+00 0. -1.
         11    1    1    2    0    0 -0.11850493767E+02 -0.19469219876E+02  0.13273625524E+03  0.13467887058E+03  0.00000000000E+00 0.  1.
</event>
<event>
 7    1  0.8661710E-006  0.1253463E+03  0.7561462E-02  0.1234529E+00
          1   -1    0    0  501    0  0.00000000000E+00  0.00000000000E+00  0.13561609958E+02  0.13561609958E+02  0.00000000000E+00 0.  1.
         -1   -1    0    0    0  501 -0.00000000000E+00 -0.00000000000E+00 -0.13403969034E+04  0.13403969034E+04  0.00000000000E+00 0. -1.
         23    2    1    2    0    0 -0.75429421049E+01  0.77457021443E+02 -0.84613620342E+03  0.85886584455E+03  0.12509027965E+03 0.  0.
          5    1    3    3  502    0  0.79858744307E+01  0.10436786223E+03 -0.47532100095E+03  0.48672779991E+03  0.41800000000E+01 0.  1.
         -5    1    3    3    0  502 -0.15528816536E+02 -0.26910840787E+02 -0.37081520246E+03  0.37213804465E+03  0.41800000000E+01 0.  1.
        -11    1    1    2    0    0  0.39524848951E+02 -0.72009813009E+02 -0.39516955477E+03  0.40361690236E+03  0.00000000000E+00 0. -1.
         11    1    1    2    0    0 -0.31981906846E+02 -0.54472084339E+01 -0.85529535254E+02  0.91475766441E+02  0.00000000000E+00 0.  1.
</event>
<event>
 7    1  0.8661710E-006  0.7536319E+02  0.7561462E-02  0.1342750E+00
         -1   -1    0    0    0  501 -0.00000000000E+00  0.00000000000E+00  0.19262922736E+03  0.19262922736E+03  0.00000000000E+00 0.  1.
          1   -1    0    0  501    0  0.00000000000E+00 -0.00000000000E+00 -0.65296874431E+02  0.65296874431E+02  0.00000000000E+00 0. -1.
         23    2    1    2    0    0 -0.10888896274E+02 -0.85055044062E+01  0.10536680697E+03  0.16413807411E+03  0.12509289226E+03 0.  0.
          5    1    3    3  502    0 -0.60617103918E+02 -0.11601518948E+01  0.94792281595E+02  0.11260030324E+03  0.41800000000E+01 0.  1.
         -5    1    3    3    0  502  0.49728207644E+02 -0.73453525114E+01  0.10574525375E+02  0.51537770866E+02  0.41800000000E+01 0.  1.
        -11    1    1    2    0    0  0.22939979439E+02 -0.26483611236E+01 -0.30817696541E+02  0.38509568855E+02  0.00000000000E+00 0. -1.
         11    1    1    2    0    0 -0.12051083165E+02  0.11153865530E+02  0.52783242497E+02  0.55278458827E+02  0.00000000000E+00 0.  1.
</event>
<event>
 7    1  0.8661710E-006  0.1345881E+03  0.7561462E-02  0.1220802E+00
         -2   -1    0    0    0  501 -0.00000000000E+00  0.00000000000E+00  0.65337469253E+02  0.65337469253E+02  0.00000000000E+00 0.  1.
          2   -1    0    0  501    0  0.00000000000E+00 -0.00000000000E+00 -0.31364435930E+03  0.31364435930E+03  0.00000000000E+00 0. -1.
         23    2    1    2    0    0 -0.92884463620E+02 -0.13378601234E+02 -0.13458491204E+03  0.20631977285E+03  0.12509292373E+03 0.  0.
          5    1    3    3  502    0 -0.31479424100E+02  0.51281035951E+02 -0.25818629551E+02  0.65610767575E+02  0.41800000000E+01 0.  1.
         -5    1    3    3    0  502 -0.61405039521E+02 -0.64659637185E+02 -0.10876628248E+03  0.14070900527E+03  0.41800000000E+01 0.  1.
        -11    1    1    2    0    0  0.57926341479E+02 -0.28896162590E+02 -0.27200940451E+02  0.70216382782E+02  0.00000000000E+00 0.  1.
         11    1    1    2    0    0  0.34958122141E+02  0.42274763824E+02 -0.86521037560E+02  0.10244567292E+03  0.00000000000E+00 0. -1.
</event>
<event>
 7    1  0.8661710E-006  0.3002920E+03  0.7561462E-02  0.1085095E+00
          2   -1    0    0  501    0  0.00000000000E+00  0.00000000000E+00  0.23509461180E+03  0.23509461180E+03  0.00000000000E+00 0. -1.
         -2   -1    0    0    0  501 -0.00000000000E+00 -0.00000000000E+00 -0.56185727407E+03  0.56185727407E+03  0.00000000000E+00 0.  1.
         23    2    1    2    0    0  0.25502399170E+03  0.12682219834E+03 -0.38238173291E+03  0.49293434921E+03  0.12508947449E+03 0.  0.
          5    1    3    3  502    0  0.11779381046E+03  0.12750353943E+03 -0.22094420009E+03  0.28100951283E+03  0.41800000000E+01 0.  1.
         -5    1    3    3    0  502  0.13723018124E+03 -0.68134108226E+00 -0.16143753282E+03  0.21192483638E+03  0.41800000000E+01 0.  1.
        -11    1    1    2    0    0 -0.14742925172E+03 -0.10187020087E+03 -0.24817161528E+01  0.17921797065E+03  0.00000000000E+00 0.  1.
         11    1    1    2    0    0 -0.10759473998E+03 -0.24951997470E+02  0.58100786792E+02  0.12479956601E+03  0.00000000000E+00 0. -1.
</event>
<event>
 7    1  0.8661710E-006  0.1093967E+03  0.7561462E-02  0.1261691E+00
          1   -1    0    0  501    0  0.00000000000E+00  0.00000000000E+00  0.54703502286E+02  0.54703502286E+02  0.00000000000E+00 0. -1.
         -1   -1    0    0    0  501 -0.00000000000E+00 -0.00000000000E+00 -0.37534711300E+03  0.37534711300E+03  0.00000000000E+00 0.  1.
         23    2    1    2    0    0  0.37381998711E+02  0.47866711717E+02 -0.29117867509E+03  0.31781773822E+03  0.11195739360E+03 0.  0.
          5    1    3    3  502    0 -0.27070346025E+02 -0.18361951190E+02 -0.54468171605E+02  0.63672749300E+02  0.41800000000E+01 0. -1.
         -5    1    3    3    0  502  0.64452344736E+02  0.66228662907E+02 -0.23671050349E+03  0.25414498892E+03  0.41800000000E+01 0.  1.
        -11    1    1    2    0    0 -0.54095174706E+02 -0.53093677215E+02  0.24417739736E+01  0.75836592400E+02  0.00000000000E+00 0. -1.
         11    1    1    2    0    0  0.16713175994E+02  0.52269654982E+01 -0.31906709594E+02  0.36396284663E+02  0.00000000000E+00 0.  1.
</event>
<event>
 7    1  0.1021548E-005  0.1126332E+03  0.7561462E-02  0.1255770E+00
          2   -1    0    0  501    0  0.00000000000E+00  0.00000000000E+00  0.28484514089E+03  0.28484514089E+03  0.00000000000E+00 0. -1.
         -2   -1    0    0    0  501 -0.00000000000E+00 -0.00000000000E+00 -0.73031014157E+02  0.73031014157E+02  0.00000000000E+00 0.  1.
         23    2    1    2    0    0 -0.18581965283E+02  0.93229992833E+02  0.10776483857E+03  0.19051959354E+03  0.12508930448E+03 0.  0.
          5    1    3    3  502    0  0.10113334170E+02  0.34513361624E+02 -0.23958372415E+02  0.43415753678E+02  0.41800000000E+01 0.  1.
         -5    1    3    3    0  502 -0.28695299453E+02  0.58716631209E+02  0.13172321098E+03  0.14710383986E+03  0.41800000000E+01 0.  1.
        -11    1    1    2    0    0  0.49823354426E+02 -0.55339534063E+02  0.88896076435E+02  0.11596267970E+03  0.00000000000E+00 0. -1.
         11    1    1    2    0    0 -0.31241389143E+02 -0.37890458770E+02  0.15153211725E+02  0.51393881805E+02  0.00000000000E+00 0.  1.
</event>
<event>
 7    1  0.8661710E-006  0.9955275E+02  0.7561462E-02  0.1281239E+00
         -2   -1    0    0    0  501 -0.00000000000E+00  0.00000000000E+00  0.23955886847E+03  0.23955886847E+03  0.00000000000E+00 0.  1.
          2   -1    0    0  501    0  0.00000000000E+00 -0.00000000000E+00 -0.10864287235E+03  0.10864287235E+03  0.00000000000E+00 0. -1.
         23    2    1    2    0    0  0.80840475360E+02 -0.46756075240E+02  0.15000048979E+03  0.21649327460E+03  0.12509147846E+03 0.  0.
          5    1    3    3  502    0  0.24033266060E+02  0.89850839856E+01 -0.17268001020E+02  0.31208746706E+02  0.41800000000E+01 0. -1.
         -5    1    3    3    0  502  0.56807209300E+02 -0.55741159226E+02  0.16726849081E+03  0.18528452790E+03  0.41800000000E+01 0. -1.
        -11    1    1    2    0    0 -0.51562660294E+02  0.28633511197E+02  0.34266184221E+02  0.68211122855E+02  0.00000000000E+00 0.  1.
         11    1    1    2    0    0 -0.29277815066E+02  0.18122564043E+02 -0.53350677896E+02  0.63497343366E+02  0.00000000000E+00 0. -1.
</event>
<event>
 7    1  0.8661710E-006  0.1092833E+03  0.7561462E-02  0.1261903E+00
         -2   -1    0    0    0  501 -0.00000000000E+00  0.00000000000E+00  0.29414187975E+02  0.29414187975E+02  0.00000000000E+00 0.  1.
          2   -1    0    0  501    0  0.00000000000E+00 -0.00000000000E+00 -0.61370285162E+03  0.61370285162E+03  0.00000000000E+00 0. -1.
         23    2    1    2    0    0 -0.71325028827E+01  0.19088140261E+02 -0.13810038964E+03  0.18744191417E+03  0.12509006304E+03 0.  0.
          5    1    3    3  502    0  0.26268922322E+02 -0.46048381369E+02 -0.52409677042E+02  0.74664291025E+02  0.41800000000E+01 0. -1.
         -5    1    3    3    0  502 -0.33401425205E+02  0.65136521630E+02 -0.85690712603E+02  0.11277762314E+03  0.41800000000E+01 0. -1.
        -11    1    1    2    0    0  0.35034857997E+02 -0.42898161891E+02 -0.24649785562E+03  0.25264379350E+03  0.00000000000E+00 0. -1.
         11    1    1    2    0    0 -0.27902355115E+02  0.23810021631E+02 -0.19969041838E+03  0.20303133193E+03  0.00000000000E+00 0.  1.
</event>
<event>
 7    1  0.8661710E-006  0.5404991E+02  0.7561462E-02  0.1424646E+00
          2   -1    0    0  501    0  0.00000000000E+00  0.00000000000E+00  0.26329708505E+03  0.26329708505E+03  0.00000000000E+00 0. -1.
         -2   -1    0    0    0  501 -0.00000000000E+00 -0.00000000000E+00 -0.54845576101E+02  0.54845576101E+02  0.00000000000E+00 0.  1.
         23    2    1    2    0    0  0.48075252125E+02 -0.12637066537E+02  0.10314662627E+03  0.16957857181E+03  0.12508693053E+03 0.  0.
          5    1    3    3  502    0  0.28393401350E+02 -0.20268594315E+02 -0.22749148280E+02  0.41856866858E+02  0.41800000000E+01 0.  1.
         -5    1    3    3    0  502  0.19681850776E+02  0.76315277779E+01  0.12589577455E+03  0.12772170495E+03  0.41800000000E+01 0.  1.
        -11    1    1    2    0    0 -0.28474347661E+02  0.67461166221E+00 -0.10611701157E+02  0.30394930121E+02  0.00000000000E+00 0.  1.
         11    1    1    2    0    0 -0.19600904464E+02  0.11962454875E+02  0.11591658383E+03  0.11816915921E+03  0.00000000000E+00 0. -1.
</event>
<event>
 7    1  0.8661710E-006  0.8931950E+02  0.7561462E-02  0.1304508E+00
         -2   -1    0    0    0  501 -0.00000000000E+00  0.00000000000E+00  0.51249731375E+02  0.51249731375E+02  0.00000000000E+00 0.  1.
          2   -1    0    0  501    0  0.00000000000E+00 -0.00000000000E+00 -0.33729411359E+03  0.33729411359E+03  0.00000000000E+00 0. -1.
         23    2    1    2    0    0 -0.58039355346E+02  0.38619489707E+02 -0.14385317261E+03  0.20299020434E+03  0.12510498006E+03 0.  0.
          5    1    3    3  502    0 -0.56958855538E+02  0.42270137983E+02 -0.16576998243E+03  0.18035585731E+03  0.41800000000E+01 0.  1.
         -5    1    3    3    0  502 -0.10804998080E+01 -0.36506482768E+01  0.21916809827E+02  0.22634347034E+02  0.41800000000E+01 0.  1.
        -11    1    1    2    0    0 -0.52916577675E+01  0.16900936046E+02  0.27470869969E+01  0.17921767996E+02  0.00000000000E+00 0.  1.
         11    1    1    2    0    0  0.63331013113E+02 -0.55520425752E+02 -0.14493829661E+03  0.16763187263E+03  0.00000000000E+00 0. -1.
</event>
<event>
 7    1  0.8661710E-006  0.8886875E+02  0.7561462E-02  0.1305615E+00
         -2   -1    0    0    0  501 -0.00000000000E+00  0.00000000000E+00  0.10062132912E+03  0.10062132912E+03  0.00000000000E+00 0. -1.
          2   -1    0    0  501    0  0.00000000000E+00 -0.00000000000E+00 -0.17870513530E+03  0.17870513530E+03  0.00000000000E+00 0.  1.
         23    2    1    2    0    0 -0.22476004265E+02  0.25387314179E+00  0.35542089133E+02  0.13197070350E+03  0.12509113183E+03 0.  0.
          5    1    3    3  502    0 -0.49293249728E+02  0.49317052852E+02  0.28566266637E+02  0.75468537553E+02  0.41800000000E+01 0. -1.
         -5    1    3    3    0  502  0.26817245462E+02 -0.49063179711E+02  0.69758224957E+01  0.56502165950E+02  0.41800000000E+01 0. -1.
        -11    1    1    2    0    0  0.23050005027E+02  0.20623314047E+02 -0.12124232030E+03  0.12512523345E+03  0.00000000000E+00 0.  1.
         11    1    1    2    0    0 -0.57400076153E+00 -0.20877187189E+02  0.76164249932E+01  0.22230527467E+02  0.00000000000E+00 0. -1.
</event>
<event>
 7    1  0.8661710E-006  0.7216043E+02  0.7561462E-02  0.1352897E+00
         -2   -1    0    0    0  501 -0.00000000000E+00  0.00000000000E+00  0.18729999011E+03  0.18729999011E+03  0.00000000000E+00 0.  1.
          2   -1    0    0  501    0  0.00000000000E+00 -0.00000000000E+00 -0.81142630775E+02  0.81142630775E+02  0.00000000000E+00 0. -1.
         23    2    1    2    0    0 -0.12199537485E+02 -0.42600644110E+02  0.11786262282E+03  0.16879563976E+03  0.11241319562E+03 0.  0.
          5    1    3    3  502    0 -0.11034963713E+02 -0.26901930044E+02 -0.16335616228E+02  0.33612631878E+02  0.41800000000E+01 0. -1.
         -5    1    3    3    0  502 -0.11645737718E+01 -0.15698714066E+02  0.13419823905E+03  0.13518300788E+03  0.41800000000E+01 0.  1.
        -11    1    1    2    0    0 -0.35956702937E+02  0.34487622082E+02 -0.97856387893E+01  0.50774396003E+02  0.00000000000E+00 0.  1.
         11    1    1    2    0    0  0.48156240421E+02  0.81130220272E+01 -0.19196246957E+01  0.48872585126E+02  0.00000000000E+00 0. -1.
</event>
<event>
 7    1  0.8661710E-006  0.8873787E+02  0.7561462E-02  0.1305937E+00
          1   -1    0    0  501    0  0.00000000000E+00  0.00000000000E+00  0.39725975970E+02  0.39725975970E+02  0.00000000000E+00 0. -1.
         -1   -1    0    0    0  501 -0.00000000000E+00 -0.00000000000E+00 -0.43104820107E+03  0.43104820107E+03  0.00000000000E+00 0.  1.
         23    2    1    2    0    0  0.22151584824E+02  0.48218853561E+01 -0.35233380931E+03  0.37456920622E+03  0.12509609817E+03 0.  0.
          5    1    3    3  502    0  0.50220968902E+01 -0.51554481802E+02 -0.25864331063E+03  0.26381228285E+03  0.41800000000E+01 0.  1.
         -5    1    3    3    0  502  0.17129487934E+02  0.56376367158E+02 -0.93690498685E+02  0.11075692337E+03  0.41800000000E+01 0.  1.
        -11    1    1    2    0    0 -0.43502943917E+02 -0.96240577369E+01 -0.53743774969E+02  0.69810614986E+02  0.00000000000E+00 0.  1.
         11    1    1    2    0    0  0.21351359093E+02  0.48021723808E+01  0.14755359188E+02  0.26394355826E+02  0.00000000000E+00 0. -1.
</event>
<event>
 7    1  0.8661710E-006  0.1337158E+03  0.7561462E-02  0.1222044E+00
          2   -1    0    0  501    0  0.00000000000E+00  0.00000000000E+00  0.28450270754E+02  0.28450270754E+02  0.00000000000E+00 0. -1.
         -2   -1    0    0    0  501 -0.00000000000E+00 -0.00000000000E+00 -0.70998924014E+03  0.70998924014E+03  0.00000000000E+00 0.  1.
         23    2    1    2    0    0 -0.17338360288E+02  0.87927959977E+02 -0.41772994129E+03  0.44516292506E+03  0.12505911047E+03 0.  0.
          5    1    3    3  502    0 -0.27787189867E+02  0.11065263793E+03 -0.24158557718E+03  0.26720254060E+03  0.41800000000E+01 0. -1.
         -5    1    3    3    0  502  0.10448829579E+02 -0.22724677957E+02 -0.17614436411E+03  0.17796038446E+03  0.41800000000E+01 0. -1.
        -11    1    1    2    0    0  0.26853097289E+02  0.10638359145E+02 -0.66949670698E+02  0.72914483650E+02  0.00000000000E+00 0.  1.
         11    1    1    2    0    0 -0.95147370006E+01 -0.98566319121E+02 -0.19685935739E+03  0.22036210218E+03  0.00000000000E+00 0. -1.
</event>
<event>
 7    1  0.8661710E-006  0.1092758E+03  0.7561462E-02  0.1261917E+00
          3   -1    0    0  501    0  0.00000000000E+00  0.00000000000E+00  0.12880881011E+02  0.12880881011E+02  0.00000000000E+00 0. -1.
         -3   -1    0    0    0  501 -0.00000000000E+00 -0.00000000000E+00 -0.17187257809E+04  0.17187257809E+04  0.00000000000E+00 0.  1.
         23    2    1    2    0    0  0.79146612850E+01  0.90015910628E+02 -0.11893449891E+04  0.11993141716E+04  0.12508985966E+03 0.  0.
          5    1    3    3  502    0  0.29599894644E+01  0.28342137773E+02 -0.99280832365E+03  0.99322599554E+03  0.41800000000E+01 0.  1.
         -5    1    3    3    0  502  0.49546718206E+01  0.61673772855E+02 -0.19653666549E+03  0.20608817606E+03  0.41800000000E+01 0.  1.
        -11    1    1    2    0    0  0.27730821329E+02  0.32221542681E+01 -0.88121865249E+02  0.92438324653E+02  0.00000000000E+00 0.  1.
         11    1    1    2    0    0 -0.35645482614E+02 -0.93238064896E+02 -0.42837804548E+03  0.43985416563E+03  0.00000000000E+00 0. -1.
</event>
<event>
 7    1  0.8661710E-006  0.1123051E+03  0.7561462E-02  0.1256360E+00
         -2   -1    0    0    0  501 -0.00000000000E+00  0.00000000000E+00  0.47357780939E+03  0.47357780939E+03  0.00000000000E+00 0.  1.
          2   -1    0    0  501    0  0.00000000000E+00 -0.00000000000E+00 -0.34593220759E+02  0.34593220759E+02  0.00000000000E+00 0. -1.
         23    2    1    2    0    0  0.26740816679E+02 -0.62039242404E+02  0.27087061540E+03  0.30591569389E+03  0.12509829176E+03 0.  0.
          5    1    3    3  502    0  0.47061781151E+02 -0.12459296130E-02  0.29185787823E+02  0.55534618550E+02  0.41800000000E+01 0.  1.
         -5    1    3    3    0  502 -0.20320964472E+02 -0.62037996474E+02  0.24168482758E+03  0.25038107534E+03  0.41800000000E+01 0.  1.
        -11    1    1    2    0    0 -0.37471179053E+02 -0.10265146009E+02  0.49485845704E+02  0.62915112710E+02  0.00000000000E+00 0.  1.
         11    1    1    2    0    0  0.10730362374E+02  0.72304388413E+02  0.11862812752E+03  0.13934022356E+03  0.00000000000E+00 0. -1.
</event>
<event>
 7    1  0.8661710E-006  0.1287397E+03  0.7561462E-02  0.1229338E+00
          1   -1    0    0  501    0  0.00000000000E+00  0.00000000000E+00  0.84488460390E+02  0.84488460390E+02  0.00000000000E+00 0. -1.
         -1   -1    0    0    0  501 -0.00000000000E+00 -0.00000000000E+00 -0.26133251136E+03  0.26133251136E+03  0.00000000000E+00 0.  1.
         23    2    1    2    0    0  0.30262206107E+02 -0.94553100670E+02 -0.11893748350E+03  0.19912257423E+03  0.12509030587E+03 0.  0.
          5    1    3    3  502    0 -0.34339087086E+02 -0.33347927223E+02 -0.95649517242E+02  0.10703999113E+03  0.41800000000E+01 0. -1.
         -5    1    3    3    0  502  0.64601293193E+02 -0.61205173446E+02 -0.23287966263E+02  0.92082583106E+02  0.41800000000E+01 0. -1.
        -11    1    1    2    0    0 -0.49074094500E+02  0.42243679554E+02  0.22489417630E+01  0.64790840034E+02  0.00000000000E+00 0. -1.
         11    1    1    2    0    0  0.18811888393E+02  0.52309421115E+02 -0.60155509230E+02  0.81907557484E+02  0.00000000000E+00 0.  1.
</event>
<event>
 7    1  0.8661710E-006  0.3572297E+03  0.7561462E-02  0.1059686E+00
         -1   -1    0    0    0  501 -0.00000000000E+00  0.00000000000E+00  0.77468043517E+02  0.77468043517E+02  0.00000000000E+00 0.  1.
          1   -1    0    0  501    0  0.00000000000E+00 -0.00000000000E+00 -0.17303334800E+04  0.17303334800E+04  0.00000000000E+00 0. -1.
         23    2    1    2    0    0  0.34776531761E+03 -0.84441595548E+01 -0.75741812418E+03  0.84281764401E+03  0.12508935302E+03 0.  0.
          5    1    3    3  502    0  0.20401139437E+03  0.50106617938E+02 -0.37099246178E+03  0.42636158515E+03  0.41800000000E+01 0. -1.
         -5    1    3    3    0  502  0.14375392325E+03 -0.58550777493E+02 -0.38642566241E+03  0.41645605886E+03  0.41800000000E+01 0. -1.
        -11    1    1    2    0    0 -0.24831096901E+03 -0.70579152384E+01 -0.73228638382E+03  0.77327323724E+03  0.00000000000E+00 0. -1.
         11    1    1    2    0    0 -0.99454348603E+02  0.15502074793E+02 -0.16316092846E+03  0.19171064226E+03  0.00000000000E+00 0.  1.
</event>
<event>
 7    1  0.8661710E-006  0.1382312E+03  0.7561462E-02  0.1215729E+00
         -2   -1    0    0    0  501 -0.00000000000E+00  0.00000000000E+00  0.23120380173E+02  0.23120380173E+02  0.00000000000E+00 0.  1.
          2   -1    0    0  501    0  0.00000000000E+00 -0.00000000000E+00 -0.84467276392E+03  0.84467276392E+03  0.00000000000E+00 0. -1.
         23    2    1    2    0    0 -0.27824688564E+02 -0.87311543797E+02 -0.40695705148E+03  0.43549817683E+03  0.12508837397E+03 0.  0.
          5    1    3    3  502    0  0.36855503333E+02  0.96956025032E+01 -0.10584249142E+03  0.11257192467E+03  0.41800000000E+01 0. -1.
         -5    1    3    3    0  502 -0.64680191897E+02 -0.97007146300E+02 -0.30111456006E+03  0.32292625216E+03  0.41800000000E+01 0. -1.
        -11    1    1    2    0    0 -0.25543165448E+02  0.50598022072E+02 -0.22087186221E+03  0.22802849088E+03  0.00000000000E+00 0.  1.
         11    1    1    2    0    0  0.53367854012E+02  0.36713521725E+02 -0.19372347006E+03  0.20426647638E+03  0.00000000000E+00 0. -1.
</event>
<event>
 7    1  0.8661710E-006  0.1215038E+03  0.7561462E-02  0.1240637E+00
          1   -1    0    0  501    0  0.00000000000E+00  0.00000000000E+00  0.77119762383E+03  0.77119762383E+03  0.00000000000E+00 0. -1.
         -1   -1    0    0    0  501 -0.00000000000E+00 -0.00000000000E+00 -0.22796247212E+02  0.22796247212E+02  0.00000000000E+00 0.  1.
         23    2    1    2    0    0 -0.68462250987E+02 -0.33688981370E+02  0.38655771613E+03  0.41339892349E+03  0.12509905981E+03 0.  0.
          5    1    3    3  502    0  0.20391425502E+01 -0.67549367581E+02  0.16230092420E+03  0.17585828828E+03  0.41800000000E+01 0.  1.
         -5    1    3    3    0  502 -0.70501393537E+02  0.33860386211E+02  0.22425679193E+03  0.23754063520E+03  0.41800000000E+01 0.  1.
        -11    1    1    2    0    0  0.67072289323E+02  0.39334207464E+01  0.33086626611E+03  0.33761908987E+03  0.00000000000E+00 0. -1.
         11    1    1    2    0    0  0.13899616641E+01  0.29755560624E+02  0.30977394379E+02  0.42975857688E+02  0.00000000000E+00 0.  1.
</event>
<event>
 7    1  0.8661710E-006  0.1466015E+03  0.7561462E-02  0.1204712E+00
          2   -1    0    0  501    0  0.00000000000E+00  0.00000000000E+00  0.12046316480E+03  0.12046316480E+03  0.00000000000E+00 0. -1.
         -2   -1    0    0    0  501 -0.00000000000E+00 -0.00000000000E+00 -0.22085701334E+03  0.22085701334E+03  0.00000000000E+00 0.  1.
         23    2    1    2    0    0  0.79365136910E+02  0.84097397735E+02 -0.59344541663E+02  0.18039176926E+03  0.12509283964E+03 0.  0.
          5    1    3    3  502    0  0.60626911919E+02  0.10827909560E+03 -0.13195474621E+02  0.12486624021E+03  0.41800000000E+01 0.  1.
         -5    1    3    3    0  502  0.18738224991E+02 -0.24181697868E+02 -0.46149067042E+02  0.55525529051E+02  0.41800000000E+01 0.  1.
        -11    1    1    2    0    0  0.14984458180E+02 -0.15098380583E+02 -0.38531951839E+02  0.44013706907E+02  0.00000000000E+00 0.  1.
         11    1    1    2    0    0 -0.94349595090E+02 -0.68999017152E+02 -0.25173550345E+01  0.11691470198E+03  0.00000000000E+00 0. -1.
</event>
<event>
 7    1  0.8661710E-006  0.1125544E+03  0.7561462E-02  0.1255911E+00
          1   -1    0    0  501    0  0.00000000000E+00  0.00000000000E+00  0.17107984692E+03  0.17107984692E+03  0.00000000000E+00 0. -1.
         -1   -1    0    0    0  501 -0.00000000000E+00 -0.00000000000E+00 -0.86956062904E+02  0.86956062904E+02  0.00000000000E+00 0.  1.
         23    2    1    2    0    0 -0.46746323294E+01 -0.57545361275E+02  0.40088722768E+02  0.14348571461E+03  0.12509086223E+03 0.  0.
          5    1    3    3  502    0 -0.49841295725E+02  0.11661822471E+01  0.47419477347E+02  0.68931806682E+02  0.41800000000E+01 0.  1.
         -5    1    3    3    0  502  0.45166663395E+02 -0.58711543522E+02 -0.73307545790E+01  0.74553907931E+02  0.41800000000E+01 0.  1.
        -11    1    1    2    0    0  0.43769525149E+02  0.30540793971E+02  0.40321534038E+02  0.66890489124E+02  0.00000000000E+00 0. -1.
         11    1    1    2    0    0 -0.39094892820E+02  0.27004567305E+02  0.37135272098E+01  0.47659706086E+02  0.00000000000E+00 0.  1.
</event>
<event>
 7    1  0.8661710E-006  0.9063599E+02  0.7561462E-02  0.1301319E+00
         -1   -1    0    0    0  501 -0.00000000000E+00  0.00000000000E+00  0.50472113354E+02  0.50472113354E+02  0.00000000000E+00 0.  1.
          1   -1    0    0  501    0  0.00000000000E+00 -0.00000000000E+00 -0.34262824774E+03  0.34262824774E+03  0.00000000000E+00 0. -1.
         23    2    1    2    0    0  0.65163970856E+02  0.21997201985E+02 -0.13686938578E+03  0.19776368400E+03  0.12508807278E+03 0.  0.
          5    1    3    3  502    0 -0.89565494461E+01 -0.21319249377E+02  0.11602647475E+02  0.26207327227E+02  0.41800000000E+01 0.  1.
         -5    1    3    3    0  502  0.74120520302E+02  0.43316451362E+02 -0.14847203326E+03  0.17155635677E+03  0.41800000000E+01 0.  1.
        -11    1    1    2    0    0 -0.40283168318E+02 -0.23948650432E+02 -0.16268935899E+03  0.16930475195E+03  0.00000000000E+00 0. -1.
         11    1    1    2    0    0 -0.24880802538E+02  0.19514484466E+01  0.74026103842E+01  0.26031925139E+02  0.00000000000E+00 0.  1.
</event>
<event>
 7    1  0.8661710E-006  0.1570470E+03  0.7561462E-02  0.1192072E+00
          1   -1    0    0  501    0  0.00000000000E+00  0.00000000000E+00  0.75911597576E+03  0.75911597576E+03  0.00000000000E+00 0. -1.
         -1   -1    0    0    0  501 -0.00000000000E+00 -0.00000000000E+00 -0.35421910461E+02  0.35421910461E+02  0.00000000000E+00 0.  1.
         23    2    1    2    0    0 -0.47964416281E+02  0.11128687003E+03  0.33819619148E+03  0.38042044655E+03  0.12513072983E+03 0.  0.
          5    1    3    3  502    0 -0.57537669685E+02  0.59248867739E+01  0.18738358171E+03  0.19615240709E+03  0.41800000000E+01 0. -1.
         -5    1    3    3    0  502  0.95732534042E+01  0.10536198326E+03  0.15081260978E+03  0.18426803945E+03  0.41800000000E+01 0. -1.
        -11    1    1    2    0    0 -0.23148132893E+02 -0.54521594223E+02  0.17642192559E+03  0.18609980151E+03  0.00000000000E+00 0. -1.
         11    1    1    2    0    0  0.71112549174E+02 -0.56765275806E+02  0.20907594823E+03  0.22801763817E+03  0.00000000000E+00 0.  1.
</event>
<event>
 7    1  0.8661710E-006  0.1104363E+03  0.7561462E-02  0.1259764E+00
          3   -1    0    0  501    0  0.00000000000E+00  0.00000000000E+00  0.76711778495E+02  0.76711778495E+02  0.00000000000E+00 0. -1.
         -3   -1    0    0    0  501 -0.00000000000E+00 -0.00000000000E+00 -0.18108596699E+03  0.18108596699E+03  0.00000000000E+00 0.  1.
         23    2    1    2    0    0  0.19349049458E+02 -0.46405887981E+02 -0.53396027234E+02  0.14486038924E+03  0.12492199363E+03 0.  0.
          5    1    3    3  502    0  0.53817548522E+02  0.89939232166E+01 -0.57464580132E+02  0.79352816922E+02  0.41800000000E+01 0.  1.
         -5    1    3    3    0  502 -0.34468499064E+02 -0.55399811197E+02  0.40685528983E+01  0.65507572319E+02  0.41800000000E+01 0.  1.
        -11    1    1    2    0    0 -0.33216178267E+02 -0.15979346371E+02 -0.19397918786E+02  0.41652530083E+02  0.00000000000E+00 0.  1.
         11    1    1    2    0    0  0.13867128808E+02  0.62385234351E+02 -0.31580242479E+02  0.71284826166E+02  0.00000000000E+00 0. -1.
</event>
<event>
 7    1  0.8661710E-006  0.1150082E+03  0.7561462E-02  0.1251567E+00
          3   -1    0    0  501    0  0.00000000000E+00  0.00000000000E+00  0.22373131363E+02  0.22373131363E+02  0.00000000000E+00 0. -1.
         -3   -1    0    0    0  501 -0.00000000000E+00 -0.00000000000E+00 -0.77128690657E+03  0.77128690657E+03  0.00000000000E+00 0.  1.
         23    2    1    2    0    0  0.15180412723E+02  0.71883238391E+02 -0.40248899347E+03  0.42783349386E+03  0.12508582537E+03 0.  0.
          5    1    3    3  502    0  0.31176701917E+02  0.87555615764E+02 -0.16635229041E+03  0.19060044469E+03  0.41800000000E+01 0. -1.
         -5    1    3    3    0  502 -0.15996289194E+02 -0.15672377372E+02 -0.23613670307E+03  0.23723304916E+03  0.41800000000E+01 0. -1.
        -11    1    1    2    0    0 -0.25018048905E+02  0.13380351002E+02 -0.53122599725E+02  0.60224141053E+02  0.00000000000E+00 0. -1.
         11    1    1    2    0    0  0.98376361825E+01 -0.85263589394E+02 -0.29330218201E+03  0.30560240302E+03  0.00000000000E+00 0.  1.
</event>
<event>
 7    1  0.8661710E-006  0.9380580E+02  0.7561462E-02  0.1293889E+00
          1   -1    0    0  501    0  0.00000000000E+00  0.00000000000E+00  0.30673232447E+03  0.30673232447E+03  0.00000000000E+00 0. -1.
         -1   -1    0    0    0  501 -0.00000000000E+00 -0.00000000000E+00 -0.43018612559E+02  0.43018612559E+02  0.00000000000E+00 0.  1.
         23    2    1    2    0    0 -0.40298953617E+02  0.73884012533E+01  0.16173932734E+03  0.20853259186E+03  0.12509051811E+03 0.  0.
          5    1    3    3  502    0 -0.33542964038E+02 -0.46038386267E+02  0.26613892682E+02  0.63011388893E+02  0.41800000000E+01 0. -1.
         -5    1    3    3    0  502 -0.67559895792E+01  0.53426787520E+02  0.13512543466E+03  0.14552120297E+03  0.41800000000E+01 0. -1.
        -11    1    1    2    0    0  0.46823228401E+02 -0.28208520208E+02  0.10578096900E+03  0.11907035203E+03  0.00000000000E+00 0. -1.
         11    1    1    2    0    0 -0.65242747838E+01  0.20820118954E+02 -0.38065844393E+01  0.22147993133E+02  0.00000000000E+00 0.  1.
</event>
<event>
 6    1  0.8661710E-006  0.2235829E+03  0.7561462E-02  0.1131240E+00
         -1   -1    0    0    0  501 -0.00000000000E+00  0.00000000000E+00  0.50306607652E+03  0.50306607652E+03  0.00000000000E+00 0.  1.
          1   -1    0    0  501    0  0.00000000000E+00 -0.00000000000E+00 -0.16965273369E+03  0.16965273369E+03  0.00000000000E+00 0. -1.
          5    1    1    2  502    0  0.65128725463E+01 -0.38715055029E+02  0.13029682272E+00  0.39481164775E+02  0.41800000000E+01 0. -1.
         -5    1    1    2    0  502  0.48290824436E+01  0.21656847374E+03  0.37106818021E+03  0.42969092452E+03  0.41800000000E+01 0.  1.
        -11    1    1    2    0    0  0.25629681720E+02 -0.11735521652E+03 -0.52569426533E+02  0.13112082991E+03  0.00000000000E+00 0. -1.
         11    1    1    2    0    0 -0.36971636710E+02 -0.60498202184E+02  0.14784292334E+02  0.72425891008E+02  0.00000000000E+00 0.  1.
</event>
<event>
 7    1  0.8661710E-006  0.1313018E+03  0.7561462E-02  0.1225537E+00
          4   -1    0    0  501    0  0.00000000000E+00  0.00000000000E+00  0.33580738490E+03  0.33580738490E+03  0.00000000000E+00 0.  1.
         -4   -1    0    0    0  501 -0.00000000000E+00 -0.00000000000E+00 -0.61711790932E+02  0.61711790932E+02  0.00000000000E+00 0. -1.
         23    2    1    2    0    0 -0.12353936078E+02  0.89303618258E+02  0.11043548775E+03  0.18966047217E+03  0.12508933519E+03 0.  0.
          5    1    3    3  502    0  0.53778100678E+02  0.62890335402E+02  0.59996230542E+02  0.10229515374E+03  0.41800000000E+01 0. -1.
         -5    1    3    3    0  502 -0.66132036756E+02  0.26413282856E+02  0.50439257211E+02  0.87365318432E+02  0.41800000000E+01 0. -1.
        -11    1    1    2    0    0 -0.24521487306E+02 -0.33065858995E+02  0.12198279994E+03  0.12874182635E+03  0.00000000000E+00 0.  1.
         11    1    1    2    0    0  0.36875423384E+02 -0.56237759263E+02  0.41677306273E+02  0.79116877308E+02  0.00000000000E+00 0. -1.
</event>
<event>
 7    1  0.8661710E-006  0.9562900E+02  0.7561462E-02  0.1289766E+00
          2   -1    0    0  501    0  0.00000000000E+00  0.00000000000E+00  0.83608702193E+02  0.83608702193E+02  0.00000000000E+00 0. -1.
         -2   -1    0    0    0  501 -0.00000000000E+00 -0.00000000000E+00 -0.15986327017E+03  0.15986327017E+03  0.00000000000E+00 0.  1.
         23    2    1    2    0    0 -0.30328136259E+02  0.17344523905E+02 -0.66813069997E+02  0.14605468442E+03  0.12508939268E+03 0.  0.
          5    1    3    3  502    0 -0.44859338084E+02 -0.45884148738E+02 -0.26452213840E+02  0.69533497940E+02  0.41800000000E+01 0.  1.
         -5    1    3    3    0  502  0.14531201824E+02  0.63228672643E+02 -0.40360856157E+02  0.76521186481E+02  0.41800000000E+01 0.  1.
        -11    1    1    2    0    0 -0.69834057791E+01  0.12395386798E+02  0.31488433968E+02  0.34553365161E+02  0.00000000000E+00 0. -1.
         11    1    1    2    0    0  0.37311542038E+02 -0.29739910704E+02 -0.40929931945E+02  0.62863922777E+02  0.00000000000E+00 0.  1.
</event>
<event>
 7    1  0.8661710E-006  0.1021258E+03  0.7561462E-02  0.1275888E+00
          2   -1    0    0  501    0  0.00000000000E+00  0.00000000000E+00  0.38899631710E+03  0.38899631710E+03  0.00000000000E+00 0. -1.
         -2   -1    0    0    0  501 -0.00000000000E+00 -0.00000000000E+00 -0.41596689150E+02  0.41596689150E+02  0.00000000000E+00 0.  1.
         23    2    1    2    0    0 -0.63790584540E+01  0.66014601435E+02  0.18309108105E+03  0.23144903043E+03  0.12509072602E+03 0.  0.
          5    1    3    3  502    0 -0.34376410489E+02  0.51167542194E+01 -0.14835896545E+01  0.35037012003E+02  0.41800000000E+01 0. -1.
         -5    1    3    3    0  502  0.27997352035E+02  0.60897847215E+02  0.18457467070E+03  0.19641201842E+03  0.41800000000E+01 0. -1.
        -11    1    1    2    0    0  0.16740815546E+02  0.13744993058E+02  0.78927267393E+02  0.81845545251E+02  0.00000000000E+00 0. -1.
         11    1    1    2    0    0 -0.10361757092E+02 -0.79759594493E+02  0.85381279506E+02  0.11729843057E+03  0.00000000000E+00 0.  1.
</event>
<event>
 7    1  0.8661710E-006  0.2072180E+03  0.7561462E-02  0.1143788E+00
         -2   -1    0    0    0  501 -0.00000000000E+00  0.00000000000E+00  0.75470113361E+02  0.75470113361E+02  0.00000000000E+00 0.  1.
          2   -1    0    0  501    0  0.00000000000E+00 -0.00000000000E+00 -0.74313549178E+03  0.74313549178E+03  0.00000000000E+00 0. -1.
         23    2    1    2    0    0 -0.17325801134E+03 -0.57797882815E+02 -0.16516215594E+03  0.27619721016E+03  0.12508967742E+03 0.  0.
          5    1    3    3  502    0 -0.96522560264E+02  0.33197104374E+02 -0.80640175285E+02  0.13014977007E+03  0.41800000000E+01 0. -1.
         -5    1    3    3    0  502 -0.76735451072E+02 -0.90994987190E+02 -0.84521980653E+02  0.14604744010E+03  0.41800000000E+01 0. -1.
        -11    1    1    2    0    0  0.75855776017E+02  0.58461129268E+02 -0.16144152889E+03  0.18771033440E+03  0.00000000000E+00 0.  1.
         11    1    1    2    0    0  0.97402235319E+02 -0.66324645291E+00 -0.34106169359E+03  0.35469806058E+03  0.00000000000E+00 0. -1.
</event>
<event>
 7    1  0.8661710E-006  0.8949055E+02  0.7561462E-02  0.1304090E+00
          1   -1    0    0  501    0  0.00000000000E+00  0.00000000000E+00  0.76091560619E+02  0.76091560619E+02  0.00000000000E+00 0. -1.
         -1   -1    0    0    0  501 -0.00000000000E+00 -0.00000000000E+00 -0.25197778645E+03  0.25197778645E+03  0.00000000000E+00 0.  1.
         23    2    1    2    0    0  0.86023165412E+01 -0.24098221636E+02 -0.19138831397E+03  0.23007013081E+03  0.12509218293E+03 0.  0.
          5    1    3    3  502    0  0.46652382103E+01 -0.52930098092E+02 -0.19339341392E+03  0.20060370057E+03  0.41800000000E+01 0.  1.
         -5    1    3    3    0  502  0.39370783309E+01  0.28831876456E+02  0.20050999493E+01  0.29466430248E+02  0.41800000000E+01 0.  1.
        -11    1    1    2    0    0  0.29790913535E+02  0.43923884426E+02  0.36788778954E+01  0.53200942613E+02  0.00000000000E+00 0. -1.
         11    1    1    2    0    0 -0.38393230077E+02 -0.19825662790E+02  0.11823210248E+02  0.44798273642E+02  0.00000000000E+00 0.  1.
</event>
<event>
 7    1  0.8661710E-006  0.1139672E+03  0.7561462E-02  0.1253395E+00
         -1   -1    0    0    0  501 -0.00000000000E+00  0.00000000000E+00  0.22862865495E+03  0.22862865495E+03  0.00000000000E+00 0.  1.
          1   -1    0    0  501    0  0.00000000000E+00 -0.00000000000E+00 -0.78485250789E+02  0.78485250789E+02  0.00000000000E+00 0. -1.
         23    2    1    2    0    0 -0.72909934356E+02  0.28828742826E+02  0.76441896052E+02  0.16624710951E+03  0.12509109883E+03 0.  0.
          5    1    3    3  502    0 -0.78648591673E+02  0.57044534106E+02  0.15177918565E+02  0.98425207419E+02  0.41800000000E+01 0.  1.
         -5    1    3    3    0  502  0.57386573177E+01 -0.28215791280E+02  0.61263977487E+02  0.67821902088E+02  0.41800000000E+01 0.  1.
        -11    1    1    2    0    0  0.68383535182E+02  0.39537110083E+01  0.81904207647E+02  0.10677190148E+03  0.00000000000E+00 0.  1.
         11    1    1    2    0    0  0.45263991733E+01 -0.32782453835E+02 -0.82026995345E+01  0.34094894758E+02  0.00000000000E+00 0. -1.
</event>
<event>
 7    1  0.8661710E-006  0.1382133E+03  0.7561462E-02  0.1215753E+00
          1   -1    0    0  501    0  0.00000000000E+00  0.00000000000E+00  0.58292341461E+03  0.58292341461E+03  0.00000000000E+00 0. -1.
         -1   -1    0    0    0  501 -0.00000000000E+00 -0.00000000000E+00 -0.43641223380E+02  0.43641223380E+02  0.00000000000E+00 0.  1.
         23    2    1    2    0    0 -0.11161236596E+03 -0.31433012675E+02  0.31986151990E+03  0.36249883822E+03  0.12509460930E+03 0.  0.
          5    1    3    3  502    0 -0.99337462935E+02 -0.47624151429E+02  0.32320335550E+03  0.34148773441E+03  0.41800000000E+01 0. -1.
         -5    1    3    3    0  502 -0.12274903025E+02  0.16191138754E+02 -0.33418355978E+01  0.21011103817E+02  0.41800000000E+01 0. -1.
        -11    1    1    2    0    0  0.55260337031E+02  0.60579016091E+02  0.14196417599E+03  0.16394312826E+03  0.00000000000E+00 0. -1.
         11    1    1    2    0    0  0.56352028930E+02 -0.29146003417E+02  0.77456495329E+02  0.10012267150E+03  0.00000000000E+00 0.  1.
</event>
<event>
 7    1  0.8661710E-006  0.1087000E+03  0.7561462E-02  0.1262996E+00
          1   -1    0    0  501    0  0.00000000000E+00  0.00000000000E+00  0.10395333158E+03  0.10395333158E+03  0.00000000000E+00 0. -1.
         -1   -1    0    0    0  501 -0.00000000000E+00 -0.00000000000E+00 -0.22876166168E+03  0.22876166168E+03  0.00000000000E+00 0.  1.
         23    2    1    2    0    0 -0.54382518404E+02 -0.37490607961E+02 -0.15818322884E+03  0.21220874207E+03  0.12509041663E+03 0.  0.
          5    1    3    3  502    0 -0.85594686639E+02 -0.20873230203E+02 -0.15247419877E+03  0.17614765343E+03  0.41800000000E+01 0. -1.
         -5    1    3    3    0  502  0.31212168235E+02 -0.16617377758E+02 -0.57090300720E+01  0.36061088639E+02  0.41800000000E+01 0. -1.
        -11    1    1    2    0    0  0.20776466075E+02  0.52741975966E+02 -0.15964459746E+02  0.58891778257E+02  0.00000000000E+00 0.  1.
         11    1    1    2    0    0  0.33606052329E+02 -0.15251368004E+02  0.49339358483E+02  0.61614472931E+02  0.00000000000E+00 0. -1.
</event>
<event>
 7    1  0.8661710E-006  0.1145055E+03  0.7561462E-02  0.1252447E+00
         -1   -1    0    0    0  501 -0.00000000000E+00  0.00000000000E+00  0.81264562005E+02  0.81264562005E+02  0.00000000000E+00 0.  1.
          1   -1    0    0  501    0  0.00000000000E+00 -0.00000000000E+00 -0.23401054803E+03  0.23401054803E+03  0.00000000000E+00 0. -1.
         23    2    1    2    0    0 -0.56296153567E+02 -0.56472625320E+02 -0.45024256366E+02  0.15502848848E+03  0.12509290252E+03 0.  0.
          5    1    3    3  502    0  0.81521069881E+01  0.34594300040E+02 -0.36795059759E+01  0.35975458410E+02  0.41800000000E+01 0.  1.
         -5    1    3    3    0  502 -0.64448260555E+02 -0.91066925360E+02 -0.41344750390E+02  0.11905303007E+03  0.41800000000E+01 0.  1.
        -11    1    1    2    0    0  0.26537770127E+01  0.10823617367E+02  0.15036480087E+02  0.18716008088E+02  0.00000000000E+00 0.  1.
         11    1    1    2    0    0  0.53642376554E+02  0.45649007953E+02 -0.12275820975E+03  0.14153061347E+03  0.00000000000E+00 0. -1.
</event>
<event>
 7    1  0.8661710E-006  0.1042119E+03  0.7561462E-02  0.1271680E+00
         -2   -1    0    0    0  501 -0.00000000000E+00  0.00000000000E+00  0.25213801739E+03  0.25213801739E+03  0.00000000000E+00 0.  1.
          2   -1    0    0  501    0  0.00000000000E+00 -0.00000000000E+00 -0.68859584981E+02  0.68859584981E+02  0.00000000000E+00 0. -1.
         23    2    1    2    0    0 -0.35694931904E+02  0.21381699875E+02  0.17950667018E+03  0.22271164738E+03  0.12508608230E+03 0.  0.
          5    1    3    3  502    0 -0.13245594274E+02 -0.51081345996E+02  0.51491017966E+02  0.73848134761E+02  0.41800000000E+01 0.  1.
         -5    1    3    3    0  502 -0.22449337630E+02  0.72463045871E+02  0.12801565221E+03  0.14886351262E+03  0.41800000000E+01 0.  1.
        -11    1    1    2    0    0  0.44643442170E+02 -0.39304076271E+02 -0.23918968487E+02  0.64109003999E+02  0.00000000000E+00 0. -1.
         11    1    1    2    0    0 -0.89485102659E+01  0.17922376396E+02  0.27690730714E+02  0.34176950992E+02  0.00000000000E+00 0.  1.
</event>
<event>
 7    1  0.8661710E-006  0.1119077E+03  0.7561462E-02  0.1257077E+00
         -2   -1    0    0    0  501 -0.00000000000E+00  0.00000000000E+00  0.17446715343E+02  0.17446715343E+02  0.00000000000E+00 0.  1.
          2   -1    0    0  501    0  0.00000000000E+00 -0.00000000000E+00 -0.10557932866E+04  0.10557932866E+04  0.00000000000E+00 0. -1.
         23    2    1    2    0    0  0.33825395022E+02 -0.64045502892E+02 -0.46336100290E+03  0.48538320865E+03  0.12508979352E+03 0.  0.
          5    1    3    3  502    0 -0.20819510571E+02 -0.31385926323E+02 -0.32791061097E+02  0.50112418415E+02  0.41800000000E+01 0.  1.
         -5    1    3    3    0  502  0.54644905593E+02 -0.32659576569E+02 -0.43056994180E+03  0.43527079024E+03  0.41800000000E+01 0.  1.
        -11    1    1    2    0    0 -0.13427979731E+02  0.88934962178E+02 -0.40753874301E+03  0.41734585800E+03  0.00000000000E+00 0.  1.
         11    1    1    2    0    0 -0.20397415291E+02 -0.24889459287E+02 -0.16744682530E+03  0.17051093524E+03  0.00000000000E+00 0. -1.
</event>
<event>
 7    1  0.8661710E-006  0.9408146E+02  0.7561462E-02  0.1293258E+00
         -2   -1    0    0    0  501 -0.00000000000E+00  0.00000000000E+00  0.22136558588E+03  0.22136558588E+03  0.00000000000E+00 0.  1.
          2   -1    0    0  501    0  0.00000000000E+00 -0.00000000000E+00 -0.14179906612E+03  0.14179906612E+03  0.00000000000E+00 0. -1.
         23    2    1    2    0    0  0.83503278056E+01 -0.17454847242E+02  0.18699786094E+03  0.22085094566E+03  0.11589883751E+03 0.  0.
          5    1    3    3  502    0 -0.38516700469E+02  0.21768158024E+02  0.12920681211E+03  0.13663550642E+03  0.41800000000E+01 0. -1.
         -5    1    3    3    0  502  0.46867028275E+02 -0.39223005266E+02  0.57791048827E+02  0.84215439238E+02  0.41800000000E+01 0.  1.
        -11    1    1    2    0    0 -0.30883115037E+02 -0.21384434835E+02 -0.83208062640E+02  0.91294263434E+02  0.00000000000E+00 0. -1.
         11    1    1    2    0    0  0.22532787231E+02  0.38839282077E+02 -0.24223278533E+02  0.51019442917E+02  0.00000000000E+00 0.  1.
</event>
<event>
 7    1  0.8661710E-006  0.1522124E+03  0.7561462E-02  0.1197781E+00
         -2   -1    0    0    0  501 -0.00000000000E+00  0.00000000000E+00  0.82545795594E+02  0.82545795594E+02  0.00000000000E+00 0.  1.
          2   -1    0    0  501    0  0.00000000000E+00 -0.00000000000E+00 -0.31133711492E+03  0.31133711492E+03  0.00000000000E+00 0. -1.
         23    2    1    2    0    0  0.22252834127E+02  0.11533386414E+03 -0.15278324601E+03  0.22975431359E+03  0.12508891041E+03 0.  0.
          5    1    3    3  502    0  0.63981583671E+02  0.49747709705E+02 -0.12094129487E+03  0.14564596416E+03  0.41800000000E+01 0.  1.
         -5    1    3    3    0  502 -0.41728749544E+02  0.65586154434E+02 -0.31841951136E+02  0.84108349432E+02  0.41800000000E+01 0.  1.
        -11    1    1    2    0    0 -0.26496037650E+02  0.33110786608E+01 -0.12387208032E+02  0.29435457800E+02  0.00000000000E+00 0.  1.
         11    1    1    2    0    0  0.42432035236E+01 -0.11864494280E+03 -0.63620865290E+02  0.13469313913E+03  0.00000000000E+00 0. -1.
</event>
<event>
 6    1  0.8661710E-006  0.1136450E+03  0.7561462E-02  0.1253965E+00
         -1   -1    0    0    0  501 -0.00000000000E+00  0.00000000000E+00  0.24042139984E+03  0.24042139984E+03  0.00000000000E+00 0.  1.
          1   -1    0    0  501    0  0.00000000000E+00 -0.00000000000E+00 -0.77860801763E+02  0.77860801763E+02  0.00000000000E+00 0. -1.
          5    1    1    2  502    0  0.33920657650E+02  0.10252304877E+03  0.90811812941E+02  0.14115893282E+03  0.41800000000E+01 0. -1.
         -5    1    1    2    0  502 -0.13836625297E+02 -0.35769269667E+02  0.13553711418E+02  0.40890932312E+02  0.41800000000E+01 0.  1.
        -11    1    1    2    0    0  0.12543608613E+02 -0.20613222268E+02  0.73768388030E+02  0.77614574159E+02  0.00000000000E+00 0.  1.
         11    1    1    2    0    0 -0.32627640967E+02 -0.46140556836E+02 -0.15573314311E+02  0.58617762315E+02  0.00000000000E+00 0. -1.
</event>
<event>
 7    1  0.8661710E-006  0.9344062E+02  0.7561462E-02  0.1294727E+00
          1   -1    0    0  501    0  0.00000000000E+00  0.00000000000E+00  0.46415219816E+02  0.46415219816E+02  0.00000000000E+00 0. -1.
         -1   -1    0    0    0  501 -0.00000000000E+00 -0.00000000000E+00 -0.48991834853E+03  0.48991834853E+03  0.00000000000E+00 0.  1.
         23    2    1    2    0    0 -0.69533536583E+02  0.45113788002E+02 -0.35467583222E+03  0.38511405134E+03  0.12509084700E+03 0.  0.
          5    1    3    3  502    0 -0.56782270794E+02  0.18145349661E+02 -0.47156238888E+02  0.76122685561E+02  0.41800000000E+01 0. -1.
         -5    1    3    3    0  502 -0.12751265789E+02  0.26968438341E+02 -0.30751959333E+03  0.30899136578E+03  0.41800000000E+01 0. -1.
        -11    1    1    2    0    0  0.36671925430E+02  0.50646125458E+01 -0.83090681051E+02  0.90964507872E+02  0.00000000000E+00 0.  1.
         11    1    1    2    0    0  0.32861611154E+02 -0.50178400547E+02 -0.57366154495E+01  0.60255009136E+02  0.00000000000E+00 0. -1.
</event>
<event>
 7    1  0.8661710E-006  0.1143437E+03  0.7561462E-02  0.1252731E+00
          2   -1    0    0  501    0  0.00000000000E+00  0.00000000000E+00  0.41189593228E+03  0.41189593228E+03  0.00000000000E+00 0. -1.
         -2   -1    0    0    0  501 -0.00000000000E+00 -0.00000000000E+00 -0.33874537888E+02  0.33874537888E+02  0.00000000000E+00 0.  1.
         23    2    1    2    0    0  0.16152303099E+01  0.48358303497E+02  0.20287189293E+03  0.24319992675E+03  0.12509222576E+03 0.  0.
          5    1    3    3  502    0 -0.19385431864E+02 -0.39144513156E+02  0.60995175270E+02  0.75139681161E+02  0.41800000000E+01 0.  1.
         -5    1    3    3    0  502  0.21000662173E+02  0.87502816653E+02  0.14187671766E+03  0.16806024559E+03  0.41800000000E+01 0.  1.
        -11    1    1    2    0    0 -0.33210204189E+02 -0.53242790781E+02  0.76919828589E+02  0.99269191911E+02  0.00000000000E+00 0.  1.
         11    1    1    2    0    0  0.31594973879E+02  0.48844872843E+01  0.98229672870E+02  0.10330135150E+03  0.00000000000E+00 0. -1.
</event>
<event>
 7    1  0.8661710E-006  0.1098856E+03  0.7561462E-02  0.1260782E+00
         -1   -1    0    0    0  501 -0.00000000000E+00  0.00000000000E+00  0.75137022368E+02  0.75137022368E+02  0.00000000000E+00 0.  1.
          1   -1    0    0  501    0  0.00000000000E+00 -0.00000000000E+00 -0.23366810972E+03  0.23366810972E+03  0.00000000000E+00 0. -1.
         23    2    1    2    0    0  0.38008553524E+02  0.10027125868E+02 -0.13543290222E+02  0.13181850815E+03  0.12508998756E+03 0.  0.
          5    1    3    3  502    0  0.14929502401E+02  0.64679666649E+02 -0.25361093245E+02  0.71182910663E+02  0.41800000000E+01 0. -1.
         -5    1    3    3    0  502  0.23079051123E+02 -0.54652540781E+02  0.11817803023E+02  0.60635597489E+02  0.41800000000E+01 0. -1.
        -11    1    1    2    0    0  0.27136546021E+02 -0.91432164434E+01 -0.79974193095E+02  0.84946230629E+02  0.00000000000E+00 0. -1.
         11    1    1    2    0    0 -0.65145099546E+02 -0.88390942478E+00 -0.65013604038E+02  0.92040393310E+02  0.00000000000E+00 0.  1.
</event>
<event>
 7    1  0.8661710E-006  0.1073597E+03  0.7561462E-02  0.1265539E+00
          3   -1    0    0  501    0  0.00000000000E+00  0.00000000000E+00  0.38104863207E+02  0.38104863207E+02  0.00000000000E+00 0. -1.
         -3   -1    0    0    0  501 -0.00000000000E+00 -0.00000000000E+00 -0.31038319715E+03  0.31038319715E+03  0.00000000000E+00 0.  1.
         23    2    1    2    0    0  0.78756121750E+01  0.10026288711E+02 -0.16415659604E+03  0.20678044156E+03  0.12509281057E+03 0.  0.
          5    1    3    3  502    0  0.14573625842E+01 -0.56252457076E+02 -0.96322669528E+02  0.11163329207E+03  0.41800000000E+01 0.  1.
         -5    1    3    3    0  502  0.64182495909E+01  0.66278745786E+02 -0.67833926514E+02  0.95147149495E+02  0.41800000000E+01 0.  1.
        -11    1    1    2    0    0 -0.22035189186E+02 -0.47039021348E+02 -0.63058769212E+02  0.81698393291E+02  0.00000000000E+00 0. -1.
         11    1    1    2    0    0  0.14159577011E+02  0.37012732637E+02 -0.45062968685E+02  0.60009225500E+02  0.00000000000E+00 0.  1.
</event>
<event>
 6    1  0.8661710E-006  0.1571265E+03  0.7561462E-02  0.1191980E+00
          1   -1    0    0  501    0  0.00000000000E+00  0.00000000000E+00  0.10311945341E+03  0.10311945341E+03  0.00000000000E+00 0. -1.
         -1   -1    0    0    0  501 -0.00000000000E+00 -0.00000000000E+00 -0.40259181697E+03  0.40259181697E+03  0.00000000000E+00 0.  1.
          5    1    1    2  502    0  0.10898707076E+02 -0.11227130048E+02  0.31478097720E+02  0.35400187868E+02  0.41800000000E+01 0. -1.
         -5    1    1    2    0  502  0.50599029629E+02 -0.11708241291E+03 -0.25199871395E+03  0.28247013549E+03  0.41800000000E+01 0.  1.
        -11    1    1    2    0    0  0.25332167246E+02  0.30589496880E+02 -0.17959266123E+02  0.43588659723E+02  0.00000000000E+00 0.  1.
         11    1    1    2    0    0 -0.86829903950E+02  0.97720046080E+02 -0.60992481215E+02  0.14425228730E+03  0.00000000000E+00 0. -1.
</event>
<event>
 7    1  0.8661710E-006  0.1135754E+03  0.7561462E-02  0.1254089E+00
          1   -1    0    0  501    0  0.00000000000E+00  0.00000000000E+00  0.89054011132E+02  0.89054011132E+02  0.00000000000E+00 0. -1.
         -1   -1    0    0    0  501 -0.00000000000E+00 -0.00000000000E+00 -0.15180211282E+03  0.15180211282E+03  0.00000000000E+00 0.  1.
         23    2    1    2    0    0 -0.30710933253E+02  0.29282761127E+02 -0.53654255437E+02  0.14257213041E+03  0.12508953483E+03 0.  0.
          5    1    3    3  502    0 -0.47887549878E+02  0.70336865150E+02 -0.47243944818E+02  0.97416398796E+02  0.41800000000E+01 0. -1.
         -5    1    3    3    0  502  0.17176616625E+02 -0.41054104023E+02 -0.64103106187E+01  0.45155731619E+02  0.41800000000E+01 0. -1.
        -11    1    1    2    0    0  0.41787220054E+00 -0.56519825668E+02  0.10298058999E+00  0.56521464204E+02  0.00000000000E+00 0. -1.
         11    1    1    2    0    0  0.30293061052E+02  0.27237064541E+02 -0.91968268458E+01  0.41762529339E+02  0.00000000000E+00 0.  1.
</event>
<event>
 7    1  0.8661710E-006  0.9385125E+02  0.7561462E-02  0.1293785E+00
          1   -1    0    0  501    0  0.00000000000E+00  0.00000000000E+00  0.51537471099E+03  0.51537471099E+03  0.00000000000E+00 0. -1.
         -1   -1    0    0    0  501 -0.00000000000E+00 -0.00000000000E+00 -0.35458049391E+02  0.35458049391E+02  0.00000000000E+00 0.  1.
         23    2    1    2    0    0 -0.24839748617E+02 -0.59083629872E+02  0.16862407213E+03  0.21957186161E+03  0.12517921664E+03 0.  0.
          5    1    3    3  502    0 -0.52226159254E+02 -0.38832878704E+02  0.17308860900E+03  0.18496676227E+03  0.41800000000E+01 0.  1.
         -5    1    3    3    0  502  0.27386410638E+02 -0.20250751167E+02 -0.44645368737E+01  0.34605099334E+02  0.41800000000E+01 0.  1.
        -11    1    1    2    0    0  0.73121464722E+01 -0.12495315363E+02  0.36714456985E+01  0.14935859720E+02  0.00000000000E+00 0.  1.
         11    1    1    2    0    0  0.17527602144E+02  0.71578945234E+02  0.30762114377E+03  0.31632503906E+03  0.00000000000E+00 0. -1.
</event>
<event>
 7    1  0.8661710E-006  0.9413224E+02  0.7561462E-02  0.1293143E+00
         -1   -1    0    0    0  501 -0.00000000000E+00  0.00000000000E+00  0.38202895172E+02  0.38202895172E+02  0.00000000000E+00 0.  1.
          1   -1    0    0  501    0  0.00000000000E+00 -0.00000000000E+00 -0.34804382017E+03  0.34804382017E+03  0.00000000000E+00 0. -1.
         23    2    1    2    0    0  0.36527406965E+02 -0.23594767004E+02 -0.18104238401E+03  0.22431037990E+03  0.12509131558E+03 0.  0.
          5    1    3    3  502    0 -0.18883079855E+02  0.32870000142E+02 -0.11504026013E+03  0.12119711822E+03  0.41800000000E+01 0. -1.
         -5    1    3    3    0  502  0.55410486819E+02 -0.56464767146E+02 -0.66002123884E+02  0.10311326169E+03  0.41800000000E+01 0. -1.
        -11    1    1    2    0    0 -0.26155240273E+02 -0.15537147330E+02 -0.11532470028E+03  0.11926980353E+03  0.00000000000E+00 0. -1.
         11    1    1    2    0    0 -0.10372166692E+02  0.39131914334E+02 -0.13473840711E+02  0.42666531906E+02  0.00000000000E+00 0.  1.
</event>
<event>
 7    1  0.8661710E-006  0.1708439E+03  0.7561462E-02  0.1176971E+00
          1   -1    0    0  501    0  0.00000000000E+00  0.00000000000E+00  0.67741000186E+03  0.67741000186E+03  0.00000000000E+00 0. -1.
         -1   -1    0    0    0  501 -0.00000000000E+00 -0.00000000000E+00 -0.58124034994E+02  0.58124034994E+02  0.00000000000E+00 0.  1.
         23    2    1    2    0    0 -0.77076895822E+02  0.13630202522E+03  0.23126975512E+03  0.30602818053E+03  0.12509379559E+03 0.  0.
          5    1    3    3  502    0 -0.46192993243E+02  0.63543539648E+02  0.20972709627E+03  0.22399665481E+03  0.41800000000E+01 0. -1.
         -5    1    3    3    0  502 -0.30883902579E+02  0.72758485575E+02  0.21542658850E+02  0.82031525720E+02  0.41800000000E+01 0. -1.
        -11    1    1    2    0    0  0.21850275798E+02 -0.12575640742E+03  0.28050744247E+03  0.30818263066E+03  0.00000000000E+00 0.  1.
         11    1    1    2    0    0  0.55226620024E+02 -0.10545617804E+02  0.10750876927E+03  0.12132322566E+03  0.00000000000E+00 0. -1.
</event>
<event>
 6    1  0.8661710E-006  0.1401709E+03  0.7561462E-02  0.1213099E+00
         -2   -1    0    0    0  501 -0.00000000000E+00  0.00000000000E+00  0.43280494719E+03  0.43280494719E+03  0.00000000000E+00 0.  1.
          2   -1    0    0  501    0  0.00000000000E+00 -0.00000000000E+00 -0.69894837798E+02  0.69894837798E+02  0.00000000000E+00 0. -1.
          5    1    1    2  502    0 -0.27705760194E+02 -0.45825637444E+02 -0.13154679397E+02  0.55300236754E+02  0.41800000000E+01 0. -1.
         -5    1    1    2    0  502 -0.61458081912E+02  0.97177743559E+02  0.26678508897E+03  0.29053806252E+03  0.41800000000E+01 0.  1.
        -11    1    1    2    0    0  0.73436423729E+02 -0.19394717303E+02  0.83601499716E+02  0.11295253049E+03  0.00000000000E+00 0. -1.
         11    1    1    2    0    0  0.15727418378E+02 -0.31957388813E+02  0.25678200105E+02  0.43908955228E+02  0.00000000000E+00 0.  1.
</event>
<event>
 7    1  0.8661710E-006  0.1603945E+03  0.7561462E-02  0.1188252E+00
         -1   -1    0    0    0  501 -0.00000000000E+00  0.00000000000E+00  0.44956985858E+02  0.44956985858E+02  0.00000000000E+00 0.  1.
          1   -1    0    0  501    0  0.00000000000E+00 -0.00000000000E+00 -0.62924249971E+03  0.62924249971E+03  0.00000000000E+00 0. -1.
         23    2    1    2    0    0  0.13235391833E+02  0.12402945363E+03 -0.24956835384E+03  0.30576059811E+03  0.12508676649E+03 0.  0.
          5    1    3    3  502    0  0.65846559160E+02  0.84231307325E+02 -0.18277106178E+03  0.21178625052E+03  0.41800000000E+01 0. -1.
         -5    1    3    3    0  502 -0.52611167327E+02  0.39798146307E+02 -0.66797292068E+02  0.93974347588E+02  0.41800000000E+01 0. -1.
        -11    1    1    2    0    0 -0.46251641812E+02 -0.83119662359E+02 -0.16161546500E+03  0.18753040065E+03  0.00000000000E+00 0.  1.
         11    1    1    2    0    0  0.33016249978E+02 -0.40909791273E+02 -0.17310169501E+03  0.18090848681E+03  0.00000000000E+00 0. -1.
</event>
<event>
 7    1  0.8661710E-006  0.1382141E+03  0.7561462E-02  0.1215752E+00
          1   -1    0    0  501    0  0.00000000000E+00  0.00000000000E+00  0.67903886313E+03  0.67903886313E+03  0.00000000000E+00 0. -1.
         -1   -1    0    0    0  501 -0.00000000000E+00 -0.00000000000E+00 -0.42790243853E+02  0.42790243853E+02  0.00000000000E+00 0.  1.
         23    2    1    2    0    0 -0.99087170239E+02  0.72840968459E+02  0.23768650900E+03  0.29540397416E+03  0.12507820513E+03 0.  0.
          5    1    3    3  502    0 -0.82707433685E+02  0.90245511599E+02  0.24155561084E+03  0.27083455739E+03  0.41800000000E+01 0.  1.
         -5    1    3    3    0  502 -0.16379736553E+02 -0.17404543140E+02 -0.38691018361E+01  0.24569416771E+02  0.41800000000E+01 0.  1.
        -11    1    1    2    0    0  0.77299105448E+02 -0.32541837926E+02  0.13514763674E+03  0.15905661456E+03  0.00000000000E+00 0.  1.
         11    1    1    2    0    0  0.21788064791E+02 -0.40299130533E+02  0.26341447353E+03  0.26736851825E+03  0.00000000000E+00 0. -1.
</event>
<event>
 7    1  0.8661710E-006  0.7848512E+02  0.7561462E-02  0.1333406E+00
          2   -1    0    0  501    0  0.00000000000E+00  0.00000000000E+00  0.35523367784E+03  0.35523367784E+03  0.00000000000E+00 0. -1.
         -2   -1    0    0    0  501 -0.00000000000E+00 -0.00000000000E+00 -0.40753350173E+02  0.40753350173E+02  0.00000000000E+00 0.  1.
         23    2    1    2    0    0  0.11577643851E+02  0.17927688520E+02  0.10749664002E+03  0.16630995461E+03  0.12509208422E+03 0.  0.
          5    1    3    3  502    0  0.25842735729E+02  0.32566290420E+02 -0.13203334677E+02  0.43820208902E+02  0.41800000000E+01 0. -1.
         -5    1    3    3    0  502 -0.14265091878E+02 -0.14638601900E+02  0.12069997470E+03  0.12248974571E+03  0.41800000000E+01 0. -1.
        -11    1    1    2    0    0 -0.21810358002E+02 -0.53252966473E+02  0.88053649923E+02  0.10519037703E+03  0.00000000000E+00 0.  1.
         11    1    1    2    0    0  0.10232714151E+02  0.35325277953E+02  0.11893003772E+03  0.12448669638E+03  0.00000000000E+00 0. -1.
</event>
<event>
 7    1  0.8661710E-006  0.5811921E+02  0.7561462E-02  0.1405898E+00
          1   -1    0    0  501    0  0.00000000000E+00  0.00000000000E+00  0.19741510150E+03  0.19741510150E+03  0.00000000000E+00 0. -1.
         -1   -1    0    0    0  501 -0.00000000000E+00 -0.00000000000E+00 -0.73000278072E+02  0.73000278072E+02  0.00000000000E+00 0.  1.
         23    2    1    2    0    0 -0.21210849105E+02  0.33693339683E+02  0.32704258170E+02  0.13528533819E+03  0.12508961974E+03 0.  0.
          5    1    3    3  502    0 -0.15843094476E+02  0.28365651326E+02  0.80397818184E+02  0.86815294657E+02  0.41800000000E+01 0.  1.
         -5    1    3    3    0  502 -0.53677546295E+01  0.53276883573E+01 -0.47693560014E+02  0.48470043530E+02  0.41800000000E+01 0.  1.
        -11    1    1    2    0    0  0.43660044127E+02 -0.16954326261E+02  0.95985323658E+02  0.10680276677E+03  0.00000000000E+00 0. -1.
         11    1    1    2    0    0 -0.22449195021E+02 -0.16739013422E+02 -0.42747584049E+01  0.28327274611E+02  0.00000000000E+00 0.  1.
</event>
<event>
 7    1  0.8661710E-006  0.1022403E+03  0.7561462E-02  0.1275654E+00
         -1   -1    0    0    0  501 -0.00000000000E+00  0.00000000000E+00  0.32040173628E+03  0.32040173628E+03  0.00000000000E+00 0.  1.
          1   -1    0    0  501    0  0.00000000000E+00 -0.00000000000E+00 -0.49744161811E+02  0.49744161811E+02  0.00000000000E+00 0. -1.
         23    2    1    2    0    0 -0.26288133256E+02  0.14757155974E+02  0.19797033230E+03  0.23611188984E+03  0.12509089677E+03 0.  0.
          5    1    3    3  502    0 -0.40036961111E+01 -0.37577809141E+02  0.16687355104E+03  0.17115015560E+03  0.41800000000E+01 0.  1.
         -5    1    3    3    0  502 -0.22284437145E+02  0.52334965114E+02  0.31096781253E+02  0.64961734249E+02  0.41800000000E+01 0.  1.
        -11    1    1    2    0    0  0.61135425514E+02  0.15726254104E+02  0.25963686567E+02  0.68256635876E+02  0.00000000000E+00 0.  1.
         11    1    1    2    0    0 -0.34847292258E+02 -0.30483410077E+02  0.46723555609E+02  0.65777372374E+02  0.00000000000E+00 0. -1.
</event>
<event>
 7    1  0.8661710E-006  0.1395208E+03  0.7561462E-02  0.1213975E+00
          1   -1    0    0  501    0  0.00000000000E+00  0.00000000000E+00  0.11926739960E+03  0.11926739960E+03  0.00000000000E+00 0. -1.
         -1   -1    0    0    0  501 -0.00000000000E+00 -0.00000000000E+00 -0.25384064213E+03  0.25384064213E+03  0.00000000000E+00 0.  1.
         23    2    1    2    0    0  0.63230042911E+02  0.10139802963E+03 -0.13846361659E+03  0.22158651378E+03  0.12509520866E+03 0.  0.
          5    1    3    3  502    0  0.44296274170E+02  0.21912338292E+02  0.11358584044E+02  0.50880254581E+02  0.41800000000E+01 0.  1.
         -5    1    3    3    0  502  0.18933768742E+02  0.79485691341E+02 -0.14982220063E+03  0.17070625920E+03  0.41800000000E+01 0.  1.
        -11    1    1    2    0    0 -0.58607437560E+02 -0.14193054631E+02 -0.15077501918E+02  0.62157908598E+02  0.00000000000E+00 0.  1.
         11    1    1    2    0    0 -0.46226053510E+01 -0.87204975002E+02  0.18967875980E+02  0.89363619357E+02  0.00000000000E+00 0. -1.
</event>
<event>
 7    1  0.8661710E-006  0.1004798E+03  0.7561462E-02  0.1279290E+00
          4   -1    0    0  501    0  0.00000000000E+00  0.00000000000E+00  0.10209543139E+03  0.10209543139E+03  0.00000000000E+00 0. -1.
         -4   -1    0    0    0  501 -0.00000000000E+00 -0.00000000000E+00 -0.19372822400E+03  0.19372822400E+03  0.00000000000E+00 0.  1.
         23    2    1    2    0    0 -0.47825653309E+02  0.17236991159E+01 -0.12865283864E+03  0.18571474359E+03  0.12509256111E+03 0.  0.
          5    1    3    3  502    0 -0.30067088422E+02  0.42800062605E+02 -0.13057942806E+03  0.14072787428E+03  0.41800000000E+01 0.  1.
         -5    1    3    3    0  502 -0.17758564887E+02 -0.41076363489E+02  0.19265894231E+01  0.44986869319E+02  0.41800000000E+01 0.  1.
        -11    1    1    2    0    0 -0.19043572437E+02  0.25088318781E+02  0.14074543655E+02  0.34498900990E+02  0.00000000000E+00 0.  1.
         11    1    1    2    0    0  0.66869225746E+02 -0.26812017897E+02  0.22945502372E+02  0.75610010810E+02  0.00000000000E+00 0. -1.
</event>
<event>
 7    1  0.8661710E-006  0.1269362E+03  0.7561462E-02  0.1232074E+00
          2   -1    0    0  501    0  0.00000000000E+00  0.00000000000E+00  0.23968490794E+03  0.23968490794E+03  0.00000000000E+00 0. -1.
         -2   -1    0    0    0  501 -0.00000000000E+00 -0.00000000000E+00 -0.19253209558E+03  0.19253209558E+03  0.00000000000E+00 0.  1.
         23    2    1    2    0    0 -0.20569474480E+02  0.79059159370E+02 -0.14259306861E+03  0.20652650587E+03  0.12508781097E+03 0.  0.
          5    1    3    3  502    0 -0.66570983234E+02  0.25199840721E+02 -0.10300301990E+03  0.12527498669E+03  0.41800000000E+01 0.  1.
         -5    1    3    3    0  502  0.46001508754E+02  0.53859318649E+02 -0.39590048707E+02  0.81251519183E+02  0.41800000000E+01 0.  1.
        -11    1    1    2    0    0  0.44943006001E+02 -0.74218313625E+02  0.17838517957E+03  0.19836709444E+03  0.00000000000E+00 0. -1.
         11    1    1    2    0    0 -0.24373531520E+02 -0.48408457451E+01  0.11360701407E+02  0.27323403206E+02  0.00000000000E+00 0.  1.
</event>
<event>
 7    1  0.8661710E-006  0.1625493E+03  0.7561462E-02  0.1185848E+00
         -1   -1    0    0    0  501 -0.00000000000E+00  0.00000000000E+00  0.11679297459E+03  0.11679297459E+03  0.00000000000E+00 0.  1.
          1   -1    0    0  501    0  0.00000000000E+00 -0.00000000000E+00 -0.30655450408E+03  0.30655450408E+03  0.00000000000E+00 0. -1.
         23    2    1    2    0    0 -0.12325758383E+03  0.52135135933E+02 -0.12979039342E+02  0.18364832524E+03  0.12509095703E+03 0.  0.
          5    1    3    3  502    0 -0.67317786245E+02 -0.21382161360E+02  0.35582134438E+02  0.79198749109E+02  0.41800000000E+01 0. -1.
         -5    1    3    3    0  502 -0.55939797585E+02  0.73517297294E+02 -0.48561173780E+02  0.10444957613E+03  0.41800000000E+01 0. -1.
        -11    1    1    2    0    0  0.57892871683E+02 -0.73077929062E+02 -0.10072946411E+03  0.13725302637E+03  0.00000000000E+00 0.  1.
         11    1    1    2    0    0  0.65364712147E+02  0.20942793129E+02 -0.76053026039E+02  0.10244612705E+03  0.00000000000E+00 0. -1.
</event>
<event>
 7    1  0.8661710E-006  0.1401135E+03  0.7561462E-02  0.1213176E+00
         -1   -1    0    0    0  501 -0.00000000000E+00  0.00000000000E+00  0.12726392713E+03  0.12726392713E+03  0.00000000000E+00 0.  1.
          1   -1    0    0  501    0  0.00000000000E+00 -0.00000000000E+00 -0.18743519683E+03  0.18743519683E+03  0.00000000000E+00 0. -1.
         23    2    1    2    0    0  0.97474427707E+02 -0.15558087479E+02  0.98804307570E+00  0.15934702780E+03  0.12508869212E+03 0.  0.
          5    1    3    3  502    0 -0.72167231653E+01  0.37970790969E+02  0.13206413632E+02  0.41057810720E+02  0.41800000000E+01 0. -1.
         -5    1    3    3    0  502  0.10469115087E+03 -0.53528878448E+02 -0.12218370556E+02  0.11828921708E+03  0.41800000000E+01 0. -1.
        -11    1    1    2    0    0 -0.57183345684E+02 -0.28583881099E+02  0.74503965260E+01  0.64362113783E+02  0.00000000000E+00 0.  1.
         11    1    1    2    0    0 -0.40291082023E+02  0.44141968577E+02 -0.68609709302E+02  0.90989982366E+02  0.00000000000E+00 0. -1.
</event>
<event>
 7    1  0.8661710E-006  0.1104682E+03  0.7561462E-02  0.1259705E+00
          1   -1    0    0  501    0  0.00000000000E+00  0.00000000000E+00  0.77080064981E+02  0.77080064981E+02  0.00000000000E+00 0. -1.
         -1   -1    0    0    0  501 -0.00000000000E+00 -0.00000000000E+00 -0.32851262889E+03  0.32851262889E+03  0.00000000000E+00 0.  1.
         23    2    1    2    0    0 -0.62301824868E+02  0.23907743870E+02 -0.25577523695E+03  0.29243974147E+03  0.12508770106E+03 0.  0.
          5    1    3    3  502    0 -0.77441722733E+02 -0.12812575553E+02 -0.23421453257E+03  0.24705323754E+03  0.41800000000E+01 0.  1.
         -5    1    3    3    0  502  0.15139897865E+02  0.36720319423E+02 -0.21560704384E+02  0.45386503935E+02  0.41800000000E+01 0.  1.
        -11    1    1    2    0    0 -0.92410426888E+01 -0.29225864641E+02  0.23815826617E+02  0.38816769977E+02  0.00000000000E+00 0. -1.
         11    1    1    2    0    0  0.71542867557E+02  0.53181207710E+01 -0.19473153573E+02  0.74336182420E+02  0.00000000000E+00 0.  1.
</event>
<event>
 7    1  0.8661710E-006  0.1549114E+03  0.7561462E-02  0.1194565E+00
         -2   -1    0    0    0  501 -0.00000000000E+00  0.00000000000E+00  0.18410404457E+03  0.18410404457E+03  0.00000000000E+00 0. -1.
          2   -1    0    0  501    0  0.00000000000E+00 -0.00000000000E+00 -0.25417473127E+03  0.25417473127E+03  0.00000000000E+00 0.  1.
         23    2    1    2    0    0  0.31893147730E+02 -0.11873498038E+03  0.10581918258E+03  0.20484241925E+03  0.12509016302E+03 0.  0.
          5    1    3    3  502    0  0.26133781467E+02 -0.14161735220E+03  0.66224972661E+02  0.15856124490E+03  0.41800000000E+01 0. -1.
         -5    1    3    3    0  502  0.57593662635E+01  0.22882371827E+02  0.39594209922E+02  0.46281174353E+02  0.41800000000E+01 0. -1.
        -11    1    1    2    0    0  0.91746881274E+01 -0.56677213413E+01 -0.52071800080E+02  0.53176783760E+02  0.00000000000E+00 0.  1.
         11    1    1    2    0    0 -0.41067835858E+02  0.12440270172E+03 -0.12381806920E+03  0.18025957283E+03  0.00000000000E+00 0. -1.
</event>
<event>
 7    1  0.8661710E-006  0.1135991E+03  0.7561462E-02  0.1254046E+00
         -2   -1    0    0    0  501 -0.00000000000E+00  0.00000000000E+00  0.14109662990E+03  0.14109662990E+03  0.00000000000E+00 0.  1.
          2   -1    0    0  501    0  0.00000000000E+00 -0.00000000000E+00 -0.15526462507E+03  0.15526462507E+03  0.00000000000E+00 0. -1.
         23    2    1    2    0    0  0.73932506475E+01 -0.99369867704E+02  0.33273349979E+01  0.15995905321E+03  0.12508715674E+03 0.  0.
          5    1    3    3  502    0  0.27729898263E+02 -0.94962064351E+02 -0.43801233317E+02  0.10827170158E+03  0.41800000000E+01 0. -1.
         -5    1    3    3    0  502 -0.20336647616E+02 -0.44078033526E+01  0.47128568315E+02  0.51687351625E+02  0.41800000000E+01 0. -1.
        -11    1    1    2    0    0  0.93517640122E+01  0.40723853958E+01  0.27767161133E+02  0.29581329421E+02  0.00000000000E+00 0.  1.
         11    1    1    2    0    0 -0.16745014660E+02  0.95297482308E+02 -0.45262491300E+02  0.10682087235E+03  0.00000000000E+00 0. -1.
</event>
<event>
 7    1  0.8661710E-006  0.1884853E+03  0.7561462E-02  0.1159835E+00
         -2   -1    0    0    0  501 -0.00000000000E+00  0.00000000000E+00  0.32343831264E+02  0.32343831264E+02  0.00000000000E+00 0.  1.
          2   -1    0    0  501    0  0.00000000000E+00 -0.00000000000E+00 -0.12478208429E+04  0.12478208429E+04  0.00000000000E+00 0. -1.
         23    2    1    2    0    0  0.92708285802E+02 -0.13968494427E+03 -0.56043192662E+03  0.59819450316E+03  0.12508400907E+03 0.  0.
          5    1    3    3  502    0  0.16644820203E+02 -0.13143084486E+03 -0.35431190399E+03  0.37829289543E+03  0.41800000000E+01 0. -1.
         -5    1    3    3    0  502  0.76063465599E+02 -0.82540994113E+01 -0.20612002263E+03  0.21990160774E+03  0.41800000000E+01 0. -1.
        -11    1    1    2    0    0 -0.43300521584E+02  0.71643615595E+02 -0.48610144699E+03  0.49325689006E+03  0.00000000000E+00 0. -1.
         11    1    1    2    0    0 -0.49407764218E+02  0.68041328678E+02 -0.16894363800E+03  0.18871328091E+03  0.00000000000E+00 0.  1.
</event>
<event>
 7    1  0.8661710E-006  0.7911134E+02  0.7561462E-02  0.1331592E+00
          1   -1    0    0  501    0  0.00000000000E+00  0.00000000000E+00  0.16480571751E+03  0.16480571751E+03  0.00000000000E+00 0. -1.
         -1   -1    0    0    0  501 -0.00000000000E+00 -0.00000000000E+00 -0.14891797101E+03  0.14891797101E+03  0.00000000000E+00 0.  1.
         23    2    1    2    0    0 -0.64151800014E+02 -0.45818131404E+02 -0.72131362547E+02  0.16451394403E+03  0.12508856745E+03 0.  0.
          5    1    3    3  502    0 -0.45684389683E+02 -0.31578923427E+02  0.27494100411E+02  0.62110303678E+02  0.41800000000E+01 0.  1.
         -5    1    3    3    0  502 -0.18467410331E+02 -0.14239207977E+02 -0.99625462959E+02  0.10240364035E+03  0.41800000000E+01 0.  1.
        -11    1    1    2    0    0  0.21324441371E+02  0.15707363155E+02 -0.17273394796E+02  0.31619981417E+02  0.00000000000E+00 0.  1.
         11    1    1    2    0    0  0.42827358643E+02  0.30110768250E+02  0.10529250384E+03  0.11758976307E+03  0.00000000000E+00 0. -1.
</event>
<event>
 7    1  0.8661710E-006  0.1839001E+03  0.7561462E-02  0.1164081E+00
          1   -1    0    0  501    0  0.00000000000E+00  0.00000000000E+00  0.43688187140E+03  0.43688187140E+03  0.00000000000E+00 0. -1.
         -1   -1    0    0    0  501 -0.00000000000E+00 -0.00000000000E+00 -0.92658892604E+02  0.92658892604E+02  0.00000000000E+00 0.  1.
         23    2    1    2    0    0  0.62984146427E+02 -0.14509392049E+03  0.10174119154E+03  0.22587127033E+03  0.12508921712E+03 0.  0.
          5    1    3    3  502    0  0.59142420469E+02 -0.15932993827E+03  0.58165728065E+02  0.17967910132E+03  0.41800000000E+01 0. -1.
         -5    1    3    3    0  502  0.38417259576E+01  0.14236017789E+02  0.43575463473E+02  0.46192169008E+02  0.41800000000E+01 0. -1.
        -11    1    1    2    0    0  0.22969976872E+02  0.18704118987E+02  0.32875118499E+02  0.44251975333E+02  0.00000000000E+00 0.  1.
         11    1    1    2    0    0 -0.85954123299E+02  0.12638980150E+03  0.20960666876E+03  0.25941751834E+03  0.00000000000E+00 0. -1.
</event>
<event>
 7    1  0.8661710E-006  0.1336367E+03  0.7561462E-02  0.1222157E+00
          2   -1    0    0  501    0  0.00000000000E+00  0.00000000000E+00  0.80078616787E+03  0.80078616787E+03  0.00000000000E+00 0. -1.
         -2   -1    0    0    0  501 -0.00000000000E+00 -0.00000000000E+00 -0.47173596732E+02  0.47173596732E+02  0.00000000000E+00 0.  1.
         23    2    1    2    0    0 -0.78567392746E+02  0.50031958520E+02  0.11027611673E+03  0.19101038876E+03  0.12509242430E+03 0.  0.
          5    1    3    3  502    0 -0.77374089111E+02 -0.62883168913E+01  0.13428495416E+02  0.78892898820E+02  0.41800000000E+01 0. -1.
         -5    1    3    3    0  502 -0.11933036344E+01  0.56320275411E+02  0.96847621311E+02  0.11211748994E+03  0.41800000000E+01 0. -1.
        -11    1    1    2    0    0  0.49259348056E+02 -0.78182301116E+02  0.44691619581E+03  0.45636941359E+03  0.00000000000E+00 0.  1.
         11    1    1    2    0    0  0.29308044690E+02  0.28150342597E+02  0.19642025860E+03  0.20057996226E+03  0.00000000000E+00 0. -1.
</event>
<event>
 7    1  0.8661710E-006  0.2415831E+03  0.7561462E-02  0.1118743E+00
         -1   -1    0    0    0  501 -0.00000000000E+00  0.00000000000E+00  0.44613341747E+02  0.44613341747E+02  0.00000000000E+00 0. -1.
          1   -1    0    0  501    0  0.00000000000E+00 -0.00000000000E+00 -0.14409502071E+04  0.14409502071E+04  0.00000000000E+00 0.  1.
         23    2    1    2    0    0  0.12037013793E+03 -0.19180244334E+03 -0.62515788988E+03  0.67656953832E+03  0.12508719168E+03 0.  0.
          5    1    3    3  502    0  0.12593521443E+03 -0.90646973869E+02 -0.41896491251E+03  0.44679483258E+03  0.41800000000E+01 0. -1.
         -5    1    3    3    0  502 -0.55650764985E+01 -0.10115546947E+03 -0.20619297738E+03  0.22977470574E+03  0.41800000000E+01 0. -1.
        -11    1    1    2    0    0 -0.79458781326E+02  0.12038819962E+03 -0.32917524378E+03  0.35939304063E+03  0.00000000000E+00 0.  1.
         11    1    1    2    0    0 -0.40911356601E+02  0.71414243715E+02 -0.44200373167E+03  0.44960096988E+03  0.00000000000E+00 0. -1.
</event>
<event>
 7    1  0.8661710E-006  0.9744697E+02  0.7561462E-02  0.1285758E+00
         -2   -1    0    0    0  501 -0.00000000000E+00  0.00000000000E+00  0.71452502032E+02  0.71452502032E+02  0.00000000000E+00 0.  1.
          2   -1    0    0  501    0  0.00000000000E+00 -0.00000000000E+00 -0.22014210683E+03  0.22014210683E+03  0.00000000000E+00 0. -1.
         23    2    1    2    0    0 -0.49863601802E+02 -0.34041511181E+02 -0.61084937003E+02  0.15173251984E+03  0.12508471041E+03 0.  0.
          5    1    3    3  502    0  0.34053392205E+02 -0.36760176267E+02 -0.46859273334E+01  0.50501231617E+02  0.41800000000E+01 0. -1.
         -5    1    3    3    0  502 -0.83916994007E+02  0.27186650862E+01 -0.56399009669E+02  0.10123128822E+03  0.41800000000E+01 0. -1.
        -11    1    1    2    0    0  0.24955089117E+02  0.19778205341E+02  0.13630066197E+02  0.34636867409E+02  0.00000000000E+00 0.  1.
         11    1    1    2    0    0  0.24908512685E+02  0.14263305840E+02 -0.10123473399E+03  0.10522522161E+03  0.00000000000E+00 0. -1.
</event>
<event>
 7    1  0.8661710E-006  0.1248125E+03  0.7561462E-02  0.1235363E+00
          2   -1    0    0  501    0  0.00000000000E+00  0.00000000000E+00  0.38019857500E+03  0.38019857500E+03  0.00000000000E+00 0. -1.
         -2   -1    0    0    0  501 -0.00000000000E+00 -0.00000000000E+00 -0.60209001364E+02  0.60209001364E+02  0.00000000000E+00 0.  1.
         23    2    1    2    0    0  0.64962471685E+02  0.44862032997E+02  0.12845906907E+03  0.19591353441E+03  0.12509059040E+03 0.  0.
          5    1    3    3  502    0  0.61058147267E+02  0.80906015733E+02  0.58752795103E+02  0.11723158304E+03  0.41800000000E+01 0. -1.
         -5    1    3    3    0  502  0.39043244178E+01 -0.36043982737E+02  0.69706273967E+02  0.78681951368E+02  0.41800000000E+01 0. -1.
        -11    1    1    2    0    0 -0.81022401721E+02 -0.22383155727E+02  0.19887373268E+03  0.21590830644E+03  0.00000000000E+00 0. -1.
         11    1    1    2    0    0  0.16059930036E+02 -0.22478877270E+02 -0.73432281095E+01  0.28585735519E+02  0.00000000000E+00 0.  1.
</event>
<event>
 7    1  0.8661710E-006  0.1317689E+03  0.7561462E-02  0.1224854E+00
          1   -1    0    0  501    0  0.00000000000E+00  0.00000000000E+00  0.46898166492E+03  0.46898166492E+03  0.00000000000E+00 0. -1.
         -1   -1    0    0    0  501 -0.00000000000E+00 -0.00000000000E+00 -0.40538681094E+02  0.40538681094E+02  0.00000000000E+00 0.  1.
         23    2    1    2    0    0  0.21420689024E+02  0.81907679635E+02  0.23220475044E+03  0.27700975070E+03  0.12509053503E+03 0.  0.
          5    1    3    3  502    0 -0.29231947995E+02  0.87024558497E+02  0.18879882337E+03  0.20997678127E+03  0.41800000000E+01 0. -1.
         -5    1    3    3    0  502  0.50652637019E+02 -0.51168788613E+01  0.43405927069E+02  0.67032969433E+02  0.41800000000E+01 0. -1.
        -11    1    1    2    0    0  0.29787631040E+02 -0.83590041932E+01  0.79723094866E+02  0.85515774973E+02  0.00000000000E+00 0.  1.
         11    1    1    2    0    0 -0.51208320064E+02 -0.73548675442E+02  0.11651513852E+03  0.14699482034E+03  0.00000000000E+00 0. -1.
</event>
<event>
 7    1  0.8661710E-006  0.3599704E+03  0.7561462E-02  0.1058596E+00
         -1   -1    0    0    0  501 -0.00000000000E+00  0.00000000000E+00  0.40572879189E+03  0.40572879189E+03  0.00000000000E+00 0.  1.
          1   -1    0    0  501    0  0.00000000000E+00 -0.00000000000E+00 -0.34772214775E+03  0.34772214775E+03  0.00000000000E+00 0. -1.
         23    2    1    2    0    0 -0.10451808339E+03  0.34068152165E+03  0.73992064990E+02  0.38484992679E+03  0.12508681592E+03 0.  0.
          5    1    3    3  502    0 -0.69285116835E+02  0.24340086758E+03 -0.72904742724E+01  0.25320946501E+03  0.41800000000E+01 0.  1.
         -5    1    3    3    0  502 -0.35232966554E+02  0.97280654070E+02  0.81282539263E+02  0.13164046178E+03  0.41800000000E+01 0.  1.
        -11    1    1    2    0    0  0.54418474493E+02 -0.73519446023E+02 -0.30432988904E+02  0.96398371995E+02  0.00000000000E+00 0. -1.
         11    1    1    2    0    0  0.50099608895E+02 -0.26716207563E+03  0.14447568050E+02  0.27220264086E+03  0.00000000000E+00 0.  1.
</event>
<event>
 7    1  0.8661710E-006  0.2349291E+03  0.7561462E-02  0.1123218E+00
          2   -1    0    0  501    0  0.00000000000E+00  0.00000000000E+00  0.18810474805E+04  0.18810474805E+04  0.00000000000E+00 0. -1.
         -2   -1    0    0    0  501 -0.00000000000E+00 -0.00000000000E+00 -0.40819276914E+02  0.40819276914E+02  0.00000000000E+00 0.  1.
         23    2    1    2    0    0  0.17057078552E+03  0.13224255928E+03  0.47284100008E+03  0.53461185252E+03  0.12509490055E+03 0.  0.
          5    1    3    3  502    0  0.12052671526E+03  0.33241159515E+02  0.33520867405E+03  0.35779042935E+03  0.41800000000E+01 0. -1.
         -5    1    3    3    0  502  0.50044070263E+02  0.99001399764E+02  0.13763232602E+03  0.17682142317E+03  0.41800000000E+01 0. -1.
        -11    1    1    2    0    0 -0.17781684266E+03 -0.10708533510E+03  0.12309940557E+04  0.12483719252E+04  0.00000000000E+00 0.  1.
         11    1    1    2    0    0  0.72460571391E+01 -0.25157224178E+02  0.13639314787E+03  0.13888297973E+03  0.00000000000E+00 0. -1.
</event>
<event>
 7    1  0.8661710E-006  0.2241228E+03  0.7561462E-02  0.1130846E+00
         -2   -1    0    0    0  501 -0.00000000000E+00  0.00000000000E+00  0.33407002326E+03  0.33407002326E+03  0.00000000000E+00 0.  1.
          2   -1    0    0  501    0  0.00000000000E+00 -0.00000000000E+00 -0.16344980816E+03  0.16344980816E+03  0.00000000000E+00 0. -1.
         23    2    1    2    0    0 -0.18330202978E+03 -0.94402377592E+02  0.10256104463E+03  0.26206419430E+03  0.12508969198E+03 0.  0.
          5    1    3    3  502    0 -0.11920435814E+03  0.87480754744E+01  0.48256443595E+02  0.12896652500E+03  0.41800000000E+01 0.  1.
         -5    1    3    3    0  502 -0.64097671649E+02 -0.10315045307E+03  0.54304601032E+02  0.13309766930E+03  0.41800000000E+01 0.  1.
        -11    1    1    2    0    0  0.46131636051E+02  0.33703805024E+02 -0.21163175269E+02  0.60925809845E+02  0.00000000000E+00 0. -1.
         11    1    1    2    0    0  0.13717039373E+03  0.60698572569E+02  0.89222345749E+02  0.17452982728E+03  0.00000000000E+00 0.  1.
</event>
<event>
 7    1  0.8661710E-006  0.9035355E+02  0.7561462E-02  0.1301998E+00
         -1   -1    0    0    0  501 -0.00000000000E+00  0.00000000000E+00  0.84847211781E+02  0.84847211781E+02  0.00000000000E+00 0.  1.
          1   -1    0    0  501    0  0.00000000000E+00 -0.00000000000E+00 -0.25401133971E+03  0.25401133971E+03  0.00000000000E+00 0. -1.
         23    2    1    2    0    0 -0.18261119336E+02  0.63507331638E+02 -0.72384276172E+01  0.14165883632E+03  0.12509269132E+03 0.  0.
          5    1    3    3  502    0 -0.13750640167E+02  0.58951247182E+02  0.53224542223E+02  0.80713406224E+02  0.41800000000E+01 0. -1.
         -5    1    3    3    0  502 -0.45104791691E+01  0.45560844551E+01 -0.60462969841E+02  0.60945430098E+02  0.41800000000E+01 0. -1.
        -11    1    1    2    0    0 -0.35628392051E+02 -0.11383703026E+02 -0.48791232358E+02  0.61478088534E+02  0.00000000000E+00 0.  1.
         11    1    1    2    0    0  0.53889511388E+02 -0.52123628611E+02 -0.11313446795E+03  0.13572162663E+03  0.00000000000E+00 0. -1.
</event>
<event>
 7    1  0.8661710E-006  0.1003684E+03  0.7561462E-02  0.1279523E+00
          2   -1    0    0  501    0  0.00000000000E+00  0.00000000000E+00  0.64294852690E+02  0.64294852690E+02  0.00000000000E+00 0. -1.
         -2   -1    0    0    0  501 -0.00000000000E+00 -0.00000000000E+00 -0.30544740711E+03  0.30544740711E+03  0.00000000000E+00 0.  1.
         23    2    1    2    0    0  0.37395519394E+02 -0.69228663938E+02 -0.18473554888E+03  0.23657136760E+03  0.12509099155E+03 0.  0.
          5    1    3    3  502    0 -0.98615412248E+01 -0.63043487352E+02 -0.23079702266E+02  0.67984383130E+02  0.41800000000E+01 0. -1.
         -5    1    3    3    0  502  0.47257060618E+02 -0.61851765860E+01 -0.16165584661E+03  0.16858698447E+03  0.41800000000E+01 0. -1.
        -11    1    1    2    0    0 -0.75247013656E+01  0.55612209212E+02  0.11908177177E+02  0.57368489851E+02  0.00000000000E+00 0. -1.
         11    1    1    2    0    0 -0.29870818028E+02  0.13616454726E+02 -0.68325182716E+02  0.75802402351E+02  0.00000000000E+00 0.  1.
</event>
<event>
 7    1  0.8661710E-006  0.2735305E+03  0.7561462E-02  0.1099276E+00
         -2   -1    0    0    0  501 -0.00000000000E+00  0.00000000000E+00  0.22984651099E+03  0.22984651099E+03  0.00000000000E+00 0.  1.
          2   -1    0    0  501    0  0.00000000000E+00 -0.00000000000E+00 -0.40294088451E+03  0.40294088451E+03  0.00000000000E+00 0. -1.
         23    2    1    2    0    0 -0.27007362417E+03 -0.16783132797E+00  0.35995081100E+01  0.29765762721E+03  0.12508923189E+03 0.  0.
          5    1    3    3  502    0 -0.12114675305E+03  0.25436484330E+02  0.58302425527E+02  0.13689483457E+03  0.41800000000E+01 0. -1.
         -5    1    3    3    0  502 -0.14892687113E+03 -0.25604315658E+02 -0.54702917417E+02  0.16076279264E+03  0.41800000000E+01 0. -1.
        -11    1    1    2    0    0  0.13009704390E+03 -0.16201603710E+02 -0.35917877563E+02  0.13593317006E+03  0.00000000000E+00 0.  1.
         11    1    1    2    0    0  0.13997658027E+03  0.16369435038E+02 -0.14077600406E+03  0.19919659824E+03  0.00000000000E+00 0. -1.
</event>
<event>
 7    1  0.8661710E-006  0.1737288E+03  0.7561462E-02  0.1174014E+00
          1   -1    0    0  501    0  0.00000000000E+00  0.00000000000E+00  0.10536059441E+04  0.10536059441E+04  0.00000000000E+00 0. -1.
         -1   -1    0    0    0  501 -0.00000000000E+00 -0.00000000000E+00 -0.50009266617E+02  0.50009266617E+02  0.00000000000E+00 0.  1.
         23    2    1    2    0    0 -0.33230285154E+02  0.16863388044E+03  0.26253386409E+03  0.33780352865E+03  0.12508219976E+03 0.  0.
          5    1    3    3  502    0 -0.48093292048E+01  0.32053807743E+02 -0.77716793244E+01  0.33592374696E+02  0.41800000000E+01 0.  1.
         -5    1    3    3    0  502 -0.28420955949E+02  0.13658007269E+03  0.27030554341E+03  0.30421115396E+03  0.41800000000E+01 0.  1.
        -11    1    1    2    0    0 -0.60208207466E+01 -0.47343181359E+02  0.85035197470E+02  0.97512111619E+02  0.00000000000E+00 0.  1.
         11    1    1    2    0    0  0.39251105901E+02 -0.12129069908E+03  0.65602761594E+03  0.66829957046E+03  0.00000000000E+00 0. -1.
</event>
<event>
 7    1  0.8661710E-006  0.1063116E+03  0.7561462E-02  0.1267557E+00
          2   -1    0    0  501    0  0.00000000000E+00  0.00000000000E+00  0.50939962207E+03  0.50939962207E+03  0.00000000000E+00 0. -1.
         -2   -1    0    0    0  501 -0.00000000000E+00 -0.00000000000E+00 -0.33627860412E+02  0.33627860412E+02  0.00000000000E+00 0.  1.
         23    2    1    2    0    0 -0.46126526507E+02 -0.18935984590E+02  0.15189229731E+03  0.20298965824E+03  0.12508918183E+03 0.  0.
          5    1    3    3  502    0  0.25634358774E+02  0.20896404292E+02  0.37059523569E+01  0.33540819086E+02  0.41800000000E+01 0. -1.
         -5    1    3    3    0  502 -0.71760885280E+02 -0.39832388882E+02  0.14818634496E+03  0.16944883916E+03  0.41800000000E+01 0. -1.
        -11    1    1    2    0    0  0.23753093845E+02 -0.32940448238E+02  0.80213950311E+02  0.89908622622E+02  0.00000000000E+00 0.  1.
         11    1    1    2    0    0  0.22373432662E+02  0.51876432828E+02  0.24366551403E+03  0.25012920161E+03  0.00000000000E+00 0. -1.
</event>
<event>
 7    1  0.8661710E-006  0.2952589E+03  0.7561462E-02  0.1087635E+00
          2   -1    0    0  501    0  0.00000000000E+00  0.00000000000E+00  0.16014872000E+04  0.16014872000E+04  0.00000000000E+00 0. -1.
         -2   -1    0    0    0  501 -0.00000000000E+00 -0.00000000000E+00 -0.10540043282E+03  0.10540043282E+03  0.00000000000E+00 0.  1.
         23    2    1    2    0    0 -0.23027641835E+03  0.14987909129E+03  0.16353986363E+03  0.34334280386E+03  0.12509205855E+03 0.  0.
          5    1    3    3  502    0  0.12594406828E+02  0.25919863262E+02  0.17913806212E+02  0.34188232593E+02  0.41800000000E+01 0.  1.
         -5    1    3    3    0  502 -0.24287082517E+03  0.12395922803E+03  0.14562605742E+03  0.30915457126E+03  0.41800000000E+01 0.  1.
        -11    1    1    2    0    0  0.37847587717E+02 -0.71524263363E+02  0.40653291647E+03  0.41450835012E+03  0.00000000000E+00 0.  1.
         11    1    1    2    0    0  0.19242883063E+03 -0.78354827925E+02  0.92601398704E+03  0.94903647881E+03  0.00000000000E+00 0. -1.
</event>
<event>
 7    1  0.8661710E-006  0.9245760E+02  0.7561462E-02  0.1297007E+00
         -3   -1    0    0    0  501 -0.00000000000E+00  0.00000000000E+00  0.12288534774E+03  0.12288534774E+03  0.00000000000E+00 0.  1.
          3   -1    0    0  501    0  0.00000000000E+00 -0.00000000000E+00 -0.10086179374E+03  0.10086179374E+03  0.00000000000E+00 0. -1.
         23    2    1    2    0    0 -0.17728912181E+02 -0.19729254973E+01  0.31647270249E+02  0.13026269301E+03  0.12509441519E+03 0.  0.
          5    1    3    3  502    0  0.39785647022E+02  0.12610777362E+02 -0.24407861025E+02  0.48529841278E+02  0.41800000000E+01 0.  1.
         -5    1    3    3    0  502 -0.57514559203E+02 -0.14583702860E+02  0.56055131275E+02  0.81732851728E+02  0.41800000000E+01 0.  1.
        -11    1    1    2    0    0  0.99537598312E+01  0.41769545587E+02 -0.25497669324E+02  0.49938996929E+02  0.00000000000E+00 0. -1.
         11    1    1    2    0    0  0.77751523497E+01 -0.39796620089E+02  0.15873953076E+02  0.43545451552E+02  0.00000000000E+00 0.  1.
</event>
<event>
 7    1  0.8661710E-006  0.1837101E+03  0.7561462E-02  0.1164260E+00
          1   -1    0    0  501    0  0.00000000000E+00  0.00000000000E+00  0.27051330287E+03  0.27051330287E+03  0.00000000000E+00 0. -1.
         -1   -1    0    0    0  501 -0.00000000000E+00 -0.00000000000E+00 -0.14484817976E+03  0.14484817976E+03  0.00000000000E+00 0.  1.
         23    2    1    2    0    0  0.11069805860E+03 -0.10762713657E+03  0.47795701434E+01  0.19876710781E+03  0.12509139919E+03 0.  0.
          5    1    3    3  502    0  0.25708344592E+02  0.24586927412E+02  0.19618096485E+02  0.40838438890E+02  0.41800000000E+01 0.  1.
         -5    1    3    3    0  502  0.84989714004E+02 -0.13221406399E+03 -0.14838526342E+02  0.15792866892E+03  0.41800000000E+01 0.  1.
        -11    1    1    2    0    0 -0.51502337685E+02 -0.43297595640E-01  0.61223774287E+02  0.80005269824E+02  0.00000000000E+00 0. -1.
         11    1    1    2    0    0 -0.59195720911E+02  0.10767043417E+03  0.59661778679E+02  0.13658910499E+03  0.00000000000E+00 0.  1.
</event>
<event>
 7    1  0.8661710E-006  0.1035553E+03  0.7561462E-02  0.1272992E+00
         -3   -1    0    0    0  501 -0.00000000000E+00  0.00000000000E+00  0.14115968182E+03  0.14115968182E+03  0.00000000000E+00 0.  1.
          3   -1    0    0  501    0  0.00000000000E+00 -0.00000000000E+00 -0.86822400984E+02  0.86822400984E+02  0.00000000000E+00 0. -1.
         23    2    1    2    0    0  0.29172285168E+01 -0.24815055552E+02  0.24591427440E+02  0.12987705452E+03  0.12505604257E+03 0.  0.
          5    1    3    3  502    0 -0.10900960058E+02  0.43260604739E+02  0.38304417614E+02  0.58949229523E+02  0.41800000000E+01 0. -1.
         -5    1    3    3    0  502  0.13818188574E+02 -0.68075660291E+02 -0.13712990174E+02  0.70927824999E+02  0.41800000000E+01 0. -1.
        -11    1    1    2    0    0  0.43031346894E+02  0.79054503819E+01  0.20340279970E+02  0.48248522780E+02  0.00000000000E+00 0.  1.
         11    1    1    2    0    0 -0.45948575411E+02  0.16909605170E+02  0.94055734236E+01  0.49856505500E+02  0.00000000000E+00 0. -1.
</event>
<event>
 7    1  0.8661710E-006  0.1496066E+03  0.7561462E-02  0.1200957E+00
         -1   -1    0    0    0  501 -0.00000000000E+00  0.00000000000E+00  0.43461418527E+02  0.43461418527E+02  0.00000000000E+00 0.  1.
          1   -1    0    0  501    0  0.00000000000E+00 -0.00000000000E+00 -0.78016361266E+03  0.78016361266E+03  0.00000000000E+00 0. -1.
         23    2    1    2    0    0 -0.17873580161E+02  0.13874026954E+03 -0.24435244552E+03  0.30809919834E+03  0.12509464867E+03 0.  0.
          5    1    3    3  502    0 -0.40728470098E+02  0.53594722413E+02 -0.19639485889E+03  0.20765263192E+03  0.41800000000E+01 0.  1.
         -5    1    3    3    0  502  0.22854889937E+02  0.85145547126E+02 -0.47957586636E+02  0.10044656642E+03  0.41800000000E+01 0.  1.
        -11    1    1    2    0    0  0.16848634246E+02 -0.27400336935E+02 -0.50589749012E+02  0.59949792703E+02  0.00000000000E+00 0.  1.
         11    1    1    2    0    0  0.10249459150E+01 -0.11133993260E+03 -0.44175999960E+03  0.45557604015E+03  0.00000000000E+00 0. -1.
</event>
<event>
 7    1  0.8661710E-006  0.1002222E+03  0.7561462E-02  0.1279829E+00
          2   -1    0    0  501    0  0.00000000000E+00  0.00000000000E+00  0.18944402763E+03  0.18944402763E+03  0.00000000000E+00 0. -1.
         -2   -1    0    0    0  501 -0.00000000000E+00 -0.00000000000E+00 -0.66525523737E+02  0.66525523737E+02  0.00000000000E+00 0.  1.
         23    2    1    2    0    0 -0.78575784325E+01 -0.14823474133E+02  0.42903878470E+02  0.13330629527E+03  0.12509335972E+03 0.  0.
          5    1    3    3  502    0  0.37299909725E+02  0.36822876073E+02  0.37057100978E+02  0.64326577716E+02  0.41800000000E+01 0. -1.
         -5    1    3    3    0  502 -0.45157488158E+02 -0.51646350205E+02  0.58467774923E+01  0.68979717550E+02  0.41800000000E+01 0. -1.
        -11    1    1    2    0    0 -0.16267161297E+01  0.46264077213E+02  0.76791179456E+02  0.89665468760E+02  0.00000000000E+00 0. -1.
         11    1    1    2    0    0  0.94842945623E+01 -0.31440603080E+02  0.32234459649E+01  0.32997787339E+02  0.00000000000E+00 0.  1.
</event>
<event>
 7    1  0.8661710E-006  0.1165734E+03  0.7561462E-02  0.1248859E+00
          3   -1    0    0  501    0  0.00000000000E+00  0.00000000000E+00  0.58587984452E+02  0.58587984452E+02  0.00000000000E+00 0. -1.
         -3   -1    0    0    0  501 -0.00000000000E+00 -0.00000000000E+00 -0.34568301286E+03  0.34568301286E+03  0.00000000000E+00 0.  1.
         23    2    1    2    0    0  0.71333365305E+02 -0.36429781282E+02 -0.21727524067E+03  0.26319405273E+03  0.12508797391E+03 0.  0.
          5    1    3    3  502    0  0.45260039589E+02  0.18919342850E+02 -0.14463712446E+02  0.51313585874E+02  0.41800000000E+01 0.  1.
         -5    1    3    3    0  502  0.26073325716E+02 -0.55349124132E+02 -0.20281152822E+03  0.21188046686E+03  0.41800000000E+01 0.  1.
        -11    1    1    2    0    0 -0.40565555104E+02  0.67570215895E+02 -0.44924118097E+02  0.90716452332E+02  0.00000000000E+00 0.  1.
         11    1    1    2    0    0 -0.30767810202E+02 -0.31140434613E+02 -0.24895669641E+02  0.50360492247E+02  0.00000000000E+00 0. -1.
</event>
<event>
 7    1  0.8661710E-006  0.1615287E+03  0.7561462E-02  0.1186982E+00
          2   -1    0    0  501    0  0.00000000000E+00  0.00000000000E+00  0.97273223734E+02  0.97273223734E+02  0.00000000000E+00 0.  1.
         -2   -1    0    0    0  501 -0.00000000000E+00 -0.00000000000E+00 -0.31818363615E+03  0.31818363615E+03  0.00000000000E+00 0. -1.
         23    2    1    2    0    0 -0.12909467799E+03  0.37348840524E+02 -0.14921262818E+03  0.23658944559E+03  0.12509910306E+03 0.  0.
          5    1    3    3  502    0 -0.12202752072E+03  0.73057448020E+02 -0.13813757088E+03  0.19831179343E+03  0.41800000000E+01 0. -1.
         -5    1    3    3    0  502 -0.70671572671E+01 -0.35708607497E+02 -0.11075057297E+02  0.38277652166E+02  0.41800000000E+01 0. -1.
        -11    1    1    2    0    0  0.12110389305E+03 -0.48463523556E+02 -0.88173732064E+02  0.15744673084E+03  0.00000000000E+00 0. -1.
         11    1    1    2    0    0  0.79907849387E+01  0.11114683032E+02  0.16475947820E+02  0.21420683449E+02  0.00000000000E+00 0.  1.
</event>
<event>
 7    1  0.8661710E-006  0.7338716E+02  0.7561462E-02  0.1348939E+00
         -1   -1    0    0    0  501 -0.00000000000E+00  0.00000000000E+00  0.15080912327E+03  0.15080912327E+03  0.00000000000E+00 0.  1.
          1   -1    0    0  501    0  0.00000000000E+00 -0.00000000000E+00 -0.88142539506E+02  0.88142539506E+02  0.00000000000E+00 0. -1.
         23    2    1    2    0    0  0.17801523035E+02  0.27077752157E+02  0.62892066433E+02  0.14371015992E+03  0.12508836541E+03 0.  0.
          5    1    3    3  502    0 -0.33172694826E+02  0.15745901990E+02 -0.22690971096E+02  0.43367195907E+02  0.41800000000E+01 0.  1.
         -5    1    3    3    0  502  0.50974217862E+02  0.11331850168E+02  0.85583037529E+02  0.10034296402E+03  0.41800000000E+01 0.  1.
        -11    1    1    2    0    0 -0.40192250682E+01 -0.39000954583E+02  0.36927452406E+02  0.53859682228E+02  0.00000000000E+00 0.  1.
         11    1    1    2    0    0 -0.13782297967E+02  0.11923202425E+02 -0.37152935076E+02  0.41381820624E+02  0.00000000000E+00 0. -1.
</event>
<event>
 7    1  0.8661710E-006  0.2470477E+03  0.7561462E-02  0.1115185E+00
          2   -1    0    0  501    0  0.00000000000E+00  0.00000000000E+00  0.11740638129E+04  0.11740638129E+04  0.00000000000E+00 0. -1.
         -2   -1    0    0    0  501 -0.00000000000E+00 -0.00000000000E+00 -0.59771950984E+02  0.59771950984E+02  0.00000000000E+00 0.  1.
         23    2    1    2    0    0 -0.21283865119E+02  0.24374977666E+03  0.50967217425E+03  0.57903517253E+03  0.12509616017E+03 0.  0.
          5    1    3    3  502    0 -0.26219033845E+00  0.99459591634E+01  0.14447724082E+03  0.14487973068E+03  0.41800000000E+01 0. -1.
         -5    1    3    3    0  502 -0.21021674780E+02  0.23380381749E+03  0.36519493343E+03  0.43415544185E+03  0.41800000000E+01 0. -1.
        -11    1    1    2    0    0  0.29469214776E+02 -0.93216866481E+02  0.19105574182E+03  0.21461620465E+03  0.00000000000E+00 0.  1.
         11    1    1    2    0    0 -0.81853496567E+01 -0.15053291018E+03  0.41356394589E+03  0.44018438674E+03  0.00000000000E+00 0. -1.
</event>
<event>
 7    1  0.8661710E-006  0.2038868E+03  0.7561462E-02  0.1146501E+00
          1   -1    0    0  501    0  0.00000000000E+00  0.00000000000E+00  0.99475286252E+03  0.99475286252E+03  0.00000000000E+00 0. -1.
         -1   -1    0    0    0  501 -0.00000000000E+00 -0.00000000000E+00 -0.44028037410E+02  0.44028037410E+02  0.00000000000E+00 0.  1.
         23    2    1    2    0    0 -0.60349418288E+02 -0.16175802467E+03  0.38622565650E+03  0.44116537138E+03  0.12509562877E+03 0.  0.
          5    1    3    3  502    0 -0.89419217456E+02 -0.63149074337E+02  0.21780397808E+03  0.24380247601E+03  0.41800000000E+01 0. -1.
         -5    1    3    3    0  502  0.29069799167E+02 -0.98608950336E+02  0.16842167842E+03  0.19736289537E+03  0.41800000000E+01 0. -1.
        -11    1    1    2    0    0 -0.12438792081E+02  0.97350183923E+02  0.25596614757E+03  0.27413582503E+03  0.00000000000E+00 0.  1.
         11    1    1    2    0    0  0.72788210369E+02  0.64407840751E+02  0.30853302104E+03  0.32347970352E+03  0.00000000000E+00 0. -1.
</event>
<event>
 7    1  0.8661710E-006  0.1373380E+03  0.7561462E-02  0.1216956E+00
          2   -1    0    0  501    0  0.00000000000E+00  0.00000000000E+00  0.16361226862E+03  0.16361226862E+03  0.00000000000E+00 0. -1.
         -2   -1    0    0    0  501 -0.00000000000E+00 -0.00000000000E+00 -0.16468372672E+03  0.16468372672E+03  0.00000000000E+00 0.  1.
         23    2    1    2    0    0 -0.45811566541E+02 -0.10489384203E+03 -0.46571087288E+02  0.17583750188E+03  0.12509413724E+03 0.  0.
          5    1    3    3  502    0 -0.50883581178E+01  0.12601669784E+02 -0.49376601458E+02  0.51383018997E+02  0.41800000000E+01 0. -1.
         -5    1    3    3    0  502 -0.40723208423E+02 -0.11749551181E+03  0.28055141699E+01  0.12445448288E+03  0.41800000000E+01 0. -1.
        -11    1    1    2    0    0 -0.13662729353E+02  0.59953407968E+02  0.47791939976E+02  0.77879078237E+02  0.00000000000E+00 0. -1.
         11    1    1    2    0    0  0.59474295894E+02  0.44940434060E+02 -0.22923107904E+01  0.74579415219E+02  0.00000000000E+00 0.  1.
</event>
<event>
 6    1  0.8661710E-006  0.1072621E+03  0.7561462E-02  0.1265726E+00
         -2   -1    0    0    0  501 -0.00000000000E+00  0.00000000000E+00  0.10828811295E+03  0.10828811295E+03  0.00000000000E+00 0.  1.
          2   -1    0    0  501    0  0.00000000000E+00 -0.00000000000E+00 -0.33564356480E+03  0.33564356480E+03  0.00000000000E+00 0. -1.
          5    1    1    2  502    0  0.52478256464E+02  0.42755964273E+01 -0.22253754367E+03  0.22871965125E+03  0.41800000000E+01 0. -1.
         -5    1    1    2    0  502 -0.17058509028E+02 -0.52818230100E+02  0.65714322908E+02  0.86119700396E+02  0.41800000000E+01 0.  1.
        -11    1    1    2    0    0  0.29339304425E+02  0.18235067405E+02 -0.11614190167E+02  0.36444504121E+02  0.00000000000E+00 0. -1.
         11    1    1    2    0    0 -0.64759051861E+02  0.30307566267E+02 -0.58918040929E+02  0.92647821981E+02  0.00000000000E+00 0.  1.
</event>
<event>
 7    1  0.8661710E-006  0.7625969E+02  0.7561462E-02  0.1340014E+00
         -1   -1    0    0    0  501 -0.00000000000E+00  0.00000000000E+00  0.52608609916E+02  0.52608609916E+02  0.00000000000E+00 0.  1.
          1   -1    0    0  501    0  0.00000000000E+00 -0.00000000000E+00 -0.19945175363E+03  0.19945175363E+03  0.00000000000E+00 0. -1.
         23    2    1    2    0    0 -0.23448811314E+02 -0.15105687021E+01 -0.95364095390E+02  0.14769226666E+03  0.11030215942E+03 0.  0.
          5    1    3    3  502    0 -0.16632335343E+02  0.39048929818E+02  0.11846007637E+01  0.42665315865E+02  0.41800000000E+01 0. -1.
         -5    1    3    3    0  502 -0.68164759708E+01 -0.40559498520E+02 -0.96548696154E+02  0.10502695080E+03  0.41800000000E+01 0.  1.
        -11    1    1    2    0    0  0.23257337483E+02 -0.29474149158E+02 -0.61282297376E+02  0.71868972353E+02  0.00000000000E+00 0.  1.
         11    1    1    2    0    0  0.19147383117E+00  0.30984717860E+02  0.98032490533E+01  0.32499124528E+02  0.00000000000E+00 0. -1.
</event>
<event>
 7    1  0.8661710E-006  0.1212809E+03  0.7561462E-02  0.1240999E+00
          1   -1    0    0  501    0  0.00000000000E+00  0.00000000000E+00  0.17745008016E+03  0.17745008016E+03  0.00000000000E+00 0. -1.
         -1   -1    0    0    0  501 -0.00000000000E+00 -0.00000000000E+00 -0.11440260484E+03  0.11440260484E+03  0.00000000000E+00 0.  1.
         23    2    1    2    0    0 -0.85499717142E+02  0.13306709463E+02  0.26395334907E+01  0.15212356609E+03  0.12508933638E+03 0.  0.
          5    1    3    3  502    0  0.23940282691E+02 -0.44065682484E+01 -0.27694726600E+02  0.37108290994E+02  0.41800000000E+01 0. -1.
         -5    1    3    3    0  502 -0.10943999983E+03  0.17713277712E+02  0.30334260090E+02  0.11501527510E+03  0.41800000000E+01 0. -1.
        -11    1    1    2    0    0  0.95782410317E+02 -0.12682980248E+02  0.74688385095E+02  0.12212077212E+03  0.00000000000E+00 0. -1.
         11    1    1    2    0    0 -0.10282693175E+02 -0.62372921548E+00 -0.14280443267E+02  0.17608346798E+02  0.00000000000E+00 0.  1.
</event>
<event>
 7    1  0.8661710E-006  0.5917473E+02  0.7561462E-02  0.1401328E+00
          2   -1    0    0  501    0  0.00000000000E+00  0.00000000000E+00  0.21968500245E+03  0.21968500245E+03  0.00000000000E+00 0. -1.
         -2   -1    0    0    0  501 -0.00000000000E+00 -0.00000000000E+00 -0.38582566445E+02  0.38582566445E+02  0.00000000000E+00 0.  1.
         23    2    1    2    0    0 -0.28042230791E+02 -0.81846162832E+01  0.66676311332E+02  0.13825287450E+03  0.11753625893E+03 0.  0.
          5    1    3    3  502    0 -0.52850400657E+02  0.62268751680E+01  0.87541267690E+02  0.10253235964E+03  0.41800000000E+01 0. -1.
         -5    1    3    3    0  502  0.24808169866E+02 -0.14411491451E+02 -0.20864956358E+02  0.35720514859E+02  0.41800000000E+01 0.  1.
        -11    1    1    2    0    0  0.49069149008E+01  0.11595432116E+02  0.46563097229E+02  0.48235400728E+02  0.00000000000E+00 0. -1.
         11    1    1    2    0    0  0.23135315890E+02 -0.34108158327E+01  0.67863027445E+02  0.71779293671E+02  0.00000000000E+00 0.  1.
</event>
<event>
 7    1  0.8661710E-006  0.1012655E+03  0.7561462E-02  0.1277657E+00
          1   -1    0    0  501    0  0.00000000000E+00  0.00000000000E+00  0.28960255781E+03  0.28960255781E+03  0.00000000000E+00 0. -1.
         -1   -1    0    0    0  501 -0.00000000000E+00 -0.00000000000E+00 -0.52140791198E+02  0.52140791198E+02  0.00000000000E+00 0.  1.
         23    2    1    2    0    0 -0.38244963088E+02 -0.21475233400E+02  0.81104624796E+02  0.15540495120E+03  0.12509546692E+03 0.  0.
          5    1    3    3  502    0 -0.78395131888E+02 -0.11861683171E+02  0.81672310732E+02  0.11390493831E+03  0.41800000000E+01 0.  1.
         -5    1    3    3    0  502  0.40150168800E+02 -0.96135502288E+01 -0.56768593608E+00  0.41500012891E+02  0.41800000000E+01 0.  1.
        -11    1    1    2    0    0 -0.17259001920E+02  0.19580302161E+02  0.70488821069E+01  0.27036052208E+02  0.00000000000E+00 0.  1.
         11    1    1    2    0    0  0.55503965008E+02  0.18949312389E+01  0.14930825971E+03  0.15930234560E+03  0.00000000000E+00 0. -1.
</event>
<event>
 7    1  0.8661710E-006  0.1683531E+03  0.7561462E-02  0.1179576E+00
          2   -1    0    0  501    0  0.00000000000E+00  0.00000000000E+00  0.21213503869E+03  0.21213503869E+03  0.00000000000E+00 0. -1.
         -2   -1    0    0    0  501 -0.00000000000E+00 -0.00000000000E+00 -0.15270929955E+03  0.15270929955E+03  0.00000000000E+00 0.  1.
         23    2    1    2    0    0 -0.93287883766E+02  0.95455592220E+02 -0.21949485794E+02  0.18424137964E+03  0.12509479087E+03 0.  0.
          5    1    3    3  502    0 -0.11978025184E+03  0.90398883527E+02 -0.14870067871E+01  0.15012977874E+03  0.41800000000E+01 0.  1.
         -5    1    3    3    0  502  0.26492368077E+02  0.50567086924E+01 -0.20462479007E+02  0.34111600904E+02  0.41800000000E+01 0.  1.
        -11    1    1    2    0    0  0.28921607552E+02 -0.90185588481E+02  0.61919179098E+02  0.11315425088E+03  0.00000000000E+00 0.  1.
         11    1    1    2    0    0  0.64366276214E+02 -0.52700037388E+01  0.19456045836E+02  0.67448707717E+02  0.00000000000E+00 0. -1.
</event>
<event>
 7    1  0.8661710E-006  0.1160327E+03  0.7561462E-02  0.1249789E+00
          2   -1    0    0  501    0  0.00000000000E+00  0.00000000000E+00  0.40745265693E+02  0.40745265693E+02  0.00000000000E+00 0.  1.
         -2   -1    0    0    0  501 -0.00000000000E+00 -0.00000000000E+00 -0.34799763595E+03  0.34799763595E+03  0.00000000000E+00 0. -1.
         23    2    1    2    0    0 -0.49501116285E+02 -0.10166633670E+02 -0.19614857537E+03  0.23807259092E+03  0.12510225406E+03 0.  0.
          5    1    3    3  502    0 -0.15267958083E+02  0.56717924847E+02 -0.73516585988E+02  0.94192326430E+02  0.41800000000E+01 0. -1.
         -5    1    3    3    0  502 -0.34233158202E+02 -0.66884558517E+02 -0.12263198938E+03  0.14388026449E+03  0.41800000000E+01 0. -1.
        -11    1    1    2    0    0  0.43992859354E+02  0.44841270049E+02 -0.50370158781E+02  0.80518718752E+02  0.00000000000E+00 0.  1.
         11    1    1    2    0    0  0.55082569305E+01 -0.34674636379E+02 -0.60733636110E+02  0.70151591981E+02  0.00000000000E+00 0. -1.
</event>
<event>
 7    1  0.8661710E-006  0.6687377E+02  0.7561462E-02  0.1371059E+00
          2   -1    0    0  501    0  0.00000000000E+00  0.00000000000E+00  0.84079629874E+02  0.84079629874E+02  0.00000000000E+00 0. -1.
         -2   -1    0    0    0  501 -0.00000000000E+00 -0.00000000000E+00 -0.14397229960E+03  0.14397229960E+03  0.00000000000E+00 0.  1.
         23    2    1    2    0    0  0.25220402339E+02  0.54055643971E+00 -0.28445239592E+02  0.13075843541E+03  0.12510905595E+03 0.  0.
          5    1    3    3  502    0  0.27660054347E+02  0.12017104343E+02 -0.75856490252E+02  0.81738417630E+02  0.41800000000E+01 0.  1.
         -5    1    3    3    0  502 -0.24396520086E+01 -0.11476547903E+02  0.47411250661E+02  0.49020017778E+02  0.41800000000E+01 0.  1.
        -11    1    1    2    0    0  0.12545666001E+02  0.36105403418E+02 -0.21108661759E+02  0.43664281657E+02  0.00000000000E+00 0.  1.
         11    1    1    2    0    0 -0.37766068339E+02 -0.36645959857E+02 -0.10338768370E+02  0.53629212404E+02  0.00000000000E+00 0. -1.
</event>
<event>
 7    1  0.8661710E-006  0.8662623E+02  0.7561462E-02  0.1311234E+00
         -2   -1    0    0    0  501 -0.00000000000E+00  0.00000000000E+00  0.29648522293E+02  0.29648522293E+02  0.00000000000E+00 0. -1.
          2   -1    0    0  501    0  0.00000000000E+00 -0.00000000000E+00 -0.40766721691E+03  0.40766721691E+03  0.00000000000E+00 0.  1.
         23    2    1    2    0    0 -0.16383622654E+02  0.95903008398E+01 -0.21718977325E+03  0.25135572476E+03  0.12509158966E+03 0.  0.
          5    1    3    3  502    0 -0.36513483995E+02  0.44728387086E+02 -0.19811119774E+03  0.20639617776E+03  0.41800000000E+01 0. -1.
         -5    1    3    3    0  502  0.20129861341E+02 -0.35138086247E+02 -0.19078575511E+02  0.44959546997E+02  0.41800000000E+01 0. -1.
        -11    1    1    2    0    0  0.38550566159E+02 -0.26491775878E+02 -0.14810881506E+03  0.15531961061E+03  0.00000000000E+00 0.  1.
         11    1    1    2    0    0 -0.22166943506E+02  0.16901475038E+02 -0.12720106305E+02  0.30640403836E+02  0.00000000000E+00 0. -1.
</event>
<event>
 7    1  0.8661710E-006  0.2429538E+03  0.7561462E-02  0.1117841E+00
         -1   -1    0    0    0  501 -0.00000000000E+00  0.00000000000E+00  0.19613398997E+03  0.19613398997E+03  0.00000000000E+00 0.  1.
          1   -1    0    0  501    0  0.00000000000E+00 -0.00000000000E+00 -0.34379538100E+03  0.34379538100E+03  0.00000000000E+00 0. -1.
         23    2    1    2    0    0  0.35803510942E+02 -0.23064365943E+03 -0.11421602133E+03  0.28839505111E+03  0.12509203389E+03 0.  0.
          5    1    3    3  502    0 -0.23146895186E+02 -0.14361608129E+03 -0.11120659095E+03  0.18315495033E+03  0.41800000000E+01 0. -1.
         -5    1    3    3    0  502  0.58950406128E+02 -0.87027578144E+02 -0.30094303863E+01  0.10524010078E+03  0.41800000000E+01 0. -1.
        -11    1    1    2    0    0 -0.31565727784E+02  0.10938950705E+03 -0.57956024527E+02  0.12775507897E+03  0.00000000000E+00 0.  1.
         11    1    1    2    0    0 -0.42377831575E+01  0.12125415238E+03  0.24510654832E+02  0.12377924089E+03  0.00000000000E+00 0. -1.
</event>
<event>
 7    1  0.8661710E-006  0.9267973E+02  0.7561462E-02  0.1296489E+00
         -2   -1    0    0    0  501 -0.00000000000E+00  0.00000000000E+00  0.65879117245E+02  0.65879117245E+02  0.00000000000E+00 0.  1.
          2   -1    0    0  501    0  0.00000000000E+00 -0.00000000000E+00 -0.23380319490E+03  0.23380319490E+03  0.00000000000E+00 0. -1.
         23    2    1    2    0    0  0.21209322126E+02  0.35527760277E+02 -0.37161112716E+02  0.13689400455E+03  0.12508782151E+03 0.  0.
          5    1    3    3  502    0 -0.85060709366E+01  0.55857679287E+02  0.27338933143E+02  0.62907259069E+02  0.41800000000E+01 0.  1.
         -5    1    3    3    0  502  0.29715393062E+02 -0.20329919010E+02 -0.64500045859E+02  0.73986745486E+02  0.41800000000E+01 0.  1.
        -11    1    1    2    0    0  0.27958360424E+02 -0.32962620516E+02 -0.85982444816E+02  0.96235051231E+02  0.00000000000E+00 0.  1.
         11    1    1    2    0    0 -0.49167682550E+02 -0.25651397603E+01 -0.44780520122E+02  0.66553256357E+02  0.00000000000E+00 0. -1.
</event>
<event>
 6    1  0.8661710E-006  0.1791928E+03  0.7561462E-02  0.1168587E+00
          1   -1    0    0  501    0  0.00000000000E+00  0.00000000000E+00  0.10364185059E+03  0.10364185059E+03  0.00000000000E+00 0. -1.
         -1   -1    0    0    0  501 -0.00000000000E+00 -0.00000000000E+00 -0.34746996412E+03  0.34746996412E+03  0.00000000000E+00 0.  1.
          5    1    1    2  502    0 -0.12586622932E+03  0.92943433869E+02 -0.10273025252E+03  0.18722117072E+03  0.41800000000E+01 0. -1.
         -5    1    1    2    0  502  0.76439929642E+02 -0.58664660424E+02 -0.11384318536E+03  0.14920572536E+03  0.41800000000E+01 0.  1.
        -11    1    1    2    0    0 -0.23608467186E+02 -0.20132280839E+02  0.84660004976E+01  0.32161181867E+02  0.00000000000E+00 0. -1.
         11    1    1    2    0    0  0.73034766866E+02 -0.14146492605E+02 -0.35720676150E+02  0.82523736760E+02  0.00000000000E+00 0.  1.
</event>
<event>
 7    1  0.8661710E-006  0.9171629E+02  0.7561462E-02  0.1298748E+00
         -2   -1    0    0    0  501 -0.00000000000E+00  0.00000000000E+00  0.26707640603E+03  0.26707640603E+03  0.00000000000E+00 0. -1.
          2   -1    0    0  501    0  0.00000000000E+00 -0.00000000000E+00 -0.79546217382E+02  0.79546217382E+02  0.00000000000E+00 0.  1.
         23    2    1    2    0    0 -0.11290624472E+02  0.81155481894E+02  0.16804952900E+03  0.22495774655E+03  0.12510656696E+03 0.  0.
          5    1    3    3  502    0 -0.20377552294E+02  0.57698698300E+02  0.68062026102E+01  0.61710462784E+02  0.41800000000E+01 0.  1.
         -5    1    3    3    0  502  0.90869278224E+01  0.23456783593E+02  0.16124332639E+03  0.16324728377E+03  0.41800000000E+01 0.  1.
        -11    1    1    2    0    0 -0.18425850289E+02 -0.51151853518E+02 -0.25426620773E+02  0.60021138953E+02  0.00000000000E+00 0. -1.
         11    1    1    2    0    0  0.29716474761E+02 -0.30003628375E+02  0.44907280422E+02  0.61643737905E+02  0.00000000000E+00 0.  1.
</event>
<event>
 7    1  0.8661710E-006  0.1377025E+03  0.7561462E-02  0.1216454E+00
         -2   -1    0    0    0  501 -0.00000000000E+00  0.00000000000E+00  0.11518457232E+03  0.11518457232E+03  0.00000000000E+00 0.  1.
          2   -1    0    0  501    0  0.00000000000E+00 -0.00000000000E+00 -0.31422965256E+03  0.31422965256E+03  0.00000000000E+00 0. -1.
         23    2    1    2    0    0  0.12048212756E+03  0.19863312736E+00  0.56514494671E+01  0.17376639394E+03  0.12508732256E+03 0.  0.
          5    1    3    3  502    0  0.33034496658E+02 -0.39244749262E+02  0.46550672351E+02  0.69396439465E+02  0.41800000000E+01 0.  1.
         -5    1    3    3    0  502  0.87447630905E+02  0.39443382389E+02 -0.40899222884E+02  0.10436995448E+03  0.41800000000E+01 0.  1.
        -11    1    1    2    0    0 -0.87485555660E+02 -0.19576388985E+02 -0.64810984490E+02  0.11062287813E+03  0.00000000000E+00 0.  1.
         11    1    1    2    0    0 -0.32996571904E+02  0.19377755858E+02 -0.13988554521E+03  0.14502495281E+03  0.00000000000E+00 0. -1.
</event>
<event>
 7    1  0.8661710E-006  0.1135614E+03  0.7561462E-02  0.1254113E+00
          1   -1    0    0  501    0  0.00000000000E+00  0.00000000000E+00  0.27342779962E+03  0.27342779962E+03  0.00000000000E+00 0. -1.
         -1   -1    0    0    0  501 -0.00000000000E+00 -0.00000000000E+00 -0.69994389376E+02  0.69994389376E+02  0.00000000000E+00 0.  1.
         23    2    1    2    0    0  0.74092856002E+02  0.33561778783E+02  0.82981596715E+02  0.17073553987E+03  0.12509410408E+03 0.  0.
          5    1    3    3  502    0  0.18785745174E+02 -0.22619888925E+02 -0.23715802069E+02  0.38006252966E+02  0.41800000000E+01 0.  1.
         -5    1    3    3    0  502  0.55307110828E+02  0.56181667708E+02  0.10669739878E+03  0.13272928690E+03  0.41800000000E+01 0.  1.
        -11    1    1    2    0    0  0.16658164096E+01 -0.42194343958E+02  0.68331307230E+02  0.80326242001E+02  0.00000000000E+00 0.  1.
         11    1    1    2    0    0 -0.75758672411E+02  0.86325651749E+01  0.52120506296E+02  0.92360407121E+02  0.00000000000E+00 0. -1.
</event>
<event>
 7    1  0.8661710E-006  0.1141712E+03  0.7561462E-02  0.1253035E+00
          2   -1    0    0  501    0  0.00000000000E+00  0.00000000000E+00  0.40242105350E+03  0.40242105350E+03  0.00000000000E+00 0. -1.
         -2   -1    0    0    0  501 -0.00000000000E+00 -0.00000000000E+00 -0.84465572108E+02  0.84465572108E+02  0.00000000000E+00 0.  1.
         23    2    1    2    0    0  0.57525799342E+02 -0.51761771081E+02 -0.11723248753E+02  0.13578303143E+03  0.11095538981E+03 0.  0.
          5    1    3    3  502    0  0.68853099330E+02 -0.15752181090E+01  0.23950867913E+02  0.73036614607E+02  0.41800000000E+01 0. -1.
         -5    1    3    3    0  502 -0.11327299988E+02 -0.50186552972E+02 -0.35674116666E+02  0.62746416823E+02  0.41800000000E+01 0.  1.
        -11    1    1    2    0    0  0.12406439035E+02  0.33097071973E+02  0.44214318172E+02  0.56606022950E+02  0.00000000000E+00 0.  1.
         11    1    1    2    0    0 -0.69932238376E+02  0.18664699108E+02  0.28546441197E+03  0.29449757123E+03  0.00000000000E+00 0. -1.
</event>
<event>
 7    1  0.8661710E-006  0.1053066E+03  0.7561462E-02  0.1269517E+00
         -3   -1    0    0    0  501 -0.00000000000E+00  0.00000000000E+00  0.36295050250E+03  0.36295050250E+03  0.00000000000E+00 0.  1.
          3   -1    0    0  501    0  0.00000000000E+00 -0.00000000000E+00 -0.55769096516E+02  0.55769096516E+02  0.00000000000E+00 0. -1.
         23    2    1    2    0    0  0.19419962678E+02 -0.64175424443E+01  0.29376549109E+03  0.31994493419E+03  0.12509307477E+03 0.  0.
          5    1    3    3  502    0  0.53260249753E+02  0.31294541671E+02  0.23109439185E+03  0.23924483879E+03  0.41800000000E+01 0.  1.
         -5    1    3    3    0  502 -0.33840287075E+02 -0.37712084115E+02  0.62671099242E+02  0.80700095402E+02  0.41800000000E+01 0.  1.
        -11    1    1    2    0    0 -0.37316742708E+02 -0.35979648459E+02  0.74651620300E+01  0.52371777072E+02  0.00000000000E+00 0.  1.
         11    1    1    2    0    0  0.17896780030E+02  0.42397190903E+02  0.59507528562E+01  0.46402887749E+02  0.00000000000E+00 0. -1.
</event>
<event>
 7    1  0.8661710E-006  0.1171368E+03  0.7561462E-02  0.1247897E+00
         -2   -1    0    0    0  501 -0.00000000000E+00  0.00000000000E+00  0.99293758007E+02  0.99293758007E+02  0.00000000000E+00 0.  1.
          2   -1    0    0  501    0  0.00000000000E+00 -0.00000000000E+00 -0.16655532413E+03  0.16655532413E+03  0.00000000000E+00 0. -1.
         23    2    1    2    0    0 -0.26349898755E+02 -0.37039795894E+02  0.10673495268E+02  0.13351923407E+03  0.12508876337E+03 0.  0.
          5    1    3    3  502    0 -0.53495253096E+02 -0.67716764256E+02 -0.10816125258E+02  0.87073321004E+02  0.41800000000E+01 0. -1.
         -5    1    3    3    0  502  0.27145354341E+02  0.30676968363E+02  0.21489620526E+02  0.46445913066E+02  0.41800000000E+01 0. -1.
        -11    1    1    2    0    0 -0.31869639846E+02  0.36529328942E+02 -0.39892874198E+02  0.62781424233E+02  0.00000000000E+00 0.  1.
         11    1    1    2    0    0  0.58219538601E+02  0.51046695119E+00 -0.38042187194E+02  0.69548423835E+02  0.00000000000E+00 0. -1.
</event>
<event>
 7    1  0.8661710E-006  0.1096702E+03  0.7561462E-02  0.1261182E+00
         -2   -1    0    0    0  501 -0.00000000000E+00  0.00000000000E+00  0.26354615929E+02  0.26354615929E+02  0.00000000000E+00 0.  1.
          2   -1    0    0  501    0  0.00000000000E+00 -0.00000000000E+00 -0.47301826920E+03  0.47301826920E+03  0.00000000000E+00 0. -1.
         23    2    1    2    0    0 -0.65566820184E+00 -0.25762816282E+02 -0.26873253958E+03  0.29753618645E+03  0.12508577782E+03 0.  0.
          5    1    3    3  502    0 -0.23539199415E+01  0.49568761216E+02 -0.79494521664E+02  0.93805407105E+02  0.41800000000E+01 0. -1.
         -5    1    3    3    0  502  0.16982517397E+01 -0.75331577497E+02 -0.18923801791E+03  0.20373077934E+03  0.41800000000E+01 0. -1.
        -11    1    1    2    0    0  0.39926213205E+02  0.35706533023E+02 -0.11686746453E+03  0.12855762625E+03  0.00000000000E+00 0.  1.
         11    1    1    2    0    0 -0.39270545003E+02 -0.99437167408E+01 -0.61063649159E+02  0.73279072430E+02  0.00000000000E+00 0. -1.
</event>
<event>
 7    1  0.8661710E-006  0.1230813E+03  0.7561462E-02  0.1238099E+00
          1   -1    0    0  501    0  0.00000000000E+00  0.00000000000E+00  0.39267981031E+02  0.39267981031E+02  0.00000000000E+00 0. -1.
         -1   -1    0    0    0  501 -0.00000000000E+00 -0.00000000000E+00 -0.46752339123E+03  0.46752339123E+03  0.00000000000E+00 0.  1.
         23    2    1    2    0    0  0.71843940175E+02  0.29702047356E+02 -0.28200949602E+03  0.31815075263E+03  0.12508709844E+03 0.  0.
          5    1    3    3  502    0  0.94485459669E+02  0.40438587913E+02 -0.27208106496E+03  0.29087516187E+03  0.41800000000E+01 0.  1.
         -5    1    3    3    0  502 -0.22641519494E+02 -0.10736540558E+02 -0.99284310592E+01  0.27275590763E+02  0.41800000000E+01 0.  1.
        -11    1    1    2    0    0  0.12626463147E+02 -0.30941259194E+02 -0.29780949439E+02  0.44762641137E+02  0.00000000000E+00 0. -1.
         11    1    1    2    0    0 -0.84470403322E+02  0.12392118382E+01 -0.11646496474E+03  0.14387797849E+03  0.00000000000E+00 0.  1.
</event>
<event>
 7    1  0.8661710E-006  0.1385892E+03  0.7561462E-02  0.1215240E+00
         -1   -1    0    0    0  501 -0.00000000000E+00  0.00000000000E+00  0.48655526402E+02  0.48655526402E+02  0.00000000000E+00 0.  1.
          1   -1    0    0  501    0  0.00000000000E+00 -0.00000000000E+00 -0.59285952362E+03  0.59285952362E+03  0.00000000000E+00 0. -1.
         23    2    1    2    0    0 -0.93806210133E+02 -0.32533572223E+02 -0.12988840969E+03  0.20585565720E+03  0.12509002459E+03 0.  0.
          5    1    3    3  502    0 -0.78625846169E+02  0.37905046799E+02 -0.75439376556E+02  0.11544430776E+03  0.41800000000E+01 0. -1.
         -5    1    3    3    0  502 -0.15180363964E+02 -0.70438619022E+02 -0.54449033130E+02  0.90411349446E+02  0.41800000000E+01 0. -1.
        -11    1    1    2    0    0  0.31972345540E+02  0.44339670283E+02 -0.90078067739E+02  0.10536743106E+03  0.00000000000E+00 0.  1.
         11    1    1    2    0    0  0.61833864594E+02 -0.11806098061E+02 -0.32423751979E+03  0.33029196176E+03  0.00000000000E+00 0. -1.
</event>
<event>
 7    1  0.8661710E-006  0.1227569E+03  0.7561462E-02  0.1238617E+00
         -2   -1    0    0    0  501 -0.00000000000E+00  0.00000000000E+00  0.11887952333E+03  0.11887952333E+03  0.00000000000E+00 0.  1.
          2   -1    0    0  501    0  0.00000000000E+00 -0.00000000000E+00 -0.13437177220E+03  0.13437177220E+03  0.00000000000E+00 0. -1.
         23    2    1    2    0    0  0.10711799416E+02  0.59491980214E+02  0.10264728150E+02  0.13929839629E+03  0.12507853616E+03 0.  0.
          5    1    3    3  502    0 -0.39645282814E+02  0.75535772048E+02  0.12028773124E+02  0.86252913523E+02  0.41800000000E+01 0. -1.
         -5    1    3    3    0  502  0.50357082231E+02 -0.16043791834E+02 -0.17640449737E+01  0.53045482766E+02  0.41800000000E+01 0. -1.
        -11    1    1    2    0    0 -0.31430492100E+02  0.11242957331E+02  0.56106538755E+01  0.33849067344E+02  0.00000000000E+00 0. -1.
         11    1    1    2    0    0  0.20718692683E+02 -0.70734937545E+02 -0.31367630894E+02  0.80103831893E+02  0.00000000000E+00 0.  1.
</event>
<event>
 7    1  0.8661710E-006  0.1096723E+03  0.7561462E-02  0.1261178E+00
         -1   -1    0    0    0  501 -0.00000000000E+00  0.00000000000E+00  0.53570889036E+03  0.53570889036E+03  0.00000000000E+00 0.  1.
          1   -1    0    0  501    0  0.00000000000E+00 -0.00000000000E+00 -0.26566068553E+02  0.26566068553E+02  0.00000000000E+00 0. -1.
         23    2    1    2    0    0  0.22259581794E+02 -0.42560530238E+02  0.32299746064E+03  0.34968719758E+03  0.12508752477E+03 0.  0.
          5    1    3    3  502    0 -0.37221821336E+02  0.21228786110E+02  0.14768472592E+03  0.15383229834E+03  0.41800000000E+01 0. -1.
         -5    1    3    3    0  502  0.59481403130E+02 -0.63789316348E+02  0.17531273472E+03  0.19585489923E+03  0.41800000000E+01 0. -1.
        -11    1    1    2    0    0  0.27166795777E+02  0.23759455492E+02  0.13223252744E+03  0.13706928114E+03  0.00000000000E+00 0.  1.
         11    1    1    2    0    0 -0.49426377571E+02  0.18801074747E+02  0.53912833729E+02  0.75518480203E+02  0.00000000000E+00 0. -1.
</event>
<event>
 7    1  0.8661710E-006  0.2425580E+03  0.7561462E-02  0.1118100E+00
         -1   -1    0    0    0  501 -0.00000000000E+00  0.00000000000E+00  0.11651536353E+04  0.11651536353E+04  0.00000000000E+00 0.  1.
          1   -1    0    0  501    0  0.00000000000E+00 -0.00000000000E+00 -0.72984815458E+02  0.72984815458E+02  0.00000000000E+00 0. -1.
         23    2    1    2    0    0 -0.21802780152E+03  0.22815433338E+02  0.89299214536E+03  0.92797459676E+03  0.12508083116E+03 0.  0.
          5    1    3    3  502    0 -0.13073078000E+03 -0.47898965228E+02  0.52769180620E+03  0.54576639915E+03  0.41800000000E+01 0.  1.
         -5    1    3    3    0  502 -0.87297021512E+02  0.70714398567E+02  0.36530033916E+03  0.38220819761E+03  0.41800000000E+01 0.  1.
        -11    1    1    2    0    0  0.15313966719E+03  0.21759772457E+02  0.15883112847E+03  0.22170379505E+03  0.00000000000E+00 0.  1.
         11    1    1    2    0    0  0.64888134323E+02 -0.44575205795E+02  0.40345546014E+02  0.88460058957E+02  0.00000000000E+00 0. -1.
</event>
<event>
 7    1  0.8661710E-006  0.9306462E+02  0.7561462E-02  0.1295596E+00
         -1   -1    0    0    0  501 -0.00000000000E+00  0.00000000000E+00  0.64738707207E+02  0.64738707207E+02  0.00000000000E+00 0. -1.
          1   -1    0    0  501    0  0.00000000000E+00 -0.00000000000E+00 -0.18610284468E+03  0.18610284468E+03  0.00000000000E+00 0.  1.
         23    2    1    2    0    0 -0.15390568623E+02  0.75522663590E+01 -0.59895442474E+02  0.13972814199E+03  0.12507031344E+03 0.  0.
          5    1    3    3  502    0 -0.50291056010E+02 -0.40768526043E+02 -0.42267550620E+02  0.77429201634E+02  0.41800000000E+01 0. -1.
         -5    1    3    3    0  502  0.34900487387E+02  0.48320792402E+02 -0.17627891854E+02  0.62298940355E+02  0.41800000000E+01 0. -1.
        -11    1    1    2    0    0  0.34616041844E+02  0.93999049672E+01 -0.74258391003E+02  0.82467794931E+02  0.00000000000E+00 0.  1.
         11    1    1    2    0    0 -0.19225473221E+02 -0.16952171326E+02  0.12789696000E+02  0.28645614970E+02  0.00000000000E+00 0. -1.
</event>
<event>
 7    1  0.8661710E-006  0.1555429E+03  0.7561462E-02  0.1193823E+00
          2   -1    0    0  501    0  0.00000000000E+00  0.00000000000E+00  0.11535166818E+04  0.11535166818E+04  0.00000000000E+00 0. -1.
         -2   -1    0    0    0  501 -0.00000000000E+00 -0.00000000000E+00 -0.23280093567E+02  0.23280093567E+02  0.00000000000E+00 0.  1.
         23    2    1    2    0    0  0.12074876030E+03  0.75129849815E+01  0.53058121887E+03  0.55839388827E+03  0.12510234441E+03 0.  0.
          5    1    3    3  502    0  0.14013388913E+03  0.13269235933E+02  0.35993052748E+03  0.38649843016E+03  0.41800000000E+01 0.  1.
         -5    1    3    3    0  502 -0.19385128832E+02 -0.57562509510E+01  0.17065069139E+03  0.17189545811E+03  0.41800000000E+01 0.  1.
        -11    1    1    2    0    0  0.71027867058E+01  0.17902975443E+02  0.52130067857E+02  0.55574365344E+02  0.00000000000E+00 0. -1.
         11    1    1    2    0    0 -0.12785154700E+03 -0.25415960425E+02  0.54752530149E+03  0.56282852174E+03  0.00000000000E+00 0.  1.
</event>
<event>
 7    1  0.8661710E-006  0.1228135E+03  0.7561462E-02  0.1238527E+00
         -2   -1    0    0    0  501 -0.00000000000E+00  0.00000000000E+00  0.38174261614E+02  0.38174261614E+02  0.00000000000E+00 0.  1.
          2   -1    0    0  501    0  0.00000000000E+00 -0.00000000000E+00 -0.48542044135E+03  0.48542044135E+03  0.00000000000E+00 0. -1.
         23    2    1    2    0    0  0.43010145951E+02  0.65747579162E+02 -0.27288600436E+03  0.31030110939E+03  0.12508952911E+03 0.  0.
          5    1    3    3  502    0 -0.26302482665E+02  0.44635238075E+02 -0.20299241467E+03  0.20954120808E+03  0.41800000000E+01 0. -1.
         -5    1    3    3    0  502  0.69312628616E+02  0.21112341086E+02 -0.69893589695E+02  0.10075990131E+03  0.41800000000E+01 0. -1.
        -11    1    1    2    0    0  0.26147638748E+02 -0.73971547809E+00 -0.24107093762E+02  0.35572435406E+02  0.00000000000E+00 0.  1.
         11    1    1    2    0    0 -0.69157784699E+02 -0.65007863683E+02 -0.15025308161E+03  0.17772115816E+03  0.00000000000E+00 0. -1.
</event>
<event>
 7    1  0.8661710E-006  0.1517846E+03  0.7561462E-02  0.1198297E+00
          1   -1    0    0  501    0  0.00000000000E+00  0.00000000000E+00  0.20718625595E+03  0.20718625595E+03  0.00000000000E+00 0. -1.
         -1   -1    0    0    0  501 -0.00000000000E+00 -0.00000000000E+00 -0.15360511377E+03  0.15360511377E+03  0.00000000000E+00 0.  1.
         23    2    1    2    0    0  0.51530422578E+01  0.13413389754E+03 -0.17345865081E+02  0.18430287262E+03  0.12509281957E+03 0.  0.
          5    1    3    3  502    0 -0.28042412502E+02  0.22036956409E+02 -0.51183569485E+02  0.62523871697E+02  0.41800000000E+01 0. -1.
         -5    1    3    3    0  502  0.33195454760E+02  0.11209694113E+03  0.33837704404E+02  0.12177900092E+03  0.41800000000E+01 0. -1.
        -11    1    1    2    0    0  0.22328308509E+02 -0.11722903831E+02 -0.10071295068E+02  0.27155309232E+02  0.00000000000E+00 0.  1.
         11    1    1    2    0    0 -0.27481350767E+02 -0.12241099371E+03  0.80998302330E+02  0.14933318787E+03  0.00000000000E+00 0. -1.
</event>
<event>
 7    1  0.8661710E-006  0.9328859E+02  0.7561462E-02  0.1295078E+00
          2   -1    0    0  501    0  0.00000000000E+00  0.00000000000E+00  0.51044196467E+02  0.51044196467E+02  0.00000000000E+00 0. -1.
         -2   -1    0    0    0  501 -0.00000000000E+00 -0.00000000000E+00 -0.24963032010E+03  0.24963032010E+03  0.00000000000E+00 0.  1.
         23    2    1    2    0    0  0.16696827522E+00  0.12648757638E+02 -0.15388527468E+03  0.19872905502E+03  0.12511011389E+03 0.  0.
          5    1    3    3  502    0 -0.23930389309E+02 -0.39987541051E+02 -0.16543717333E+02  0.49626947871E+02  0.41800000000E+01 0. -1.
         -5    1    3    3    0  502  0.24097357584E+02  0.52636298689E+02 -0.13734155735E+03  0.14910210715E+03  0.41800000000E+01 0. -1.
        -11    1    1    2    0    0  0.47352735359E+01  0.34259108072E+02 -0.42413462121E+02  0.54726694313E+02  0.00000000000E+00 0.  1.
         11    1    1    2    0    0 -0.49022418112E+01 -0.46907865710E+02 -0.22873868297E+01  0.47218767230E+02  0.00000000000E+00 0. -1.
</event>
<event>
 7    1  0.8661710E-006  0.1067422E+03  0.7561462E-02  0.1266725E+00
         -1   -1    0    0    0  501 -0.00000000000E+00  0.00000000000E+00  0.20730953146E+03  0.20730953146E+03  0.00000000000E+00 0.  1.
          1   -1    0    0  501    0  0.00000000000E+00 -0.00000000000E+00 -0.31752752677E+03  0.31752752677E+03  0.00000000000E+00 0. -1.
         23    2    1    2    0    0  0.30098400310E+02 -0.82985919484E+02  0.16315895584E+03  0.22374509446E+03  0.12509374841E+03 0.  0.
          5    1    3    3  502    0  0.43343039337E+02 -0.80865908969E+01  0.67834398765E+00  0.44293843385E+02  0.41800000000E+01 0. -1.
         -5    1    3    3    0  502 -0.13244639026E+02 -0.74899328588E+02  0.16248061185E+03  0.17945125108E+03  0.41800000000E+01 0. -1.
        -11    1    1    2    0    0 -0.31291308565E+02  0.43873615072E+02 -0.24949692294E+03  0.25525037639E+03  0.00000000000E+00 0. -1.
         11    1    1    2    0    0  0.11929082546E+01  0.39112304413E+02 -0.23880028204E+02  0.45841587381E+02  0.00000000000E+00 0.  1.
</event>
<event>
 7    1  0.8661710E-006  0.8334851E+02  0.7561462E-02  0.1319809E+00
         -1   -1    0    0    0  501 -0.00000000000E+00  0.00000000000E+00  0.70301035834E+03  0.70301035834E+03  0.00000000000E+00 0.  1.
          1   -1    0    0  501    0  0.00000000000E+00 -0.00000000000E+00 -0.20306142271E+02  0.20306142271E+02  0.00000000000E+00 0. -1.
         23    2    1    2    0    0 -0.32860869228E+02 -0.15772752985E+02  0.49779413554E+03  0.51456462966E+03  0.12509652376E+03 0.  0.
          5    1    3    3  502    0 -0.60599847229E+02  0.15779627369E+02  0.43100453377E+03  0.43554990375E+03  0.41800000000E+01 0. -1.
         -5    1    3    3    0  502  0.27738978000E+02 -0.31552380354E+02  0.66789601766E+02  0.79014725909E+02  0.41800000000E+01 0. -1.
        -11    1    1    2    0    0 -0.25764461979E+01  0.24973015792E+02  0.55742800513E+01  0.25716963095E+02  0.00000000000E+00 0. -1.
         11    1    1    2    0    0  0.35437315426E+02 -0.92002628068E+01  0.17933580048E+03  0.18303490786E+03  0.00000000000E+00 0.  1.
</event>
<event>
 7    1  0.8661710E-006  0.8293835E+02  0.7561462E-02  0.1320914E+00
         -3   -1    0    0    0  501 -0.00000000000E+00  0.00000000000E+00  0.24304233310E+02  0.24304233310E+02  0.00000000000E+00 0.  1.
          3   -1    0    0  501    0  0.00000000000E+00 -0.00000000000E+00 -0.64108249566E+03  0.64108249566E+03  0.00000000000E+00 0. -1.
         23    2    1    2    0    0  0.24077673418E+02  0.52209855724E+02 -0.29164875653E+03  0.32250875008E+03  0.12508914141E+03 0.  0.
          5    1    3    3  502    0  0.18004320118E+02  0.37996359129E+02 -0.14166676828E+02  0.44565075814E+02  0.41800000000E+01 0. -1.
         -5    1    3    3    0  502  0.60733532995E+01  0.14213496595E+02 -0.27748207970E+03  0.27794367426E+03  0.41800000000E+01 0. -1.
        -11    1    1    2    0    0  0.25996839616E+02 -0.51320023577E+02 -0.14746059858E+03  0.15828521291E+03  0.00000000000E+00 0.  1.
         11    1    1    2    0    0 -0.50074513034E+02 -0.88983214710E+00 -0.17766890723E+03  0.18459276599E+03  0.00000000000E+00 0. -1.
</event>
<event>
 7    1  0.8661710E-006  0.1135018E+03  0.7561462E-02  0.1254219E+00
          1   -1    0    0  501    0  0.00000000000E+00  0.00000000000E+00  0.31481963829E+03  0.31481963829E+03  0.00000000000E+00 0. -1.
         -1   -1    0    0    0  501 -0.00000000000E+00 -0.00000000000E+00 -0.44555899465E+02  0.44555899465E+02  0.00000000000E+00 0.  1.
         23    2    1    2    0    0  0.44815745257E+02 -0.15326113557E+02  0.14148305895E+03  0.19469970150E+03  0.12508867661E+03 0.  0.
          5    1    3    3  502    0  0.40284405664E+02  0.47627025704E+02  0.10350179476E+03  0.12091840570E+03  0.41800000000E+01 0.  1.
         -5    1    3    3    0  502  0.45313395927E+01 -0.62953139261E+02  0.37981264186E+02  0.73781295804E+02  0.41800000000E+01 0.  1.
        -11    1    1    2    0    0 -0.64939322021E+02 -0.13252148776E+02  0.96696990929E+02  0.11723072569E+03  0.00000000000E+00 0. -1.
         11    1    1    2    0    0  0.20123576764E+02  0.28578262333E+02  0.32083688950E+02  0.47445110564E+02  0.00000000000E+00 0.  1.
</event>
<event>
 7    1  0.8661710E-006  0.6325135E+02  0.7561462E-02  0.1384673E+00
         -2   -1    0    0    0  501 -0.00000000000E+00  0.00000000000E+00  0.25757085897E+02  0.25757085897E+02  0.00000000000E+00 0.  1.
          2   -1    0    0  501    0  0.00000000000E+00 -0.00000000000E+00 -0.47798192984E+03  0.47798192984E+03  0.00000000000E+00 0. -1.
         23    2    1    2    0    0 -0.52884784120E+01  0.14978468389E+02 -0.23184329137E+03  0.26391519316E+03  0.12509034699E+03 0.  0.
          5    1    3    3  502    0  0.97123630410E+01  0.27335882448E+00  0.13773543461E+02  0.17366278253E+02  0.41800000000E+01 0.  1.
         -5    1    3    3    0  502 -0.15000841453E+02  0.14705109565E+02 -0.24561683483E+03  0.24654891491E+03  0.41800000000E+01 0.  1.
        -11    1    1    2    0    0  0.40998304276E+02  0.19025315564E+02 -0.10037027177E+03  0.11007731392E+03  0.00000000000E+00 0. -1.
         11    1    1    2    0    0 -0.35709825864E+02 -0.34003783953E+02 -0.12001128082E+03  0.12974650866E+03  0.00000000000E+00 0.  1.
</event>
<event>
 7    1  0.8661710E-006  0.1049505E+03  0.7561462E-02  0.1270217E+00
          4   -1    0    0  501    0  0.00000000000E+00  0.00000000000E+00  0.61195901540E+02  0.61195901540E+02  0.00000000000E+00 0.  1.
         -4   -1    0    0    0  501 -0.00000000000E+00 -0.00000000000E+00 -0.30047596988E+03  0.30047596988E+03  0.00000000000E+00 0. -1.
         23    2    1    2    0    0  0.57815083986E+02  0.41140852269E+02 -0.18999517283E+03  0.23828485310E+03  0.12508537828E+03 0.  0.
          5    1    3    3  502    0 -0.16789656948E+01  0.41006912393E+02 -0.17067927056E+03  0.17559405340E+03  0.41800000000E+01 0. -1.
         -5    1    3    3    0  502  0.59494049681E+02  0.13393987615E+00 -0.19315902268E+02  0.62690799706E+02  0.41800000000E+01 0. -1.
        -11    1    1    2    0    0 -0.79263502522E+02 -0.35357604623E+02 -0.24669769248E+02  0.90230042400E+02  0.00000000000E+00 0.  1.
         11    1    1    2    0    0  0.21448418536E+02 -0.57832476459E+01 -0.24615126269E+02  0.33156975922E+02  0.00000000000E+00 0. -1.
</event>
<event>
 7    1  0.8661710E-006  0.8898465E+02  0.7561462E-02  0.1305329E+00
          2   -1    0    0  501    0  0.00000000000E+00  0.00000000000E+00  0.46767121282E+03  0.46767121282E+03  0.00000000000E+00 0. -1.
         -2   -1    0    0    0  501 -0.00000000000E+00 -0.00000000000E+00 -0.25894797306E+02  0.25894797306E+02  0.00000000000E+00 0.  1.
         23    2    1    2    0    0 -0.18281354348E+02  0.22445369360E+02  0.26634613232E+03  0.29567848816E+03  0.12508998217E+03 0.  0.
          5    1    3    3  502    0  0.43811766772E+02  0.25214148515E+02  0.52733680300E+02  0.73167872943E+02  0.41800000000E+01 0.  1.
         -5    1    3    3    0  502 -0.62093121120E+02 -0.27687791547E+01  0.21361245202E+03  0.22251061522E+03  0.41800000000E+01 0.  1.
        -11    1    1    2    0    0  0.14844909020E+02 -0.42286130738E+02  0.17164424917E+03  0.17739852437E+03  0.00000000000E+00 0. -1.
         11    1    1    2    0    0  0.34364453281E+01  0.19840761378E+02  0.37860340255E+01  0.20488997589E+02  0.00000000000E+00 0.  1.
</event>
<event>
 7    1  0.8661710E-006  0.1440354E+03  0.7561462E-02  0.1208000E+00
          1   -1    0    0  501    0  0.00000000000E+00  0.00000000000E+00  0.37181092366E+03  0.37181092366E+03  0.00000000000E+00 0. -1.
         -1   -1    0    0    0  501 -0.00000000000E+00 -0.00000000000E+00 -0.70643924400E+02  0.70643924400E+02  0.00000000000E+00 0.  1.
         23    2    1    2    0    0  0.11729791198E+03 -0.21366528827E+01  0.12827425686E+03  0.21416121312E+03  0.12508946716E+03 0.  0.
          5    1    3    3  502    0  0.69914709092E+01  0.39706022496E+02  0.96767777124E+00  0.40544514897E+02  0.41800000000E+01 0.  1.
         -5    1    3    3    0  502  0.11030644107E+03 -0.41842675379E+02  0.12730657908E+03  0.17361669823E+03  0.41800000000E+01 0.  1.
        -11    1    1    2    0    0 -0.11455867891E+02 -0.18397238850E+02 -0.31087210159E+01  0.21894278996E+02  0.00000000000E+00 0.  1.
         11    1    1    2    0    0 -0.10584204409E+03  0.20533891732E+02  0.17600146342E+03  0.20639935594E+03  0.00000000000E+00 0. -1.
</event>
<event>
 7    1  0.8661710E-006  0.1308188E+03  0.7561462E-02  0.1226246E+00
          2   -1    0    0  501    0  0.00000000000E+00  0.00000000000E+00  0.21124422719E+03  0.21124422719E+03  0.00000000000E+00 0. -1.
         -2   -1    0    0    0  501 -0.00000000000E+00 -0.00000000000E+00 -0.10544694213E+03  0.10544694213E+03  0.00000000000E+00 0.  1.
         23    2    1    2    0    0 -0.94666643806E+02  0.21075774863E+02  0.92241153173E+02  0.18319907651E+03  0.12509000584E+03 0.  0.
          5    1    3    3  502    0  0.41267523453E+00  0.43682824265E+02 -0.63188710349E+01  0.44336891725E+02  0.41800000000E+01 0.  1.
         -5    1    3    3    0  502 -0.95079319041E+02 -0.22607049402E+02  0.98560024208E+02  0.13886218479E+03  0.41800000000E+01 0.  1.
        -11    1    1    2    0    0  0.27541361871E+02 -0.41466953685E+02 -0.22483952996E+02  0.54622001098E+02  0.00000000000E+00 0.  1.
         11    1    1    2    0    0  0.67125281935E+02  0.20391178822E+02  0.36040084882E+02  0.78870091713E+02  0.00000000000E+00 0. -1.
</event>
<event>
 7    1  0.8661710E-006  0.9012253E+02  0.7561462E-02  0.1302555E+00
          2   -1    0    0  501    0  0.00000000000E+00  0.00000000000E+00  0.22562948899E+03  0.22562948899E+03  0.00000000000E+00 0. -1.
         -2   -1    0    0    0  501 -0.00000000000E+00 -0.00000000000E+00 -0.84181071361E+02  0.84181071361E+02  0.00000000000E+00 0.  1.
         23    2    1    2    0    0  0.24437829977E-01  0.82356489970E+02  0.57311776544E+02  0.16035673179E+03  0.12508816756E+03 0.  0.
          5    1    3    3  502    0 -0.17187164901E+02  0.44219801230E+02  0.93466735507E+02  0.10490134653E+03  0.41800000000E+01 0. -1.
         -5    1    3    3    0  502  0.17211602731E+02  0.38136688741E+02 -0.36154958964E+02  0.55455385260E+02  0.41800000000E+01 0. -1.
        -11    1    1    2    0    0  0.18491946236E+02 -0.49706061943E+02  0.96349769618E+02  0.10998146560E+03  0.00000000000E+00 0. -1.
         11    1    1    2    0    0 -0.18516384066E+02 -0.32650428027E+02 -0.12213128532E+02  0.39472362961E+02  0.00000000000E+00 0.  1.
</event>
<event>
 7    1  0.8661710E-006  0.2072491E+03  0.7561462E-02  0.1143763E+00
         -2   -1    0    0    0  501 -0.00000000000E+00  0.00000000000E+00  0.41053115002E+03  0.41053115002E+03  0.00000000000E+00 0. -1.
          2   -1    0    0  501    0  0.00000000000E+00 -0.00000000000E+00 -0.25404410818E+03  0.25404410818E+03  0.00000000000E+00 0.  1.
         23    2    1    2    0    0  0.53971066575E+01 -0.18390161194E+03  0.32815877996E+03  0.39646574509E+03  0.12509184837E+03 0.  0.
          5    1    3    3  502    0 -0.51345870043E+02 -0.14316313032E+03  0.21423276036E+03  0.26276458716E+03  0.41800000000E+01 0. -1.
         -5    1    3    3    0  502  0.56742976700E+02 -0.40738481627E+02  0.11392601960E+03  0.13370115793E+03  0.41800000000E+01 0. -1.
        -11    1    1    2    0    0 -0.27257356323E+02  0.14679120625E+03 -0.16819307506E+03  0.22489893775E+03  0.00000000000E+00 0.  1.
         11    1    1    2    0    0  0.21860249665E+02  0.37110405697E+02 -0.34786630747E+01  0.43210575363E+02  0.00000000000E+00 0. -1.
</event>
<event>
 7    1  0.8661710E-006  0.1176403E+03  0.7561462E-02  0.1247041E+00
          1   -1    0    0  501    0  0.00000000000E+00  0.00000000000E+00  0.15758968964E+03  0.15758968964E+03  0.00000000000E+00 0. -1.
         -1   -1    0    0    0  501 -0.00000000000E+00 -0.00000000000E+00 -0.15205198516E+03  0.15205198516E+03  0.00000000000E+00 0.  1.
         23    2    1    2    0    0 -0.89714401233E+02 -0.38585945806E+02 -0.45506507720E+02  0.16510371053E+03  0.12510333322E+03 0.  0.
          5    1    3    3  502    0 -0.61094371960E+02 -0.54182057820E+02 -0.82134648946E+02  0.11589560230E+03  0.41800000000E+01 0. -1.
         -5    1    3    3    0  502 -0.28620029273E+02  0.15596112014E+02  0.36628141226E+02  0.49208108226E+02  0.41800000000E+01 0. -1.
        -11    1    1    2    0    0  0.18689005706E+02  0.45601852130E+02 -0.10391966710E+02  0.50366663817E+02  0.00000000000E+00 0.  1.
         11    1    1    2    0    0  0.71025395527E+02 -0.70159063242E+01  0.61436178904E+02  0.94171300456E+02  0.00000000000E+00 0. -1.
</event>
<event>
 7    1  0.8661710E-006  0.1091427E+03  0.7561462E-02  0.1262166E+00
         -1   -1    0    0    0  501 -0.00000000000E+00  0.00000000000E+00  0.22749816799E+02  0.22749816799E+02  0.00000000000E+00 0.  1.
          1   -1    0    0  501    0  0.00000000000E+00 -0.00000000000E+00 -0.63244569035E+03  0.63244569035E+03  0.00000000000E+00 0. -1.
         23    2    1    2    0    0 -0.42679039283E+02  0.28306018628E+02 -0.34668306694E+03  0.37210173928E+03  0.12509126422E+03 0.  0.
          5    1    3    3  502    0  0.40606309845E+02 -0.55376203195E+01 -0.15438047312E+03  0.15978216583E+03  0.41800000000E+01 0. -1.
         -5    1    3    3    0  502 -0.83285349128E+02  0.33843638947E+02 -0.19230259383E+03  0.21231957345E+03  0.41800000000E+01 0. -1.
        -11    1    1    2    0    0  0.43179219089E+02 -0.49618672959E+02 -0.24909801709E+03  0.25763594428E+03  0.00000000000E+00 0.  1.
         11    1    1    2    0    0 -0.50017980591E+00  0.21312654332E+02 -0.13914789517E+02  0.25457823587E+02  0.00000000000E+00 0. -1.
</event>
<event>
 6    1  0.8661710E-006  0.6009082E+02  0.7561462E-02  0.1397451E+00
         -2   -1    0    0    0  501 -0.00000000000E+00  0.00000000000E+00  0.32830666689E+02  0.32830666689E+02  0.00000000000E+00 0.  1.
          2   -1    0    0  501    0  0.00000000000E+00 -0.00000000000E+00 -0.51568911953E+03  0.51568911953E+03  0.00000000000E+00 0. -1.
          5    1    1    2  502    0  0.10486724070E+02 -0.77735967600E+01 -0.23294480773E+03  0.23334771487E+03  0.41800000000E+01 0. -1.
         -5    1    1    2    0  502 -0.93918116549E+01 -0.29265811297E+01  0.23304908803E+02  0.25639075210E+02  0.41800000000E+01 0.  1.
        -11    1    1    2    0    0  0.45811026427E+02 -0.55487569882E+01 -0.13530302437E+03  0.14295575277E+03  0.00000000000E+00 0.  1.
         11    1    1    2    0    0 -0.46905938842E+02  0.16248934878E+02 -0.13791552955E+03  0.14657724337E+03  0.00000000000E+00 0. -1.
</event>
<event>
 7    1  0.8661710E-006  0.1025467E+03  0.7561462E-02  0.1275030E+00
          2   -1    0    0  501    0  0.00000000000E+00  0.00000000000E+00  0.76336010996E+03  0.76336010996E+03  0.00000000000E+00 0. -1.
         -2   -1    0    0    0  501 -0.00000000000E+00 -0.00000000000E+00 -0.22461796392E+02  0.22461796392E+02  0.00000000000E+00 0.  1.
         23    2    1    2    0    0 -0.48388382201E+02 -0.51078181046E+02  0.48804598581E+03  0.50871175113E+03  0.12509334657E+03 0.  0.
          5    1    3    3  502    0  0.28332222510E+02 -0.16546912641E+02  0.36013943147E+02  0.48897767345E+02  0.41800000000E+01 0.  1.
         -5    1    3    3    0  502 -0.76720604710E+02 -0.34531268405E+02  0.45203204266E+03  0.45981398378E+03  0.41800000000E+01 0.  1.
        -11    1    1    2    0    0  0.37631812964E+00  0.38023544409E+02  0.29072808872E+02  0.47866060632E+02  0.00000000000E+00 0.  1.
         11    1    1    2    0    0  0.48012064071E+02  0.13054636637E+02  0.22377951888E+03  0.22924409459E+03  0.00000000000E+00 0. -1.
</event>
<event>
 7    1  0.8661710E-006  0.8527200E+02  0.7561462E-02  0.1314723E+00
         -2   -1    0    0    0  501 -0.00000000000E+00  0.00000000000E+00  0.28874836799E+03  0.28874836799E+03  0.00000000000E+00 0.  1.
          2   -1    0    0  501    0  0.00000000000E+00 -0.00000000000E+00 -0.54557507695E+02  0.54557507695E+02  0.00000000000E+00 0. -1.
         23    2    1    2    0    0  0.28444341136E+02  0.29462531216E+02  0.19555189976E+03  0.23572330675E+03  0.12509120896E+03 0.  0.
          5    1    3    3  502    0 -0.43724361753E+02 -0.19469972838E+01  0.32678587522E+02  0.54781138100E+02  0.41800000000E+01 0. -1.
         -5    1    3    3    0  502  0.72168702889E+02  0.31409528500E+02  0.16287331224E+03  0.18094216865E+03  0.41800000000E+01 0. -1.
        -11    1    1    2    0    0 -0.20560213509E+02 -0.37949249723E+01  0.66008794094E+02  0.69240773629E+02  0.00000000000E+00 0.  1.
         11    1    1    2    0    0 -0.78841276272E+01 -0.25667606244E+02 -0.27369833553E+02  0.38341795308E+02  0.00000000000E+00 0. -1.
</event>
<event>
 7    1  0.8661710E-006  0.1121145E+03  0.7561462E-02  0.1256704E+00
          1   -1    0    0  501    0  0.00000000000E+00  0.00000000000E+00  0.68233037738E+03  0.68233037738E+03  0.00000000000E+00 0. -1.
         -1   -1    0    0    0  501 -0.00000000000E+00 -0.00000000000E+00 -0.30556286860E+02  0.30556286860E+02  0.00000000000E+00 0.  1.
         23    2    1    2    0    0  0.75833243395E+02  0.14436493331E+02  0.21485932901E+03  0.26033176396E+03  0.12509597484E+03 0.  0.
          5    1    3    3  502    0  0.24959215329E+02 -0.30280786027E+02  0.17954524667E+03  0.18383105406E+03  0.41800000000E+01 0.  1.
         -5    1    3    3    0  502  0.50874028067E+02  0.44717279358E+02  0.35314082336E+02  0.76500709906E+02  0.41800000000E+01 0.  1.
        -11    1    1    2    0    0  0.96527878085E+01 -0.28660181698E+02  0.88511155008E+02  0.93535057002E+02  0.00000000000E+00 0. -1.
         11    1    1    2    0    0 -0.85486031204E+02  0.14223688367E+02  0.34840360650E+03  0.35901984327E+03  0.00000000000E+00 0.  1.
</event>
<event>
 7    1  0.8661710E-006  0.1027676E+03  0.7561462E-02  0.1274581E+00
         -1   -1    0    0    0  501 -0.00000000000E+00  0.00000000000E+00  0.58704786765E+02  0.58704786765E+02  0.00000000000E+00 0.  1.
          1   -1    0    0  501    0  0.00000000000E+00 -0.00000000000E+00 -0.32481573593E+03  0.32481573593E+03  0.00000000000E+00 0. -1.
         23    2    1    2    0    0 -0.81215202415E+02 -0.15160933227E+02 -0.14388151552E+03  0.20778589610E+03  0.12508926856E+03 0.  0.
          5    1    3    3  502    0 -0.83189382970E+02  0.21406358780E+02 -0.35026930841E+02  0.92860454012E+02  0.41800000000E+01 0. -1.
         -5    1    3    3    0  502  0.19741805551E+01 -0.36567292007E+02 -0.10885458468E+03  0.11492544209E+03  0.41800000000E+01 0. -1.
        -11    1    1    2    0    0  0.49073556147E+02  0.76229024044E+01 -0.55945283590E+00  0.49665234736E+02  0.00000000000E+00 0.  1.
         11    1    1    2    0    0  0.32141646268E+02  0.75380308226E+01 -0.12166998081E+03  0.12606939186E+03  0.00000000000E+00 0. -1.
</event>
<event>
 7    1  0.8661710E-006  0.1083357E+03  0.7561462E-02  0.1263683E+00
         -2   -1    0    0    0  501 -0.00000000000E+00  0.00000000000E+00  0.20667882426E+02  0.20667882426E+02  0.00000000000E+00 0.  1.
          2   -1    0    0  501    0  0.00000000000E+00 -0.00000000000E+00 -0.76638705600E+03  0.76638705600E+03  0.00000000000E+00 0. -1.
         23    2    1    2    0    0  0.63774515747E+02 -0.28930663254E+02 -0.31493082557E+03  0.34148911222E+03  0.11193398384E+03 0.  0.
          5    1    3    3  502    0  0.82927243792E+02 -0.67526917483E+01 -0.29310095051E+03  0.30470997063E+03  0.41800000000E+01 0. -1.
         -5    1    3    3    0  502 -0.19152728045E+02 -0.22177971505E+02 -0.21829875058E+02  0.36779141599E+02  0.41800000000E+01 0.  1.
        -11    1    1    2    0    0 -0.28765825181E+01  0.41486381089E+02 -0.89892586678E+02  0.99045805981E+02  0.00000000000E+00 0. -1.
         11    1    1    2    0    0 -0.60897933228E+02 -0.12555717835E+02 -0.34089576132E+03  0.34652002022E+03  0.00000000000E+00 0.  1.
</event>
<event>
 7    1  0.8661710E-006  0.2924169E+03  0.7561462E-02  0.1089094E+00
         -2   -1    0    0    0  501 -0.00000000000E+00  0.00000000000E+00  0.92385825735E+03  0.92385825735E+03  0.00000000000E+00 0.  1.
          2   -1    0    0  501    0  0.00000000000E+00 -0.00000000000E+00 -0.10352349431E+03  0.10352349431E+03  0.00000000000E+00 0. -1.
         23    2    1    2    0    0  0.60965210164E+02 -0.27294057134E+03  0.54051417528E+03  0.62130171944E+03  0.12508773148E+03 0.  0.
          5    1    3    3  502    0  0.97690421784E+02 -0.21586543508E+03  0.39399467195E+03  0.45977231158E+03  0.41800000000E+01 0.  1.
         -5    1    3    3    0  502 -0.36725211620E+02 -0.57075136262E+02  0.14651950333E+03  0.16152940786E+03  0.41800000000E+01 0.  1.
        -11    1    1    2    0    0 -0.31950683679E+02  0.11951937019E+03  0.18765564417E+03  0.22476736157E+03  0.00000000000E+00 0.  1.
         11    1    1    2    0    0 -0.29014526485E+02  0.15342120115E+03  0.92164943588E+02  0.18131267065E+03  0.00000000000E+00 0. -1.
</event>
<event>
 7    1  0.8661710E-006  0.1086161E+03  0.7561462E-02  0.1263154E+00
         -2   -1    0    0    0  501 -0.00000000000E+00  0.00000000000E+00  0.26302597028E+02  0.26302597028E+02  0.00000000000E+00 0.  1.
          2   -1    0    0  501    0  0.00000000000E+00 -0.00000000000E+00 -0.46815218984E+03  0.46815218984E+03  0.00000000000E+00 0. -1.
         23    2    1    2    0    0  0.11097430589E+02  0.24697798949E+02 -0.25772990481E+03  0.28776068575E+03  0.12509346183E+03 0.  0.
          5    1    3    3  502    0 -0.36580436264E+02  0.55356746259E+02 -0.99823771884E+02  0.11993646446E+03  0.41800000000E+01 0. -1.
         -5    1    3    3    0  502  0.47677866852E+02 -0.30658947310E+02 -0.15790613292E+03  0.16782422129E+03  0.41800000000E+01 0. -1.
        -11    1    1    2    0    0 -0.39039491888E+02  0.17915104994E+02 -0.82274518518E+02  0.92812333832E+02  0.00000000000E+00 0.  1.
         11    1    1    2    0    0  0.27942061299E+02 -0.42612903942E+02 -0.10184516948E+03  0.11388176728E+03  0.00000000000E+00 0. -1.
</event>
<event>
 7    1  0.8661710E-006  0.2845310E+03  0.7561462E-02  0.1093240E+00
         -3   -1    0    0    0  501 -0.00000000000E+00  0.00000000000E+00  0.59774967606E+03  0.59774967606E+03  0.00000000000E+00 0.  1.
          3   -1    0    0  501    0  0.00000000000E+00 -0.00000000000E+00 -0.14595519574E+03  0.14595519574E+03  0.00000000000E+00 0. -1.
         23    2    1    2    0    0  0.26342218920E+02 -0.26864004258E+03  0.29350604928E+03  0.41791765079E+03  0.12509187384E+03 0.  0.
          5    1    3    3  502    0 -0.43346450656E+02 -0.10428823234E+03  0.15553806941E+03  0.19226157604E+03  0.41800000000E+01 0.  1.
         -5    1    3    3    0  502  0.69688669576E+02 -0.16435181024E+03  0.13796797987E+03  0.22565607474E+03  0.41800000000E+01 0.  1.
        -11    1    1    2    0    0 -0.40873259735E+02  0.97429482266E+02  0.25656150008E+02  0.10872610270E+03  0.00000000000E+00 0. -1.
         11    1    1    2    0    0  0.14531040815E+02  0.17121056031E+03  0.13263228103E+03  0.21706111831E+03  0.00000000000E+00 0.  1.
</event>
<event>
 7    1  0.8661710E-006  0.1149703E+03  0.7561462E-02  0.1251633E+00
         -1   -1    0    0    0  501 -0.00000000000E+00  0.00000000000E+00  0.63959711830E+03  0.63959711830E+03  0.00000000000E+00 0.  1.
          1   -1    0    0  501    0  0.00000000000E+00 -0.00000000000E+00 -0.23842167447E+02  0.23842167447E+02  0.00000000000E+00 0. -1.
         23    2    1    2    0    0 -0.20973714344E+02  0.39774187476E+02  0.41624326218E+03  0.43695311746E+03  0.12509073053E+03 0.  0.
          5    1    3    3  502    0 -0.34873842813E+01  0.79235003608E+02  0.17970937705E+03  0.19647717488E+03  0.41800000000E+01 0.  1.
         -5    1    3    3    0  502 -0.17486330063E+02 -0.39460816132E+02  0.23653388513E+03  0.24047594259E+03  0.41800000000E+01 0.  1.
        -11    1    1    2    0    0 -0.29666882868E+02 -0.47425236411E+02  0.10728540073E+03  0.12099352957E+03  0.00000000000E+00 0.  1.
         11    1    1    2    0    0  0.50640597213E+02  0.76510489351E+01  0.92226287940E+02  0.10549263871E+03  0.00000000000E+00 0. -1.
</event>
<event>
 7    1  0.8661710E-006  0.9775270E+02  0.7561462E-02  0.1285094E+00
          2   -1    0    0  501    0  0.00000000000E+00  0.00000000000E+00  0.58147435896E+02  0.58147435896E+02  0.00000000000E+00 0. -1.
         -2   -1    0    0    0  501 -0.00000000000E+00 -0.00000000000E+00 -0.30151463488E+03  0.30151463488E+03  0.00000000000E+00 0.  1.
         23    2    1    2    0    0 -0.20750368342E+02  0.17546258890E+02 -0.23470158737E+03  0.26345172078E+03  0.11654838085E+03 0.  0.
          5    1    3    3  502    0  0.33003188294E+02  0.30531593638E+02 -0.37793320699E+02  0.58882901908E+02  0.41800000000E+01 0. -1.
         -5    1    3    3    0  502 -0.53753556636E+02 -0.12985334748E+02 -0.19690826667E+03  0.20456881887E+03  0.41800000000E+01 0.  1.
        -11    1    1    2    0    0  0.14645177257E+02  0.37111388792E+02 -0.10241898879E+02  0.41190203782E+02  0.00000000000E+00 0. -1.
         11    1    1    2    0    0  0.61051910853E+01 -0.54657647682E+02  0.15762872644E+01  0.55020146218E+02  0.00000000000E+00 0.  1.
</event>
<event>
 6    1  0.8661710E-006  0.8877691E+02  0.7561462E-02  0.1305841E+00
         -1   -1    0    0    0  501 -0.00000000000E+00  0.00000000000E+00  0.52110084089E+02  0.52110084089E+02  0.00000000000E+00 0.  1.
          1   -1    0    0  501    0  0.00000000000E+00 -0.00000000000E+00 -0.27202314879E+03  0.27202314879E+03  0.00000000000E+00 0. -1.
          5    1    1    2  502    0 -0.21097925073E+02 -0.44303770846E+02 -0.10315998907E+03  0.11431273900E+03  0.41800000000E+01 0. -1.
         -5    1    1    2    0  502  0.41662974558E+02  0.13894244760E+02  0.20443231016E+02  0.48623570219E+02  0.41800000000E+01 0.  1.
        -11    1    1    2    0    0 -0.45600069079E+02  0.10610883385E+01 -0.82436379390E+02  0.94213846410E+02  0.00000000000E+00 0. -1.
         11    1    1    2    0    0  0.25035019594E+02  0.29348437747E+02 -0.54759927255E+02  0.66983077245E+02  0.00000000000E+00 0.  1.
</event>
<event>
 7    1  0.8661710E-006  0.1027169E+03  0.7561462E-02  0.1274684E+00
         -2   -1    0    0    0  501 -0.00000000000E+00  0.00000000000E+00  0.48618791420E+03  0.48618791420E+03  0.00000000000E+00 0. -1.
          2   -1    0    0  501    0  0.00000000000E+00 -0.00000000000E+00 -0.32519569139E+02  0.32519569139E+02  0.00000000000E+00 0.  1.
         23    2    1    2    0    0 -0.51074884902E+02 -0.23561861983E+02  0.28968514348E+03  0.32050371536E+03  0.12506535892E+03 0.  0.
          5    1    3    3  502    0 -0.76706146277E+02  0.24135322164E+02  0.20075832530E+03  0.21630470228E+03  0.41800000000E+01 0. -1.
         -5    1    3    3    0  502  0.25631261375E+02 -0.47697184146E+02  0.88926818175E+02  0.10419901308E+03  0.41800000000E+01 0. -1.
        -11    1    1    2    0    0 -0.37872415994E+00  0.18938057095E+02 -0.65304594467E+01  0.20035976121E+02  0.00000000000E+00 0.  1.
         11    1    1    2    0    0  0.51453609062E+02  0.46238048878E+01  0.17051366103E+03  0.17816779186E+03  0.00000000000E+00 0. -1.
</event>
<event>
 7    1  0.8661710E-006  0.1001402E+03  0.7561462E-02  0.1280001E+00
         -1   -1    0    0    0  501 -0.00000000000E+00  0.00000000000E+00  0.21112756884E+02  0.21112756884E+02  0.00000000000E+00 0.  1.
          1   -1    0    0  501    0  0.00000000000E+00 -0.00000000000E+00 -0.88589382854E+03  0.88589382854E+03  0.00000000000E+00 0. -1.
         23    2    1    2    0    0  0.63734424087E+02 -0.44979533806E+02 -0.38515391090E+03  0.41240411177E+03  0.12509348923E+03 0.  0.
          5    1    3    3  502    0  0.62757742337E+02 -0.40182936304E+02 -0.39425451962E+03  0.40125715101E+03  0.41800000000E+01 0.  1.
         -5    1    3    3    0  502  0.97668174941E+00 -0.47965975026E+01  0.91006087277E+01  0.11146960754E+02  0.41800000000E+01 0.  1.
        -11    1    1    2    0    0 -0.75401984079E+02  0.28116863248E+01 -0.26346236669E+03  0.27405434396E+03  0.00000000000E+00 0.  1.
         11    1    1    2    0    0  0.11667559992E+02  0.42167847482E+02 -0.21616479407E+03  0.22054812969E+03  0.00000000000E+00 0. -1.
</event>
<event>
 6    1  0.8661710E-006  0.1911105E+03  0.7561462E-02  0.1157464E+00
         -2   -1    0    0    0  501 -0.00000000000E+00  0.00000000000E+00  0.48537598565E+02  0.48537598565E+02  0.00000000000E+00 0.  1.
          2   -1    0    0  501    0  0.00000000000E+00 -0.00000000000E+00 -0.10785735390E+04  0.10785735390E+04  0.00000000000E+00 0. -1.
          5    1    1    2  502    0  0.12736810356E+03  0.85452732526E+02 -0.36996084565E+03  0.40051629557E+03  0.41800000000E+01 0. -1.
         -5    1    1    2    0  502 -0.10467681868E+02 -0.10212479452E+03 -0.75048459489E+02  0.12723517474E+03  0.41800000000E+01 0.  1.
        -11    1    1    2    0    0 -0.10619919767E+03  0.28633478915E+02 -0.54914497317E+03  0.56005209335E+03  0.00000000000E+00 0. -1.
         11    1    1    2    0    0 -0.10701224020E+02 -0.11961416923E+02 -0.35881662135E+02  0.39307573926E+02  0.00000000000E+00 0.  1.
</event>
<event>
 7    1  0.8661710E-006  0.1076767E+03  0.7561462E-02  0.1264934E+00
          2   -1    0    0  501    0  0.00000000000E+00  0.00000000000E+00  0.70973642875E+02  0.70973642875E+02  0.00000000000E+00 0. -1.
         -2   -1    0    0    0  501 -0.00000000000E+00 -0.00000000000E+00 -0.28204764275E+03  0.28204764275E+03  0.00000000000E+00 0.  1.
         23    2    1    2    0    0 -0.30862613285E+00 -0.77003682129E+02 -0.17196558159E+03  0.22616073508E+03  0.12508738758E+03 0.  0.
          5    1    3    3  502    0  0.28265006641E+02 -0.98101294918E+02 -0.15715621737E+03  0.18745219050E+03  0.41800000000E+01 0. -1.
         -5    1    3    3    0  502 -0.28573632774E+02  0.21097612789E+02 -0.14809364220E+02  0.38708544585E+02  0.41800000000E+01 0. -1.
        -11    1    1    2    0    0 -0.37318312422E+01  0.29061735326E+02  0.30467285070E+02  0.42270160682E+02  0.00000000000E+00 0. -1.
         11    1    1    2    0    0  0.40404573751E+01  0.47941946803E+02 -0.69575703357E+02  0.84590389860E+02  0.00000000000E+00 0.  1.
</event>
<event>
 6    1  0.8661710E-006  0.1138291E+03  0.7561462E-02  0.1253639E+00
         -1   -1    0    0    0  501 -0.00000000000E+00  0.00000000000E+00  0.14933936147E+03  0.14933936147E+03  0.00000000000E+00 0.  1.
          1   -1    0    0  501    0  0.00000000000E+00 -0.00000000000E+00 -0.40855570088E+03  0.40855570088E+03  0.00000000000E+00 0. -1.
          5    1    1    2  502    0  0.33713420984E+02  0.67823111909E+02  0.25318196984E+02  0.79969073785E+02  0.41800000000E+01 0. -1.
         -5    1    1    2    0  502 -0.40553781078E+02 -0.36880581541E+02  0.81795021380E+02  0.98552952148E+02  0.41800000000E+01 0.  1.
        -11    1    1    2    0    0  0.20719566559E+02 -0.60621156811E+02 -0.27440590049E+03  0.28178506581E+03  0.00000000000E+00 0. -1.
         11    1    1    2    0    0 -0.13879206464E+02  0.29678626443E+02 -0.91923657277E+02  0.97587970605E+02  0.00000000000E+00 0.  1.
</event>
<event>
 7    1  0.8661710E-006  0.7842683E+02  0.7561462E-02  0.1333576E+00
          1   -1    0    0  501    0  0.00000000000E+00  0.00000000000E+00  0.17220714677E+02  0.17220714677E+02  0.00000000000E+00 0. -1.
         -1   -1    0    0    0  501 -0.00000000000E+00 -0.00000000000E+00 -0.99642122061E+03  0.99642122061E+03  0.00000000000E+00 0.  1.
         23    2    1    2    0    0  0.68463969115E+01 -0.11251036876E+02 -0.82531910443E+03  0.83484854148E+03  0.12508798544E+03 0.  0.
          5    1    3    3  502    0 -0.56623826762E+01 -0.57222964349E+02 -0.21301317270E+03  0.22067762544E+03  0.41800000000E+01 0. -1.
         -5    1    3    3    0  502  0.12508779588E+02  0.45971927473E+02 -0.61230593173E+03  0.61417091604E+03  0.41800000000E+01 0. -1.
        -11    1    1    2    0    0 -0.28082481889E+02  0.18327365541E+01 -0.15297788779E+03  0.15554490948E+03  0.00000000000E+00 0.  1.
         11    1    1    2    0    0  0.21236084978E+02  0.94183003219E+01 -0.90351370964E+00  0.23248484320E+02  0.00000000000E+00 0. -1.
</event>
<event>
 7    1  0.8661710E-006  0.1415845E+03  0.7561462E-02  0.1211213E+00
          2   -1    0    0  501    0  0.00000000000E+00  0.00000000000E+00  0.85529919273E+03  0.85529919273E+03  0.00000000000E+00 0. -1.
         -2   -1    0    0    0  501 -0.00000000000E+00 -0.00000000000E+00 -0.30178196381E+02  0.30178196381E+02  0.00000000000E+00 0.  1.
         23    2    1    2    0    0  0.76161340033E+02  0.81770221924E+02  0.33812375980E+03  0.37744077950E+03  0.12508775391E+03 0.  0.
          5    1    3    3  502    0  0.28589280661E+02 -0.25073503736E+02  0.32572757166E+02  0.50244248106E+02  0.41800000000E+01 0. -1.
         -5    1    3    3    0  502  0.47572059371E+02  0.10684372566E+03  0.30555100263E+03  0.32719653139E+03  0.41800000000E+01 0. -1.
        -11    1    1    2    0    0 -0.21330792979E+02 -0.68115600510E+02  0.38381521737E+03  0.39039577207E+03  0.00000000000E+00 0. -1.
         11    1    1    2    0    0 -0.54830547054E+02 -0.13654621414E+02  0.10318201918E+03  0.11764083754E+03  0.00000000000E+00 0.  1.
</event>
<event>
 7    1  0.8661710E-006  0.8443130E+02  0.7561462E-02  0.1316926E+00
          1   -1    0    0  501    0  0.00000000000E+00  0.00000000000E+00  0.52899403867E+03  0.52899403867E+03  0.00000000000E+00 0. -1.
         -1   -1    0    0    0  501 -0.00000000000E+00 -0.00000000000E+00 -0.25434698129E+02  0.25434698129E+02  0.00000000000E+00 0.  1.
         23    2    1    2    0    0 -0.13073065452E+02  0.34728618447E+02  0.23569246602E+03  0.26931592447E+03  0.12491255603E+03 0.  0.
          5    1    3    3  502    0 -0.46337959477E+02 -0.12724663220E+02  0.32956549766E+02  0.58418576797E+02  0.41800000000E+01 0. -1.
         -5    1    3    3    0  502  0.33264894024E+02  0.47453281667E+02  0.20273591625E+03  0.21089734767E+03  0.41800000000E+01 0. -1.
        -11    1    1    2    0    0  0.39449151210E+01 -0.47036930701E+02  0.26543257981E+03  0.26959690212E+03  0.00000000000E+00 0. -1.
         11    1    1    2    0    0  0.91281503314E+01  0.12308312253E+02  0.24342947073E+01  0.15515910212E+02  0.00000000000E+00 0.  1.
</event>
<event>
 7    1  0.8661710E-006  0.1225700E+03  0.7561462E-02  0.1238917E+00
         -1   -1    0    0    0  501 -0.00000000000E+00  0.00000000000E+00  0.42494604113E+02  0.42494604113E+02  0.00000000000E+00 0.  1.
          1   -1    0    0  501    0  0.00000000000E+00 -0.00000000000E+00 -0.46150654652E+03  0.46150654652E+03  0.00000000000E+00 0. -1.
         23    2    1    2    0    0  0.81924219544E+02  0.30983924212E+02 -0.25130082290E+03  0.29406015591E+03  0.12509072866E+03 0.  0.
          5    1    3    3  502    0  0.23462376309E+00  0.51610944373E+02 -0.16682859260E+03  0.17467969641E+03  0.41800000000E+01 0.  1.
         -5    1    3    3    0  502  0.81689595781E+02 -0.20627020162E+02 -0.84472230303E+02  0.11938045951E+03  0.41800000000E+01 0.  1.
        -11    1    1    2    0    0 -0.92391612539E+02 -0.33428730543E+02 -0.17222669251E+03  0.19828192985E+03  0.00000000000E+00 0. -1.
         11    1    1    2    0    0  0.10467392995E+02  0.24448063315E+01  0.45155730034E+01  0.11659064871E+02  0.00000000000E+00 0.  1.
</event>
<event>
 7    1  0.8661710E-006  0.1690191E+03  0.7561462E-02  0.1178875E+00
          2   -1    0    0  501    0  0.00000000000E+00  0.00000000000E+00  0.73735815352E+03  0.73735815352E+03  0.00000000000E+00 0. -1.
         -2   -1    0    0    0  501 -0.00000000000E+00 -0.00000000000E+00 -0.49056479626E+02  0.49056479626E+02  0.00000000000E+00 0.  1.
         23    2    1    2    0    0  0.10340958404E+03 -0.12721598434E+03  0.40789516972E+03  0.45706229320E+03  0.12510004652E+03 0.  0.
          5    1    3    3  502    0  0.86409382836E+01 -0.37695612605E+02  0.12731367157E+02  0.40929025566E+02  0.41800000000E+01 0.  1.
         -5    1    3    3    0  502  0.94768645760E+02 -0.89520371738E+02  0.39516380256E+03  0.41613326763E+03  0.41800000000E+01 0.  1.
        -11    1    1    2    0    0 -0.60603152379E+02  0.43228919250E+02  0.89278235849E+02  0.11624149403E+03  0.00000000000E+00 0.  1.
         11    1    1    2    0    0 -0.42806431665E+02  0.83987065092E+02  0.19112826832E+03  0.21311084592E+03  0.00000000000E+00 0. -1.
</event>
<event>
 7    1  0.8661710E-006  0.1275914E+03  0.7561462E-02  0.1231074E+00
          3   -1    0    0  501    0  0.00000000000E+00  0.00000000000E+00  0.39894035102E+03  0.39894035102E+03  0.00000000000E+00 0. -1.
         -3   -1    0    0    0  501 -0.00000000000E+00 -0.00000000000E+00 -0.53166874132E+02  0.53166874132E+02  0.00000000000E+00 0.  1.
         23    2    1    2    0    0 -0.18205229650E+02 -0.68509698146E+02  0.86248277534E+02  0.16766377468E+03  0.12508943534E+03 0.  0.
          5    1    3    3  502    0  0.25922275551E+02 -0.87878161203E+02  0.73783658089E+02  0.11771166547E+03  0.41800000000E+01 0.  1.
         -5    1    3    3    0  502 -0.44127505201E+02  0.19368463057E+02  0.12464619445E+02  0.49952109209E+02  0.41800000000E+01 0.  1.
        -11    1    1    2    0    0 -0.36919880571E+02  0.33025030729E+02  0.13334769277E+03  0.14225096627E+03  0.00000000000E+00 0. -1.
         11    1    1    2    0    0  0.55125110221E+02  0.35484667417E+02  0.12617750658E+03  0.14219248421E+03  0.00000000000E+00 0.  1.
</event>
<event>
 6    1  0.8661710E-006  0.1525031E+03  0.7561462E-02  0.1197431E+00
         -4   -1    0    0    0  501 -0.00000000000E+00  0.00000000000E+00  0.53331933220E+02  0.53331933220E+02  0.00000000000E+00 0.  1.
          4   -1    0    0  501    0  0.00000000000E+00 -0.00000000000E+00 -0.10479958396E+04  0.10479958396E+04  0.00000000000E+00 0. -1.
          5    1    1    2  502    0  0.43139118747E+02  0.72047631441E+02 -0.61383884567E+03  0.61957037180E+03  0.41800000000E+01 0. -1.
         -5    1    1    2    0  502 -0.18865505373E+02  0.60959024507E+02  0.41534125928E+01  0.64083018016E+02  0.41800000000E+01 0.  1.
        -11    1    1    2    0    0 -0.47037019231E+02 -0.12378083366E+03 -0.35516273609E+03  0.37904451594E+03  0.00000000000E+00 0.  1.
         11    1    1    2    0    0  0.22763405857E+02 -0.92258222864E+01 -0.29815737196E+02  0.38629867041E+02  0.00000000000E+00 0. -1.
</event>
<event>
 7    1  0.8661710E-006  0.1361355E+03  0.7561462E-02  0.1218626E+00
          2   -1    0    0  501    0  0.00000000000E+00  0.00000000000E+00  0.76404369790E+03  0.76404369790E+03  0.00000000000E+00 0. -1.
         -2   -1    0    0    0  501 -0.00000000000E+00 -0.00000000000E+00 -0.33869396935E+02  0.33869396935E+02  0.00000000000E+00 0.  1.
         23    2    1    2    0    0 -0.89054367174E+02  0.79068751500E+02  0.37219904287E+03  0.41031951523E+03  0.12508968497E+03 0.  0.
          5    1    3    3  502    0  0.12236728318E+01  0.15730823934E+01  0.20507806538E+03  0.20513034213E+03  0.41800000000E+01 0.  1.
         -5    1    3    3    0  502 -0.90278040006E+02  0.77495669107E+02  0.16712097749E+03  0.20518917309E+03  0.41800000000E+01 0.  1.
        -11    1    1    2    0    0 -0.61185696248E+01 -0.48124378958E+02  0.11927365349E+03  0.12876178455E+03  0.00000000000E+00 0.  1.
         11    1    1    2    0    0  0.95172936799E+02 -0.30944372542E+02  0.23870160461E+03  0.25883179506E+03  0.00000000000E+00 0. -1.
</event>
<event>
 7    1  0.8661710E-006  0.1088826E+03  0.7561462E-02  0.1262653E+00
         -4   -1    0    0    0  501 -0.00000000000E+00  0.00000000000E+00  0.16140532848E+03  0.16140532848E+03  0.00000000000E+00 0. -1.
          4   -1    0    0  501    0  0.00000000000E+00 -0.00000000000E+00 -0.85586938967E+02  0.85586938967E+02  0.00000000000E+00 0.  1.
         23    2    1    2    0    0  0.15771428392E+02 -0.58207846077E+01  0.85635071154E+02  0.15252320709E+03  0.12508934329E+03 0.  0.
          5    1    3    3  502    0  0.30828979306E+02 -0.59910469535E+02  0.61305437752E+02  0.91189469912E+02  0.41800000000E+01 0. -1.
         -5    1    3    3    0  502 -0.15057550914E+02  0.54089684928E+02  0.24329633403E+02  0.61333737181E+02  0.41800000000E+01 0. -1.
        -11    1    1    2    0    0  0.24388335897E+02 -0.31019440958E+02 -0.39028434296E+01  0.39651340860E+02  0.00000000000E+00 0.  1.
         11    1    1    2    0    0 -0.40159764288E+02  0.36840225566E+02 -0.59138382159E+01  0.54817719488E+02  0.00000000000E+00 0. -1.
</event>
<event>
 7    1  0.8661710E-006  0.1070470E+03  0.7561462E-02  0.1266138E+00
         -2   -1    0    0    0  501 -0.00000000000E+00  0.00000000000E+00  0.25278332195E+02  0.25278332195E+02  0.00000000000E+00 0.  1.
          2   -1    0    0  501    0  0.00000000000E+00 -0.00000000000E+00 -0.52221720558E+03  0.52221720558E+03  0.00000000000E+00 0. -1.
         23    2    1    2    0    0 -0.16737428191E+02 -0.24420899040E+02 -0.22692818916E+03  0.26080752621E+03  0.12509053075E+03 0.  0.
          5    1    3    3  502    0  0.43526894874E+02 -0.36209591397E+02 -0.58653013948E+02  0.81629489351E+02  0.41800000000E+01 0.  1.
         -5    1    3    3    0  502 -0.60264323065E+02  0.11788692357E+02 -0.16827517521E+03  0.17917803686E+03  0.41800000000E+01 0.  1.
        -11    1    1    2    0    0  0.21203292108E+01  0.58579323092E+02 -0.14955227226E+03  0.16062974515E+03  0.00000000000E+00 0. -1.
         11    1    1    2    0    0  0.14617098980E+02 -0.34158424052E+02 -0.12045841197E+03  0.12605826641E+03  0.00000000000E+00 0.  1.
</event>
<event>
 7    1  0.8661710E-006  0.9118911E+02  0.7561462E-02  0.1299997E+00
         -2   -1    0    0    0  501 -0.00000000000E+00  0.00000000000E+00  0.83818129995E+02  0.83818129995E+02  0.00000000000E+00 0.  1.
          2   -1    0    0  501    0  0.00000000000E+00 -0.00000000000E+00 -0.14479188925E+03  0.14479188925E+03  0.00000000000E+00 0. -1.
         23    2    1    2    0    0  0.11584247324E+02 -0.38507406368E+01 -0.17352925298E+02  0.12687687141E+03  0.12509034133E+03 0.  0.
          5    1    3    3  502    0  0.19787889846E+02  0.43259594871E+02 -0.49754261677E+02  0.68963121217E+02  0.41800000000E+01 0.  1.
         -5    1    3    3    0  502 -0.82036425224E+01 -0.47110335507E+02  0.32401336380E+02  0.57913750193E+02  0.41800000000E+01 0.  1.
        -11    1    1    2    0    0  0.23111893322E+02 -0.30186843515E+02 -0.25569594958E+01  0.38104372140E+02  0.00000000000E+00 0.  1.
         11    1    1    2    0    0 -0.34696140646E+02  0.34037584152E+02 -0.41063874465E+02  0.63628775698E+02  0.00000000000E+00 0. -1.
</event>
<event>
 7    1  0.8661710E-006  0.1412044E+03  0.7561462E-02  0.1211718E+00
         -2   -1    0    0    0  501 -0.00000000000E+00  0.00000000000E+00  0.37436439163E+02  0.37436439163E+02  0.00000000000E+00 0.  1.
          2   -1    0    0  501    0  0.00000000000E+00 -0.00000000000E+00 -0.70416459184E+03  0.70416459184E+03  0.00000000000E+00 0. -1.
         23    2    1    2    0    0  0.72279132932E+02 -0.96248239103E+02 -0.38439575204E+03  0.42177005023E+03  0.12506751976E+03 0.  0.
          5    1    3    3  502    0 -0.20813684183E+02 -0.43901755012E+02 -0.46534031518E+02  0.67405207750E+02  0.41800000000E+01 0.  1.
         -5    1    3    3    0  502  0.93092817115E+02 -0.52346484092E+02 -0.33786172052E+03  0.35436484248E+03  0.41800000000E+01 0.  1.
        -11    1    1    2    0    0 -0.41904751010E+02  0.84262490174E+02 -0.26823476943E+03  0.28426407958E+03  0.00000000000E+00 0. -1.
         11    1    1    2    0    0 -0.30374381922E+02  0.11985748930E+02 -0.14097631203E+02  0.35566901187E+02  0.00000000000E+00 0.  1.
</event>
<event>
 7    1  0.8661710E-006  0.1129715E+03  0.7561462E-02  0.1255164E+00
          2   -1    0    0  501    0  0.00000000000E+00  0.00000000000E+00  0.18826728035E+03  0.18826728035E+03  0.00000000000E+00 0. -1.
         -2   -1    0    0    0  501 -0.00000000000E+00 -0.00000000000E+00 -0.21939174679E+03  0.21939174679E+03  0.00000000000E+00 0.  1.
         23    2    1    2    0    0  0.18215492571E+02  0.75513351713E+02 -0.17091944088E+03  0.22560541159E+03  0.12510106319E+03 0.  0.
          5    1    3    3  502    0 -0.32365957232E+02  0.46892870210E+02 -0.14873002690E+02  0.59035371372E+02  0.41800000000E+01 0. -1.
         -5    1    3    3    0  502  0.50581449803E+02  0.28620481503E+02 -0.15604643819E+03  0.16657004022E+03  0.41800000000E+01 0. -1.
        -11    1    1    2    0    0 -0.12265866932E+02  0.15258772199E+02  0.64059966642E+01  0.20598990603E+02  0.00000000000E+00 0.  1.
         11    1    1    2    0    0 -0.59496256386E+01 -0.90772123912E+02  0.13338897777E+03  0.16145462495E+03  0.00000000000E+00 0. -1.
</event>
<event>
 7    1  0.8661710E-006  0.1269522E+03  0.7561462E-02  0.1232049E+00
          1   -1    0    0  501    0  0.00000000000E+00  0.00000000000E+00  0.14032682381E+03  0.14032682381E+03  0.00000000000E+00 0. -1.
         -1   -1    0    0    0  501 -0.00000000000E+00 -0.00000000000E+00 -0.20133385375E+03  0.20133385375E+03  0.00000000000E+00 0.  1.
         23    2    1    2    0    0 -0.77314055579E+02 -0.51311093416E+02 -0.12818349021E+03  0.19373176286E+03  0.11176178810E+03 0.  0.
          5    1    3    3  502    0  0.23438762157E+02 -0.24646540361E+02 -0.91586199705E+01  0.35470836514E+02  0.41800000000E+01 0. -1.
         -5    1    3    3    0  502 -0.10075281774E+03 -0.26664553054E+02 -0.11902487024E+03  0.15826092634E+03  0.41800000000E+01 0.  1.
        -11    1    1    2    0    0  0.34816232622E+02 -0.13904945331E+02 -0.94898929396E+01  0.38672672867E+02  0.00000000000E+00 0.  1.
         11    1    1    2    0    0  0.42497822957E+02  0.65216038746E+02  0.76666353210E+02  0.10925624184E+03  0.00000000000E+00 0. -1.
</event>
<event>
 7    1  0.8661710E-006  0.1059838E+03  0.7561462E-02  0.1268193E+00
         -2   -1    0    0    0  501 -0.00000000000E+00  0.00000000000E+00  0.20122507754E+02  0.20122507754E+02  0.00000000000E+00 0.  1.
          2   -1    0    0  501    0  0.00000000000E+00 -0.00000000000E+00 -0.83630717841E+03  0.83630717841E+03  0.00000000000E+00 0. -1.
         23    2    1    2    0    0 -0.39219176982E+02  0.41878513416E+02 -0.31335884737E+03  0.34224611653E+03  0.12508670322E+03 0.  0.
          5    1    3    3  502    0  0.28259503491E+02  0.13276403365E+02 -0.22579447996E+03  0.22798131942E+03  0.41800000000E+01 0.  1.
         -5    1    3    3    0  502 -0.67478680473E+02  0.28602110051E+02 -0.87564367411E+02  0.11426479711E+03  0.41800000000E+01 0.  1.
        -11    1    1    2    0    0 -0.19259512511E+02 -0.44531813496E+02 -0.25062409045E+03  0.25527719434E+03  0.00000000000E+00 0.  1.
         11    1    1    2    0    0  0.58478689493E+02  0.26533000798E+01 -0.25220173283E+03  0.25890637530E+03  0.00000000000E+00 0. -1.
</event>
<event>
 7    1  0.8661710E-006  0.1320505E+03  0.7561462E-02  0.1224444E+00
         -2   -1    0    0    0  501 -0.00000000000E+00  0.00000000000E+00  0.89221933518E+02  0.89221933518E+02  0.00000000000E+00 0.  1.
          2   -1    0    0  501    0  0.00000000000E+00 -0.00000000000E+00 -0.31022709281E+03  0.31022709281E+03  0.00000000000E+00 0. -1.
         23    2    1    2    0    0  0.18121145745E+02  0.82528488347E+02 -0.23900825284E+01  0.15099449437E+03  0.12511713522E+03 0.  0.
          5    1    3    3  502    0  0.24243431138E+02  0.11333950402E+03  0.11189599633E+02  0.11651723763E+03  0.41800000000E+01 0.  1.
         -5    1    3    3    0  502 -0.61222853932E+01 -0.30811015671E+02 -0.13579682162E+02  0.34477256746E+02  0.41800000000E+01 0.  1.
        -11    1    1    2    0    0 -0.49760614012E+02 -0.57845589679E+02 -0.16188441506E+03  0.17896590399E+03  0.00000000000E+00 0. -1.
         11    1    1    2    0    0  0.31639468266E+02 -0.24682898668E+02 -0.56730661703E+02  0.69488627962E+02  0.00000000000E+00 0.  1.
</event>
<event>
 7    1  0.8661710E-006  0.9471108E+02  0.7561462E-02  0.1291828E+00
          1   -1    0    0  501    0  0.00000000000E+00  0.00000000000E+00  0.74406861587E+03  0.74406861587E+03  0.00000000000E+00 0. -1.
         -1   -1    0    0    0  501 -0.00000000000E+00 -0.00000000000E+00 -0.21090801113E+02  0.21090801113E+02  0.00000000000E+00 0.  1.
         23    2    1    2    0    0 -0.53842539973E+02 -0.73173192199E+02  0.40704982451E+03  0.43541897072E+03  0.12508711069E+03 0.  0.
          5    1    3    3  502    0 -0.57612959923E+02 -0.64781986922E+02  0.41409976775E+03  0.42309815531E+03  0.41800000000E+01 0. -1.
         -5    1    3    3    0  502  0.37704199503E+01 -0.83912052777E+01 -0.70499432383E+01  0.12320815406E+02  0.41800000000E+01 0. -1.
        -11    1    1    2    0    0  0.41157658365E+02  0.41706614468E+02  0.16650907283E+03  0.17651817433E+03  0.00000000000E+00 0.  1.
         11    1    1    2    0    0  0.12684881608E+02  0.31466577731E+02  0.14941891742E+03  0.15322227194E+03  0.00000000000E+00 0. -1.
</event>
<event>
 7    1  0.8661710E-006  0.1643736E+03  0.7561462E-02  0.1183846E+00
         -4   -1    0    0    0  501 -0.00000000000E+00  0.00000000000E+00  0.17384580379E+03  0.17384580379E+03  0.00000000000E+00 0.  1.
          4   -1    0    0  501    0  0.00000000000E+00 -0.00000000000E+00 -0.24392026711E+03  0.24392026711E+03  0.00000000000E+00 0. -1.
         23    2    1    2    0    0 -0.14087449706E+03  0.50574531745E+02  0.54574051778E+02  0.20256922489E+03  0.12511017768E+03 0.  0.
          5    1    3    3  502    0 -0.14678296875E+03  0.32394279865E+02  0.80123370975E+02  0.17038737119E+03  0.41800000000E+01 0.  1.
         -5    1    3    3    0  502  0.59084716890E+01  0.18180251881E+02 -0.25549319197E+02  0.32181853700E+02  0.41800000000E+01 0.  1.
        -11    1    1    2    0    0  0.74393943681E+02 -0.54482695943E+02 -0.25345104441E+02  0.95630525110E+02  0.00000000000E+00 0. -1.
         11    1    1    2    0    0  0.66480553381E+02  0.39081641981E+01 -0.99303410665E+02  0.11956632091E+03  0.00000000000E+00 0.  1.
</event>
<event>
 7    1  0.8661710E-006  0.2426778E+03  0.7561462E-02  0.1118022E+00
          2   -1    0    0  501    0  0.00000000000E+00  0.00000000000E+00  0.20925656476E+03  0.20925656476E+03  0.00000000000E+00 0. -1.
         -2   -1    0    0    0  501 -0.00000000000E+00 -0.00000000000E+00 -0.33732266152E+03  0.33732266152E+03  0.00000000000E+00 0.  1.
         23    2    1    2    0    0  0.99494832086E+01 -0.22710494582E+03 -0.15399157319E+03  0.30172270308E+03  0.12509011276E+03 0.  0.
          5    1    3    3  502    0 -0.46510180932E+02 -0.91190723356E+02 -0.10462334165E+03  0.14643244509E+03  0.41800000000E+01 0.  1.
         -5    1    3    3    0  502  0.56459664140E+02 -0.13591422246E+03 -0.49368231538E+02  0.15529025799E+03  0.41800000000E+01 0.  1.
        -11    1    1    2    0    0 -0.36422668563E+02  0.12639533047E+03 -0.16190173049E+02  0.13253117389E+03  0.00000000000E+00 0.  1.
         11    1    1    2    0    0  0.26473185355E+02  0.10070961535E+03  0.42115649479E+02  0.11232534931E+03  0.00000000000E+00 0. -1.
</event>
<event>
 7    1  0.8661710E-006  0.1348817E+03  0.7561462E-02  0.1220387E+00
          1   -1    0    0  501    0  0.00000000000E+00  0.00000000000E+00  0.29445900030E+02  0.29445900030E+02  0.00000000000E+00 0. -1.
         -1   -1    0    0    0  501 -0.00000000000E+00 -0.00000000000E+00 -0.80573493214E+03  0.80573493214E+03  0.00000000000E+00 0.  1.
         23    2    1    2    0    0 -0.70708938374E+02  0.69530048296E+02 -0.53341611375E+03  0.55678931851E+03  0.12508962073E+03 0.  0.
          5    1    3    3  502    0 -0.24911656953E+02 -0.29308920213E+02 -0.25276954769E+03  0.25571374640E+03  0.41800000000E+01 0.  1.
         -5    1    3    3    0  502 -0.45797281422E+02  0.98838968509E+02 -0.28064656606E+03  0.30107557211E+03  0.41800000000E+01 0.  1.
        -11    1    1    2    0    0 -0.14057207974E+02 -0.18070106525E+02 -0.11132398950E+03  0.11365370422E+03  0.00000000000E+00 0.  1.
         11    1    1    2    0    0  0.84766146348E+02 -0.51459941771E+02 -0.13154892886E+03  0.16473780943E+03  0.00000000000E+00 0. -1.
</event>
<event>
 7    1  0.8661710E-006  0.7007053E+02  0.7561462E-02  0.1359853E+00
         -2   -1    0    0    0  501 -0.00000000000E+00  0.00000000000E+00  0.11214663565E+03  0.11214663565E+03  0.00000000000E+00 0. -1.
          2   -1    0    0  501    0  0.00000000000E+00 -0.00000000000E+00 -0.16271793865E+03  0.16271793865E+03  0.00000000000E+00 0.  1.
         23    2    1    2    0    0 -0.14947751632E+02 -0.25260291540E+01  0.51865121324E+02  0.13625702462E+03  0.12508465072E+03 0.  0.
          5    1    3    3  502    0 -0.31488403777E+02 -0.23381433531E+02  0.84907388713E+02  0.93621301339E+02  0.41800000000E+01 0.  1.
         -5    1    3    3    0  502  0.16540652145E+02  0.20855404377E+02 -0.33042267389E+02  0.42635723277E+02  0.41800000000E+01 0.  1.
        -11    1    1    2    0    0 -0.18162947441E+02  0.27027864833E+02 -0.89800601012E+02  0.95522489914E+02  0.00000000000E+00 0.  1.
         11    1    1    2    0    0  0.33110699073E+02 -0.24501835679E+02 -0.12635823317E+02  0.43085059773E+02  0.00000000000E+00 0. -1.
</event>
<event>
 7    1  0.8661710E-006  0.9115226E+02  0.7561462E-02  0.1300085E+00
          1   -1    0    0  501    0  0.00000000000E+00  0.00000000000E+00  0.14412937575E+03  0.14412937575E+03  0.00000000000E+00 0. -1.
         -1   -1    0    0    0  501 -0.00000000000E+00 -0.00000000000E+00 -0.10833854408E+03  0.10833854408E+03  0.00000000000E+00 0.  1.
         23    2    1    2    0    0 -0.86623482556E+01 -0.79752119979E+01 -0.54182035777E+02  0.13682427486E+03  0.12508616593E+03 0.  0.
          5    1    3    3  502    0  0.57858981796E+02 -0.94733102813E+01 -0.29160882640E+02  0.65614288524E+02  0.41800000000E+01 0. -1.
         -5    1    3    3    0  502 -0.66521330051E+02  0.14980982833E+01 -0.25021153137E+02  0.71209986340E+02  0.41800000000E+01 0. -1.
        -11    1    1    2    0    0 -0.23795738423E+02  0.44464368641E+01  0.51433722953E+01  0.24747974593E+02  0.00000000000E+00 0.  1.
         11    1    1    2    0    0  0.32458086679E+02  0.35287751338E+01  0.84829495154E+02  0.90895670374E+02  0.00000000000E+00 0. -1.
</event>
<event>
 7    1  0.8661710E-006  0.1094177E+03  0.7561462E-02  0.1261652E+00
         -1   -1    0    0    0  501 -0.00000000000E+00  0.00000000000E+00  0.69048354186E+03  0.69048354186E+03  0.00000000000E+00 0.  1.
          1   -1    0    0  501    0  0.00000000000E+00 -0.00000000000E+00 -0.23705944929E+02  0.23705944929E+02  0.00000000000E+00 0. -1.
         23    2    1    2    0    0 -0.33443512725E+02 -0.20749920787E+02  0.52104428996E+03  0.53729354214E+03  0.12509264793E+03 0.  0.
          5    1    3    3  502    0 -0.76022364040E+02 -0.13667981250E+02  0.22133019631E+03  0.23445840089E+03  0.41800000000E+01 0.  1.
         -5    1    3    3    0  502  0.42578851315E+02 -0.70819395373E+01  0.29971409365E+03  0.30283514125E+03  0.41800000000E+01 0.  1.
        -11    1    1    2    0    0  0.64606638505E+02  0.11628321601E+02  0.11366470224E+03  0.13125890498E+03  0.00000000000E+00 0.  1.
         11    1    1    2    0    0 -0.31163125780E+02  0.91215991865E+01  0.32068604729E+02  0.45637039665E+02  0.00000000000E+00 0. -1.
</event>
<event>
 7    1  0.8661710E-006  0.1533153E+03  0.7561462E-02  0.1196457E+00
         -2   -1    0    0    0  501 -0.00000000000E+00  0.00000000000E+00  0.53405138619E+03  0.53405138619E+03  0.00000000000E+00 0.  1.
          2   -1    0    0  501    0  0.00000000000E+00 -0.00000000000E+00 -0.49653563477E+02  0.49653563477E+02  0.00000000000E+00 0. -1.
         23    2    1    2    0    0  0.43484743004E+02 -0.10804549663E+03  0.27713993658E+03  0.32560719555E+03  0.12509496045E+03 0.  0.
          5    1    3    3  502    0  0.75898170012E+02 -0.22719689530E+02  0.12072010052E+03  0.14445598490E+03  0.41800000000E+01 0.  1.
         -5    1    3    3    0  502 -0.32413427008E+02 -0.85325807103E+02  0.15641983605E+03  0.18115121065E+03  0.41800000000E+01 0.  1.
        -11    1    1    2    0    0 -0.24727942527E+02 -0.15104655467E+01  0.22232982744E+01  0.24873594493E+02  0.00000000000E+00 0. -1.
         11    1    1    2    0    0 -0.18756800478E+02  0.10955596218E+03  0.20503458786E+03  0.23322415962E+03  0.00000000000E+00 0.  1.
</event>
<event>
 7    1  0.8661710E-006  0.1142628E+03  0.7561462E-02  0.1252873E+00
          1   -1    0    0  501    0  0.00000000000E+00  0.00000000000E+00  0.20722664920E+03  0.20722664920E+03  0.00000000000E+00 0. -1.
         -1   -1    0    0    0  501 -0.00000000000E+00 -0.00000000000E+00 -0.93105341219E+02  0.93105341219E+02  0.00000000000E+00 0.  1.
         23    2    1    2    0    0 -0.12483403306E+02 -0.59484103956E+02  0.87687118428E+01  0.13934492786E+03  0.12508367052E+03 0.  0.
          5    1    3    3  502    0  0.24638165823E+02  0.27860768511E+02  0.22025513240E+02  0.43426458187E+02  0.41800000000E+01 0.  1.
         -5    1    3    3    0  502 -0.37121569129E+02 -0.87344872467E+02 -0.13256801398E+02  0.95918469672E+02  0.41800000000E+01 0.  1.
        -11    1    1    2    0    0  0.28028280058E+02  0.71276657909E+02  0.11581364952E+03  0.13884793070E+03  0.00000000000E+00 0.  1.
         11    1    1    2    0    0 -0.15544876752E+02 -0.11792553953E+02 -0.10461053374E+02  0.22139131863E+02  0.00000000000E+00 0. -1.
</event>
<event>
 7    1  0.8661710E-006  0.1158994E+03  0.7561462E-02  0.1250019E+00
         -1   -1    0    0    0  501 -0.00000000000E+00  0.00000000000E+00  0.10021570486E+03  0.10021570486E+03  0.00000000000E+00 0.  1.
          1   -1    0    0  501    0  0.00000000000E+00 -0.00000000000E+00 -0.21769104662E+03  0.21769104662E+03  0.00000000000E+00 0. -1.
         23    2    1    2    0    0  0.24228853967E+01  0.46390214623E+02  0.32194609451E+02  0.13726863063E+03  0.12509301216E+03 0.  0.
          5    1    3    3  502    0 -0.54268982402E+02 -0.58604468749E+01  0.33544378255E+01  0.54846986623E+02  0.41800000000E+01 0. -1.
         -5    1    3    3    0  502  0.56691867798E+02  0.52250661498E+02  0.28840171625E+02  0.82421644007E+02  0.41800000000E+01 0. -1.
        -11    1    1    2    0    0 -0.18766992805E+02  0.22351441043E+02 -0.57683421284E+02  0.64646454092E+02  0.00000000000E+00 0.  1.
         11    1    1    2    0    0  0.16344107408E+02 -0.68741655666E+02 -0.91986529924E+02  0.11599166676E+03  0.00000000000E+00 0. -1.
</event>
<event>
 7    1  0.8661710E-006  0.9103278E+02  0.7561462E-02  0.1300370E+00
          1   -1    0    0  501    0  0.00000000000E+00  0.00000000000E+00  0.21132477804E+03  0.21132477804E+03  0.00000000000E+00 0. -1.
         -1   -1    0    0    0  501 -0.00000000000E+00 -0.00000000000E+00 -0.10929542609E+03  0.10929542609E+03  0.00000000000E+00 0.  1.
         23    2    1    2    0    0  0.58550228639E+01  0.27963074261E+01 -0.55462446762E+02  0.13867605734E+03  0.12693646147E+03 0.  0.
          5    1    3    3  502    0  0.36423356105E+02 -0.29021611413E+02  0.20242172390E+02  0.50952259440E+02  0.41800000000E+01 0. -1.
         -5    1    3    3    0  502 -0.30568333241E+02  0.31817918839E+02 -0.75704619152E+02  0.87723797897E+02  0.41800000000E+01 0.  1.
        -11    1    1    2    0    0  0.14420386768E+02 -0.43328995466E+02  0.74419423374E+02  0.87313229112E+02  0.00000000000E+00 0. -1.
         11    1    1    2    0    0 -0.20275409632E+02  0.40532688040E+02  0.83072375339E+02  0.94630917674E+02  0.00000000000E+00 0.  1.
</event>
<event>
 7    1  0.8661710E-006  0.9408570E+02  0.7561462E-02  0.1293249E+00
          2   -1    0    0  501    0  0.00000000000E+00  0.00000000000E+00  0.17429205566E+03  0.17429205566E+03  0.00000000000E+00 0.  1.
         -2   -1    0    0    0  501 -0.00000000000E+00 -0.00000000000E+00 -0.10728639830E+03  0.10728639830E+03  0.00000000000E+00 0. -1.
         23    2    1    2    0    0 -0.40175325054E+02 -0.20265158992E+02 -0.33371463618E+02  0.13706289043E+03  0.12509135837E+03 0.  0.
          5    1    3    3  502    0  0.17567678708E+02  0.19055447545E+02 -0.57359135737E+02  0.63081504967E+02  0.41800000000E+01 0.  1.
         -5    1    3    3    0  502 -0.57743003762E+02 -0.39320606537E+02  0.23987672119E+02  0.73981385467E+02  0.41800000000E+01 0.  1.
        -11    1    1    2    0    0 -0.24543712552E+02  0.95391340036E+01  0.21815385116E+01  0.26422490679E+02  0.00000000000E+00 0. -1.
         11    1    1    2    0    0  0.64719037607E+02  0.10726024988E+02  0.98195582467E+02  0.11809307286E+03  0.00000000000E+00 0.  1.
</event>
<event>
 7    1  0.8661710E-006  0.1433223E+03  0.7561462E-02  0.1208927E+00
          2   -1    0    0  501    0  0.00000000000E+00  0.00000000000E+00  0.10767921008E+04  0.10767921008E+04  0.00000000000E+00 0. -1.
         -2   -1    0    0    0  501 -0.00000000000E+00 -0.00000000000E+00 -0.30559084981E+02  0.30559084981E+02  0.00000000000E+00 0.  1.
         23    2    1    2    0    0 -0.55544857488E+02  0.11269431789E+03  0.33016541639E+03  0.37475553446E+03  0.12508904010E+03 0.  0.
          5    1    3    3  502    0 -0.59287786038E+02  0.84163941264E+02  0.32996542448E+03  0.34567797780E+03  0.41800000000E+01 0.  1.
         -5    1    3    3    0  502  0.37429285496E+01  0.28530376629E+02  0.19999190716E+00  0.29077556663E+02  0.41800000000E+01 0.  1.
        -11    1    1    2    0    0 -0.86692204423E+00 -0.95578169547E+02  0.46093754259E+03  0.47074340804E+03  0.00000000000E+00 0.  1.
         11    1    1    2    0    0  0.56411779533E+02 -0.17116148346E+02  0.25513005685E+03  0.26185224329E+03  0.00000000000E+00 0. -1.
</event>
<event>
 7    1  0.8661710E-006  0.1258833E+03  0.7561462E-02  0.1233695E+00
          1   -1    0    0  501    0  0.00000000000E+00  0.00000000000E+00  0.68662747929E+03  0.68662747929E+03  0.00000000000E+00 0. -1.
         -1   -1    0    0    0  501 -0.00000000000E+00 -0.00000000000E+00 -0.34258392208E+02  0.34258392208E+02  0.00000000000E+00 0.  1.
         23    2    1    2    0    0 -0.89528671716E+02 -0.23354525108E+02  0.25374222528E+03  0.29764700765E+03  0.12509119622E+03 0.  0.
          5    1    3    3  502    0  0.37737986500E+01 -0.14709789670E+02 -0.93625084744E+01  0.18323439451E+02  0.41800000000E+01 0.  1.
         -5    1    3    3    0  502 -0.93302470366E+02 -0.86447354386E+01  0.26310473376E+03  0.27932356820E+03  0.41800000000E+01 0.  1.
        -11    1    1    2    0    0  0.86150321717E+02 -0.28128955848E+02  0.25551529471E+03  0.27111101401E+03  0.00000000000E+00 0.  1.
         11    1    1    2    0    0  0.33783499991E+01  0.51483480956E+02  0.14311156710E+03  0.15212784984E+03  0.00000000000E+00 0. -1.
</event>
<event>
 7    1  0.8661710E-006  0.2809065E+03  0.7561462E-02  0.1095195E+00
          1   -1    0    0  501    0  0.00000000000E+00  0.00000000000E+00  0.95590893092E+02  0.95590893092E+02  0.00000000000E+00 0.  1.
         -1   -1    0    0    0  501 -0.00000000000E+00 -0.00000000000E+00 -0.98154177747E+03  0.98154177747E+03  0.00000000000E+00 0. -1.
         23    2    1    2    0    0 -0.68946596820E+02 -0.25464726264E+03 -0.64434654113E+03  0.70740960442E+03  0.12508805611E+03 0.  0.
          5    1    3    3  502    0 -0.23926896470E+02  0.55972424232E+01 -0.89343533758E+02  0.92755403733E+02  0.41800000000E+01 0. -1.
         -5    1    3    3    0  502 -0.45019700351E+02 -0.26024450506E+03 -0.55500300737E+03  0.61465420069E+03  0.41800000000E+01 0. -1.
        -11    1    1    2    0    0  0.39812642696E+01  0.14671198515E+03 -0.88235824491E+02  0.17124782560E+03  0.00000000000E+00 0.  1.
         11    1    1    2    0    0  0.64965332551E+02  0.10793527749E+03 -0.15336851876E+03  0.19847524054E+03  0.00000000000E+00 0. -1.
</event>
<event>
 7    1  0.8661710E-006  0.1053056E+03  0.7561462E-02  0.1269519E+00
          2   -1    0    0  501    0  0.00000000000E+00  0.00000000000E+00  0.18174282813E+02  0.18174282813E+02  0.00000000000E+00 0. -1.
         -2   -1    0    0    0  501 -0.00000000000E+00 -0.00000000000E+00 -0.90348219263E+03  0.90348219263E+03  0.00000000000E+00 0.  1.
         23    2    1    2    0    0 -0.96675227785E+01 -0.40089783567E+01 -0.73578674823E+03  0.74641773933E+03  0.12509104608E+03 0.  0.
          5    1    3    3  502    0 -0.32442562787E+02  0.52923693857E+02 -0.43391155832E+03  0.43834934709E+03  0.41800000000E+01 0. -1.
         -5    1    3    3    0  502  0.22775040008E+02 -0.56932672213E+02 -0.30187518991E+03  0.30806839224E+03  0.41800000000E+01 0. -1.
        -11    1    1    2    0    0 -0.21779403775E+02  0.35999141193E+02 -0.99608752997E+02  0.10813040400E+03  0.00000000000E+00 0.  1.
         11    1    1    2    0    0  0.31446926553E+02 -0.31990162836E+02 -0.49912408587E+02  0.67108332112E+02  0.00000000000E+00 0. -1.
</event>
<event>
 7    1  0.8661710E-006  0.1404905E+03  0.7561462E-02  0.1212670E+00
         -1   -1    0    0    0  501 -0.00000000000E+00  0.00000000000E+00  0.10515585680E+03  0.10515585680E+03  0.00000000000E+00 0.  1.
          1   -1    0    0  501    0  0.00000000000E+00 -0.00000000000E+00 -0.50154877409E+03  0.50154877409E+03  0.00000000000E+00 0. -1.
         23    2    1    2    0    0 -0.37755125681E+02 -0.11202056716E+03  0.96432712930E+01  0.17415636297E+03  0.12752799339E+03 0.  0.
          5    1    3    3  502    0 -0.23292591007E+02 -0.36601662320E+01 -0.45669885542E+02  0.51566970612E+02  0.41800000000E+01 0. -1.
         -5    1    3    3    0  502 -0.14462534673E+02 -0.10836040093E+03  0.55313156835E+02  0.12258939236E+03  0.41800000000E+01 0.  1.
        -11    1    1    2    0    0 -0.19557323941E+02 -0.23585421247E+01 -0.36250398850E+02  0.41257036460E+02  0.00000000000E+00 0. -1.
         11    1    1    2    0    0  0.57312449621E+02  0.11437910929E+03 -0.36978578974E+03  0.39129123146E+03  0.00000000000E+00 0.  1.
</event>
<event>
 7    1  0.8661710E-006  0.1333574E+03  0.7561462E-02  0.1222557E+00
          1   -1    0    0  501    0  0.00000000000E+00  0.00000000000E+00  0.83596718121E+03  0.83596718121E+03  0.00000000000E+00 0. -1.
         -1   -1    0    0    0  501 -0.00000000000E+00 -0.00000000000E+00 -0.34298211963E+02  0.34298211963E+02  0.00000000000E+00 0.  1.
         23    2    1    2    0    0  0.52520924384E+02  0.11173382789E+03  0.33737415808E+03  0.38041046900E+03  0.12509159281E+03 0.  0.
          5    1    3    3  502    0  0.44095577322E+02  0.16640729220E+02  0.24527342499E+02  0.53295372580E+02  0.41800000000E+01 0.  1.
         -5    1    3    3    0  502  0.84253470619E+01  0.95093098665E+02  0.31284681558E+03  0.32711509642E+03  0.41800000000E+01 0.  1.
        -11    1    1    2    0    0 -0.42178455836E+02 -0.97636112527E+02  0.45960737575E+03  0.47175287222E+03  0.00000000000E+00 0. -1.
         11    1    1    2    0    0 -0.10342468548E+02 -0.14097715358E+02  0.46874354144E+01  0.18102051948E+02  0.00000000000E+00 0.  1.
</event>
<event>
 7    1  0.8661710E-006  0.1301307E+03  0.7561462E-02  0.1227262E+00
          1   -1    0    0  501    0  0.00000000000E+00  0.00000000000E+00  0.53015539973E+03  0.53015539973E+03  0.00000000000E+00 0. -1.
         -1   -1    0    0    0  501 -0.00000000000E+00 -0.00000000000E+00 -0.49035630170E+02  0.49035630170E+02  0.00000000000E+00 0.  1.
         23    2    1    2    0    0 -0.12846391789E+02  0.11584403202E+03  0.21167147148E+03  0.27209926748E+03  0.12509328512E+03 0.  0.
          5    1    3    3  502    0 -0.13960174915E+02  0.82717672874E+02  0.22181598438E+03  0.23718537733E+03  0.41800000000E+01 0.  1.
         -5    1    3    3    0  502  0.11137831265E+01  0.33126359148E+02 -0.10144512901E+02  0.34913890148E+02  0.41800000000E+01 0.  1.
        -11    1    1    2    0    0  0.40688261253E+02 -0.10564786906E+03  0.17796069116E+03  0.21091945012E+03  0.00000000000E+00 0.  1.
         11    1    1    2    0    0 -0.27841869464E+02 -0.10196162959E+02  0.91487606911E+02  0.96172312298E+02  0.00000000000E+00 0. -1.
</event>
<event>
 7    1  0.8661710E-006  0.7765255E+02  0.7561462E-02  0.1335848E+00
          1   -1    0    0  501    0  0.00000000000E+00  0.00000000000E+00  0.30553250569E+02  0.30553250569E+02  0.00000000000E+00 0. -1.
         -1   -1    0    0    0  501 -0.00000000000E+00 -0.00000000000E+00 -0.46621919695E+03  0.46621919695E+03  0.00000000000E+00 0.  1.
         23    2    1    2    0    0  0.59547137229E+01  0.38508321620E+02 -0.30624451881E+03  0.33309277182E+03  0.12508692932E+03 0.  0.
          5    1    3    3  502    0 -0.71741525705E+01  0.49233191633E+02 -0.34269330862E+02  0.60557700264E+02  0.41800000000E+01 0.  1.
         -5    1    3    3    0  502  0.13128866293E+02 -0.10724870013E+02 -0.27197518795E+03  0.27253507155E+03  0.41800000000E+01 0.  1.
        -11    1    1    2    0    0 -0.15924479879E+02 -0.61143307557E+02 -0.50232266633E+02  0.80717864996E+02  0.00000000000E+00 0. -1.
         11    1    1    2    0    0  0.99697661564E+01  0.22634985937E+02 -0.79189160937E+02  0.82961810705E+02  0.00000000000E+00 0.  1.
</event>
<event>
 6    1  0.8661710E-006  0.1163403E+03  0.7561462E-02  0.1249260E+00
         -1   -1    0    0    0  501 -0.00000000000E+00  0.00000000000E+00  0.16106022401E+03  0.16106022401E+03  0.00000000000E+00 0.  1.
          1   -1    0    0  501    0  0.00000000000E+00 -0.00000000000E+00 -0.98733427915E+02  0.98733427915E+02  0.00000000000E+00 0. -1.
          5    1    1    2  502    0 -0.39565259724E+02 -0.11268904643E+02 -0.14690247852E+02  0.43882499597E+02  0.41800000000E+01 0. -1.
         -5    1    1    2    0  502  0.86351811263E+02  0.34260961660E+02  0.56690436186E+02  0.10891155475E+03  0.41800000000E+01 0.  1.
        -11    1    1    2    0    0  0.18725472556E+02 -0.26822076758E+02  0.25056429734E+02  0.41205482585E+02  0.00000000000E+00 0.  1.
         11    1    1    2    0    0 -0.65512024095E+02  0.38300197416E+01 -0.47298219737E+01  0.65794114996E+02  0.00000000000E+00 0. -1.
</event>
<event>
 7    1  0.8661710E-006  0.8747620E+02  0.7561462E-02  0.1309081E+00
          1   -1    0    0  501    0  0.00000000000E+00  0.00000000000E+00  0.36500099247E+02  0.36500099247E+02  0.00000000000E+00 0. -1.
         -1   -1    0    0    0  501 -0.00000000000E+00 -0.00000000000E+00 -0.42774372027E+03  0.42774372027E+03  0.00000000000E+00 0.  1.
         23    2    1    2    0    0 -0.31910804653E+02  0.20483570266E+02 -0.30941055459E+03  0.33588649092E+03  0.12508783866E+03 0.  0.
          5    1    3    3  502    0  0.41196367930E+02 -0.84950281854E+00 -0.18799017419E+03  0.19249841656E+03  0.41800000000E+01 0. -1.
         -5    1    3    3    0  502 -0.73107172584E+02  0.21333073085E+02 -0.12142038040E+03  0.14338807436E+03  0.41800000000E+01 0. -1.
        -11    1    1    2    0    0  0.40781391065E+02 -0.73838342778E+01 -0.97591788572E+02  0.10602735526E+03  0.00000000000E+00 0.  1.
         11    1    1    2    0    0 -0.88705864113E+01 -0.13099735988E+02  0.15758722140E+02  0.22329973348E+02  0.00000000000E+00 0. -1.
</event>
<event>
 7    1  0.8661710E-006  0.9992604E+02  0.7561462E-02  0.1280452E+00
         -2   -1    0    0    0  501 -0.00000000000E+00  0.00000000000E+00  0.10162159162E+04  0.10162159162E+04  0.00000000000E+00 0.  1.
          2   -1    0    0  501    0  0.00000000000E+00 -0.00000000000E+00 -0.13847465888E+02  0.13847465888E+02  0.00000000000E+00 0. -1.
         23    2    1    2    0    0 -0.31815101554E+02  0.15524333317E+02  0.70221444019E+03  0.71414665481E+03  0.12508844452E+03 0.  0.
          5    1    3    3  502    0 -0.69974896351E+02  0.80255518901E+01  0.60878673164E+03  0.61286185444E+03  0.41800000000E+01 0.  1.
         -5    1    3    3    0  502  0.38159794797E+02  0.74987814269E+01  0.93427708554E+02  0.10128480038E+03  0.41800000000E+01 0.  1.
        -11    1    1    2    0    0 -0.11882181487E+02 -0.38864887747E+02  0.20109510585E+03  0.20516068661E+03  0.00000000000E+00 0.  1.
         11    1    1    2    0    0  0.43697283041E+02  0.23340554430E+02  0.99058904226E+02  0.11075604062E+03  0.00000000000E+00 0. -1.
</event>
<event>
 7    1  0.8661710E-006  0.8338867E+02  0.7561462E-02  0.1319701E+00
          1   -1    0    0  501    0  0.00000000000E+00  0.00000000000E+00  0.52525275933E+03  0.52525275933E+03  0.00000000000E+00 0. -1.
         -1   -1    0    0    0  501 -0.00000000000E+00 -0.00000000000E+00 -0.28468753376E+02  0.28468753376E+02  0.00000000000E+00 0.  1.
         23    2    1    2    0    0  0.23345608979E+02  0.12058485024E+02  0.16855178895E+03  0.21153197627E+03  0.12508256035E+03 0.  0.
          5    1    3    3  502    0  0.48623830461E+02  0.27424965541E+02  0.19140283429E+02  0.59162728752E+02  0.41800000000E+01 0.  1.
         -5    1    3    3    0  502 -0.25278221482E+02 -0.15366480518E+02  0.14941150552E+03  0.15236924751E+03  0.41800000000E+01 0.  1.
        -11    1    1    2    0    0 -0.20397894880E+01  0.31955464764E+02  0.47852139714E+02  0.57577250235E+02  0.00000000000E+00 0.  1.
         11    1    1    2    0    0 -0.21305819491E+02 -0.44013949788E+02  0.28038007729E+03  0.28461228621E+03  0.00000000000E+00 0. -1.
</event>
<event>
 6    1  0.8661710E-006  0.9763991E+02  0.7561462E-02  0.1285339E+00
         -3   -1    0    0    0  501 -0.00000000000E+00  0.00000000000E+00  0.45127642677E+02  0.45127642677E+02  0.00000000000E+00 0.  1.
          3   -1    0    0  501    0  0.00000000000E+00 -0.00000000000E+00 -0.24215753418E+03  0.24215753418E+03  0.00000000000E+00 0. -1.
          5    1    1    2  502    0 -0.69643934857E+02  0.37284661597E+02 -0.91922030453E+02  0.12127471185E+03  0.41800000000E+01 0. -1.
         -5    1    1    2    0  502  0.47192986818E+02 -0.28666000745E+02 -0.18111141874E+02  0.58261509279E+02  0.41800000000E+01 0.  1.
        -11    1    1    2    0    0 -0.16105735079E+02 -0.14650562883E+02 -0.47358461133E+02  0.52123483538E+02  0.00000000000E+00 0. -1.
         11    1    1    2    0    0  0.38556683118E+02  0.60319020312E+01 -0.39638258040E+02  0.55625472183E+02  0.00000000000E+00 0.  1.
</event>
<event>
 7    1  0.8661710E-006  0.1122690E+03  0.7561462E-02  0.1256425E+00
          2   -1    0    0  501    0  0.00000000000E+00  0.00000000000E+00  0.85832195252E+02  0.85832195252E+02  0.00000000000E+00 0. -1.
         -2   -1    0    0    0  501 -0.00000000000E+00 -0.00000000000E+00 -0.21694199009E+03  0.21694199009E+03  0.00000000000E+00 0.  1.
         23    2    1    2    0    0 -0.21191650387E+02 -0.75370782956E+02 -0.79654546446E+02  0.16769391917E+03  0.12508622141E+03 0.  0.
          5    1    3    3  502    0 -0.32628380927E+02  0.22513544055E+02 -0.51483058193E+02  0.65111048131E+02  0.41800000000E+01 0. -1.
         -5    1    3    3    0  502  0.11436730540E+02 -0.97884327010E+02 -0.28171488253E+02  0.10258287104E+03  0.41800000000E+01 0. -1.
        -11    1    1    2    0    0  0.97060440322E+01  0.73811110259E+02 -0.76953772746E+02  0.10707086638E+03  0.00000000000E+00 0.  1.
         11    1    1    2    0    0  0.11485606354E+02  0.15596726970E+01  0.25498524356E+02  0.28009399789E+02  0.00000000000E+00 0. -1.
</event>
<event>
 6    1  0.8661710E-006  0.6539647E+02  0.7561462E-02  0.1376486E+00
          4   -1    0    0  501    0  0.00000000000E+00  0.00000000000E+00  0.41926067451E+02  0.41926067451E+02  0.00000000000E+00 0. -1.
         -4   -1    0    0    0  501 -0.00000000000E+00 -0.00000000000E+00 -0.20662361847E+03  0.20662361847E+03  0.00000000000E+00 0.  1.
          5    1    1    2  502    0 -0.45895407528E+01 -0.33640509799E+02 -0.14301719751E+03  0.14705148407E+03  0.41800000000E+01 0. -1.
         -5    1    1    2    0  502 -0.33430352476E+02  0.41745872372E+02 -0.59324791375E+01  0.53971965273E+02  0.41800000000E+01 0.  1.
        -11    1    1    2    0    0  0.26116511839E+02 -0.14026461956E+02 -0.42473835740E+01  0.29947522316E+02  0.00000000000E+00 0. -1.
         11    1    1    2    0    0  0.11903381389E+02  0.59210993823E+01 -0.11500490793E+02  0.17578714255E+02  0.00000000000E+00 0.  1.
</event>
<event>
 7    1  0.8661710E-006  0.9443273E+02  0.7561462E-02  0.1292459E+00
         -2   -1    0    0    0  501 -0.00000000000E+00  0.00000000000E+00  0.11256981979E+03  0.11256981979E+03  0.00000000000E+00 0.  1.
          2   -1    0    0  501    0  0.00000000000E+00 -0.00000000000E+00 -0.33197184825E+03  0.33197184825E+03  0.00000000000E+00 0. -1.
         23    2    1    2    0    0  0.49686538762E+02 -0.41492923323E+02  0.52035565001E+02  0.15015245948E+03  0.12509055217E+03 0.  0.
          5    1    3    3  502    0  0.42554957329E+02 -0.48392206702E+02  0.89954777769E+02  0.11073420658E+03  0.41800000000E+01 0. -1.
         -5    1    3    3    0  502  0.71315814326E+01  0.68992833793E+01 -0.37919212768E+02  0.39418252902E+02  0.41800000000E+01 0. -1.
        -11    1    1    2    0    0  0.25275407025E+02  0.27342805971E+02 -0.77281584315E+02  0.85784139051E+02  0.00000000000E+00 0.  1.
         11    1    1    2    0    0 -0.74961945786E+02  0.14150117352E+02 -0.19415600915E+03  0.20860506951E+03  0.00000000000E+00 0. -1.
</event>
<event>
 7    1  0.8661710E-006  0.8729688E+02  0.7561462E-02  0.1309533E+00
          2   -1    0    0  501    0  0.00000000000E+00  0.00000000000E+00  0.58552846099E+03  0.58552846099E+03  0.00000000000E+00 0. -1.
         -2   -1    0    0    0  501 -0.00000000000E+00 -0.00000000000E+00 -0.23510636976E+02  0.23510636976E+02  0.00000000000E+00 0.  1.
         23    2    1    2    0    0 -0.44450998522E+02 -0.18601299133E+02  0.30518281662E+03  0.33332352444E+03  0.12508445463E+03 0.  0.
          5    1    3    3  502    0  0.14320330118E+02 -0.58506090574E+01  0.25324599971E+03  0.25375245860E+03  0.41800000000E+01 0.  1.
         -5    1    3    3    0  502 -0.58771328640E+02 -0.12750690075E+02  0.51936816912E+02  0.79571065837E+02  0.41800000000E+01 0.  1.
        -11    1    1    2    0    0 -0.24179748926E+02  0.17142037121E+02  0.54290140104E+02  0.61854094507E+02  0.00000000000E+00 0.  1.
         11    1    1    2    0    0  0.68630747448E+02  0.14592620115E+01  0.20254486729E+03  0.21386147902E+03  0.00000000000E+00 0. -1.
</event>
<event>
 7    1  0.8661710E-006  0.1271266E+03  0.7561462E-02  0.1231783E+00
         -1   -1    0    0    0  501 -0.00000000000E+00  0.00000000000E+00  0.56530309557E+02  0.56530309557E+02  0.00000000000E+00 0.  1.
          1   -1    0    0  501    0  0.00000000000E+00 -0.00000000000E+00 -0.32932873717E+03  0.32932873717E+03  0.00000000000E+00 0. -1.
         23    2    1    2    0    0  0.80759764567E+02 -0.64292024933E+01 -0.12753257700E+03  0.19615017096E+03  0.12508739806E+03 0.  0.
          5    1    3    3  502    0  0.80550025808E+02  0.48023840509E+02 -0.72418454262E+02  0.11856011485E+03  0.41800000000E+01 0. -1.
         -5    1    3    3    0  502  0.20973875951E+00 -0.54453043002E+02 -0.55114122738E+02  0.77590056113E+02  0.41800000000E+01 0. -1.
        -11    1    1    2    0    0 -0.41509312695E+02 -0.30784865051E+02 -0.24107043246E+02  0.57025261865E+02  0.00000000000E+00 0.  1.
         11    1    1    2    0    0 -0.39250451872E+02  0.37214067545E+02 -0.12115880737E+03  0.13268361390E+03  0.00000000000E+00 0. -1.
</event>
<event>
 7    1  0.8661710E-006  0.1078998E+03  0.7561462E-02  0.1264509E+00
         -1   -1    0    0    0  501 -0.00000000000E+00  0.00000000000E+00  0.23758527051E+02  0.23758527051E+02  0.00000000000E+00 0.  1.
          1   -1    0    0  501    0  0.00000000000E+00 -0.00000000000E+00 -0.88196979387E+03  0.88196979387E+03  0.00000000000E+00 0. -1.
         23    2    1    2    0    0 -0.12465958094E+02 -0.95651283572E+02 -0.44984539133E+03  0.47677378293E+03  0.12509115008E+03 0.  0.
          5    1    3    3  502    0  0.98648934563E+01 -0.39654519110E+02 -0.25937045560E+02  0.48579828541E+02  0.41800000000E+01 0.  1.
         -5    1    3    3    0  502 -0.22330851550E+02 -0.55996764462E+02 -0.42390834578E+03  0.42819395439E+03  0.41800000000E+01 0.  1.
        -11    1    1    2    0    0 -0.23052207593E+02  0.58582317125E+02 -0.32505874653E+03  0.33109889889E+03  0.00000000000E+00 0.  1.
         11    1    1    2    0    0  0.35518165686E+02  0.37068966447E+02 -0.83307128952E+02  0.97855639089E+02  0.00000000000E+00 0. -1.
</event>
<event>
 7    1  0.8925737E-006  0.3382401E+03  0.7561462E-02  0.1067548E+00
          1   -1    0    0  501    0  0.00000000000E+00  0.00000000000E+00  0.25077045271E+03  0.25077045271E+03  0.00000000000E+00 0. -1.
         -1   -1    0    0    0  501 -0.00000000000E+00 -0.00000000000E+00 -0.47466866678E+03  0.47466866678E+03  0.00000000000E+00 0.  1.
         23    2    1    2    0    0 -0.20086041488E+03 -0.25539622563E+03 -0.11151516972E+03  0.36558900129E+03  0.12509015331E+03 0.  0.
          5    1    3    3  502    0  0.39072138204E+01 -0.70527968258E+02 -0.36748060981E+02  0.79733010806E+02  0.41800000000E+01 0.  1.
         -5    1    3    3    0  502 -0.20476762870E+03 -0.18486825738E+03 -0.74767108740E+02  0.28585599049E+03  0.41800000000E+01 0.  1.
        -11    1    1    2    0    0  0.14764659530E+03  0.14341329462E+03 -0.23226084855E+02  0.20713845899E+03  0.00000000000E+00 0. -1.
         11    1    1    2    0    0  0.53213819576E+02  0.11198293102E+03 -0.89156959493E+02  0.15271165921E+03  0.00000000000E+00 0.  1.
</event>
<event>
 7    1  0.8661710E-006  0.8894915E+02  0.7561462E-02  0.1305417E+00
         -1   -1    0    0    0  501 -0.00000000000E+00  0.00000000000E+00  0.14702794253E+03  0.14702794253E+03  0.00000000000E+00 0.  1.
          1   -1    0    0  501    0  0.00000000000E+00 -0.00000000000E+00 -0.11318262303E+03  0.11318262303E+03  0.00000000000E+00 0. -1.
         23    2    1    2    0    0 -0.64654086829E+02 -0.21261986781E+02  0.41663538874E+02  0.14837643465E+03  0.12508993910E+03 0.  0.
          5    1    3    3  502    0 -0.78266170946E+02 -0.14314586848E+02  0.76282525151E+02  0.11030411123E+03  0.41800000000E+01 0. -1.
         -5    1    3    3    0  502  0.13612084117E+02 -0.69473999328E+01 -0.34618986277E+02  0.38072323421E+02  0.41800000000E+01 0. -1.
        -11    1    1    2    0    0  0.59501775301E+02 -0.10198495188E+01  0.30757278067E+02  0.66988890953E+02  0.00000000000E+00 0.  1.
         11    1    1    2    0    0  0.51523115283E+01  0.22281836300E+02 -0.38575497451E+02  0.44845239954E+02  0.00000000000E+00 0. -1.
</event>
<event>
 7    1  0.8661710E-006  0.1361341E+03  0.7561462E-02  0.1218628E+00
         -1   -1    0    0    0  501 -0.00000000000E+00  0.00000000000E+00  0.88998268452E+02  0.88998268452E+02  0.00000000000E+00 0.  1.
          1   -1    0    0  501    0  0.00000000000E+00 -0.00000000000E+00 -0.27564576270E+03  0.27564576270E+03  0.00000000000E+00 0. -1.
         23    2    1    2    0    0  0.10455129619E+03 -0.16011746505E+02 -0.55917848232E+02  0.17309605377E+03  0.12509231998E+03 0.  0.
          5    1    3    3  502    0  0.85665346146E+02  0.23155391056E+02  0.14713132067E+02  0.90048166669E+02  0.41800000000E+01 0. -1.
         -5    1    3    3    0  502  0.18885950048E+02 -0.39167137561E+02 -0.70630980299E+02  0.83047887101E+02  0.41800000000E+01 0. -1.
        -11    1    1    2    0    0  0.98767296218E+01  0.23076271457E+02 -0.28069887182E+02  0.37656110511E+02  0.00000000000E+00 0. -1.
         11    1    1    2    0    0 -0.11442802582E+03 -0.70645249522E+01 -0.10265975883E+03  0.15389186687E+03  0.00000000000E+00 0.  1.
</event>
<event>
 7    1  0.8661710E-006  0.1166714E+03  0.7561462E-02  0.1248691E+00
         -3   -1    0    0    0  501 -0.00000000000E+00  0.00000000000E+00  0.24865526256E+03  0.24865526256E+03  0.00000000000E+00 0.  1.
          3   -1    0    0  501    0  0.00000000000E+00 -0.00000000000E+00 -0.99731982996E+02  0.99731982996E+02  0.00000000000E+00 0. -1.
         23    2    1    2    0    0 -0.81429922402E+02 -0.94126381878E+01  0.16781453197E+03  0.22478400912E+03  0.12508678426E+03 0.  0.
          5    1    3    3  502    0 -0.72007168406E+02  0.40088102197E+02  0.49771808542E+02  0.96368011109E+02  0.41800000000E+01 0. -1.
         -5    1    3    3    0  502 -0.94227539967E+01 -0.49500740385E+02  0.11804272343E+03  0.12841599802E+03  0.41800000000E+01 0. -1.
        -11    1    1    2    0    0  0.17394185598E+02 -0.22720515850E+02  0.26325571307E+02  0.38882068331E+02  0.00000000000E+00 0.  1.
         11    1    1    2    0    0  0.64035736804E+02  0.32133154038E+02 -0.45216823719E+02  0.84721168097E+02  0.00000000000E+00 0. -1.
</event>
<event>
 7    1  0.8661710E-006  0.1092075E+03  0.7561462E-02  0.1262045E+00
         -1   -1    0    0    0  501 -0.00000000000E+00  0.00000000000E+00  0.18058369510E+03  0.18058369510E+03  0.00000000000E+00 0.  1.
          1   -1    0    0  501    0  0.00000000000E+00 -0.00000000000E+00 -0.95991944159E+02  0.95991944159E+02  0.00000000000E+00 0. -1.
         23    2    1    2    0    0 -0.66276203459E+02 -0.12776865662E+02  0.79674453357E+02  0.16294016407E+03  0.12508275305E+03 0.  0.
          5    1    3    3  502    0  0.15867452094E+02 -0.18879560162E+02 -0.21095452907E+02  0.32721619172E+02  0.41800000000E+01 0. -1.
         -5    1    3    3    0  502 -0.82143655552E+02  0.61026945000E+01  0.10076990626E+03  0.13021854490E+03  0.41800000000E+01 0. -1.
        -11    1    1    2    0    0  0.88231590890E+02  0.10246094371E+02  0.13659137349E+02  0.89868615845E+02  0.00000000000E+00 0.  1.
         11    1    1    2    0    0 -0.21955387431E+02  0.25307712911E+01 -0.87418397634E+01  0.23766859343E+02  0.00000000000E+00 0. -1.
</event>
<event>
 7    1  0.8661710E-006  0.7908611E+02  0.7561462E-02  0.1331665E+00
         -4   -1    0    0    0  501 -0.00000000000E+00  0.00000000000E+00  0.13808617860E+03  0.13808617860E+03  0.00000000000E+00 0.  1.
          4   -1    0    0  501    0  0.00000000000E+00 -0.00000000000E+00 -0.17791180597E+03  0.17791180597E+03  0.00000000000E+00 0. -1.
         23    2    1    2    0    0  0.42926331319E+02 -0.57094509436E+02  0.75270402634E+02  0.15245259548E+03  0.11168575303E+03 0.  0.
          5    1    3    3  502    0 -0.12657203385E+01 -0.26366115716E+02 -0.26255723722E+02  0.37464777246E+02  0.41800000000E+01 0. -1.
         -5    1    3    3    0  502  0.44192051658E+02 -0.30728393720E+02  0.10152612636E+03  0.11498781824E+03  0.41800000000E+01 0.  1.
        -11    1    1    2    0    0 -0.27595609725E+02  0.12483915370E+02 -0.11227626827E+03  0.11628983720E+03  0.00000000000E+00 0.  1.
         11    1    1    2    0    0 -0.15330721595E+02  0.44610594066E+02 -0.28197617275E+01  0.47255551883E+02  0.00000000000E+00 0. -1.
</event>
<event>
 7    1  0.8661710E-006  0.2349101E+03  0.7561462E-02  0.1123231E+00
          3   -1    0    0  501    0  0.00000000000E+00  0.00000000000E+00  0.71407063083E+03  0.71407063083E+03  0.00000000000E+00 0. -1.
         -3   -1    0    0    0  501 -0.00000000000E+00 -0.00000000000E+00 -0.87265985787E+02  0.87265985787E+02  0.00000000000E+00 0.  1.
         23    2    1    2    0    0 -0.81132295533E+02 -0.19504994395E+03  0.20089048684E+03  0.31722467532E+03  0.12509027506E+03 0.  0.
          5    1    3    3  502    0 -0.14892144981E+02 -0.16951967126E+03  0.11366711272E+03  0.20468605190E+03  0.41800000000E+01 0. -1.
         -5    1    3    3    0  502 -0.66240150553E+02 -0.25530272684E+02  0.87223374122E+02  0.11253862342E+03  0.41800000000E+01 0. -1.
        -11    1    1    2    0    0  0.83992268663E+02  0.88927635132E+02  0.25666921384E+03  0.28432711938E+03  0.00000000000E+00 0. -1.
         11    1    1    2    0    0 -0.28599731296E+01  0.10612230881E+03  0.16924494436E+03  0.19978482191E+03  0.00000000000E+00 0.  1.
</event>
<event>
 7    1  0.8661710E-006  0.1201128E+03  0.7561462E-02  0.1242911E+00
          2   -1    0    0  501    0  0.00000000000E+00  0.00000000000E+00  0.28759297776E+03  0.28759297776E+03  0.00000000000E+00 0. -1.
         -2   -1    0    0    0  501 -0.00000000000E+00 -0.00000000000E+00 -0.60870420488E+02  0.60870420488E+02  0.00000000000E+00 0.  1.
         23    2    1    2    0    0  0.32870014380E+02  0.66772751023E+02  0.11076578263E+03  0.18290891681E+03  0.12509026790E+03 0.  0.
          5    1    3    3  502    0 -0.29098744650E+02  0.52079675522E+02  0.10233819999E+03  0.11853104707E+03  0.41800000000E+01 0.  1.
         -5    1    3    3    0  502  0.61968759029E+02  0.14693075501E+02  0.84275826446E+01  0.64377869742E+02  0.41800000000E+01 0.  1.
        -11    1    1    2    0    0 -0.41610057972E+02  0.70986329037E+01  0.55317726594E+02  0.69583319762E+02  0.00000000000E+00 0. -1.
         11    1    1    2    0    0  0.87400435921E+01 -0.73871383926E+02  0.60639048043E+02  0.95971161672E+02  0.00000000000E+00 0.  1.
</event>
<event>
 7    1  0.8661710E-006  0.1045605E+03  0.7561462E-02  0.1270988E+00
         -2   -1    0    0    0  501 -0.00000000000E+00  0.00000000000E+00  0.31113698603E+02  0.31113698603E+02  0.00000000000E+00 0.  1.
          2   -1    0    0  501    0  0.00000000000E+00 -0.00000000000E+00 -0.63137290852E+03  0.63137290852E+03  0.00000000000E+00 0. -1.
         23    2    1    2    0    0 -0.45843270699E+02 -0.72346700198E+02 -0.38059287553E+03  0.40967446050E+03  0.12508627494E+03 0.  0.
          5    1    3    3  502    0 -0.11403606844E+02 -0.82171250279E+01 -0.30242460286E+03  0.30277991381E+03  0.41800000000E+01 0. -1.
         -5    1    3    3    0  502 -0.34439663855E+02 -0.64129575170E+02 -0.78168272670E+02  0.10689454668E+03  0.41800000000E+01 0. -1.
        -11    1    1    2    0    0 -0.20795384381E+02 -0.29401152004E+01 -0.65262456879E+02  0.68558592218E+02  0.00000000000E+00 0. -1.
         11    1    1    2    0    0  0.66638655080E+02  0.75286815399E+02 -0.15440387751E+03  0.18425355441E+03  0.00000000000E+00 0.  1.
</event>
<event>
 7    1  0.8661710E-006  0.1324059E+03  0.7561462E-02  0.1223929E+00
         -2   -1    0    0    0  501 -0.00000000000E+00  0.00000000000E+00  0.89136444013E+02  0.89136444013E+02  0.00000000000E+00 0.  1.
          2   -1    0    0  501    0  0.00000000000E+00 -0.00000000000E+00 -0.39730882098E+03  0.39730882098E+03  0.00000000000E+00 0. -1.
         23    2    1    2    0    0 -0.99914908046E+02 -0.46289661432E+02 -0.23470090757E+02  0.16829999955E+03  0.12509325755E+03 0.  0.
          5    1    3    3  502    0  0.13931773418E+02 -0.36606471882E+02  0.22161036150E+02  0.45196371729E+02  0.41800000000E+01 0.  1.
         -5    1    3    3    0  502 -0.11384668146E+03 -0.96831895501E+01 -0.45631126906E+02  0.12310362782E+03  0.41800000000E+01 0.  1.
        -11    1    1    2    0    0  0.21564079822E+02  0.16931169791E+02 -0.72610724341E+01  0.28361897362E+02  0.00000000000E+00 0.  1.
         11    1    1    2    0    0  0.78350828224E+02  0.29358491641E+02 -0.27744121378E+03  0.28978336808E+03  0.00000000000E+00 0. -1.
</event>
<event>
 7    1  0.8661710E-006  0.1005420E+03  0.7561462E-02  0.1279160E+00
         -2   -1    0    0    0  501 -0.00000000000E+00  0.00000000000E+00  0.27047561913E+02  0.27047561913E+02  0.00000000000E+00 0.  1.
          2   -1    0    0  501    0  0.00000000000E+00 -0.00000000000E+00 -0.69906615182E+03  0.69906615182E+03  0.00000000000E+00 0. -1.
         23    2    1    2    0    0  0.59796188999E+02  0.58100974712E+02 -0.39724902213E+03  0.42474236059E+03  0.12509188547E+03 0.  0.
          5    1    3    3  502    0  0.60394063419E+02  0.68114744984E+02 -0.13865998499E+03  0.16592505904E+03  0.41800000000E+01 0. -1.
         -5    1    3    3    0  502 -0.59787441917E+00 -0.10013770272E+02 -0.25858903714E+03  0.25881730154E+03  0.41800000000E+01 0. -1.
        -11    1    1    2    0    0 -0.87331915929E+00 -0.36223284098E+02 -0.25519453753E+02  0.44318523408E+02  0.00000000000E+00 0.  1.
         11    1    1    2    0    0 -0.58922869840E+02 -0.21877690614E+02 -0.24925011403E+03  0.25705282974E+03  0.00000000000E+00 0. -1.
</event>
<event>
 7    1  0.8661710E-006  0.1176869E+03  0.7561462E-02  0.1246962E+00
          1   -1    0    0  501    0  0.00000000000E+00  0.00000000000E+00  0.31323681920E+03  0.31323681920E+03  0.00000000000E+00 0. -1.
         -1   -1    0    0    0  501 -0.00000000000E+00 -0.00000000000E+00 -0.68033305317E+02  0.68033305317E+02  0.00000000000E+00 0.  1.
         23    2    1    2    0    0  0.45273999226E+02 -0.59413630150E+02  0.80282755111E+02  0.16635033600E+03  0.12508956418E+03 0.  0.
          5    1    3    3  502    0 -0.24688417626E+02 -0.52862506775E+02  0.75896325772E+02  0.95821121122E+02  0.41800000000E+01 0.  1.
         -5    1    3    3    0  502  0.69962416852E+02 -0.65511233759E+01  0.43864293392E+01  0.70529214880E+02  0.41800000000E+01 0.  1.
        -11    1    1    2    0    0  0.15822186386E+02  0.38974568928E+02  0.48151015082E+01  0.42338443614E+02  0.00000000000E+00 0.  1.
         11    1    1    2    0    0 -0.61096185612E+02  0.20439061223E+02  0.16010565726E+03  0.17258134490E+03  0.00000000000E+00 0. -1.
</event>
<event>
 7    1  0.8661710E-006  0.6646033E+02  0.7561462E-02  0.1372561E+00
          2   -1    0    0  501    0  0.00000000000E+00  0.00000000000E+00  0.23501980261E+03  0.23501980261E+03  0.00000000000E+00 0.  1.
         -2   -1    0    0    0  501 -0.00000000000E+00 -0.00000000000E+00 -0.53051014407E+02  0.53051014407E+02  0.00000000000E+00 0. -1.
         23    2    1    2    0    0  0.22332787274E+02 -0.65622507576E+00  0.80714233703E+02  0.15053860119E+03  0.12509156209E+03 0.  0.
          5    1    3    3  502    0 -0.11648367840E+02  0.38971381758E+01  0.10659337011E+03  0.10738012437E+03  0.41800000000E+01 0. -1.
         -5    1    3    3    0  502  0.33981155114E+02 -0.45533632515E+01 -0.25879136407E+02  0.43158476815E+02  0.41800000000E+01 0. -1.
        -11    1    1    2    0    0  0.30072346491E+02  0.10943855188E+02  0.13346692884E+02  0.34673450950E+02  0.00000000000E+00 0. -1.
         11    1    1    2    0    0 -0.52405133765E+02 -0.10287630112E+02  0.87907861615E+02  0.10285876488E+03  0.00000000000E+00 0.  1.
</event>
<event>
 7    1  0.8661710E-006  0.3208782E+03  0.7561462E-02  0.1075246E+00
          3   -1    0    0  501    0  0.00000000000E+00  0.00000000000E+00  0.45477870536E+03  0.45477870536E+03  0.00000000000E+00 0. -1.
         -3   -1    0    0    0  501 -0.00000000000E+00 -0.00000000000E+00 -0.27261530368E+03  0.27261530368E+03  0.00000000000E+00 0.  1.
         23    2    1    2    0    0 -0.31624784577E+03 -0.13911608525E+02 -0.19661291543E+02  0.34094142546E+03  0.12509299102E+03 0.  0.
          5    1    3    3  502    0 -0.25066268539E+03 -0.27868216070E+02  0.34571504053E+02  0.25459984408E+03  0.41800000000E+01 0. -1.
         -5    1    3    3    0  502 -0.65585160384E+02  0.13956607545E+02 -0.54232795597E+02  0.86341581379E+02  0.41800000000E+01 0. -1.
        -11    1    1    2    0    0  0.13698956648E+03 -0.24082277697E+02  0.47792472559E+02  0.14707215187E+03  0.00000000000E+00 0.  1.
         11    1    1    2    0    0  0.17925827929E+03  0.37993886222E+02  0.15403222066E+03  0.23938043171E+03  0.00000000000E+00 0. -1.
</event>
<event>
 7    1  0.8661710E-006  0.7885741E+02  0.7561462E-02  0.1332326E+00
         -2   -1    0    0    0  501 -0.00000000000E+00  0.00000000000E+00  0.37226269173E+03  0.37226269173E+03  0.00000000000E+00 0.  1.
          2   -1    0    0  501    0  0.00000000000E+00 -0.00000000000E+00 -0.43317289370E+02  0.43317289370E+02  0.00000000000E+00 0. -1.
         23    2    1    2    0    0  0.22266203341E+02  0.11246895558E+02  0.28375031609E+03  0.31110127778E+03  0.12508991441E+03 0.  0.
          5    1    3    3  502    0  0.21140321899E+02  0.34600348712E+02  0.28443415637E+03  0.28734014522E+03  0.41800000000E+01 0.  1.
         -5    1    3    3    0  502  0.11258814422E+01 -0.23353453154E+02 -0.68384028691E+00  0.23761132565E+02  0.41800000000E+01 0.  1.
        -11    1    1    2    0    0 -0.53797896846E+02 -0.24354213154E+02  0.21200478174E+02  0.62743937382E+02  0.00000000000E+00 0.  1.
         11    1    1    2    0    0  0.31531693505E+02  0.13107317596E+02  0.23994608097E+02  0.41734765934E+02  0.00000000000E+00 0. -1.
</event>
<event>
 7    1  0.9099809E-006  0.1659373E+03  0.7561462E-02  0.1182152E+00
         -2   -1    0    0    0  501 -0.00000000000E+00  0.00000000000E+00  0.38950745672E+03  0.38950745672E+03  0.00000000000E+00 0.  1.
          2   -1    0    0  501    0  0.00000000000E+00 -0.00000000000E+00 -0.99034826315E+02  0.99034826315E+02  0.00000000000E+00 0. -1.
         23    2    1    2    0    0  0.70811702146E+02  0.13426103728E+03  0.22678316043E+03  0.30019739395E+03  0.12509016823E+03 0.  0.
          5    1    3    3  502    0  0.43033310581E+02  0.41042647820E+02  0.72615622386E+01  0.60054703777E+02  0.41800000000E+01 0. -1.
         -5    1    3    3    0  502  0.27778391565E+02  0.93218389460E+02  0.21952159819E+03  0.24014269018E+03  0.41800000000E+01 0. -1.
        -11    1    1    2    0    0  0.14087738009E+02 -0.61487133969E+02  0.37893211141E+02  0.73586870136E+02  0.00000000000E+00 0. -1.
         11    1    1    2    0    0 -0.84899440155E+02 -0.72773903311E+02  0.25796258828E+02  0.11475801894E+03  0.00000000000E+00 0.  1.
</event>
<event>
 7    1  0.8661710E-006  0.1266637E+03  0.7561462E-02  0.1232492E+00
          1   -1    0    0  501    0  0.00000000000E+00  0.00000000000E+00  0.17731334520E+03  0.17731334520E+03  0.00000000000E+00 0. -1.
         -1   -1    0    0    0  501 -0.00000000000E+00 -0.00000000000E+00 -0.14091126711E+03  0.14091126711E+03  0.00000000000E+00 0.  1.
         23    2    1    2    0    0 -0.93311194729E+01 -0.95776282761E+02 -0.43534770744E+02  0.16371589072E+03  0.12508976968E+03 0.  0.
          5    1    3    3  502    0 -0.65109054220E+02 -0.68898164278E+02 -0.34699304256E+02  0.10103296540E+03  0.41800000000E+01 0. -1.
         -5    1    3    3    0  502  0.55777934747E+02 -0.26878118483E+02 -0.88354664885E+01  0.62682925314E+02  0.41800000000E+01 0. -1.
        -11    1    1    2    0    0 -0.19307234733E+00  0.21197883234E+02 -0.20204636197E+02  0.29285061967E+02  0.00000000000E+00 0.  1.
         11    1    1    2    0    0  0.95241918202E+01  0.74578399527E+02  0.10014148504E+03  0.12522365963E+03  0.00000000000E+00 0. -1.
</event>
<event>
 7    1  0.8661710E-006  0.1512720E+03  0.7561462E-02  0.1198919E+00
         -2   -1    0    0    0  501 -0.00000000000E+00  0.00000000000E+00  0.88170892192E+02  0.88170892192E+02  0.00000000000E+00 0.  1.
          2   -1    0    0  501    0  0.00000000000E+00 -0.00000000000E+00 -0.29916420841E+03  0.29916420841E+03  0.00000000000E+00 0. -1.
         23    2    1    2    0    0  0.13433758718E+02 -0.11967770414E+03 -0.98508452178E+02  0.19963246181E+03  0.12508391549E+03 0.  0.
          5    1    3    3  502    0  0.35677952827E+02  0.38838728565E+01 -0.56712596604E+02  0.67244269643E+02  0.41800000000E+01 0.  1.
         -5    1    3    3    0  502 -0.22244194109E+02 -0.12356157699E+03 -0.41795855574E+02  0.13238819216E+03  0.41800000000E+01 0.  1.
        -11    1    1    2    0    0 -0.43794549862E+02  0.69528531883E+02 -0.32116369860E+02  0.88224942939E+02  0.00000000000E+00 0.  1.
         11    1    1    2    0    0  0.30360791145E+02  0.50149172254E+02 -0.80368494184E+02  0.99477695862E+02  0.00000000000E+00 0. -1.
</event>
<event>
 7    1  0.8661710E-006  0.1646858E+03  0.7561462E-02  0.1183506E+00
          2   -1    0    0  501    0  0.00000000000E+00  0.00000000000E+00  0.17487064350E+04  0.17487064350E+04  0.00000000000E+00 0. -1.
         -2   -1    0    0    0  501 -0.00000000000E+00 -0.00000000000E+00 -0.20490434319E+02  0.20490434319E+02  0.00000000000E+00 0.  1.
         23    2    1    2    0    0 -0.14213903145E+03 -0.54722313376E+02  0.73487454920E+03  0.76084511166E+03  0.12508655021E+03 0.  0.
          5    1    3    3  502    0 -0.96645049627E+02 -0.19779135125E+02  0.65509350341E+03  0.66249260404E+03  0.41800000000E+01 0.  1.
         -5    1    3    3    0  502 -0.45493981822E+02 -0.34943178251E+02  0.79781045791E+02  0.98352507623E+02  0.41800000000E+01 0.  1.
        -11    1    1    2    0    0  0.12769237122E+03  0.12276887067E+02  0.75772703576E+03  0.76850915697E+03  0.00000000000E+00 0.  1.
         11    1    1    2    0    0  0.14446660226E+02  0.42445426310E+02  0.23561441568E+03  0.23984260064E+03  0.00000000000E+00 0. -1.
</event>
<event>
 7    1  0.8661710E-006  0.1385264E+03  0.7561462E-02  0.1215326E+00
         -1   -1    0    0    0  501 -0.00000000000E+00  0.00000000000E+00  0.28511812294E+02  0.28511812294E+02  0.00000000000E+00 0.  1.
          1   -1    0    0  501    0  0.00000000000E+00 -0.00000000000E+00 -0.99236531467E+03  0.99236531467E+03  0.00000000000E+00 0. -1.
         23    2    1    2    0    0 -0.25705660527E+02  0.29892830574E+02 -0.21697676285E+03  0.25353745392E+03  0.12509181675E+03 0.  0.
          5    1    3    3  502    0  0.35067130034E+02  0.73310042944E+01 -0.16893469785E+03  0.17274215401E+03  0.41800000000E+01 0. -1.
         -5    1    3    3    0  502 -0.60772790562E+02  0.22561826280E+02 -0.48042064999E+02  0.80795299907E+02  0.41800000000E+01 0. -1.
        -11    1    1    2    0    0 -0.44176171002E+02  0.52089558758E+02 -0.28796240861E+03  0.29595135578E+03  0.00000000000E+00 0. -1.
         11    1    1    2    0    0  0.69881831529E+02 -0.81982389332E+02 -0.45891433091E+03  0.47138831727E+03  0.00000000000E+00 0.  1.
</event>
<event>
 7    1  0.8661710E-006  0.1032088E+03  0.7561462E-02  0.1273689E+00
          2   -1    0    0  501    0  0.00000000000E+00  0.00000000000E+00  0.76512763805E+03  0.76512763805E+03  0.00000000000E+00 0. -1.
         -2   -1    0    0    0  501 -0.00000000000E+00 -0.00000000000E+00 -0.16750138009E+02  0.16750138009E+02  0.00000000000E+00 0.  1.
         23    2    1    2    0    0  0.34813013068E+02 -0.69802187638E+01  0.38387670263E+03  0.40530210850E+03  0.12509119473E+03 0.  0.
          5    1    3    3  502    0 -0.34113790455E+02  0.26483644468E+02  0.22146547127E+03  0.22567578844E+03  0.41800000000E+01 0.  1.
         -5    1    3    3    0  502  0.68926803523E+02 -0.33463863232E+02  0.16241123136E+03  0.17962632006E+03  0.41800000000E+01 0.  1.
        -11    1    1    2    0    0  0.92673103486E+01 -0.28334798179E+02  0.61370856945E+02  0.68228483137E+02  0.00000000000E+00 0.  1.
         11    1    1    2    0    0 -0.44080323417E+02  0.35315016943E+02  0.30312994046E+03  0.30834718442E+03  0.00000000000E+00 0. -1.
</event>
<event>
 7    1  0.8661710E-006  0.9434243E+02  0.7561462E-02  0.1292664E+00
         -1   -1    0    0    0  501 -0.00000000000E+00  0.00000000000E+00  0.24045742823E+03  0.24045742823E+03  0.00000000000E+00 0.  1.
          1   -1    0    0  501    0  0.00000000000E+00 -0.00000000000E+00 -0.49784682541E+02  0.49784682541E+02  0.00000000000E+00 0. -1.
         23    2    1    2    0    0 -0.10724730160E+02 -0.16135317314E+02  0.12172357777E+03  0.17561112102E+03  0.12508904084E+03 0.  0.
          5    1    3    3  502    0  0.48427740913E+02 -0.12119645884E+02  0.13084853436E+02  0.51776613405E+02  0.41800000000E+01 0.  1.
         -5    1    3    3    0  502 -0.59152471073E+02 -0.40156714297E+01  0.10863872434E+03  0.12383450762E+03  0.41800000000E+01 0.  1.
        -11    1    1    2    0    0  0.37976052565E+02  0.30168580557E+02  0.12010323767E+02  0.49965705221E+02  0.00000000000E+00 0. -1.
         11    1    1    2    0    0 -0.27251322405E+02 -0.14033263243E+02  0.56938844149E+02  0.64665284528E+02  0.00000000000E+00 0.  1.
</event>
<event>
 6    1  0.8661710E-006  0.1951598E+03  0.7561462E-02  0.1153888E+00
         -2   -1    0    0    0  501 -0.00000000000E+00  0.00000000000E+00  0.76936585107E+02  0.76936585107E+02  0.00000000000E+00 0.  1.
          2   -1    0    0  501    0  0.00000000000E+00 -0.00000000000E+00 -0.55124683901E+03  0.55124683901E+03  0.00000000000E+00 0. -1.
          5    1    1    2  502    0  0.43356837214E+02  0.16193551030E+03 -0.22436750773E+03  0.28010922111E+03  0.41800000000E+01 0. -1.
         -5    1    1    2    0  502 -0.60971277336E+02 -0.70473711218E+02 -0.40123766488E+02  0.10154520998E+03  0.41800000000E+01 0.  1.
        -11    1    1    2    0    0 -0.36881577100E+02 -0.39652217752E+02 -0.92278436986E+02  0.10699466825E+03  0.00000000000E+00 0. -1.
         11    1    1    2    0    0  0.54496017222E+02 -0.51809581327E+02 -0.11754054270E+03  0.13953432477E+03  0.00000000000E+00 0.  1.
</event>
<event>
 6    1  0.8661710E-006  0.8542229E+02  0.7561462E-02  0.1314332E+00
         -2   -1    0    0    0  501 -0.00000000000E+00  0.00000000000E+00  0.33071016467E+02  0.33071016467E+02  0.00000000000E+00 0.  1.
          2   -1    0    0  501    0  0.00000000000E+00 -0.00000000000E+00 -0.24349742786E+03  0.24349742786E+03  0.00000000000E+00 0. -1.
          5    1    1    2  502    0  0.75945234517E+02  0.12297293514E+02 -0.99683949103E+02  0.12598914311E+03  0.41800000000E+01 0. -1.
         -5    1    1    2    0  502 -0.52749357566E+02  0.93098301374E+01 -0.34710277655E+02  0.63964391935E+02  0.41800000000E+01 0.  1.
        -11    1    1    2    0    0  0.15426542930E+01 -0.14146292385E+02 -0.16962566813E+02  0.22141048833E+02  0.00000000000E+00 0. -1.
         11    1    1    2    0    0 -0.24738531244E+02 -0.74608312657E+01 -0.59069617824E+02  0.64473860449E+02  0.00000000000E+00 0.  1.
</event>
<event>
 7    1  0.8661710E-006  0.1025420E+03  0.7561462E-02  0.1275040E+00
          2   -1    0    0  501    0  0.00000000000E+00  0.00000000000E+00  0.50485905779E+03  0.50485905779E+03  0.00000000000E+00 0. -1.
         -2   -1    0    0    0  501 -0.00000000000E+00 -0.00000000000E+00 -0.26467874409E+02  0.26467874409E+02  0.00000000000E+00 0.  1.
         23    2    1    2    0    0  0.20544052751E+02 -0.34641301665E+02  0.22979849252E+03  0.26471541545E+03  0.12507927936E+03 0.  0.
          5    1    3    3  502    0  0.57465168157E+02 -0.52164964325E+02  0.89557177928E+02  0.11858073019E+03  0.41800000000E+01 0. -1.
         -5    1    3    3    0  502 -0.36921115407E+02  0.17523662661E+02  0.14024131459E+03  0.14613468526E+03  0.41800000000E+01 0. -1.
        -11    1    1    2    0    0 -0.13245522935E+02 -0.23878258903E+02  0.31674046280E+02  0.41819377492E+02  0.00000000000E+00 0.  1.
         11    1    1    2    0    0 -0.72985298156E+01  0.58519560567E+02  0.21691864458E+03  0.22479213926E+03  0.00000000000E+00 0. -1.
</event>
<event>
 7    1  0.8661710E-006  0.8584490E+02  0.7561462E-02  0.1313238E+00
         -1   -1    0    0    0  501 -0.00000000000E+00  0.00000000000E+00  0.39112258320E+02  0.39112258320E+02  0.00000000000E+00 0.  1.
          1   -1    0    0  501    0  0.00000000000E+00 -0.00000000000E+00 -0.44927153425E+03  0.44927153425E+03  0.00000000000E+00 0. -1.
         23    2    1    2    0    0 -0.30541151883E+02  0.47653291004E+02 -0.12718240669E+03  0.18715281916E+03  0.12508882863E+03 0.  0.
          5    1    3    3  502    0 -0.24847146619E+02  0.42040612652E+01 -0.13919821377E+03  0.14152268350E+03  0.41800000000E+01 0. -1.
         -5    1    3    3    0  502 -0.56940052643E+01  0.43449229739E+02  0.12015807086E+02  0.45630135665E+02  0.41800000000E+01 0. -1.
        -11    1    1    2    0    0  0.29205729625E+02  0.19398126410E+02 -0.76886575342E+02  0.84503298273E+02  0.00000000000E+00 0. -1.
         11    1    1    2    0    0  0.13354222577E+01 -0.67051417414E+02 -0.20609029391E+03  0.21672767514E+03  0.00000000000E+00 0.  1.
</event>
<event>
 7    1  0.8661710E-006  0.1428360E+03  0.7561462E-02  0.1209563E+00
          1   -1    0    0  501    0  0.00000000000E+00  0.00000000000E+00  0.24765124496E+03  0.24765124496E+03  0.00000000000E+00 0. -1.
         -1   -1    0    0    0  501 -0.00000000000E+00 -0.00000000000E+00 -0.10252299678E+03  0.10252299678E+03  0.00000000000E+00 0.  1.
         23    2    1    2    0    0  0.35291825045E+01 -0.10111791524E+03  0.12780276815E+02  0.16140046756E+03  0.12509791182E+03 0.  0.
          5    1    3    3  502    0 -0.49619699730E+02 -0.89171245135E+02  0.25577079530E+02  0.10528667987E+03  0.41800000000E+01 0. -1.
         -5    1    3    3    0  502  0.53148882234E+02 -0.11946670104E+02 -0.12796802715E+02  0.56113787691E+02  0.41800000000E+01 0. -1.
        -11    1    1    2    0    0 -0.40312335025E+02  0.69753622709E+02  0.54948419574E+02  0.97519131712E+02  0.00000000000E+00 0. -1.
         11    1    1    2    0    0  0.36783152521E+02  0.31364292529E+02  0.77399551785E+02  0.91254642467E+02  0.00000000000E+00 0.  1.
</event>
<event>
 7    1  0.8661710E-006  0.9301585E+02  0.7561462E-02  0.1295708E+00
         -2   -1    0    0    0  501 -0.00000000000E+00  0.00000000000E+00  0.19751309532E+03  0.19751309532E+03  0.00000000000E+00 0.  1.
          2   -1    0    0  501    0  0.00000000000E+00 -0.00000000000E+00 -0.70751147779E+02  0.70751147779E+02  0.00000000000E+00 0. -1.
         23    2    1    2    0    0 -0.13669146303E+02  0.42503326905E+02  0.10885159045E+03  0.17172682983E+03  0.12509219394E+03 0.  0.
          5    1    3    3  502    0 -0.13824127660E+02 -0.34225355741E+02 -0.15910690630E+01  0.37181788309E+02  0.41800000000E+01 0.  1.
         -5    1    3    3    0  502  0.15498135618E+00  0.76728682645E+02  0.11044265951E+03  0.13454504153E+03  0.41800000000E+01 0.  1.
        -11    1    1    2    0    0 -0.25034764687E+00  0.13922121494E+02 -0.21999944375E+02  0.26036238080E+02  0.00000000000E+00 0. -1.
         11    1    1    2    0    0  0.13919493950E+02 -0.56425448399E+02  0.39910301470E+02  0.70501175184E+02  0.00000000000E+00 0.  1.
</event>
<event>
 7    1  0.8661710E-006  0.7761617E+02  0.7561462E-02  0.1335956E+00
         -1   -1    0    0    0  501 -0.00000000000E+00  0.00000000000E+00  0.17352442160E+03  0.17352442160E+03  0.00000000000E+00 0.  1.
          1   -1    0    0  501    0  0.00000000000E+00 -0.00000000000E+00 -0.78301617269E+02  0.78301617269E+02  0.00000000000E+00 0. -1.
         23    2    1    2    0    0 -0.14785562533E+02  0.59524827340E+01  0.93723566241E+02  0.15711898293E+03  0.12509285759E+03 0.  0.
          5    1    3    3  502    0 -0.14669545644E+02  0.53532792337E+02  0.94126388518E+02  0.10935357717E+03  0.41800000000E+01 0.  1.
         -5    1    3    3    0  502 -0.11601688869E+00 -0.47580309603E+02 -0.40282227754E+00  0.47765405762E+02  0.41800000000E+01 0.  1.
        -11    1    1    2    0    0 -0.18290498994E+02 -0.61239193228E+00  0.39808493994E+02  0.43813623125E+02  0.00000000000E+00 0.  1.
         11    1    1    2    0    0  0.33076061527E+02 -0.53400908017E+01 -0.38309255900E+02  0.50893432813E+02  0.00000000000E+00 0. -1.
</event>
<event>
 6    1  0.8661710E-006  0.1623149E+03  0.7561462E-02  0.1186108E+00
          2   -1    0    0  501    0  0.00000000000E+00  0.00000000000E+00  0.31237865637E+03  0.31237865637E+03  0.00000000000E+00 0. -1.
         -2   -1    0    0    0  501 -0.00000000000E+00 -0.00000000000E+00 -0.91101465455E+02  0.91101465455E+02  0.00000000000E+00 0.  1.
          5    1    1    2  502    0  0.44065557116E+02 -0.13332720852E+02  0.44837309779E+02  0.64400244701E+02  0.41800000000E+01 0. -1.
         -5    1    1    2    0  502 -0.14086155007E+03 -0.34036749540E+02  0.11461562908E+03  0.18480987917E+03  0.41800000000E+01 0.  1.
        -11    1    1    2    0    0  0.16630832525E+02  0.50532518619E+02  0.50310152987E+02  0.73220431043E+02  0.00000000000E+00 0. -1.
         11    1    1    2    0    0  0.80165160428E+02 -0.31630482272E+01  0.11514099067E+02  0.81049566920E+02  0.00000000000E+00 0.  1.
</event>
<event>
 7    1  0.8661710E-006  0.1082152E+03  0.7561462E-02  0.1263911E+00
         -1   -1    0    0    0  501 -0.00000000000E+00  0.00000000000E+00  0.30395009691E+03  0.30395009691E+03  0.00000000000E+00 0.  1.
          1   -1    0    0  501    0  0.00000000000E+00 -0.00000000000E+00 -0.53517699742E+02  0.53517699742E+02  0.00000000000E+00 0. -1.
         23    2    1    2    0    0 -0.34828043742E+02 -0.51862011691E+02  0.17337566961E+03  0.22273208510E+03  0.12509115890E+03 0.  0.
          5    1    3    3  502    0 -0.30330498495E+02 -0.82099842637E+02  0.17055722482E+03  0.19174869658E+03  0.41800000000E+01 0.  1.
         -5    1    3    3    0  502 -0.44975452465E+01  0.30237830947E+02  0.28184447859E+01  0.30983388527E+02  0.41800000000E+01 0.  1.
        -11    1    1    2    0    0  0.53446919913E+02  0.57495079318E+02  0.30390342683E+02  0.84177374171E+02  0.00000000000E+00 0. -1.
         11    1    1    2    0    0 -0.18618876171E+02 -0.56330676275E+01  0.46666384878E+02  0.50558337377E+02  0.00000000000E+00 0.  1.
</event>
<event>
 7    1  0.8661710E-006  0.9840357E+02  0.7561462E-02  0.1283689E+00
          2   -1    0    0  501    0  0.00000000000E+00  0.00000000000E+00  0.50440122680E+03  0.50440122680E+03  0.00000000000E+00 0. -1.
         -2   -1    0    0    0  501 -0.00000000000E+00 -0.00000000000E+00 -0.23904863304E+02  0.23904863304E+02  0.00000000000E+00 0.  1.
         23    2    1    2    0    0 -0.83660742408E+01 -0.15908279294E+01  0.24190534707E+03  0.27246727170E+03  0.12509074817E+03 0.  0.
          5    1    3    3  502    0  0.17866519154E+02 -0.51412961321E+02  0.56114807339E+02  0.78286966356E+02  0.41800000000E+01 0.  1.
         -5    1    3    3    0  502 -0.26232593395E+02  0.49822133392E+02  0.18579053973E+03  0.19418030535E+03  0.41800000000E+01 0.  1.
        -11    1    1    2    0    0 -0.23805072926E+01  0.42954227425E+02  0.16708995406E+03  0.17253922806E+03  0.00000000000E+00 0. -1.
         11    1    1    2    0    0  0.10746581533E+02 -0.41363399496E+02  0.71501062361E+02  0.83299590342E+02  0.00000000000E+00 0.  1.
</event>
<event>
 7    1  0.8661710E-006  0.8932414E+02  0.7561462E-02  0.1304497E+00
         -2   -1    0    0    0  501 -0.00000000000E+00  0.00000000000E+00  0.37137139498E+02  0.37137139498E+02  0.00000000000E+00 0.  1.
          2   -1    0    0  501    0  0.00000000000E+00 -0.00000000000E+00 -0.51874636395E+03  0.51874636395E+03  0.00000000000E+00 0. -1.
         23    2    1    2    0    0 -0.34460965392E+02 -0.72931044038E+02 -0.18055374074E+03  0.23399592863E+03  0.12509175032E+03 0.  0.
          5    1    3    3  502    0 -0.33619568909E+02 -0.18217688913E+02 -0.17460882980E+03  0.17879562479E+03  0.41800000000E+01 0. -1.
         -5    1    3    3    0  502 -0.84139648306E+00 -0.54713355125E+02 -0.59449109473E+01  0.55200303833E+02  0.41800000000E+01 0. -1.
        -11    1    1    2    0    0  0.19316871564E+02  0.12512143477E+02 -0.11537732922E+02  0.25745184839E+02  0.00000000000E+00 0.  1.
         11    1    1    2    0    0  0.15144093828E+02  0.60418900562E+02 -0.28951775079E+03  0.29614238998E+03  0.00000000000E+00 0. -1.
</event>
<event>
 7    1  0.8661710E-006  0.1252725E+03  0.7561462E-02  0.1234644E+00
         -1   -1    0    0    0  501 -0.00000000000E+00  0.00000000000E+00  0.19434806634E+02  0.19434806634E+02  0.00000000000E+00 0.  1.
          1   -1    0    0  501    0  0.00000000000E+00 -0.00000000000E+00 -0.10885089718E+04  0.10885089718E+04  0.00000000000E+00 0. -1.
         23    2    1    2    0    0  0.33520720055E+02 -0.90841130943E+02 -0.59024834020E+03  0.61107903207E+03  0.12509488631E+03 0.  0.
          5    1    3    3  502    0 -0.28422263780E+02 -0.17677553815E+02 -0.36081839164E+03  0.36239164606E+03  0.41800000000E+01 0. -1.
         -5    1    3    3    0  502  0.61942983835E+02 -0.73163577128E+02 -0.22942994856E+03  0.24868738601E+03  0.41800000000E+01 0. -1.
        -11    1    1    2    0    0 -0.48768830525E+02  0.28086187904E+02 -0.32801815314E+03  0.33281096972E+03  0.00000000000E+00 0. -1.
         11    1    1    2    0    0  0.15248110470E+02  0.62754943039E+02 -0.15080767188E+03  0.16405377669E+03  0.00000000000E+00 0.  1.
</event>
<event>
 7    1  0.8661710E-006  0.2055611E+03  0.7561462E-02  0.1145130E+00
         -1   -1    0    0    0  501 -0.00000000000E+00  0.00000000000E+00  0.40581726782E+02  0.40581726782E+02  0.00000000000E+00 0.  1.
          1   -1    0    0  501    0  0.00000000000E+00 -0.00000000000E+00 -0.11245792797E+04  0.11245792797E+04  0.00000000000E+00 0. -1.
         23    2    1    2    0    0 -0.16859830258E+03  0.67959325687E+02 -0.49149429798E+03  0.53875614221E+03  0.12509068008E+03 0.  0.
          5    1    3    3  502    0  0.92949016801E+01  0.26331678706E+02 -0.13755479880E+03  0.14042274593E+03  0.41800000000E+01 0.  1.
         -5    1    3    3    0  502 -0.17789320426E+03  0.41627646981E+02 -0.35393949918E+03  0.39833339628E+03  0.41800000000E+01 0.  1.
        -11    1    1    2    0    0  0.15673033101E+03 -0.28970610432E+02 -0.42193594899E+03  0.45103618256E+03  0.00000000000E+00 0.  1.
         11    1    1    2    0    0  0.11867971575E+02 -0.38988715256E+02 -0.17056730593E+03  0.17536868169E+03  0.00000000000E+00 0. -1.
</event>
<event>
 7    1  0.8661710E-006  0.9593113E+02  0.7561462E-02  0.1289093E+00
         -2   -1    0    0    0  501 -0.00000000000E+00  0.00000000000E+00  0.63211856609E+02  0.63211856609E+02  0.00000000000E+00 0.  1.
          2   -1    0    0  501    0  0.00000000000E+00 -0.00000000000E+00 -0.22760092577E+03  0.22760092577E+03  0.00000000000E+00 0. -1.
         23    2    1    2    0    0  0.47451677010E+02 -0.87242325833E+01 -0.70838255905E+02  0.15163596231E+03  0.12509049796E+03 0.  0.
          5    1    3    3  502    0  0.27908373525E+02 -0.61007146388E+02 -0.83329402098E+01  0.67732263477E+02  0.41800000000E+01 0.  1.
         -5    1    3    3    0  502  0.19543303485E+02  0.52282913805E+02 -0.62505315695E+02  0.83903698829E+02  0.41800000000E+01 0.  1.
        -11    1    1    2    0    0 -0.43265317285E+01  0.22878133527E+02 -0.90764011317E+02  0.93702900813E+02  0.00000000000E+00 0. -1.
         11    1    1    2    0    0 -0.43125145281E+02 -0.14153900944E+02 -0.27868019357E+01  0.45473919256E+02  0.00000000000E+00 0.  1.
</event>
<event>
 7    1  0.8661710E-006  0.1960745E+03  0.7561462E-02  0.1153094E+00
         -2   -1    0    0    0  501 -0.00000000000E+00  0.00000000000E+00  0.54389105869E+02  0.54389105869E+02  0.00000000000E+00 0.  1.
          2   -1    0    0  501    0  0.00000000000E+00 -0.00000000000E+00 -0.82172366343E+03  0.82172366343E+03  0.00000000000E+00 0. -1.
         23    2    1    2    0    0  0.13283082070E+03  0.97607793689E+02 -0.24424838409E+03  0.32011956960E+03  0.12509179587E+03 0.  0.
          5    1    3    3  502    0  0.15459612589E+03  0.96270725043E+02 -0.19945681598E+03  0.27012683777E+03  0.41800000000E+01 0.  1.
         -5    1    3    3    0  502 -0.21765305188E+02  0.13370686466E+01 -0.44791568106E+02  0.49992731830E+02  0.41800000000E+01 0.  1.
        -11    1    1    2    0    0 -0.74191671299E+02 -0.33046377545E+00 -0.18428983259E+03  0.19866367482E+03  0.00000000000E+00 0.  1.
         11    1    1    2    0    0 -0.58639149402E+02 -0.97277329914E+02 -0.33879634089E+03  0.35732952489E+03  0.00000000000E+00 0. -1.
</event>
<event>
 7    1  0.8661710E-006  0.1110952E+03  0.7561462E-02  0.1258555E+00
          4   -1    0    0  501    0  0.00000000000E+00  0.00000000000E+00  0.31311814622E+03  0.31311814622E+03  0.00000000000E+00 0.  1.
         -4   -1    0    0    0  501 -0.00000000000E+00 -0.00000000000E+00 -0.51950797036E+02  0.51950797036E+02  0.00000000000E+00 0. -1.
         23    2    1    2    0    0  0.16935877208E+02  0.57874474546E+02  0.10398116305E+03  0.17348179294E+03  0.12509025331E+03 0.  0.
          5    1    3    3  502    0 -0.54053282488E+02  0.26397230397E+02  0.54708547562E+02  0.81419092949E+02  0.41800000000E+01 0. -1.
         -5    1    3    3    0  502  0.70989159696E+02  0.31477244149E+02  0.49272615487E+02  0.92062699996E+02  0.41800000000E+01 0. -1.
        -11    1    1    2    0    0 -0.38603608852E+02 -0.30421914293E+02  0.14724035085E+03  0.15522709945E+03  0.00000000000E+00 0.  1.
         11    1    1    2    0    0  0.21667731644E+02 -0.27452560253E+02  0.99458352842E+01  0.36360050860E+02  0.00000000000E+00 0. -1.
</event>
<event>
 7    1  0.8661710E-006  0.1836462E+03  0.7561462E-02  0.1164320E+00
         -2   -1    0    0    0  501 -0.00000000000E+00  0.00000000000E+00  0.30803554220E+02  0.30803554220E+02  0.00000000000E+00 0.  1.
          2   -1    0    0  501    0  0.00000000000E+00 -0.00000000000E+00 -0.11106369076E+04  0.11106369076E+04  0.00000000000E+00 0. -1.
         23    2    1    2    0    0 -0.50064830521E+02 -0.13884124491E+03 -0.58776642184E+03  0.61878878438E+03  0.12508722752E+03 0.  0.
          5    1    3    3  502    0 -0.71324488534E+02 -0.15047364767E+03 -0.47466061560E+03  0.50304042950E+03  0.41800000000E+01 0.  1.
         -5    1    3    3    0  502  0.21259658014E+02  0.11632402757E+02 -0.11310580624E+03  0.11574835488E+03  0.41800000000E+01 0.  1.
        -11    1    1    2    0    0 -0.11652833843E+01  0.12228029602E+03 -0.34679772391E+03  0.36772610730E+03  0.00000000000E+00 0. -1.
         11    1    1    2    0    0  0.51230113905E+02  0.16560948893E+02 -0.14526920762E+03  0.15492557013E+03  0.00000000000E+00 0.  1.
</event>
<event>
 7    1  0.8661710E-006  0.9502834E+02  0.7561462E-02  0.1291112E+00
          1   -1    0    0  501    0  0.00000000000E+00  0.00000000000E+00  0.22012759606E+03  0.22012759606E+03  0.00000000000E+00 0. -1.
         -1   -1    0    0    0  501 -0.00000000000E+00 -0.00000000000E+00 -0.11649747913E+03  0.11649747913E+03  0.00000000000E+00 0.  1.
         23    2    1    2    0    0  0.48024570393E+02 -0.30969860864E+02 -0.52362690874E+02  0.14715613137E+03  0.12509030322E+03 0.  0.
          5    1    3    3  502    0 -0.28175018764E+02 -0.14401985134E+02 -0.60740819967E+02  0.68616094821E+02  0.41800000000E+01 0. -1.
         -5    1    3    3    0  502  0.76199589157E+02 -0.16567875730E+02  0.83781290930E+01  0.78540036548E+02  0.41800000000E+01 0. -1.
        -11    1    1    2    0    0 -0.31069809127E+02  0.47244738653E+02  0.35633788653E+02  0.66836855577E+02  0.00000000000E+00 0.  1.
         11    1    1    2    0    0 -0.16954761266E+02 -0.16274877789E+02  0.12035901915E+03  0.12263208825E+03  0.00000000000E+00 0. -1.
</event>
<event>
 7    1  0.8661710E-006  0.9892175E+02  0.7561462E-02  0.1282580E+00
         -2   -1    0    0    0  501 -0.00000000000E+00  0.00000000000E+00  0.63525068299E+02  0.63525068299E+02  0.00000000000E+00 0.  1.
          2   -1    0    0  501    0  0.00000000000E+00 -0.00000000000E+00 -0.21147144129E+03  0.21147144129E+03  0.00000000000E+00 0. -1.
         23    2    1    2    0    0  0.13971163629E+02 -0.45036429454E+02 -0.61377022630E+02  0.13956550581E+03  0.11613749659E+03 0.  0.
          5    1    3    3  502    0  0.48956710989E+02 -0.22336966283E+02 -0.77682267732E+02  0.94592318576E+02  0.41800000000E+01 0. -1.
         -5    1    3    3    0  502 -0.34985547360E+02 -0.22699463171E+02  0.16305245102E+02  0.44973187236E+02  0.41800000000E+01 0.  1.
        -11    1    1    2    0    0 -0.50930572359E+02  0.11865611383E+02 -0.58177218060E+02  0.78225984401E+02  0.00000000000E+00 0.  1.
         11    1    1    2    0    0  0.36959408730E+02  0.33170818071E+02 -0.28392132300E+02  0.57205019376E+02  0.00000000000E+00 0. -1.
</event>
<event>
 7    1  0.8661710E-006  0.9395345E+02  0.7561462E-02  0.1293551E+00
         -2   -1    0    0    0  501 -0.00000000000E+00  0.00000000000E+00  0.18311554485E+02  0.18311554485E+02  0.00000000000E+00 0.  1.
          2   -1    0    0  501    0  0.00000000000E+00 -0.00000000000E+00 -0.72806794276E+03  0.72806794276E+03  0.00000000000E+00 0. -1.
         23    2    1    2    0    0 -0.48072192513E+02  0.13064378359E+02 -0.37753492052E+03  0.40082556463E+03  0.12508758281E+03 0.  0.
          5    1    3    3  502    0  0.10019536634E+02 -0.28130007838E+02 -0.19858257443E+02  0.36104172114E+02  0.41800000000E+01 0. -1.
         -5    1    3    3    0  502 -0.58091729147E+02  0.41194386197E+02 -0.35767666308E+03  0.36472139252E+03  0.41800000000E+01 0. -1.
        -11    1    1    2    0    0  0.27027046399E+02  0.28839851317E+02 -0.82639167752E+02  0.91604750466E+02  0.00000000000E+00 0.  1.
         11    1    1    2    0    0  0.21045146114E+02 -0.41904229676E+02 -0.24958230001E+03  0.25394918215E+03  0.00000000000E+00 0. -1.
</event>
<event>
 6    1  0.8661710E-006  0.8908474E+02  0.7561462E-02  0.1305083E+00
          2   -1    0    0  501    0  0.00000000000E+00  0.00000000000E+00  0.14945635184E+03  0.14945635184E+03  0.00000000000E+00 0. -1.
         -2   -1    0    0    0  501 -0.00000000000E+00 -0.00000000000E+00 -0.15818147629E+03  0.15818147629E+03  0.00000000000E+00 0.  1.
          5    1    1    2  502    0  0.10207976650E+02 -0.18092554447E+00  0.53318646391E+02  0.54448011666E+02  0.41800000000E+01 0. -1.
         -5    1    1    2    0  502  0.93777593464E+00  0.60343244911E+02 -0.11360940344E+03  0.12871190924E+03  0.41800000000E+01 0.  1.
        -11    1    1    2    0    0 -0.47965671306E+02 -0.19476039111E+02  0.41121811770E+01  0.51931991655E+02  0.00000000000E+00 0. -1.
         11    1    1    2    0    0  0.36819918721E+02 -0.40686280255E+02  0.47453451416E+02  0.72545915577E+02  0.00000000000E+00 0.  1.
</event>
<event>
 7    1  0.8661710E-006  0.9992424E+02  0.7561462E-02  0.1280455E+00
         -2   -1    0    0    0  501 -0.00000000000E+00  0.00000000000E+00  0.24445191720E+02  0.24445191720E+02  0.00000000000E+00 0.  1.
          2   -1    0    0  501    0  0.00000000000E+00 -0.00000000000E+00 -0.76861401654E+03  0.76861401654E+03  0.00000000000E+00 0. -1.
         23    2    1    2    0    0 -0.18421702817E+02 -0.53724621892E+02 -0.23212373897E+03  0.26972997472E+03  0.12508850840E+03 0.  0.
          5    1    3    3  502    0  0.38863737645E+01 -0.65850435559E+02 -0.42976921860E+02  0.78840801473E+02  0.41800000000E+01 0.  1.
         -5    1    3    3    0  502 -0.22308076582E+02  0.12125813668E+02 -0.18914681711E+03  0.19088917324E+03  0.41800000000E+01 0.  1.
        -11    1    1    2    0    0 -0.16975860966E+02 -0.20002090440E+02 -0.11641875292E+03  0.11933813099E+03  0.00000000000E+00 0.  1.
         11    1    1    2    0    0  0.35397563783E+02  0.73726712331E+02 -0.39562633293E+03  0.40399110255E+03  0.00000000000E+00 0. -1.
</event>
<event>
 7    1  0.8661710E-006  0.9780436E+02  0.7561462E-02  0.1284982E+00
         -3   -1    0    0    0  501 -0.00000000000E+00  0.00000000000E+00  0.43686920420E+03  0.43686920420E+03  0.00000000000E+00 0.  1.
          3   -1    0    0  501    0  0.00000000000E+00 -0.00000000000E+00 -0.32527793069E+02  0.32527793069E+02  0.00000000000E+00 0. -1.
         23    2    1    2    0    0 -0.75995330218E+01 -0.37459139186E+02  0.29125904496E+03  0.31927970145E+03  0.12508699563E+03 0.  0.
          5    1    3    3  502    0 -0.27781419240E+02 -0.60137203940E+02  0.72148350179E+02  0.98036459474E+02  0.41800000000E+01 0. -1.
         -5    1    3    3    0  502  0.20181886218E+02  0.22678064754E+02  0.21911069478E+03  0.22124324197E+03  0.41800000000E+01 0. -1.
        -11    1    1    2    0    0  0.49125166046E+02  0.14923414099E+02  0.54871122911E+02  0.75145394782E+02  0.00000000000E+00 0. -1.
         11    1    1    2    0    0 -0.41525633025E+02  0.22535725087E+02  0.58211243258E+02  0.74971901036E+02  0.00000000000E+00 0.  1.
</event>
<event>
 7    1  0.8661710E-006  0.2068373E+03  0.7561462E-02  0.1144095E+00
         -1   -1    0    0    0  501 -0.00000000000E+00  0.00000000000E+00  0.98291713695E+02  0.98291713695E+02  0.00000000000E+00 0.  1.
          1   -1    0    0  501    0  0.00000000000E+00 -0.00000000000E+00 -0.48144765228E+03  0.48144765228E+03  0.00000000000E+00 0. -1.
         23    2    1    2    0    0  0.18234309321E+03 -0.10635086063E+02 -0.13845089637E+03  0.26111046438E+03  0.12509162723E+03 0.  0.
          5    1    3    3  502    0  0.19492894771E+03  0.69556812015E+01 -0.13818708182E+03  0.23907910435E+03  0.41800000000E+01 0. -1.
         -5    1    3    3    0  502 -0.12585854500E+02 -0.17590767264E+02 -0.26381455386E+00  0.22031360025E+02  0.41800000000E+01 0. -1.
        -11    1    1    2    0    0 -0.11544070634E+03 -0.28677284176E+02 -0.10426726682E+03  0.15817903223E+03  0.00000000000E+00 0.  1.
         11    1    1    2    0    0 -0.66902386867E+02  0.39312370239E+02 -0.14043777539E+03  0.16044986937E+03  0.00000000000E+00 0. -1.
</event>
<event>
 7    1  0.8661710E-006  0.1217007E+03  0.7561462E-02  0.1240318E+00
         -1   -1    0    0    0  501 -0.00000000000E+00  0.00000000000E+00  0.49133177490E+02  0.49133177490E+02  0.00000000000E+00 0.  1.
          1   -1    0    0  501    0  0.00000000000E+00 -0.00000000000E+00 -0.44022682450E+03  0.44022682450E+03  0.00000000000E+00 0. -1.
         23    2    1    2    0    0  0.40330196183E+02 -0.80405227528E+02 -0.19240023407E+03  0.24649024127E+03  0.12509222050E+03 0.  0.
          5    1    3    3  502    0  0.15092331354E+02 -0.77228501612E+02 -0.33689921959E+02  0.85700076829E+02  0.41800000000E+01 0.  1.
         -5    1    3    3    0  502  0.25237864829E+02 -0.31767259162E+01 -0.15871031211E+03  0.16079016444E+03  0.41800000000E+01 0.  1.
        -11    1    1    2    0    0 -0.46315802164E+02  0.10433644997E+03 -0.17284533239E+03  0.20713946329E+03  0.00000000000E+00 0. -1.
         11    1    1    2    0    0  0.59856059814E+01 -0.23931222446E+02 -0.25848080547E+02  0.35730297434E+02  0.00000000000E+00 0.  1.
</event>
<event>
 7    1  0.8661710E-006  0.1350986E+03  0.7561462E-02  0.1220081E+00
         -2   -1    0    0    0  501 -0.00000000000E+00  0.00000000000E+00  0.49212795615E+02  0.49212795615E+02  0.00000000000E+00 0.  1.
          2   -1    0    0  501    0  0.00000000000E+00 -0.00000000000E+00 -0.48352748422E+03  0.48352748422E+03  0.00000000000E+00 0. -1.
         23    2    1    2    0    0  0.10842700895E+03 -0.14308679068E+02 -0.22347764470E+03  0.27848009675E+03  0.12509097503E+03 0.  0.
          5    1    3    3  502    0  0.11523999318E+03 -0.21555391605E+02 -0.23502496132E+03  0.26267678957E+03  0.41800000000E+01 0. -1.
         -5    1    3    3    0  502 -0.68129842256E+01  0.72467125375E+01  0.11547316616E+02  0.15803307176E+02  0.41800000000E+01 0. -1.
        -11    1    1    2    0    0 -0.97695373593E+02  0.46474503277E+02 -0.15881004308E+03  0.19215851597E+03  0.00000000000E+00 0. -1.
         11    1    1    2    0    0 -0.10731635360E+02 -0.32165824210E+02 -0.52027000821E+02  0.62101667119E+02  0.00000000000E+00 0.  1.
</event>
<event>
 7    1  0.8661710E-006  0.1080940E+03  0.7561462E-02  0.1264141E+00
         -3   -1    0    0    0  501 -0.00000000000E+00  0.00000000000E+00  0.11057091930E+03  0.11057091930E+03  0.00000000000E+00 0.  1.
          3   -1    0    0  501    0  0.00000000000E+00 -0.00000000000E+00 -0.15301332890E+03  0.15301332890E+03  0.00000000000E+00 0. -1.
         23    2    1    2    0    0 -0.58424317443E+02  0.23013795609E+02  0.97069516987E+01  0.14031356126E+03  0.12510249760E+03 0.  0.
          5    1    3    3  502    0 -0.19256242799E+02  0.66474627066E+02  0.33516685557E+02  0.77009866518E+02  0.41800000000E+01 0.  1.
         -5    1    3    3    0  502 -0.39168074644E+02 -0.43460831457E+02 -0.23809733858E+02  0.63303694747E+02  0.41800000000E+01 0.  1.
        -11    1    1    2    0    0  0.13019618583E+02  0.21164451688E+02 -0.54477903990E+02  0.59877262015E+02  0.00000000000E+00 0. -1.
         11    1    1    2    0    0  0.45404698860E+02 -0.44178247297E+02  0.23285426921E+01  0.63393424926E+02  0.00000000000E+00 0.  1.
</event>
<event>
 7    1  0.8661710E-006  0.1362473E+03  0.7561462E-02  0.1218470E+00
         -1   -1    0    0    0  501 -0.00000000000E+00  0.00000000000E+00  0.29755919328E+02  0.29755919328E+02  0.00000000000E+00 0.  1.
          1   -1    0    0  501    0  0.00000000000E+00 -0.00000000000E+00 -0.77187818082E+03  0.77187818082E+03  0.00000000000E+00 0. -1.
         23    2    1    2    0    0  0.10704360177E+03  0.83381109752E+01 -0.38472033123E+03  0.41855124367E+03  0.12509018165E+03 0.  0.
          5    1    3    3  502    0  0.81841740566E+02  0.51852323946E+02 -0.15108843628E+03  0.17953250952E+03  0.41800000000E+01 0. -1.
         -5    1    3    3    0  502  0.25201861200E+02 -0.43514212970E+02 -0.23363189495E+03  0.23901873415E+03  0.41800000000E+01 0. -1.
        -11    1    1    2    0    0 -0.52309620404E+02 -0.36228525379E+02 -0.10058915907E+03  0.11902512911E+03  0.00000000000E+00 0.  1.
         11    1    1    2    0    0 -0.54733981362E+02  0.27890414404E+02 -0.25681277119E+03  0.26405772736E+03  0.00000000000E+00 0. -1.
</event>
<event>
 7    1  0.8661710E-006  0.9404585E+02  0.7561462E-02  0.1293340E+00
          2   -1    0    0  501    0  0.00000000000E+00  0.00000000000E+00  0.10692498838E+03  0.10692498838E+03  0.00000000000E+00 0. -1.
         -2   -1    0    0    0  501 -0.00000000000E+00 -0.00000000000E+00 -0.17819942720E+03  0.17819942720E+03  0.00000000000E+00 0.  1.
         23    2    1    2    0    0  0.42242188708E+02  0.52107325053E+02 -0.91280530305E+02  0.17111717560E+03  0.12825512364E+03 0.  0.
          5    1    3    3  502    0 -0.17001331960E+02 -0.81832876240E+00  0.24815568219E+02  0.30380911382E+02  0.41800000000E+01 0. -1.
         -5    1    3    3    0  502  0.59243520668E+02  0.52925653816E+02 -0.11609609852E+03  0.14073626422E+03  0.41800000000E+01 0.  1.
        -11    1    1    2    0    0 -0.53552555645E+02 -0.57420611377E+02 -0.12201936136E+02  0.79459990388E+02  0.00000000000E+00 0. -1.
         11    1    1    2    0    0  0.11310366936E+02  0.53132863240E+01  0.32208027612E+02  0.34547249593E+02  0.00000000000E+00 0.  1.
</event>
<event>
 7    1  0.8661710E-006  0.1193238E+03  0.7561462E-02  0.1244217E+00
          4   -1    0    0  501    0  0.00000000000E+00  0.00000000000E+00  0.45093232115E+03  0.45093232115E+03  0.00000000000E+00 0. -1.
         -4   -1    0    0    0  501 -0.00000000000E+00 -0.00000000000E+00 -0.43770950861E+02  0.43770950861E+02  0.00000000000E+00 0.  1.
         23    2    1    2    0    0 -0.54591216964E+02 -0.54788395901E+02  0.14327090642E+03  0.20535164690E+03  0.12514302603E+03 0.  0.
          5    1    3    3  502    0 -0.90451676474E+02 -0.39998932014E+02  0.13151127146E+03  0.16460287744E+03  0.41800000000E+01 0.  1.
         -5    1    3    3    0  502  0.35860459510E+02 -0.14789463887E+02  0.11759634958E+02  0.40748769462E+02  0.41800000000E+01 0.  1.
        -11    1    1    2    0    0  0.20853236793E+02  0.62626191415E+02  0.23547302522E+03  0.24454946931E+03  0.00000000000E+00 0. -1.
         11    1    1    2    0    0  0.33737980171E+02 -0.78377955141E+01  0.28417438647E+02  0.44802155793E+02  0.00000000000E+00 0.  1.
</event>
<event>
 7    1  0.8661710E-006  0.8216698E+02  0.7561462E-02  0.1323012E+00
          3   -1    0    0  501    0  0.00000000000E+00  0.00000000000E+00  0.75645800775E+02  0.75645800775E+02  0.00000000000E+00 0. -1.
         -3   -1    0    0    0  501 -0.00000000000E+00 -0.00000000000E+00 -0.16662924007E+03  0.16662924007E+03  0.00000000000E+00 0.  1.
         23    2    1    2    0    0  0.66683089678E+01  0.28501093978E+02 -0.66706768450E+02  0.14475430956E+03  0.12508892228E+03 0.  0.
          5    1    3    3  502    0 -0.29417214115E+02  0.48864673494E+02 -0.82356660656E+02  0.10026575066E+03  0.41800000000E+01 0.  1.
         -5    1    3    3    0  502  0.36085523083E+02 -0.20363579516E+02  0.15649892206E+02  0.44488558899E+02  0.41800000000E+01 0.  1.
        -11    1    1    2    0    0 -0.28872231543E+02  0.62053077267E+00 -0.46460796374E+02  0.54704628803E+02  0.00000000000E+00 0.  1.
         11    1    1    2    0    0  0.22203922575E+02 -0.29121624750E+02  0.22184125530E+02  0.42816102477E+02  0.00000000000E+00 0. -1.
</event>
<event>
 7    1  0.8661710E-006  0.1052436E+03  0.7561462E-02  0.1269640E+00
          1   -1    0    0  501    0  0.00000000000E+00  0.00000000000E+00  0.11675435209E+03  0.11675435209E+03  0.00000000000E+00 0. -1.
         -1   -1    0    0    0  501 -0.00000000000E+00 -0.00000000000E+00 -0.13377975023E+03  0.13377975023E+03  0.00000000000E+00 0.  1.
         23    2    1    2    0    0  0.59768910023E+02  0.58765009207E+01  0.12970478337E+01  0.13876559556E+03  0.12508937728E+03 0.  0.
          5    1    3    3  502    0  0.61383668665E+02  0.38190111853E+02  0.44222751600E+02  0.84850242081E+02  0.41800000000E+01 0.  1.
         -5    1    3    3    0  502 -0.16147586411E+01 -0.32313610932E+02 -0.42925703766E+02  0.53915353479E+02  0.41800000000E+01 0.  1.
        -11    1    1    2    0    0 -0.80240013393E+02  0.81217089568E+01 -0.27671803096E+02  0.85265178076E+02  0.00000000000E+00 0.  1.
         11    1    1    2    0    0  0.20471103370E+02 -0.13998209877E+02  0.93493571211E+01  0.26503328688E+02  0.00000000000E+00 0. -1.
</event>
<event>
 7    1  0.8661710E-006  0.1071101E+03  0.7561462E-02  0.1266017E+00
          1   -1    0    0  501    0  0.00000000000E+00  0.00000000000E+00  0.29808531297E+02  0.29808531297E+02  0.00000000000E+00 0. -1.
         -1   -1    0    0    0  501 -0.00000000000E+00 -0.00000000000E+00 -0.72069909644E+03  0.72069909644E+03  0.00000000000E+00 0.  1.
         23    2    1    2    0    0 -0.62972729358E+02  0.47200266224E+02 -0.52451804912E+03  0.54493924720E+03  0.12508464937E+03 0.  0.
          5    1    3    3  502    0 -0.24971894319E+02  0.52455473722E+02 -0.48911231800E+03  0.49256827370E+03  0.41800000000E+01 0. -1.
         -5    1    3    3    0  502 -0.38000835039E+02 -0.52552074980E+01 -0.35405731120E+02  0.52370973503E+02  0.41800000000E+01 0. -1.
        -11    1    1    2    0    0  0.59204455015E+02  0.10014540762E+02 -0.10906309156E+03  0.12449986531E+03  0.00000000000E+00 0.  1.
         11    1    1    2    0    0  0.37682743431E+01 -0.57214806986E+02 -0.57309424457E+02  0.81068515230E+02  0.00000000000E+00 0. -1.
</event>
<event>
 7    1  0.8661710E-006  0.9941629E+02  0.7561462E-02  0.1281528E+00
         -2   -1    0    0    0  501 -0.00000000000E+00  0.00000000000E+00  0.13942306017E+03  0.13942306017E+03  0.00000000000E+00 0. -1.
          2   -1    0    0  501    0  0.00000000000E+00 -0.00000000000E+00 -0.15343868633E+03  0.15343868633E+03  0.00000000000E+00 0.  1.
         23    2    1    2    0    0 -0.66126421874E+02  0.85936127147E+01  0.62548030444E+02  0.15494354660E+03  0.12509473479E+03 0.  0.
          5    1    3    3  502    0 -0.75659148023E+02 -0.18887061187E+02  0.86860239501E+02  0.11680411536E+03  0.41800000000E+01 0.  1.
         -5    1    3    3    0  502  0.95327261498E+01  0.27480673902E+02 -0.24312209056E+02  0.38139431238E+02  0.41800000000E+01 0.  1.
        -11    1    1    2    0    0  0.15076454394E+02  0.25741366851E+02 -0.69945019888E+02  0.76040931423E+02  0.00000000000E+00 0.  1.
         11    1    1    2    0    0  0.51049967479E+02 -0.34334979565E+02 -0.66186367125E+01  0.61877268470E+02  0.00000000000E+00 0. -1.
</event>
<event>
 7    1  0.8661710E-006  0.1171890E+03  0.7561462E-02  0.1247808E+00
         -1   -1    0    0    0  501 -0.00000000000E+00  0.00000000000E+00  0.79938658539E+02  0.79938658539E+02  0.00000000000E+00 0.  1.
          1   -1    0    0  501    0  0.00000000000E+00 -0.00000000000E+00 -0.24852776757E+03  0.24852776757E+03  0.00000000000E+00 0. -1.
         23    2    1    2    0    0 -0.50274758044E+02 -0.70640475168E+02 -0.63638560049E+02  0.16496979184E+03  0.12509011898E+03 0.  0.
          5    1    3    3  502    0 -0.78224037706E+02 -0.73068643769E+02 -0.14320251869E+02  0.10807668014E+03  0.41800000000E+01 0.  1.
         -5    1    3    3    0  502  0.27949279663E+02  0.24281686004E+01 -0.49318308181E+02  0.56893111694E+02  0.41800000000E+01 0.  1.
        -11    1    1    2    0    0  0.57813856037E+02  0.48375157360E+02 -0.11534532485E+03  0.13779383791E+03  0.00000000000E+00 0. -1.
         11    1    1    2    0    0 -0.75390979932E+01  0.22265317809E+02  0.10394775870E+02  0.25702796367E+02  0.00000000000E+00 0.  1.
</event>
<event>
 7    1  0.8661710E-006  0.1673964E+03  0.7561462E-02  0.1180590E+00
          1   -1    0    0  501    0  0.00000000000E+00  0.00000000000E+00  0.33678484103E+03  0.33678484103E+03  0.00000000000E+00 0. -1.
         -1   -1    0    0    0  501 -0.00000000000E+00 -0.00000000000E+00 -0.10104225867E+03  0.10104225867E+03  0.00000000000E+00 0.  1.
         23    2    1    2    0    0 -0.93980776673E+02 -0.10292414127E+03  0.62236160500E+02  0.19734869906E+03  0.12508958432E+03 0.  0.
          5    1    3    3  502    0  0.16645275705E+02 -0.48803385731E+02 -0.12511152838E+02  0.53224402368E+02  0.41800000000E+01 0.  1.
         -5    1    3    3    0  502 -0.11062605238E+03 -0.54120755537E+02  0.74747313339E+02  0.14412429669E+03  0.41800000000E+01 0.  1.
        -11    1    1    2    0    0  0.56785221585E+02  0.10826834266E+03  0.15812376989E+03  0.19987426552E+03  0.00000000000E+00 0. -1.
         11    1    1    2    0    0  0.37195555088E+02 -0.53442013944E+01  0.15382651969E+02  0.40604135116E+02  0.00000000000E+00 0.  1.
</event>
<event>
 6    1  0.8661710E-006  0.1095200E+03  0.7561462E-02  0.1261461E+00
         -3   -1    0    0    0  501 -0.00000000000E+00  0.00000000000E+00  0.65526262517E+03  0.65526262517E+03  0.00000000000E+00 0.  1.
          3   -1    0    0  501    0  0.00000000000E+00 -0.00000000000E+00 -0.27342069464E+02  0.27342069464E+02  0.00000000000E+00 0. -1.
          5    1    1    2  502    0 -0.70359974685E+02  0.33561221378E+02  0.23151079393E+03  0.24431864792E+03  0.41800000000E+01 0. -1.
         -5    1    1    2    0  502  0.37838130575E+02 -0.31880836124E+02  0.29723474553E+03  0.30135374261E+03  0.41800000000E+01 0.  1.
        -11    1    1    2    0    0 -0.11229656010E+02 -0.34721890892E+02  0.57340954296E+02  0.67968374416E+02  0.00000000000E+00 0.  1.
         11    1    1    2    0    0  0.43751500121E+02  0.33041505638E+02  0.41834061954E+02  0.68963929682E+02  0.00000000000E+00 0. -1.
</event>
<event>
 7    1  0.8661710E-006  0.1264677E+03  0.7561462E-02  0.1232793E+00
          3   -1    0    0  501    0  0.00000000000E+00  0.00000000000E+00  0.81230556775E+03  0.81230556775E+03  0.00000000000E+00 0. -1.
         -3   -1    0    0    0  501 -0.00000000000E+00 -0.00000000000E+00 -0.23986098668E+02  0.23986098668E+02  0.00000000000E+00 0.  1.
         23    2    1    2    0    0  0.15076394232E+02 -0.83588950450E+02  0.37061221102E+03  0.40026947791E+03  0.12509130140E+03 0.  0.
          5    1    3    3  502    0 -0.47777815545E+02 -0.28473673527E+02  0.22968381943E+03  0.23635904690E+03  0.41800000000E+01 0. -1.
         -5    1    3    3    0  502  0.62854209776E+02 -0.55115276923E+02  0.14092839159E+03  0.16391043101E+03  0.41800000000E+01 0. -1.
        -11    1    1    2    0    0  0.30604451780E+02  0.39532415372E+02  0.27955311002E+03  0.28398835479E+03  0.00000000000E+00 0. -1.
         11    1    1    2    0    0 -0.45680846012E+02  0.44056535078E+02  0.13815414804E+03  0.15203383372E+03  0.00000000000E+00 0.  1.
</event>
<event>
 7    1  0.8661710E-006  0.1162137E+03  0.7561462E-02  0.1249477E+00
         -2   -1    0    0    0  501 -0.00000000000E+00  0.00000000000E+00  0.11006564831E+03  0.11006564831E+03  0.00000000000E+00 0.  1.
          2   -1    0    0  501    0  0.00000000000E+00 -0.00000000000E+00 -0.18295581486E+03  0.18295581486E+03  0.00000000000E+00 0. -1.
         23    2    1    2    0    0 -0.18757617343E+02 -0.81203558130E+02 -0.22752449729E+00  0.15031085069E+03  0.12508970383E+03 0.  0.
          5    1    3    3  502    0  0.44294757646E+01  0.12249458412E+02  0.42676297551E+02  0.44815268153E+02  0.41800000000E+01 0.  1.
         -5    1    3    3    0  502 -0.23187093107E+02 -0.93453016542E+02 -0.42903822048E+02  0.10549558253E+03  0.41800000000E+01 0.  1.
        -11    1    1    2    0    0 -0.86508702682E+00 -0.19627994138E+02 -0.73211879740E+01  0.20966790951E+02  0.00000000000E+00 0. -1.
         11    1    1    2    0    0  0.19622704369E+02  0.10083155227E+03 -0.65341454078E+02  0.12174382153E+03  0.00000000000E+00 0.  1.
</event>
<event>
 7    1  0.8661710E-006  0.9796902E+02  0.7561462E-02  0.1284626E+00
          3   -1    0    0  501    0  0.00000000000E+00  0.00000000000E+00  0.83898349269E+02  0.83898349269E+02  0.00000000000E+00 0. -1.
         -3   -1    0    0    0  501 -0.00000000000E+00 -0.00000000000E+00 -0.21583913599E+03  0.21583913599E+03  0.00000000000E+00 0.  1.
         23    2    1    2    0    0 -0.39560054182E+02  0.35262712818E+02 -0.13625138541E+03  0.19240491703E+03  0.12508699081E+03 0.  0.
          5    1    3    3  502    0 -0.71496483299E+01  0.79911440743E+02 -0.85522724860E+02  0.11733952744E+03  0.41800000000E+01 0. -1.
         -5    1    3    3    0  502 -0.32410405852E+02 -0.44648727925E+02 -0.50728660546E+02  0.75065389585E+02  0.41800000000E+01 0. -1.
        -11    1    1    2    0    0  0.50035135873E+01 -0.23097445630E+02  0.46071659649E+02  0.51779580586E+02  0.00000000000E+00 0. -1.
         11    1    1    2    0    0  0.34556540594E+02 -0.12165267188E+02 -0.41761060968E+02  0.55552987649E+02  0.00000000000E+00 0.  1.
</event>
<event>
 7    1  0.8661710E-006  0.9378709E+02  0.7561462E-02  0.1293931E+00
          1   -1    0    0  501    0  0.00000000000E+00  0.00000000000E+00  0.21932235070E+03  0.21932235070E+03  0.00000000000E+00 0. -1.
         -1   -1    0    0    0  501 -0.00000000000E+00 -0.00000000000E+00 -0.12297472872E+03  0.12297472872E+03  0.00000000000E+00 0.  1.
         23    2    1    2    0    0 -0.48257112340E+02 -0.40888394834E+02 -0.58702309948E+02  0.15196855971E+03  0.12509145543E+03 0.  0.
          5    1    3    3  502    0 -0.37869488520E+02  0.72931798091E+00  0.33150175686E+02  0.50507787652E+02  0.41800000000E+01 0.  1.
         -5    1    3    3    0  502 -0.10387623820E+02 -0.41617712815E+02 -0.91852485634E+02  0.10146077205E+03  0.41800000000E+01 0.  1.
        -11    1    1    2    0    0  0.11880973705E+02  0.62793519160E+02  0.67096096525E+02  0.92661047661E+02  0.00000000000E+00 0.  1.
         11    1    1    2    0    0  0.36376138635E+02 -0.21905124325E+02  0.87953835408E+02  0.97667472051E+02  0.00000000000E+00 0. -1.
</event>
<event>
 7    1  0.8661710E-006  0.1248565E+03  0.7561462E-02  0.1235294E+00
         -1   -1    0    0    0  501 -0.00000000000E+00  0.00000000000E+00  0.13750917083E+03  0.13750917083E+03  0.00000000000E+00 0.  1.
          1   -1    0    0  501    0  0.00000000000E+00 -0.00000000000E+00 -0.12966610717E+03  0.12966610717E+03  0.00000000000E+00 0. -1.
         23    2    1    2    0    0  0.40531833389E+02  0.64080738789E+02  0.21725616189E+02  0.14788628195E+03  0.12509668017E+03 0.  0.
          5    1    3    3  502    0 -0.36783671504E+02  0.50590290768E+02 -0.93279839405E+01  0.63379016194E+02  0.41800000000E+01 0. -1.
         -5    1    3    3    0  502  0.77315504892E+02  0.13490448020E+02  0.31053600129E+02  0.84507265756E+02  0.41800000000E+01 0. -1.
        -11    1    1    2    0    0 -0.62691516047E+02 -0.34780894923E+02  0.14153355779E+02  0.73077043698E+02  0.00000000000E+00 0.  1.
         11    1    1    2    0    0  0.22159682658E+02 -0.29299843866E+02 -0.28035908305E+02  0.46211952356E+02  0.00000000000E+00 0. -1.
</event>
<event>
 7    1  0.8661710E-006  0.1033362E+03  0.7561462E-02  0.1273433E+00
         -2   -1    0    0    0  501 -0.00000000000E+00  0.00000000000E+00  0.13989155424E+03  0.13989155424E+03  0.00000000000E+00 0.  1.
          2   -1    0    0  501    0  0.00000000000E+00 -0.00000000000E+00 -0.16019727839E+03  0.16019727839E+03  0.00000000000E+00 0. -1.
         23    2    1    2    0    0 -0.96215520135E+01 -0.58007482942E+01  0.91778296932E+02  0.15555611114E+03  0.12509286542E+03 0.  0.
          5    1    3    3  502    0  0.47667251301E+02 -0.36394758121E+02  0.50260127718E+02  0.78360054259E+02  0.41800000000E+01 0. -1.
         -5    1    3    3    0  502 -0.57288803315E+02  0.30594009827E+02  0.41518169214E+02  0.77196056877E+02  0.41800000000E+01 0. -1.
        -11    1    1    2    0    0 -0.32102074582E+02  0.19497548530E+02 -0.85024672642E+02  0.92951022313E+02  0.00000000000E+00 0.  1.
         11    1    1    2    0    0  0.41723626595E+02 -0.13696800236E+02 -0.27059348442E+02  0.51581699188E+02  0.00000000000E+00 0. -1.
</event>
<event>
 7    1  0.8661710E-006  0.9557824E+02  0.7561462E-02  0.1289879E+00
         -1   -1    0    0    0  501 -0.00000000000E+00  0.00000000000E+00  0.46101081081E+02  0.46101081081E+02  0.00000000000E+00 0.  1.
          1   -1    0    0  501    0  0.00000000000E+00 -0.00000000000E+00 -0.37984515284E+03  0.37984515284E+03  0.00000000000E+00 0. -1.
         23    2    1    2    0    0 -0.50880455900E+02  0.44810369510E+02 -0.13212602778E+03  0.19416943998E+03  0.12509074385E+03 0.  0.
          5    1    3    3  502    0  0.18388080475E+02 -0.19934443262E+02  0.45070809658E+01  0.27808087143E+02  0.41800000000E+01 0.  1.
         -5    1    3    3    0  502 -0.69268536374E+02  0.64744812772E+02 -0.13663310874E+03  0.16636135284E+03  0.41800000000E+01 0.  1.
        -11    1    1    2    0    0  0.15431697343E+02 -0.68929512657E+01  0.58722891564E+01  0.17892284370E+02  0.00000000000E+00 0.  1.
         11    1    1    2    0    0  0.35448758556E+02 -0.37917418245E+02 -0.20749033313E+03  0.21388450957E+03  0.00000000000E+00 0. -1.
</event>
<event>
 7    1  0.8661710E-006  0.1207140E+03  0.7561462E-02  0.1241924E+00
         -1   -1    0    0    0  501 -0.00000000000E+00  0.00000000000E+00  0.32623333185E+03  0.32623333185E+03  0.00000000000E+00 0.  1.
          1   -1    0    0  501    0  0.00000000000E+00 -0.00000000000E+00 -0.68617965983E+02  0.68617965983E+02  0.00000000000E+00 0. -1.
         23    2    1    2    0    0  0.38461726840E+02 -0.74371285012E+02  0.21657829400E+03  0.26375058827E+03  0.12509125835E+03 0.  0.
          5    1    3    3  502    0  0.24793046689E+01 -0.89749826286E+02  0.75804747361E+02  0.11757980436E+03  0.41800000000E+01 0.  1.
         -5    1    3    3    0  502  0.35982422171E+02  0.15378541274E+02  0.14077354664E+03  0.14617078392E+03  0.41800000000E+01 0.  1.
        -11    1    1    2    0    0 -0.35389160721E+02 -0.22965759854E+01  0.41213465848E+02  0.54371101930E+02  0.00000000000E+00 0.  1.
         11    1    1    2    0    0 -0.30725661192E+01  0.76667860997E+02 -0.17639398227E+00  0.76729607632E+02  0.00000000000E+00 0. -1.
</event>
<event>
 7    1  0.8661710E-006  0.3010015E+03  0.7561462E-02  0.1084741E+00
          1   -1    0    0  501    0  0.00000000000E+00  0.00000000000E+00  0.27433647795E+03  0.27433647795E+03  0.00000000000E+00 0. -1.
         -1   -1    0    0    0  501 -0.00000000000E+00 -0.00000000000E+00 -0.37724712480E+03  0.37724712480E+03  0.00000000000E+00 0.  1.
         23    2    1    2    0    0  0.27723535985E+03  0.45402220534E+02 -0.16548341674E+03  0.34921830562E+03  0.12509139614E+03 0.  0.
          5    1    3    3  502    0  0.28889901925E+03  0.36681831102E+02 -0.15020002750E+03  0.32769760561E+03  0.41800000000E+01 0.  1.
         -5    1    3    3    0  502 -0.11663659407E+02  0.87203894320E+01 -0.15283389236E+02  0.21520700015E+02  0.41800000000E+01 0.  1.
        -11    1    1    2    0    0 -0.13024762600E+03 -0.67932507120E+02  0.25310786180E+02  0.14906342777E+03  0.00000000000E+00 0.  1.
         11    1    1    2    0    0 -0.14698773385E+03  0.22530286585E+02  0.37261983714E+02  0.15330186935E+03  0.00000000000E+00 0. -1.
</event>
<event>
 7    1  0.8661710E-006  0.1767699E+03  0.7561462E-02  0.1170966E+00
          1   -1    0    0  501    0  0.00000000000E+00  0.00000000000E+00  0.47207797590E+03  0.47207797590E+03  0.00000000000E+00 0. -1.
         -1   -1    0    0    0  501 -0.00000000000E+00 -0.00000000000E+00 -0.14764454888E+03  0.14764454888E+03  0.00000000000E+00 0.  1.
         23    2    1    2    0    0 -0.53401140579E+02  0.13680268093E+03 -0.56681791458E+02  0.20106608696E+03  0.12509232797E+03 0.  0.
          5    1    3    3  502    0  0.10325597209E+02  0.12508509988E+03 -0.52151491926E+02  0.13597849345E+03  0.41800000000E+01 0. -1.
         -5    1    3    3    0  502 -0.63726737789E+02  0.11717581044E+02 -0.45302995324E+01  0.65087593507E+02  0.41800000000E+01 0. -1.
        -11    1    1    2    0    0  0.17360002228E+02 -0.12334123674E+03  0.21808697356E+03  0.25115007146E+03  0.00000000000E+00 0.  1.
         11    1    1    2    0    0  0.36041138351E+02 -0.13461444187E+02  0.16302824491E+03  0.16750636636E+03  0.00000000000E+00 0. -1.
</event>
<event>
 7    1  0.8661710E-006  0.1275557E+03  0.7561462E-02  0.1231128E+00
         -2   -1    0    0    0  501 -0.00000000000E+00  0.00000000000E+00  0.22676164997E+03  0.22676164997E+03  0.00000000000E+00 0.  1.
          2   -1    0    0  501    0  0.00000000000E+00 -0.00000000000E+00 -0.13291890020E+03  0.13291890020E+03  0.00000000000E+00 0. -1.
         23    2    1    2    0    0  0.95052248690E+01  0.10483856501E+03  0.13797650316E+03  0.21374687976E+03  0.12477475374E+03 0.  0.
          5    1    3    3  502    0  0.24598839859E+02  0.27450313016E+02 -0.16238448686E+02  0.40494224562E+02  0.41800000000E+01 0.  1.
         -5    1    3    3    0  502 -0.15093614990E+02  0.77388251992E+02  0.15421495185E+03  0.17325265520E+03  0.41800000000E+01 0.  1.
        -11    1    1    2    0    0 -0.46932298589E+01 -0.12156397980E+03 -0.39783336848E+02  0.12799430253E+03  0.00000000000E+00 0.  1.
         11    1    1    2    0    0 -0.48119950101E+01  0.16725414787E+02 -0.43504165493E+01  0.17939367879E+02  0.00000000000E+00 0. -1.
</event>
<event>
 7    1  0.8661710E-006  0.1268959E+03  0.7561462E-02  0.1232136E+00
          1   -1    0    0  501    0  0.00000000000E+00  0.00000000000E+00  0.10476838082E+04  0.10476838082E+04  0.00000000000E+00 0. -1.
         -1   -1    0    0    0  501 -0.00000000000E+00 -0.00000000000E+00 -0.19557846225E+02  0.19557846225E+02  0.00000000000E+00 0.  1.
         23    2    1    2    0    0  0.83217168400E+02  0.29469612419E+02  0.41640703142E+03  0.44195075325E+03  0.11887849811E+03 0.  0.
          5    1    3    3  502    0  0.36316841477E+02 -0.31248846074E+02  0.29047153296E+03  0.29442586031E+03  0.41800000000E+01 0. -1.
         -5    1    3    3    0  502  0.46900326923E+02  0.60718458492E+02  0.12593549846E+03  0.14752489295E+03  0.41800000000E+01 0.  1.
        -11    1    1    2    0    0 -0.43763248589E+01  0.29868383439E+02  0.11736283852E+03  0.12118295430E+03  0.00000000000E+00 0. -1.
         11    1    1    2    0    0 -0.78840843541E+02 -0.59337995858E+02  0.49435609201E+03  0.50410794684E+03  0.00000000000E+00 0.  1.
</event>
<event>
 7    1  0.8661710E-006  0.1129729E+03  0.7561462E-02  0.1255161E+00
         -1   -1    0    0    0  501 -0.00000000000E+00  0.00000000000E+00  0.39037702865E+02  0.39037702865E+02  0.00000000000E+00 0.  1.
          1   -1    0    0  501    0  0.00000000000E+00 -0.00000000000E+00 -0.58593843604E+03  0.58593843604E+03  0.00000000000E+00 0. -1.
         23    2    1    2    0    0 -0.12278972133E+02  0.36959894706E+02 -0.93945250387E+02  0.16121721338E+03  0.12509385616E+03 0.  0.
          5    1    3    3  502    0 -0.36574887150E+01 -0.45943841766E+02 -0.22985834030E+02  0.51672379334E+02  0.41800000000E+01 0. -1.
         -5    1    3    3    0  502 -0.86214834177E+01  0.82903736473E+02 -0.70959416356E+02  0.10954483405E+03  0.41800000000E+01 0. -1.
        -11    1    1    2    0    0 -0.35311243173E+02  0.10175091251E+01 -0.11296458571E+03  0.11835927020E+03  0.00000000000E+00 0.  1.
         11    1    1    2    0    0  0.47590215306E+02 -0.37977403831E+02 -0.33999089708E+03  0.34539965531E+03  0.00000000000E+00 0. -1.
</event>
<event>
 7    1  0.8661710E-006  0.1491116E+03  0.7561462E-02  0.1201569E+00
          2   -1    0    0  501    0  0.00000000000E+00  0.00000000000E+00  0.80306340596E+03  0.80306340596E+03  0.00000000000E+00 0. -1.
         -2   -1    0    0    0  501 -0.00000000000E+00 -0.00000000000E+00 -0.35618411028E+02  0.35618411028E+02  0.00000000000E+00 0.  1.
         23    2    1    2    0    0 -0.10816930023E+03  0.26543158211E+02  0.24432620098E+03  0.29622181487E+03  0.12508770668E+03 0.  0.
          5    1    3    3  502    0 -0.11271686700E+03 -0.13994156797E+02  0.11988745392E+03  0.16520109727E+03  0.41800000000E+01 0.  1.
         -5    1    3    3    0  502  0.45475667743E+01  0.40537315008E+02  0.12443874706E+03  0.13102071760E+03  0.41800000000E+01 0.  1.
        -11    1    1    2    0    0 -0.13397393755E+02 -0.16962431533E+02  0.77853548665E+02  0.80798448516E+02  0.00000000000E+00 0. -1.
         11    1    1    2    0    0  0.12156669398E+03 -0.95807266781E+01  0.44526524530E+03  0.46166155361E+03  0.00000000000E+00 0.  1.
</event>
<event>
 7    1  0.8661710E-006  0.1259834E+03  0.7561462E-02  0.1233540E+00
         -2   -1    0    0    0  501 -0.00000000000E+00  0.00000000000E+00  0.52500061723E+03  0.52500061723E+03  0.00000000000E+00 0.  1.
          2   -1    0    0  501    0  0.00000000000E+00 -0.00000000000E+00 -0.51415128156E+02  0.51415128156E+02  0.00000000000E+00 0. -1.
         23    2    1    2    0    0 -0.10155413537E+03 -0.28204693674E+01  0.37325625302E+03  0.40654012275E+03  0.12503376955E+03 0.  0.
          5    1    3    3  502    0  0.14023332762E+02 -0.24953885696E+02  0.22806859273E+02  0.36837148409E+02  0.41800000000E+01 0.  1.
         -5    1    3    3    0  502 -0.11557746813E+03  0.22133416328E+02  0.35044939375E+03  0.36970297434E+03  0.41800000000E+01 0.  1.
        -11    1    1    2    0    0  0.65661012325E+02  0.15057138252E+02  0.11156375088E+03  0.13032481138E+03  0.00000000000E+00 0.  1.
         11    1    1    2    0    0  0.35893123045E+02 -0.12236668884E+02 -0.11234514827E+02  0.39550811252E+02  0.00000000000E+00 0. -1.
</event>
<event>
 7    1  0.8661710E-006  0.1752650E+03  0.7561462E-02  0.1172466E+00
         -1   -1    0    0    0  501 -0.00000000000E+00  0.00000000000E+00  0.12940761213E+03  0.12940761213E+03  0.00000000000E+00 0.  1.
          1   -1    0    0  501    0  0.00000000000E+00 -0.00000000000E+00 -0.36343406072E+03  0.36343406072E+03  0.00000000000E+00 0. -1.
         23    2    1    2    0    0 -0.36225927314E+02  0.13845109739E+03  0.16544220105E+02  0.19079387035E+03  0.12509022970E+03 0.  0.
          5    1    3    3  502    0 -0.62638089116E+02  0.18056090272E+02 -0.53320017589E+01  0.65539722663E+02  0.41800000000E+01 0. -1.
         -5    1    3    3    0  502  0.26412161801E+02  0.12039500711E+03  0.21876221864E+02  0.12525414768E+03  0.41800000000E+01 0. -1.
        -11    1    1    2    0    0 -0.20508628891E+02 -0.70155283061E+02 -0.71876254323E+02  0.10251128492E+03  0.00000000000E+00 0.  1.
         11    1    1    2    0    0  0.56734556205E+02 -0.68295814324E+02 -0.17869441437E+03  0.19953651758E+03  0.00000000000E+00 0. -1.
</event>
<event>
 7    1  0.8661710E-006  0.1260066E+03  0.7561462E-02  0.1233504E+00
         -2   -1    0    0    0  501 -0.00000000000E+00  0.00000000000E+00  0.30168607807E+02  0.30168607807E+02  0.00000000000E+00 0. -1.
          2   -1    0    0  501    0  0.00000000000E+00 -0.00000000000E+00 -0.86778613922E+03  0.86778613922E+03  0.00000000000E+00 0.  1.
         23    2    1    2    0    0 -0.10205606712E+03 -0.36384572271E+02 -0.30664663446E+03  0.34845220283E+03  0.12508997279E+03 0.  0.
          5    1    3    3  502    0 -0.38868195810E+02  0.16639830963E+02 -0.23591626937E+03  0.23971144982E+03  0.41800000000E+01 0. -1.
         -5    1    3    3    0  502 -0.63187871306E+02 -0.53024403234E+02 -0.70730365093E+02  0.10874075301E+03  0.41800000000E+01 0. -1.
        -11    1    1    2    0    0  0.48993387115E+02 -0.16810526662E+02 -0.10644113780E+03  0.11837508861E+03  0.00000000000E+00 0. -1.
         11    1    1    2    0    0  0.53062680001E+02  0.53195098933E+02 -0.42452975915E+03  0.43112745559E+03  0.00000000000E+00 0.  1.
</event>
<event>
 7    1  0.8661710E-006  0.1041405E+03  0.7561462E-02  0.1271822E+00
          2   -1    0    0  501    0  0.00000000000E+00  0.00000000000E+00  0.13244525296E+03  0.13244525296E+03  0.00000000000E+00 0. -1.
         -2   -1    0    0    0  501 -0.00000000000E+00 -0.00000000000E+00 -0.13069358664E+03  0.13069358664E+03  0.00000000000E+00 0.  1.
         23    2    1    2    0    0  0.74077872901E+01 -0.41105636239E+02 -0.62366530832E+02  0.14588454914E+03  0.12509264114E+03 0.  0.
          5    1    3    3  502    0  0.95790423409E+01  0.33984151393E+02 -0.61034449004E+02  0.70635380393E+02  0.41800000000E+01 0.  1.
         -5    1    3    3    0  502 -0.21712550508E+01 -0.75089787632E+02 -0.13320818283E+01  0.75249168747E+02  0.41800000000E+01 0.  1.
        -11    1    1    2    0    0 -0.25895882277E+02  0.63424263941E+02  0.38564084407E+02  0.78615663716E+02  0.00000000000E+00 0. -1.
         11    1    1    2    0    0  0.18488094987E+02 -0.22318627702E+02  0.25554112737E+02  0.38638626742E+02  0.00000000000E+00 0.  1.
</event>
<event>
 7    1  0.8661710E-006  0.1332300E+03  0.7561462E-02  0.1222740E+00
         -3   -1    0    0    0  501 -0.00000000000E+00  0.00000000000E+00  0.10992241421E+03  0.10992241421E+03  0.00000000000E+00 0.  1.
          3   -1    0    0  501    0  0.00000000000E+00 -0.00000000000E+00 -0.20685524454E+03  0.20685524454E+03  0.00000000000E+00 0. -1.
         23    2    1    2    0    0 -0.38575072604E+02  0.82404465306E+02 -0.10572492056E+03  0.18736709432E+03  0.12510050791E+03 0.  0.
          5    1    3    3  502    0  0.42212278234E+02  0.49401325384E+02 -0.60967868630E+02  0.89201573913E+02  0.41800000000E+01 0.  1.
         -5    1    3    3    0  502 -0.80787350838E+02  0.33003139922E+02 -0.44757051929E+02  0.98165520411E+02  0.41800000000E+01 0.  1.
        -11    1    1    2    0    0  0.47402474987E+02 -0.20836764458E+02  0.34381329581E+02  0.62154977369E+02  0.00000000000E+00 0.  1.
         11    1    1    2    0    0 -0.88274023830E+01 -0.61567700847E+02 -0.25589239347E+02  0.67255587060E+02  0.00000000000E+00 0. -1.
</event>
<event>
 7    1  0.8661710E-006  0.8907870E+02  0.7561462E-02  0.1305098E+00
          1   -1    0    0  501    0  0.00000000000E+00  0.00000000000E+00  0.41354896095E+03  0.41354896095E+03  0.00000000000E+00 0. -1.
         -1   -1    0    0    0  501 -0.00000000000E+00 -0.00000000000E+00 -0.45926496494E+02  0.45926496494E+02  0.00000000000E+00 0.  1.
         23    2    1    2    0    0  0.35976690243E+02 -0.76240623827E+02  0.18581159936E+03  0.23933543679E+03  0.12509414808E+03 0.  0.
          5    1    3    3  502    0  0.19919442407E+02 -0.56604432484E+02  0.20077344768E+03  0.20959078141E+03  0.41800000000E+01 0. -1.
         -5    1    3    3    0  502  0.16057247836E+02 -0.19636191343E+02 -0.14961848313E+02  0.29744655377E+02  0.41800000000E+01 0. -1.
        -11    1    1    2    0    0  0.43047306182E+01  0.32696681342E+02  0.14848078414E+03  0.15209913523E+03  0.00000000000E+00 0. -1.
         11    1    1    2    0    0 -0.40281420861E+02  0.43543942486E+02  0.33330080955E+02  0.68040885431E+02  0.00000000000E+00 0.  1.
</event>
<event>
 6    1  0.8661710E-006  0.6991284E+02  0.7561462E-02  0.1360390E+00
          2   -1    0    0  501    0  0.00000000000E+00  0.00000000000E+00  0.62998097054E+03  0.62998097054E+03  0.00000000000E+00 0. -1.
         -2   -1    0    0    0  501 -0.00000000000E+00 -0.00000000000E+00 -0.32427215612E+02  0.32427215612E+02  0.00000000000E+00 0.  1.
          5    1    1    2  502    0  0.15470816738E+02 -0.29879199507E+02  0.51536983766E+03  0.51648393460E+03  0.41800000000E+01 0. -1.
         -5    1    1    2    0  502 -0.47318528265E+02  0.46194624555E+02  0.15105439097E+02  0.67960526376E+02  0.41800000000E+01 0.  1.
        -11    1    1    2    0    0  0.10206044255E+02 -0.14782843324E+02  0.28015190883E+02  0.33279824463E+02  0.00000000000E+00 0. -1.
         11    1    1    2    0    0  0.21641667272E+02 -0.15325817243E+01  0.39063287296E+02  0.44683900719E+02  0.00000000000E+00 0.  1.
</event>
<event>
 7    1  0.8661710E-006  0.1611407E+03  0.7561462E-02  0.1187415E+00
          2   -1    0    0  501    0  0.00000000000E+00  0.00000000000E+00  0.58652700696E+03  0.58652700696E+03  0.00000000000E+00 0. -1.
         -2   -1    0    0    0  501 -0.00000000000E+00 -0.00000000000E+00 -0.72062005936E+02  0.72062005936E+02  0.00000000000E+00 0.  1.
         23    2    1    2    0    0 -0.14788772566E+03  0.43082143089E+02  0.12376799079E+03  0.23386131354E+03  0.12508296435E+03 0.  0.
          5    1    3    3  502    0 -0.11093647114E+03  0.43751720589E+02  0.16664291622E+02  0.12048354535E+03  0.41800000000E+01 0. -1.
         -5    1    3    3    0  502 -0.36951254520E+02 -0.66957749976E+00  0.10710369917E+03  0.11337776819E+03  0.41800000000E+01 0. -1.
        -11    1    1    2    0    0  0.93737931925E+02  0.42617591702E+01  0.20006361655E+03  0.22097604653E+03  0.00000000000E+00 0.  1.
         11    1    1    2    0    0  0.54149793737E+02 -0.47343902259E+02  0.19063339368E+03  0.20375165282E+03  0.00000000000E+00 0. -1.
</event>
<event>
 7    1  0.1150984E-005  0.3767660E+03  0.7561462E-02  0.1052136E+00
         -2   -1    0    0    0  501 -0.00000000000E+00  0.00000000000E+00  0.78655255829E+02  0.78655255829E+02  0.00000000000E+00 0.  1.
          2   -1    0    0  501    0  0.00000000000E+00 -0.00000000000E+00 -0.19823821562E+04  0.19823821562E+04  0.00000000000E+00 0. -1.
         23    2    1    2    0    0  0.29118052974E+03  0.22246675339E+03 -0.70591482626E+03  0.80513371699E+03  0.12508798118E+03 0.  0.
          5    1    3    3  502    0 -0.22505332978E+01 -0.11057600577E+02 -0.25800133719E+02  0.28468486622E+02  0.41800000000E+01 0. -1.
         -5    1    3    3    0  502  0.29343106304E+03  0.23352435397E+03 -0.68011469255E+03  0.77666523037E+03  0.41800000000E+01 0. -1.
        -11    1    1    2    0    0 -0.13991621890E+02 -0.11793337458E+02 -0.17526014428E+02  0.25337905858E+02  0.00000000000E+00 0.  1.
         11    1    1    2    0    0 -0.27718890785E+03 -0.21067341593E+03 -0.11802860596E+04  0.12305657891E+04  0.00000000000E+00 0. -1.
</event>
<event>
 7    1  0.8661710E-006  0.1089684E+03  0.7561462E-02  0.1262492E+00
         -1   -1    0    0    0  501 -0.00000000000E+00  0.00000000000E+00  0.18452917696E+03  0.18452917696E+03  0.00000000000E+00 0.  1.
          1   -1    0    0  501    0  0.00000000000E+00 -0.00000000000E+00 -0.68131867907E+02  0.68131867907E+02  0.00000000000E+00 0. -1.
         23    2    1    2    0    0  0.23682778073E+00 -0.33496777187E+02  0.76315751373E+02  0.15031165121E+03  0.12508960153E+03 0.  0.
          5    1    3    3  502    0  0.40034249904E+02 -0.64704687956E+02  0.60054986879E+02  0.97023253182E+02  0.41800000000E+01 0. -1.
         -5    1    3    3    0  502 -0.39797422123E+02  0.31207910768E+02  0.16260764493E+02  0.53288398025E+02  0.41800000000E+01 0. -1.
        -11    1    1    2    0    0  0.11847747188E+01 -0.28724763577E+02  0.25494446927E+02  0.38425025150E+02  0.00000000000E+00 0.  1.
         11    1    1    2    0    0 -0.14216024995E+01  0.62221540764E+02  0.14587110750E+02  0.63924368505E+02  0.00000000000E+00 0. -1.
</event>
<event>
 7    1  0.8661710E-006  0.1381823E+03  0.7561462E-02  0.1215796E+00
          1   -1    0    0  501    0  0.00000000000E+00  0.00000000000E+00  0.52315137304E+02  0.52315137304E+02  0.00000000000E+00 0. -1.
         -1   -1    0    0    0  501 -0.00000000000E+00 -0.00000000000E+00 -0.45396590993E+03  0.45396590993E+03  0.00000000000E+00 0.  1.
         23    2    1    2    0    0 -0.38127088852E+02  0.70855630620E+02 -0.31958825654E+03  0.35250379105E+03  0.12509226072E+03 0.  0.
          5    1    3    3  502    0 -0.36451375625E+02 -0.30058328851E+02 -0.11260822603E+03  0.12218956947E+03  0.41800000000E+01 0. -1.
         -5    1    3    3    0  502 -0.16757132262E+01  0.10091395947E+03 -0.20698003050E+03  0.23031422157E+03  0.41800000000E+01 0. -1.
        -11    1    1    2    0    0  0.14623865189E+02 -0.93883313279E+02 -0.48126833134E+02  0.10650880721E+03  0.00000000000E+00 0.  1.
         11    1    1    2    0    0  0.23503223662E+02  0.23027682659E+02 -0.33935682954E+02  0.47268448977E+02  0.00000000000E+00 0. -1.
</event>
<event>
 7    1  0.8661710E-006  0.8752816E+02  0.7561462E-02  0.1308950E+00
          4   -1    0    0  501    0  0.00000000000E+00  0.00000000000E+00  0.55638828346E+02  0.55638828346E+02  0.00000000000E+00 0. -1.
         -4   -1    0    0    0  501 -0.00000000000E+00 -0.00000000000E+00 -0.27779196275E+03  0.27779196275E+03  0.00000000000E+00 0.  1.
         23    2    1    2    0    0  0.58136873893E+02  0.38018258147E+01 -0.14534492924E+03  0.20041659176E+03  0.12508921541E+03 0.  0.
          5    1    3    3  502    0  0.55360214882E+02  0.12277528150E+02 -0.16711438787E+03  0.17652246917E+03  0.41800000000E+01 0.  1.
         -5    1    3    3    0  502  0.27766590110E+01 -0.84757023355E+01  0.21769458628E+02  0.23894122589E+02  0.41800000000E+01 0.  1.
        -11    1    1    2    0    0 -0.30163554820E+02  0.43772138275E+02 -0.42193274194E+02  0.67868346936E+02  0.00000000000E+00 0.  1.
         11    1    1    2    0    0 -0.27973319073E+02 -0.47573964090E+02 -0.34614930975E+02  0.65145852405E+02  0.00000000000E+00 0. -1.
</event>
<event>
 7    1  0.8661710E-006  0.1023268E+03  0.7561462E-02  0.1275478E+00
         -1   -1    0    0    0  501 -0.00000000000E+00  0.00000000000E+00  0.60818374914E+02  0.60818374914E+02  0.00000000000E+00 0.  1.
          1   -1    0    0  501    0  0.00000000000E+00 -0.00000000000E+00 -0.20275166556E+03  0.20275166556E+03  0.00000000000E+00 0. -1.
         23    2    1    2    0    0 -0.91199135817E+01 -0.34268266491E+01 -0.59042839433E+02  0.13866666312E+03  0.12508985014E+03 0.  0.
          5    1    3    3  502    0  0.46344744466E+02 -0.33356908332E+02 -0.47640714044E+02  0.74482405356E+02  0.41800000000E+01 0.  1.
         -5    1    3    3    0  502 -0.55464658047E+02  0.29930081683E+02 -0.11402125389E+02  0.64184257768E+02  0.41800000000E+01 0.  1.
        -11    1    1    2    0    0 -0.38439596804E+01  0.42703196062E+02 -0.15034081218E+02  0.45435256992E+02  0.00000000000E+00 0.  1.
         11    1    1    2    0    0  0.12963873262E+02 -0.39276369413E+02 -0.67856369995E+02  0.79468120357E+02  0.00000000000E+00 0. -1.
</event>
<event>
 7    1  0.8661710E-006  0.3359872E+03  0.7561462E-02  0.1068518E+00
          2   -1    0    0  501    0  0.00000000000E+00  0.00000000000E+00  0.13427917367E+04  0.13427917367E+04  0.00000000000E+00 0. -1.
         -2   -1    0    0    0  501 -0.00000000000E+00 -0.00000000000E+00 -0.13278085441E+03  0.13278085441E+03  0.00000000000E+00 0.  1.
         23    2    1    2    0    0 -0.32241698027E+03 -0.43140232120E+02  0.18133703691E+03  0.39286654831E+03  0.12508882856E+03 0.  0.
          5    1    3    3  502    0 -0.31309697873E+03 -0.11510313508E+02  0.15082418130E+03  0.34774647586E+03  0.41800000000E+01 0.  1.
         -5    1    3    3    0  502 -0.93200015371E+01 -0.31629918612E+02  0.30512855611E+02  0.45120072447E+02  0.41800000000E+01 0.  1.
        -11    1    1    2    0    0  0.21514730203E+03  0.32792209322E+02  0.53828971873E+03  0.58061993752E+03  0.00000000000E+00 0.  1.
         11    1    1    2    0    0  0.10726967824E+03  0.10348022799E+02  0.49038412663E+03  0.50208610526E+03  0.00000000000E+00 0. -1.
</event>
<event>
 6    1  0.8661710E-006  0.8484107E+02  0.7561462E-02  0.1315849E+00
         -2   -1    0    0    0  501 -0.00000000000E+00  0.00000000000E+00  0.30604718373E+02  0.30604718373E+02  0.00000000000E+00 0.  1.
          2   -1    0    0  501    0  0.00000000000E+00 -0.00000000000E+00 -0.63196188930E+03  0.63196188930E+03  0.00000000000E+00 0. -1.
          5    1    1    2  502    0  0.19771364319E+02  0.83827102983E+01 -0.41323931559E+03  0.41381805305E+03  0.41800000000E+01 0. -1.
         -5    1    1    2    0  502  0.49259551751E+01 -0.47036157405E+02 -0.18067050403E+02  0.50799171726E+02  0.41800000000E+01 0.  1.
        -11    1    1    2    0    0 -0.52121441581E+01  0.66299252040E+02 -0.99060744033E+02  0.11931382265E+03  0.00000000000E+00 0.  1.
         11    1    1    2    0    0 -0.19485175336E+02 -0.27645804933E+02 -0.70990060898E+02  0.78635560242E+02  0.00000000000E+00 0. -1.
</event>
<event>
 7    1  0.8661710E-006  0.9130667E+02  0.7561462E-02  0.1299718E+00
          2   -1    0    0  501    0  0.00000000000E+00  0.00000000000E+00  0.39825128918E+02  0.39825128918E+02  0.00000000000E+00 0. -1.
         -2   -1    0    0    0  501 -0.00000000000E+00 -0.00000000000E+00 -0.43449263223E+03  0.43449263223E+03  0.00000000000E+00 0.  1.
         23    2    1    2    0    0  0.31707898711E+02  0.39069242557E+02 -0.31527676499E+03  0.34289893957E+03  0.12509375548E+03 0.  0.
          5    1    3    3  502    0 -0.39091028542E+02  0.13153643392E+02 -0.20563136234E+03  0.20976857826E+03  0.41800000000E+01 0. -1.
         -5    1    3    3    0  502  0.70798927252E+02  0.25915599164E+02 -0.10964540265E+03  0.13313036131E+03  0.41800000000E+01 0. -1.
        -11    1    1    2    0    0 -0.13936013237E+02  0.74839697455E+01  0.16807576074E+02  0.23080660337E+02  0.00000000000E+00 0. -1.
         11    1    1    2    0    0 -0.17771885474E+02 -0.46553212302E+02 -0.96198314400E+02  0.10833816125E+03  0.00000000000E+00 0.  1.
</event>
<event>
 7    1  0.8661710E-006  0.1091197E+03  0.7561462E-02  0.1262209E+00
          1   -1    0    0  501    0  0.00000000000E+00  0.00000000000E+00  0.59701002384E+03  0.59701002384E+03  0.00000000000E+00 0. -1.
         -1   -1    0    0    0  501 -0.00000000000E+00 -0.00000000000E+00 -0.20969438245E+02  0.20969438245E+02  0.00000000000E+00 0.  1.
         23    2    1    2    0    0  0.21803455188E+02 -0.60905915491E+01  0.28299572986E+03  0.31023697282E+03  0.12509160734E+03 0.  0.
          5    1    3    3  502    0 -0.37370011232E+02 -0.41738777416E+02  0.10177992047E+03  0.11625518436E+03  0.41800000000E+01 0.  1.
         -5    1    3    3    0  502  0.59173466421E+02  0.35648185867E+02  0.18121580939E+03  0.19398178846E+03  0.41800000000E+01 0.  1.
        -11    1    1    2    0    0  0.21462709144E+02  0.34829071172E+02  0.10603817094E+03  0.11365652546E+03  0.00000000000E+00 0.  1.
         11    1    1    2    0    0 -0.43266164332E+02 -0.28738479622E+02  0.18700668480E+03  0.19408596381E+03  0.00000000000E+00 0. -1.
</event>
<event>
 7    1  0.8661710E-006  0.1172577E+03  0.7561462E-02  0.1247691E+00
          2   -1    0    0  501    0  0.00000000000E+00  0.00000000000E+00  0.59970599921E+03  0.59970599921E+03  0.00000000000E+00 0. -1.
         -2   -1    0    0    0  501 -0.00000000000E+00 -0.00000000000E+00 -0.26474457941E+02  0.26474457941E+02  0.00000000000E+00 0.  1.
         23    2    1    2    0    0  0.50310141267E+02  0.36045321727E+02  0.27673080910E+03  0.30993173516E+03  0.12508942490E+03 0.  0.
          5    1    3    3  502    0 -0.62373503790E+01  0.69589747880E+02  0.17770864943E+03  0.19099600528E+03  0.41800000000E+01 0. -1.
         -5    1    3    3    0  502  0.56547491646E+02 -0.33544426153E+02  0.99022159667E+02  0.11893572988E+03  0.41800000000E+01 0. -1.
        -11    1    1    2    0    0 -0.23206935423E+02  0.23616891756E+02  0.42192071372E+02  0.53632921928E+02  0.00000000000E+00 0.  1.
         11    1    1    2    0    0 -0.27103205844E+02 -0.59662213483E+02  0.25430866080E+03  0.26261580006E+03  0.00000000000E+00 0. -1.
</event>
<event>
 7    1  0.8661710E-006  0.7185516E+02  0.7561462E-02  0.1353896E+00
         -1   -1    0    0    0  501 -0.00000000000E+00  0.00000000000E+00  0.93729432266E+02  0.93729432266E+02  0.00000000000E+00 0.  1.
          1   -1    0    0  501    0  0.00000000000E+00 -0.00000000000E+00 -0.15682424365E+03  0.15682424365E+03  0.00000000000E+00 0. -1.
         23    2    1    2    0    0  0.11674159979E+01 -0.10995206527E+02  0.18861419691E+02  0.12698127768E+03  0.12508490836E+03 0.  0.
          5    1    3    3  502    0  0.54046582496E+02  0.61782957726E+01  0.39684230122E+02  0.67464916353E+02  0.41800000000E+01 0.  1.
         -5    1    3    3    0  502 -0.52879166498E+02 -0.17173502300E+02 -0.20822810431E+02  0.59516361322E+02  0.41800000000E+01 0.  1.
        -11    1    1    2    0    0  0.14067548214E+02 -0.85784681694E+00  0.17381057081E+02  0.22377063238E+02  0.00000000000E+00 0.  1.
         11    1    1    2    0    0 -0.15234964212E+02  0.11853053344E+02 -0.99337288159E+02  0.10119533501E+03  0.00000000000E+00 0. -1.
</event>
<event>
 7    1  0.8661710E-006  0.1272882E+03  0.7561462E-02  0.1231536E+00
          4   -1    0    0  501    0  0.00000000000E+00  0.00000000000E+00  0.14103562800E+03  0.14103562800E+03  0.00000000000E+00 0.  1.
         -4   -1    0    0    0  501 -0.00000000000E+00 -0.00000000000E+00 -0.12538865683E+03  0.12538865683E+03  0.00000000000E+00 0. -1.
         23    2    1    2    0    0 -0.53739200611E+02 -0.39599302451E+02 -0.28739971730E+02  0.14466925680E+03  0.12508877428E+03 0.  0.
          5    1    3    3  502    0  0.66538805307E+00  0.42669881660E+02 -0.12131110363E+02  0.44562291018E+02  0.41800000000E+01 0. -1.
         -5    1    3    3    0  502 -0.54404588664E+02 -0.82269184110E+02 -0.16608861367E+02  0.10010696578E+03  0.41800000000E+01 0. -1.
        -11    1    1    2    0    0 -0.13184165136E+02  0.43977285882E+02  0.13057291768E+02  0.47731716418E+02  0.00000000000E+00 0. -1.
         11    1    1    2    0    0  0.66923365747E+02 -0.43779834312E+01  0.31329651134E+02  0.74023311612E+02  0.00000000000E+00 0.  1.
</event>
<event>
 7    1  0.8661710E-006  0.1254872E+03  0.7561462E-02  0.1234310E+00
         -2   -1    0    0    0  501 -0.00000000000E+00  0.00000000000E+00  0.30869694376E+02  0.30869694376E+02  0.00000000000E+00 0.  1.
          2   -1    0    0  501    0  0.00000000000E+00 -0.00000000000E+00 -0.54181568106E+03  0.54181568106E+03  0.00000000000E+00 0. -1.
         23    2    1    2    0    0  0.17464862732E+02 -0.67504145850E+02 -0.25010231129E+03  0.28820281806E+03  0.12509143491E+03 0.  0.
          5    1    3    3  502    0  0.69740643313E+02 -0.31504274380E+02 -0.16522794877E+03  0.18213737697E+03  0.41800000000E+01 0.  1.
         -5    1    3    3    0  502 -0.52275780580E+02 -0.35999871469E+02 -0.84874362515E+02  0.10606544109E+03  0.41800000000E+01 0.  1.
        -11    1    1    2    0    0 -0.27016367077E+02  0.85871782921E+02 -0.18314926665E+03  0.20407719389E+03  0.00000000000E+00 0.  1.
         11    1    1    2    0    0  0.95515043453E+01 -0.18367637071E+02 -0.77694408743E+02  0.80405363483E+02  0.00000000000E+00 0. -1.
</event>
<event>
 7    1  0.8661710E-006  0.1203885E+03  0.7561462E-02  0.1242458E+00
          1   -1    0    0  501    0  0.00000000000E+00  0.00000000000E+00  0.11011583608E+03  0.11011583608E+03  0.00000000000E+00 0. -1.
         -1   -1    0    0    0  501 -0.00000000000E+00 -0.00000000000E+00 -0.20940997004E+03  0.20940997004E+03  0.00000000000E+00 0.  1.
         23    2    1    2    0    0 -0.37650797033E+02 -0.88428517984E+02 -0.10091901868E+03  0.18726757983E+03  0.12508921941E+03 0.  0.
          5    1    3    3  502    0 -0.39543905278E+02 -0.10246750383E+02  0.18033563674E+02  0.44848613767E+02  0.41800000000E+01 0.  1.
         -5    1    3    3    0  502  0.18931082448E+01 -0.78181767601E+02 -0.11895258236E+03  0.14241896606E+03  0.41800000000E+01 0.  1.
        -11    1    1    2    0    0  0.57806019192E+02  0.44117690279E+02  0.26744038584E+02  0.77479997743E+02  0.00000000000E+00 0. -1.
         11    1    1    2    0    0 -0.20155222160E+02  0.44310827705E+02 -0.25119153864E+02  0.54778228550E+02  0.00000000000E+00 0.  1.
</event>
<event>
 7    1  0.8661710E-006  0.9796936E+02  0.7561462E-02  0.1284625E+00
          1   -1    0    0  501    0  0.00000000000E+00  0.00000000000E+00  0.53395172897E+02  0.53395172897E+02  0.00000000000E+00 0. -1.
         -1   -1    0    0    0  501 -0.00000000000E+00 -0.00000000000E+00 -0.29465064695E+03  0.29465064695E+03  0.00000000000E+00 0.  1.
         23    2    1    2    0    0  0.46150144710E+02  0.44509871695E+02 -0.12410984758E+03  0.18751395310E+03  0.12508902353E+03 0.  0.
          5    1    3    3  502    0  0.18233970524E+02  0.71879109450E+02 -0.12801678577E+03  0.14800288475E+03  0.41800000000E+01 0. -1.
         -5    1    3    3    0  502  0.27916174186E+02 -0.27369237755E+02  0.39069381851E+01  0.39511068354E+02  0.41800000000E+01 0. -1.
        -11    1    1    2    0    0 -0.43017961425E+02 -0.56794971850E+01 -0.73234168161E+01  0.44004932988E+02  0.00000000000E+00 0.  1.
         11    1    1    2    0    0 -0.31321832849E+01 -0.38830374510E+02 -0.10982220965E+03  0.11652693375E+03  0.00000000000E+00 0. -1.
</event>
<event>
 7    1  0.8661710E-006  0.8732567E+02  0.7561462E-02  0.1309460E+00
         -1   -1    0    0    0  501 -0.00000000000E+00  0.00000000000E+00  0.26768484187E+02  0.26768484187E+02  0.00000000000E+00 0.  1.
          1   -1    0    0  501    0  0.00000000000E+00 -0.00000000000E+00 -0.57387392252E+03  0.57387392252E+03  0.00000000000E+00 0. -1.
         23    2    1    2    0    0  0.38541428926E+01  0.27891440804E+01 -0.13216863678E+03  0.17563008554E+03  0.11556273039E+03 0.  0.
          5    1    3    3  502    0  0.38129769773E+02 -0.17998737318E+02 -0.12832946022E+03  0.13514346691E+03  0.41800000000E+01 0. -1.
         -5    1    3    3    0  502 -0.34275626880E+02  0.20787881398E+02 -0.38391765587E+01  0.40486618625E+02  0.41800000000E+01 0.  1.
        -11    1    1    2    0    0 -0.84865672893E+01  0.44074471014E+02 -0.20669881251E+03  0.21151590936E+03  0.00000000000E+00 0. -1.
         11    1    1    2    0    0  0.46324243966E+01 -0.46863615095E+02 -0.20823798904E+03  0.21349641181E+03  0.00000000000E+00 0.  1.
</event>
<event>
 7    1  0.8661710E-006  0.9143966E+02  0.7561462E-02  0.1299402E+00
         -2   -1    0    0    0  501 -0.00000000000E+00  0.00000000000E+00  0.73839001690E+02  0.73839001690E+02  0.00000000000E+00 0.  1.
          2   -1    0    0  501    0  0.00000000000E+00 -0.00000000000E+00 -0.33261019698E+03  0.33261019698E+03  0.00000000000E+00 0. -1.
         23    2    1    2    0    0  0.28401687954E+02 -0.21768998893E+02  0.77144371260E+00  0.13046045994E+03  0.12545433947E+03 0.  0.
          5    1    3    3  502    0  0.59805017576E+02  0.58059731723E+01 -0.39696790232E+02  0.72136377830E+02  0.41800000000E+01 0. -1.
         -5    1    3    3    0  502 -0.31403329623E+02 -0.27574972066E+02  0.40468233944E+02  0.58324082114E+02  0.41800000000E+01 0.  1.
        -11    1    1    2    0    0  0.71794510636E+01 -0.22635156186E+02 -0.24354763117E+02  0.34015427376E+02  0.00000000000E+00 0.  1.
         11    1    1    2    0    0 -0.35581139017E+02  0.44404155079E+02 -0.23518787589E+03  0.24197331135E+03  0.00000000000E+00 0. -1.
</event>
<event>
 7    1  0.8661710E-006  0.1196412E+03  0.7561462E-02  0.1243690E+00
          3   -1    0    0  501    0  0.00000000000E+00  0.00000000000E+00  0.20798588299E+03  0.20798588299E+03  0.00000000000E+00 0. -1.
         -3   -1    0    0    0  501 -0.00000000000E+00 -0.00000000000E+00 -0.87312647069E+02  0.87312647069E+02  0.00000000000E+00 0.  1.
         23    2    1    2    0    0 -0.58671871419E+02  0.16351688073E+02  0.21191864480E+02  0.14073280198E+03  0.12508741037E+03 0.  0.
          5    1    3    3  502    0 -0.62987523668E+02 -0.41569435296E+02 -0.72414883252E+01  0.75929952205E+02  0.41800000000E+01 0. -1.
         -5    1    3    3    0  502  0.43156522496E+01  0.57921123370E+02  0.28433352805E+02  0.64802849771E+02  0.41800000000E+01 0. -1.
        -11    1    1    2    0    0  0.25227581441E+01  0.31556229813E+02  0.12327656294E+01  0.31680903708E+02  0.00000000000E+00 0.  1.
         11    1    1    2    0    0  0.56149113275E+02 -0.47907917886E+02  0.98248605813E+02  0.12288482438E+03  0.00000000000E+00 0. -1.
</event>
<event>
 7    1  0.8661710E-006  0.7632766E+02  0.7561462E-02  0.1339808E+00
         -2   -1    0    0    0  501 -0.00000000000E+00  0.00000000000E+00  0.14570796127E+03  0.14570796127E+03  0.00000000000E+00 0.  1.
          2   -1    0    0  501    0  0.00000000000E+00 -0.00000000000E+00 -0.11973763060E+03  0.11973763060E+03  0.00000000000E+00 0. -1.
         23    2    1    2    0    0 -0.59374906620E+01  0.25342713011E+02  0.86269821977E+02  0.15416769353E+03  0.12509072166E+03 0.  0.
          5    1    3    3  502    0 -0.30940794629E+02 -0.23676031367E+02  0.90702267152E+02  0.98804154265E+02  0.41800000000E+01 0.  1.
         -5    1    3    3    0  502  0.25003303967E+02  0.49018744378E+02 -0.44324451748E+01  0.55363539265E+02  0.41800000000E+01 0.  1.
        -11    1    1    2    0    0  0.10763292124E+02 -0.40746342336E+02 -0.77170623109E+02  0.87928481973E+02  0.00000000000E+00 0. -1.
         11    1    1    2    0    0 -0.48258014622E+01  0.15403629325E+02  0.16871131800E+02  0.23349416360E+02  0.00000000000E+00 0.  1.
</event>
<event>
 7    1  0.8661710E-006  0.9287546E+02  0.7561462E-02  0.1296034E+00
          2   -1    0    0  501    0  0.00000000000E+00  0.00000000000E+00  0.17489357706E+03  0.17489357706E+03  0.00000000000E+00 0.  1.
         -2   -1    0    0    0  501 -0.00000000000E+00 -0.00000000000E+00 -0.18860287875E+03  0.18860287875E+03  0.00000000000E+00 0. -1.
         23    2    1    2    0    0  0.41558016197E+02 -0.54385872675E+02 -0.13558707674E+03  0.19676376920E+03  0.12508890292E+03 0.  0.
          5    1    3    3  502    0  0.22645030911E+02 -0.59586363126E+02 -0.15573990843E+03  0.16833218222E+03  0.41800000000E+01 0.  1.
         -5    1    3    3    0  502  0.18912985285E+02  0.52004904511E+01  0.20152831682E+02  0.28431586979E+02  0.41800000000E+01 0.  1.
        -11    1    1    2    0    0 -0.65144552852E+00  0.60456310789E+02  0.33411117301E+02  0.69077439550E+02  0.00000000000E+00 0. -1.
         11    1    1    2    0    0 -0.40906570668E+02 -0.60704381142E+01  0.88466657759E+02  0.97655247057E+02  0.00000000000E+00 0.  1.
</event>
<event>
 7    1  0.8661710E-006  0.1062265E+03  0.7561462E-02  0.1267722E+00
          2   -1    0    0  501    0  0.00000000000E+00  0.00000000000E+00  0.20499080459E+03  0.20499080459E+03  0.00000000000E+00 0. -1.
         -2   -1    0    0    0  501 -0.00000000000E+00 -0.00000000000E+00 -0.84481120579E+02  0.84481120579E+02  0.00000000000E+00 0.  1.
         23    2    1    2    0    0 -0.18137639607E+02 -0.16850025174E+01 -0.13985326694E+02  0.12717776785E+03  0.12508709793E+03 0.  0.
          5    1    3    3  502    0  0.39068971081E+02 -0.38666222911E+02 -0.20054989426E+02  0.58661199241E+02  0.41800000000E+01 0. -1.
         -5    1    3    3    0  502 -0.57206610688E+02  0.36981220394E+02  0.60696627323E+01  0.68516568609E+02  0.41800000000E+01 0. -1.
        -11    1    1    2    0    0  0.39855711050E+02 -0.30545368144E+02  0.91228752051E+02  0.10413540425E+03  0.00000000000E+00 0.  1.
         11    1    1    2    0    0 -0.21718071443E+02  0.32230370662E+02  0.43266258657E+02  0.58158753068E+02  0.00000000000E+00 0. -1.
</event>
<event>
 7    1  0.8661710E-006  0.3446315E+03  0.7561462E-02  0.1064840E+00
          2   -1    0    0  501    0  0.00000000000E+00  0.00000000000E+00  0.86636278319E+03  0.86636278319E+03  0.00000000000E+00 0.  1.
         -2   -1    0    0    0  501 -0.00000000000E+00 -0.00000000000E+00 -0.15276254994E+03  0.15276254994E+03  0.00000000000E+00 0. -1.
         23    2    1    2    0    0 -0.22695889506E+03  0.23857718020E+03  0.20690397992E+03  0.40851844097E+03  0.12509455923E+03 0.  0.
          5    1    3    3  502    0  0.75931722965E+01 -0.73611325201E+01  0.12785787368E+02  0.17111145377E+02  0.41800000000E+01 0.  1.
         -5    1    3    3    0  502 -0.23455206736E+03  0.24593831272E+03  0.19411819255E+03  0.39140729560E+03  0.41800000000E+01 0.  1.
        -11    1    1    2    0    0  0.12451562645E+03 -0.76080959162E+02  0.18113315088E+03  0.23259766105E+03  0.00000000000E+00 0. -1.
         11    1    1    2    0    0  0.10244326862E+03 -0.16249622103E+03  0.32556310245E+03  0.37800923112E+03  0.00000000000E+00 0.  1.
</event>
<event>
 6    1  0.8661710E-006  0.1306258E+03  0.7561462E-02  0.1226530E+00
          1   -1    0    0  501    0  0.00000000000E+00  0.00000000000E+00  0.48778910531E+02  0.48778910531E+02  0.00000000000E+00 0. -1.
         -1   -1    0    0    0  501 -0.00000000000E+00 -0.00000000000E+00 -0.37284020909E+03  0.37284020909E+03  0.00000000000E+00 0.  1.
          5    1    1    2  502    0  0.58275360479E+02 -0.38696969725E+02 -0.73153971141E+02  0.10130374622E+03  0.41800000000E+01 0. -1.
         -5    1    1    2    0  502 -0.87546508483E+02  0.51235088128E+02 -0.15089774725E+03  0.18187091006E+03  0.41800000000E+01 0.  1.
        -11    1    1    2    0    0  0.32915601075E+02  0.31442068157E+02 -0.26404787957E+02  0.52623694959E+02  0.00000000000E+00 0.  1.
         11    1    1    2    0    0 -0.36444530701E+01 -0.43980186561E+02 -0.73604792219E+02  0.85820768382E+02  0.00000000000E+00 0. -1.
</event>
<event>
 7    1  0.8661710E-006  0.1159560E+03  0.7561462E-02  0.1249921E+00
         -1   -1    0    0    0  501 -0.00000000000E+00  0.00000000000E+00  0.33805608018E+03  0.33805608018E+03  0.00000000000E+00 0.  1.
          1   -1    0    0  501    0  0.00000000000E+00 -0.00000000000E+00 -0.51826625146E+02  0.51826625146E+02  0.00000000000E+00 0. -1.
         23    2    1    2    0    0 -0.61095363300E+02 -0.43993962385E+02  0.14837159127E+03  0.20815697943E+03  0.12508831619E+03 0.  0.
          5    1    3    3  502    0 -0.81618862038E+02 -0.63896131195E+02  0.71384533056E+02  0.12592687633E+03  0.41800000000E+01 0. -1.
         -5    1    3    3    0  502  0.20523498738E+02  0.19902168809E+02  0.76987058218E+02  0.82230103106E+02  0.41800000000E+01 0. -1.
        -11    1    1    2    0    0  0.69181753310E+02  0.17193266484E+02  0.13614558709E+03  0.15367935544E+03  0.00000000000E+00 0.  1.
         11    1    1    2    0    0 -0.80863900105E+01  0.26800695901E+02  0.17122766674E+01  0.28046370453E+02  0.00000000000E+00 0. -1.
</event>
<event>
 7    1  0.8661710E-006  0.1296531E+03  0.7561462E-02  0.1227971E+00
         -2   -1    0    0    0  501 -0.00000000000E+00  0.00000000000E+00  0.44865306960E+02  0.44865306960E+02  0.00000000000E+00 0.  1.
          2   -1    0    0  501    0  0.00000000000E+00 -0.00000000000E+00 -0.62621211568E+03  0.62621211568E+03  0.00000000000E+00 0. -1.
         23    2    1    2    0    0 -0.84948335565E+02 -0.22716852177E+02 -0.12795399018E+03  0.19937731403E+03  0.12508722820E+03 0.  0.
          5    1    3    3  502    0  0.21303227145E+02 -0.94557718776E+01 -0.77309821662E+02  0.80854932033E+02  0.41800000000E+01 0.  1.
         -5    1    3    3    0  502 -0.10625156271E+03 -0.13261080300E+02 -0.50644168514E+02  0.11852238199E+03  0.41800000000E+01 0.  1.
        -11    1    1    2    0    0  0.62293606183E+02 -0.31430605484E+02 -0.20823491590E+03  0.21961365288E+03  0.00000000000E+00 0.  1.
         11    1    1    2    0    0  0.22654729382E+02  0.54147457662E+02 -0.24515790265E+03  0.25208645574E+03  0.00000000000E+00 0. -1.
</event>
<event>
 7    1  0.8661710E-006  0.1602833E+03  0.7561462E-02  0.1188377E+00
         -2   -1    0    0    0  501 -0.00000000000E+00  0.00000000000E+00  0.67807745083E+02  0.67807745083E+02  0.00000000000E+00 0. -1.
          2   -1    0    0  501    0  0.00000000000E+00 -0.00000000000E+00 -0.51199491166E+03  0.51199491166E+03  0.00000000000E+00 0.  1.
         23    2    1    2    0    0  0.62558352073E+02 -0.10120054741E+03 -0.89883317527E+02  0.19462886911E+03  0.12508512186E+03 0.  0.
          5    1    3    3  502    0  0.85746934638E+02 -0.20269345517E+02 -0.49738789758E+02  0.10126600009E+03  0.41800000000E+01 0. -1.
         -5    1    3    3    0  502 -0.23188582565E+02 -0.80931201897E+02 -0.40144527769E+02  0.93362869020E+02  0.41800000000E+01 0. -1.
        -11    1    1    2    0    0  0.30885991783E+01  0.78565749636E+02 -0.22596378839E+03  0.23925248196E+03  0.00000000000E+00 0. -1.
         11    1    1    2    0    0 -0.65646951251E+02  0.22634797779E+02 -0.12834006066E+03  0.14592130567E+03  0.00000000000E+00 0.  1.
</event>
<event>
 7    1  0.8661710E-006  0.8537327E+02  0.7561462E-02  0.1314459E+00
          2   -1    0    0  501    0  0.00000000000E+00  0.00000000000E+00  0.22328250003E+03  0.22328250003E+03  0.00000000000E+00 0. -1.
         -2   -1    0    0    0  501 -0.00000000000E+00 -0.00000000000E+00 -0.72283245526E+02  0.72283245526E+02  0.00000000000E+00 0.  1.
         23    2    1    2    0    0  0.25504217486E+02  0.92814085448E+01  0.59742009501E+01  0.12814065816E+03  0.12509087713E+03 0.  0.
          5    1    3    3  502    0 -0.12195445391E+02 -0.36603734950E+02  0.43086740527E+02  0.57987083991E+02  0.41800000000E+01 0.  1.
         -5    1    3    3    0  502  0.37699662878E+02  0.45885143495E+02 -0.37112539577E+02  0.70153574167E+02  0.41800000000E+01 0.  1.
        -11    1    1    2    0    0 -0.13315759740E+02 -0.38504959369E+02  0.12101028408E+03  0.12768488636E+03  0.00000000000E+00 0.  1.
         11    1    1    2    0    0 -0.12188457746E+02  0.29223550824E+02  0.24014769476E+02  0.39740201031E+02  0.00000000000E+00 0. -1.
</event>
<event>
 7    1  0.8661710E-006  0.1107521E+03  0.7561462E-02  0.1259183E+00
         -3   -1    0    0    0  501 -0.00000000000E+00  0.00000000000E+00  0.13306206848E+03  0.13306206848E+03  0.00000000000E+00 0.  1.
          3   -1    0    0  501    0  0.00000000000E+00 -0.00000000000E+00 -0.13943915184E+03  0.13943915184E+03  0.00000000000E+00 0. -1.
         23    2    1    2    0    0 -0.17806042351E+02 -0.74912192325E+02  0.25149827064E+02  0.14903694724E+03  0.12510238262E+03 0.  0.
          5    1    3    3  502    0 -0.69679951151E+02 -0.53557143127E+02  0.29032506015E+02  0.92649997182E+02  0.41800000000E+01 0. -1.
         -5    1    3    3    0  502  0.51873908800E+02 -0.21355049198E+02 -0.38826789515E+01  0.56386950053E+02  0.41800000000E+01 0. -1.
        -11    1    1    2    0    0  0.10766941865E+02  0.31527185694E+02 -0.61722136684E+02  0.70139237462E+02  0.00000000000E+00 0. -1.
         11    1    1    2    0    0  0.70391004862E+01  0.43385006631E+02  0.30195226258E+02  0.53325035628E+02  0.00000000000E+00 0.  1.
</event>
<event>
 7    1  0.8661710E-006  0.1040036E+03  0.7561462E-02  0.1272095E+00
          2   -1    0    0  501    0  0.00000000000E+00  0.00000000000E+00  0.31215712349E+02  0.31215712349E+02  0.00000000000E+00 0.  1.
         -2   -1    0    0    0  501 -0.00000000000E+00 -0.00000000000E+00 -0.50949614279E+03  0.50949614279E+03  0.00000000000E+00 0. -1.
         23    2    1    2    0    0 -0.27211401991E+02  0.53689392686E+02 -0.31223150206E+03  0.34169977248E+03  0.12508881784E+03 0.  0.
          5    1    3    3  502    0  0.13805233340E+02  0.55624681516E+02 -0.49795373475E+02  0.76037762203E+02  0.41800000000E+01 0. -1.
         -5    1    3    3    0  502 -0.41016635331E+02 -0.19352888297E+01 -0.26243612859E+03  0.26566201028E+03  0.41800000000E+01 0. -1.
        -11    1    1    2    0    0 -0.20577367314E+02  0.15089413075E+02 -0.31669970213E+02  0.40670695173E+02  0.00000000000E+00 0.  1.
         11    1    1    2    0    0  0.47788769305E+02 -0.68778805762E+02 -0.13437895817E+03  0.15834138749E+03  0.00000000000E+00 0. -1.
</event>
<event>
 7    1  0.8661710E-006  0.1295254E+03  0.7561462E-02  0.1228162E+00
          1   -1    0    0  501    0  0.00000000000E+00  0.00000000000E+00  0.24223733459E+02  0.24223733459E+02  0.00000000000E+00 0. -1.
         -1   -1    0    0    0  501 -0.00000000000E+00 -0.00000000000E+00 -0.14825702741E+04  0.14825702741E+04  0.00000000000E+00 0.  1.
         23    2    1    2    0    0 -0.10835925159E+03  0.40947061080E+02 -0.11512647468E+04  0.11638199690E+04  0.12509202187E+03 0.  0.
          5    1    3    3  502    0 -0.13240872896E+02 -0.44279777950E+01 -0.70912221027E+03  0.70927195715E+03  0.41800000000E+01 0.  1.
         -5    1    3    3    0  502 -0.95118378695E+02  0.45375038875E+02 -0.44214253651E+03  0.45454801189E+03  0.41800000000E+01 0.  1.
        -11    1    1    2    0    0  0.51862249858E+02  0.20289082136E+02 -0.58356052520E+02  0.80664544131E+02  0.00000000000E+00 0. -1.
         11    1    1    2    0    0  0.56497001733E+02 -0.61236143216E+02 -0.24872574131E+03  0.26230949436E+03  0.00000000000E+00 0.  1.
</event>
<event>
 7    1  0.8661710E-006  0.1040864E+03  0.7561462E-02  0.1271930E+00
          3   -1    0    0  501    0  0.00000000000E+00  0.00000000000E+00  0.64735602594E+02  0.64735602594E+02  0.00000000000E+00 0. -1.
         -3   -1    0    0    0  501 -0.00000000000E+00 -0.00000000000E+00 -0.25384729822E+03  0.25384729822E+03  0.00000000000E+00 0.  1.
         23    2    1    2    0    0  0.20778116528E+02 -0.19997745275E+02 -0.18599852326E+03  0.22599727735E+03  0.12509068219E+03 0.  0.
          5    1    3    3  502    0 -0.30765255687E+01 -0.66725380251E+02 -0.61752100138E+02  0.91063360637E+02  0.41800000000E+01 0. -1.
         -5    1    3    3    0  502  0.23854642096E+02  0.46727634975E+02 -0.12424642312E+03  0.13493391671E+03  0.41800000000E+01 0. -1.
        -11    1    1    2    0    0  0.28210813141E+01  0.50203965673E+02 -0.14965758352E+02  0.52463040248E+02  0.00000000000E+00 0.  1.
         11    1    1    2    0    0 -0.23599197842E+02 -0.30206220397E+02  0.11852585987E+02  0.40122583218E+02  0.00000000000E+00 0. -1.
</event>
<event>
 7    1  0.8661710E-006  0.6740966E+02  0.7561462E-02  0.1369130E+00
         -1   -1    0    0    0  501 -0.00000000000E+00  0.00000000000E+00  0.24133378544E+03  0.24133378544E+03  0.00000000000E+00 0.  1.
          1   -1    0    0  501    0  0.00000000000E+00 -0.00000000000E+00 -0.51886394389E+02  0.51886394389E+02  0.00000000000E+00 0. -1.
         23    2    1    2    0    0 -0.81226167014E+01  0.18297654718E+02  0.13747076084E+03  0.18694035113E+03  0.12509078194E+03 0.  0.
          5    1    3    3  502    0 -0.86721271387E+01  0.29069721142E+02 -0.14953098801E+02  0.34078175423E+02  0.41800000000E+01 0. -1.
         -5    1    3    3    0  502  0.54951043729E+00 -0.10772066425E+02  0.15242385964E+03  0.15286217571E+03  0.41800000000E+01 0. -1.
        -11    1    1    2    0    0  0.43273623144E+02 -0.33107407395E+02  0.32650633273E+02  0.63519845226E+02  0.00000000000E+00 0.  1.
         11    1    1    2    0    0 -0.35151006443E+02  0.14809752677E+02  0.19325996938E+02  0.42759983465E+02  0.00000000000E+00 0. -1.
</event>
<event>
 7    1  0.8661710E-006  0.8246323E+02  0.7561462E-02  0.1322203E+00
         -2   -1    0    0    0  501 -0.00000000000E+00  0.00000000000E+00  0.28017566125E+02  0.28017566125E+02  0.00000000000E+00 0.  1.
          2   -1    0    0  501    0  0.00000000000E+00 -0.00000000000E+00 -0.60383342737E+03  0.60383342737E+03  0.00000000000E+00 0. -1.
         23    2    1    2    0    0  0.55392070292E+02  0.42598909159E+02 -0.27997072714E+03  0.31451008657E+03  0.12510011185E+03 0.  0.
          5    1    3    3  502    0 -0.20843993557E+01 -0.13705981712E+02 -0.20157701563E+03  0.20209642324E+03  0.41800000000E+01 0.  1.
         -5    1    3    3    0  502  0.57476469648E+02  0.56304890872E+02 -0.78393711513E+02  0.11241366333E+03  0.41800000000E+01 0.  1.
        -11    1    1    2    0    0 -0.47154834444E+02 -0.36276125458E+02 -0.30023074187E+03  0.30606867539E+03  0.00000000000E+00 0. -1.
         11    1    1    2    0    0 -0.82372358487E+01 -0.63227837016E+01  0.43856077725E+01  0.11272231531E+02  0.00000000000E+00 0.  1.
</event>
<event>
 7    1  0.8661710E-006  0.1701304E+03  0.7561462E-02  0.1177712E+00
          2   -1    0    0  501    0  0.00000000000E+00  0.00000000000E+00  0.15252599726E+03  0.15252599726E+03  0.00000000000E+00 0. -1.
         -2   -1    0    0    0  501 -0.00000000000E+00 -0.00000000000E+00 -0.25101552970E+03  0.25101552970E+03  0.00000000000E+00 0.  1.
         23    2    1    2    0    0  0.13652219703E+03 -0.17616219704E+02 -0.14105936045E+03  0.23343770794E+03  0.12508708501E+03 0.  0.
          5    1    3    3  502    0  0.97541204026E+02  0.48590412549E+02 -0.83052483241E+02  0.13707845216E+03  0.41800000000E+01 0. -1.
         -5    1    3    3    0  502  0.38980993008E+02 -0.66206632253E+02 -0.58006877209E+02  0.96359255776E+02  0.41800000000E+01 0. -1.
        -11    1    1    2    0    0 -0.27984285327E+02  0.34497215168E+02 -0.13967520768E+02  0.46564683141E+02  0.00000000000E+00 0.  1.
         11    1    1    2    0    0 -0.10853791171E+03 -0.16880995463E+02  0.56537348779E+02  0.12353913587E+03  0.00000000000E+00 0. -1.
</event>
<event>
 7    1  0.8661710E-006  0.1469498E+03  0.7561462E-02  0.1204272E+00
          4   -1    0    0  501    0  0.00000000000E+00  0.00000000000E+00  0.58756622647E+02  0.58756622647E+02  0.00000000000E+00 0.  1.
         -4   -1    0    0    0  501 -0.00000000000E+00 -0.00000000000E+00 -0.38718464462E+03  0.38718464462E+03  0.00000000000E+00 0. -1.
         23    2    1    2    0    0 -0.61946827736E+02  0.78882276210E+02 -0.22177273272E+03  0.27366110594E+03  0.12508969965E+03 0.  0.
          5    1    3    3  502    0 -0.71602461998E+02  0.10743288544E+03 -0.18915726684E+03  0.22905606614E+03  0.41800000000E+01 0. -1.
         -5    1    3    3    0  502  0.96556342621E+01 -0.28550609232E+02 -0.32615465881E+02  0.44605039796E+02  0.41800000000E+01 0. -1.
        -11    1    1    2    0    0  0.85261208068E+02 -0.64413153200E+02 -0.75938116307E+02  0.13109204940E+03  0.00000000000E+00 0.  1.
         11    1    1    2    0    0 -0.23314380332E+02 -0.14469123010E+02 -0.30717172947E+02  0.41188111935E+02  0.00000000000E+00 0. -1.
</event>
<event>
 7    1  0.8661710E-006  0.9256422E+02  0.7561462E-02  0.1296758E+00
          2   -1    0    0  501    0  0.00000000000E+00  0.00000000000E+00  0.10172213316E+03  0.10172213316E+03  0.00000000000E+00 0. -1.
         -2   -1    0    0    0  501 -0.00000000000E+00 -0.00000000000E+00 -0.16873577610E+03  0.16873577610E+03  0.00000000000E+00 0.  1.
         23    2    1    2    0    0  0.60500383911E+02 -0.37826747199E+02 -0.40565527976E+02  0.14961501573E+03  0.12509169283E+03 0.  0.
          5    1    3    3  502    0  0.44844109203E+02  0.90125389657E+01  0.36033848884E+02  0.58379197102E+02  0.41800000000E+01 0.  1.
         -5    1    3    3    0  502  0.15656274708E+02 -0.46839286165E+02 -0.76599376860E+02  0.91235818632E+02  0.41800000000E+01 0.  1.
        -11    1    1    2    0    0 -0.12991055979E+02  0.40018190881E+02 -0.51971228498E+02  0.66867269485E+02  0.00000000000E+00 0.  1.
         11    1    1    2    0    0 -0.47509327932E+02 -0.21914436817E+01  0.25523113531E+02  0.53975624038E+02  0.00000000000E+00 0. -1.
</event>
<event>
 6    1  0.8661710E-006  0.1571779E+03  0.7561462E-02  0.1191920E+00
          2   -1    0    0  501    0  0.00000000000E+00  0.00000000000E+00  0.87586661830E+02  0.87586661830E+02  0.00000000000E+00 0. -1.
         -2   -1    0    0    0  501 -0.00000000000E+00 -0.00000000000E+00 -0.54825735181E+03  0.54825735181E+03  0.00000000000E+00 0.  1.
          5    1    1    2  502    0 -0.26597162454E+02  0.42618720528E+02 -0.54672453934E+00  0.50413645948E+02  0.41800000000E+01 0. -1.
         -5    1    1    2    0  502  0.77241544057E+02  0.79211463552E+02 -0.40218062570E+03  0.41714199043E+03  0.41800000000E+01 0.  1.
        -11    1    1    2    0    0 -0.62303095646E+01 -0.10584071540E+03 -0.20386776198E+02  0.10796617266E+03  0.00000000000E+00 0. -1.
         11    1    1    2    0    0 -0.44414072039E+02 -0.15989468676E+02 -0.37556563535E+02  0.60322204603E+02  0.00000000000E+00 0.  1.
</event>
<event>
 7    1  0.8661710E-006  0.1783241E+03  0.7561462E-02  0.1169435E+00
         -1   -1    0    0    0  501 -0.00000000000E+00  0.00000000000E+00  0.12165974029E+03  0.12165974029E+03  0.00000000000E+00 0.  1.
          1   -1    0    0  501    0  0.00000000000E+00 -0.00000000000E+00 -0.38537609420E+03  0.38537609420E+03  0.00000000000E+00 0. -1.
         23    2    1    2    0    0 -0.12810631630E+02 -0.56170014834E+02 -0.89010335293E+01  0.13800124950E+03  0.12508370644E+03 0.  0.
          5    1    3    3  502    0 -0.25099418136E+02 -0.92247524536E+02 -0.20659373813E+02  0.97897235406E+02  0.41800000000E+01 0. -1.
         -5    1    3    3    0  502  0.12288786505E+02  0.36077509703E+02  0.11758340284E+02  0.40104014093E+02  0.41800000000E+01 0. -1.
        -11    1    1    2    0    0 -0.91262496528E+02  0.73409221446E+02 -0.30311750068E+02  0.12098164843E+03  0.00000000000E+00 0.  1.
         11    1    1    2    0    0  0.10407312816E+03 -0.17239206612E+02 -0.22450357032E+03  0.24805293656E+03  0.00000000000E+00 0. -1.
</event>
<event>
 7    1  0.8661710E-006  0.1203256E+03  0.7561462E-02  0.1242561E+00
         -1   -1    0    0    0  501 -0.00000000000E+00  0.00000000000E+00  0.14170163755E+03  0.14170163755E+03  0.00000000000E+00 0.  1.
          1   -1    0    0  501    0  0.00000000000E+00 -0.00000000000E+00 -0.13237603741E+03  0.13237603741E+03  0.00000000000E+00 0. -1.
         23    2    1    2    0    0  0.66724065226E+02 -0.30616843129E+02  0.43166409793E+02  0.15132763314E+03  0.12508885503E+03 0.  0.
          5    1    3    3  502    0 -0.13380287811E+02  0.37356171136E+02  0.11754639415E+02  0.41595186881E+02  0.41800000000E+01 0. -1.
         -5    1    3    3    0  502  0.80104353038E+02 -0.67973014265E+02  0.31411770377E+02  0.10973244626E+03  0.41800000000E+01 0. -1.
        -11    1    1    2    0    0 -0.35761823993E+02 -0.16377652703E+02  0.20641531467E+02  0.44420810266E+02  0.00000000000E+00 0.  1.
         11    1    1    2    0    0 -0.30962241234E+02  0.46994495832E+02 -0.54482341125E+02  0.78329231549E+02  0.00000000000E+00 0. -1.
</event>
<event>
 7    1  0.8661710E-006  0.1154413E+03  0.7561462E-02  0.1250813E+00
          1   -1    0    0  501    0  0.00000000000E+00  0.00000000000E+00  0.36289839847E+03  0.36289839847E+03  0.00000000000E+00 0. -1.
         -1   -1    0    0    0  501 -0.00000000000E+00 -0.00000000000E+00 -0.58129648071E+02  0.58129648071E+02  0.00000000000E+00 0.  1.
         23    2    1    2    0    0 -0.64911548179E+02 -0.46329974675E+02  0.87512369266E+02  0.17223915236E+03  0.12509170712E+03 0.  0.
          5    1    3    3  502    0  0.53224432643E+01 -0.39433305999E+02 -0.19085815042E+02  0.44328938180E+02  0.41800000000E+01 0.  1.
         -5    1    3    3    0  502 -0.70233991443E+02 -0.68966686756E+01  0.10659818431E+03  0.12791021418E+03  0.41800000000E+01 0.  1.
        -11    1    1    2    0    0 -0.21974507802E+02  0.19125636953E+02  0.39595791229E+02  0.49157864732E+02  0.00000000000E+00 0.  1.
         11    1    1    2    0    0  0.86886055981E+02  0.27204337722E+02  0.17766058990E+03  0.19963102945E+03  0.00000000000E+00 0. -1.
</event>
<event>
 7    1  0.8661710E-006  0.1891897E+03  0.7561462E-02  0.1159194E+00
         -2   -1    0    0    0  501 -0.00000000000E+00  0.00000000000E+00  0.36001308482E+02  0.36001308482E+02  0.00000000000E+00 0.  1.
          2   -1    0    0  501    0  0.00000000000E+00 -0.00000000000E+00 -0.11413167761E+04  0.11413167761E+04  0.00000000000E+00 0. -1.
         23    2    1    2    0    0  0.93172104757E+02 -0.14231310031E+03 -0.55752158131E+03  0.59616461287E+03  0.12509145611E+03 0.  0.
          5    1    3    3  502    0 -0.28953203436E+02 -0.20814443957E+02 -0.13887223693E+03  0.14343813878E+03  0.41800000000E+01 0. -1.
         -5    1    3    3    0  502  0.12212530819E+03 -0.12149865636E+03 -0.41864934437E+03  0.45272647409E+03  0.41800000000E+01 0. -1.
        -11    1    1    2    0    0 -0.56062827478E+02  0.89540745680E+02 -0.18824714747E+03  0.21586471294E+03  0.00000000000E+00 0.  1.
         11    1    1    2    0    0 -0.37109277279E+02  0.52772354633E+02 -0.35954673882E+03  0.36528875875E+03  0.00000000000E+00 0. -1.
</event>
<event>
 7    1  0.8661710E-006  0.1409301E+03  0.7561462E-02  0.1212083E+00
         -3   -1    0    0    0  501 -0.00000000000E+00  0.00000000000E+00  0.12692216331E+03  0.12692216331E+03  0.00000000000E+00 0.  1.
          3   -1    0    0  501    0  0.00000000000E+00 -0.00000000000E+00 -0.16524461515E+03  0.16524461515E+03  0.00000000000E+00 0. -1.
         23    2    1    2    0    0 -0.12329877366E+02  0.93977954264E+02 -0.31836404086E+02  0.16014513481E+03  0.12509606634E+03 0.  0.
          5    1    3    3  502    0 -0.53570719735E+02  0.61696198184E+01  0.89571628003E+01  0.54823255897E+02  0.41800000000E+01 0. -1.
         -5    1    3    3    0  502  0.41240842370E+02  0.87808334446E+02 -0.40793566887E+02  0.10532187891E+03  0.41800000000E+01 0. -1.
        -11    1    1    2    0    0 -0.38587100768E+02 -0.51570560347E+02  0.56474721375E+01  0.64655865795E+02  0.00000000000E+00 0. -1.
         11    1    1    2    0    0  0.50916978134E+02 -0.42407393917E+02 -0.12133519898E+02  0.67365777857E+02  0.00000000000E+00 0.  1.
</event>
<event>
 7    1  0.8661710E-006  0.1044437E+03  0.7561462E-02  0.1271220E+00
         -2   -1    0    0    0  501 -0.00000000000E+00  0.00000000000E+00  0.26686482860E+02  0.26686482860E+02  0.00000000000E+00 0.  1.
          2   -1    0    0  501    0  0.00000000000E+00 -0.00000000000E+00 -0.59945845066E+03  0.59945845066E+03  0.00000000000E+00 0. -1.
         23    2    1    2    0    0  0.63083708510E+02 -0.36250643920E+01 -0.27536162439E+03  0.30897340878E+03  0.12509135772E+03 0.  0.
          5    1    3    3  502    0 -0.17643898401E+02 -0.44509259288E+02 -0.74889885136E+02  0.88985103297E+02  0.41800000000E+01 0. -1.
         -5    1    3    3    0  502  0.80727606911E+02  0.40884194896E+02 -0.20047173925E+03  0.21998830548E+03  0.41800000000E+01 0. -1.
        -11    1    1    2    0    0 -0.59081122172E+02 -0.64178626093E+01 -0.30018408756E+03  0.30601021941E+03  0.00000000000E+00 0. -1.
         11    1    1    2    0    0 -0.40025863388E+01  0.10042927001E+02  0.27737441472E+01  0.11161305333E+02  0.00000000000E+00 0.  1.
</event>
<event>
 7    1  0.8661710E-006  0.1151614E+03  0.7561462E-02  0.1251300E+00
          1   -1    0    0  501    0  0.00000000000E+00  0.00000000000E+00  0.43961798024E+03  0.43961798024E+03  0.00000000000E+00 0. -1.
         -1   -1    0    0    0  501 -0.00000000000E+00 -0.00000000000E+00 -0.39157572185E+02  0.39157572185E+02  0.00000000000E+00 0.  1.
         23    2    1    2    0    0  0.28022947679E+02 -0.42700806142E+02  0.12378082288E+03  0.18325236759E+03  0.12510433115E+03 0.  0.
          5    1    3    3  502    0  0.50034189369E+02  0.24689036105E+02  0.86572231780E+02  0.10307857355E+03  0.41800000000E+01 0.  1.
         -5    1    3    3    0  502 -0.22011241690E+02 -0.67389842246E+02  0.37208591099E+02  0.80173794037E+02  0.41800000000E+01 0.  1.
        -11    1    1    2    0    0 -0.45509819473E+01 -0.28254651304E+02  0.89929864240E+02  0.94373816492E+02  0.00000000000E+00 0. -1.
         11    1    1    2    0    0 -0.23471965732E+02  0.70955457446E+02  0.18674972093E+03  0.20114936835E+03  0.00000000000E+00 0.  1.
</event>
<event>
 7    1  0.8661710E-006  0.1044503E+03  0.7561462E-02  0.1271206E+00
          1   -1    0    0  501    0  0.00000000000E+00  0.00000000000E+00  0.90040176887E+02  0.90040176887E+02  0.00000000000E+00 0. -1.
         -1   -1    0    0    0  501 -0.00000000000E+00 -0.00000000000E+00 -0.17065177357E+03  0.17065177357E+03  0.00000000000E+00 0.  1.
         23    2    1    2    0    0  0.67146764341E+01 -0.37365568880E+02 -0.94701068626E+02  0.16142053652E+03  0.12508806735E+03 0.  0.
          5    1    3    3  502    0  0.54881049245E+02 -0.38452694307E+02 -0.90767063245E+02  0.11290115781E+03  0.41800000000E+01 0. -1.
         -5    1    3    3    0  502 -0.48166372811E+02  0.10871254269E+01 -0.39340053804E+01  0.48519378704E+02  0.41800000000E+01 0. -1.
        -11    1    1    2    0    0 -0.13030551930E+01  0.65114537233E+02 -0.47453579021E+01  0.65300224606E+02  0.00000000000E+00 0.  1.
         11    1    1    2    0    0 -0.54116212412E+01 -0.27748968353E+02  0.18834829847E+02  0.33971189330E+02  0.00000000000E+00 0. -1.
</event>
<event>
 7    1  0.8661710E-006  0.1932766E+03  0.7561462E-02  0.1155539E+00
         -3   -1    0    0    0  501 -0.00000000000E+00  0.00000000000E+00  0.11657029306E+03  0.11657029306E+03  0.00000000000E+00 0.  1.
          3   -1    0    0  501    0  0.00000000000E+00 -0.00000000000E+00 -0.42345501701E+03  0.42345501701E+03  0.00000000000E+00 0. -1.
         23    2    1    2    0    0 -0.13712018709E+03  0.12452061320E+03 -0.89583551432E+02  0.24079003710E+03  0.12508917002E+03 0.  0.
          5    1    3    3  502    0 -0.74034338147E+02  0.11352241184E+03 -0.64218353820E+01  0.13574657853E+03  0.41800000000E+01 0.  1.
         -5    1    3    3    0  502 -0.63085848943E+02  0.10998201366E+02 -0.83161716050E+02  0.10504345856E+03  0.41800000000E+01 0.  1.
        -11    1    1    2    0    0  0.25384784983E+02 -0.36914709903E+02 -0.67829700381E+01  0.45311056028E+02  0.00000000000E+00 0.  1.
         11    1    1    2    0    0  0.11173540211E+03 -0.87605903300E+02 -0.21051820248E+03  0.25392421695E+03  0.00000000000E+00 0. -1.
</event>
<event>
 7    1  0.8661710E-006  0.1195498E+03  0.7561462E-02  0.1243842E+00
         -2   -1    0    0    0  501 -0.00000000000E+00  0.00000000000E+00  0.41901252960E+02  0.41901252960E+02  0.00000000000E+00 0. -1.
          2   -1    0    0  501    0  0.00000000000E+00 -0.00000000000E+00 -0.38504016871E+03  0.38504016871E+03  0.00000000000E+00 0.  1.
         23    2    1    2    0    0  0.55553017910E+01  0.63965655625E+02 -0.22149552981E+03  0.26235471316E+03  0.12508900556E+03 0.  0.
          5    1    3    3  502    0 -0.50903491659E+02 -0.44942172401E+01 -0.70648605423E+02  0.87292962488E+02  0.41800000000E+01 0. -1.
         -5    1    3    3    0  502  0.56458793450E+02  0.68459872865E+02 -0.15084692439E+03  0.17506175067E+03  0.41800000000E+01 0. -1.
        -11    1    1    2    0    0 -0.71474296045E+01 -0.81285208901E+02 -0.62061838920E+02  0.10251849973E+03  0.00000000000E+00 0. -1.
         11    1    1    2    0    0  0.15921278136E+01  0.17319553275E+02 -0.59581547014E+02  0.62068208781E+02  0.00000000000E+00 0.  1.
</event>
<event>
 7    1  0.8661710E-006  0.1733576E+03  0.7561462E-02  0.1174391E+00
         -2   -1    0    0    0  501 -0.00000000000E+00  0.00000000000E+00  0.11920685733E+03  0.11920685733E+03  0.00000000000E+00 0.  1.
          2   -1    0    0  501    0  0.00000000000E+00 -0.00000000000E+00 -0.37284832876E+03  0.37284832876E+03  0.00000000000E+00 0. -1.
         23    2    1    2    0    0  0.16191204344E+03 -0.29189041388E+02 -0.45617028679E+02  0.21165705186E+03  0.12510109650E+03 0.  0.
          5    1    3    3  502    0  0.92896054964E+02  0.81463136461E+01 -0.82752147301E+02  0.12474545978E+03  0.41800000000E+01 0.  1.
         -5    1    3    3    0  502  0.69015988481E+02 -0.37335355035E+02  0.37135118623E+02  0.86911592073E+02  0.41800000000E+01 0.  1.
        -11    1    1    2    0    0 -0.13783563758E+03  0.11600932493E+01 -0.11231937424E+03  0.17780790374E+03  0.00000000000E+00 0.  1.
         11    1    1    2    0    0 -0.24076405870E+02  0.28028948139E+02 -0.95705068512E+02  0.10259023049E+03  0.00000000000E+00 0. -1.
</event>
<event>
 7    1  0.8661710E-006  0.8952652E+02  0.7561462E-02  0.1304002E+00
          1   -1    0    0  501    0  0.00000000000E+00  0.00000000000E+00  0.81110458355E+02  0.81110458355E+02  0.00000000000E+00 0. -1.
         -1   -1    0    0    0  501 -0.00000000000E+00 -0.00000000000E+00 -0.21832937640E+03  0.21832937640E+03  0.00000000000E+00 0.  1.
         23    2    1    2    0    0 -0.24039042971E+02  0.76914774101E+02 -0.69814795384E+02  0.15980088555E+03  0.11903133750E+03 0.  0.
          5    1    3    3  502    0 -0.66373384072E+01  0.74054217157E+02 -0.99946249314E+02  0.12463870383E+03  0.41800000000E+01 0. -1.
         -5    1    3    3    0  502 -0.17401704564E+02  0.28605569436E+01  0.30131453930E+02  0.35162181725E+02  0.41800000000E+01 0.  1.
        -11    1    1    2    0    0 -0.20828161881E+01 -0.45745245820E+02 -0.84034912283E+02  0.95701787448E+02  0.00000000000E+00 0.  1.
         11    1    1    2    0    0  0.26121859159E+02 -0.31169528280E+02  0.16630789625E+02  0.43937161751E+02  0.00000000000E+00 0. -1.
</event>
<event>
 7    1  0.8661710E-006  0.8997499E+02  0.7561462E-02  0.1302912E+00
         -2   -1    0    0    0  501 -0.00000000000E+00  0.00000000000E+00  0.67652929157E+02  0.67652929157E+02  0.00000000000E+00 0.  1.
          2   -1    0    0  501    0  0.00000000000E+00 -0.00000000000E+00 -0.21702476524E+03  0.21702476524E+03  0.00000000000E+00 0. -1.
         23    2    1    2    0    0 -0.22714551125E+02  0.38825216535E+02 -0.45356546758E+02  0.14052378984E+03  0.12516537422E+03 0.  0.
          5    1    3    3  502    0  0.28271784303E+02 -0.13548721094E+02 -0.58156483142E+02  0.66200532946E+02  0.41800000000E+01 0.  1.
         -5    1    3    3    0  502 -0.50986335428E+02  0.52373937628E+02  0.12799936384E+02  0.74323256889E+02  0.41800000000E+01 0.  1.
        -11    1    1    2    0    0  0.43499380393E+02 -0.26945196204E+02 -0.10834953983E+03  0.11982429835E+03  0.00000000000E+00 0. -1.
         11    1    1    2    0    0 -0.20784829268E+02 -0.11880020331E+02  0.43342505117E+01  0.24329606209E+02  0.00000000000E+00 0.  1.
</event>
<event>
 7    1  0.8661710E-006  0.1393493E+03  0.7561462E-02  0.1214207E+00
          2   -1    0    0  501    0  0.00000000000E+00  0.00000000000E+00  0.56202610136E+03  0.56202610136E+03  0.00000000000E+00 0. -1.
         -2   -1    0    0    0  501 -0.00000000000E+00 -0.00000000000E+00 -0.43720549344E+02  0.43720549344E+02  0.00000000000E+00 0.  1.
         23    2    1    2    0    0 -0.92182155420E+02  0.63890217688E+02  0.27472632953E+03  0.32202768339E+03  0.12509101901E+03 0.  0.
          5    1    3    3  502    0 -0.58640033720E+02 -0.45860901923E+01  0.31002947655E+02  0.66620874666E+02  0.41800000000E+01 0. -1.
         -5    1    3    3    0  502 -0.33542121700E+02  0.68476307880E+02  0.24372338188E+03  0.25540680873E+03  0.41800000000E+01 0. -1.
        -11    1    1    2    0    0  0.10846490820E+03 -0.42523358207E+02  0.17674316547E+03  0.21168613286E+03  0.00000000000E+00 0.  1.
         11    1    1    2    0    0 -0.16282752784E+02 -0.21366859481E+02  0.66836057008E+02  0.72032834448E+02  0.00000000000E+00 0. -1.
</event>
<event>
 7    1  0.8661710E-006  0.9788130E+02  0.7561462E-02  0.1284815E+00
         -3   -1    0    0    0  501 -0.00000000000E+00  0.00000000000E+00  0.31249836236E+03  0.31249836236E+03  0.00000000000E+00 0.  1.
          3   -1    0    0  501    0  0.00000000000E+00 -0.00000000000E+00 -0.45850989214E+02  0.45850989214E+02  0.00000000000E+00 0. -1.
         23    2    1    2    0    0  0.14212612670E+02 -0.48017787394E+02  0.16658565105E+03  0.21425666520E+03  0.12508970055E+03 0.  0.
          5    1    3    3  502    0  0.47043122779E+02 -0.29467923334E+02  0.16729168961E+03  0.17631050939E+03  0.41800000000E+01 0.  1.
         -5    1    3    3    0  502 -0.32830510109E+02 -0.18549864060E+02 -0.70603856570E+00  0.37946155815E+02  0.41800000000E+01 0.  1.
        -11    1    1    2    0    0  0.37798614435E+02  0.15757076666E+02  0.28314405356E+02  0.49786808182E+02  0.00000000000E+00 0.  1.
         11    1    1    2    0    0 -0.52011227105E+02  0.32260710728E+02  0.71747316745E+02  0.94305878193E+02  0.00000000000E+00 0. -1.
</event>
<event>
 7    1  0.8661710E-006  0.5867343E+02  0.7561462E-02  0.1403485E+00
         -1   -1    0    0    0  501 -0.00000000000E+00  0.00000000000E+00  0.23312698719E+03  0.23312698719E+03  0.00000000000E+00 0.  1.
          1   -1    0    0  501    0  0.00000000000E+00 -0.00000000000E+00 -0.45546829653E+02  0.45546829653E+02  0.00000000000E+00 0. -1.
         23    2    1    2    0    0  0.36772151741E+01 -0.29073183348E+02  0.14595266019E+03  0.19444800383E+03  0.12509626403E+03 0.  0.
          5    1    3    3  502    0 -0.68511617790E+01 -0.52532935558E+02  0.15729861097E+03  0.16603304836E+03  0.41800000000E+01 0. -1.
         -5    1    3    3    0  502  0.10528376953E+02  0.23459752210E+02 -0.11345950780E+02  0.28414955466E+02  0.41800000000E+01 0. -1.
        -11    1    1    2    0    0  0.99524698548E+01  0.18096682338E+02  0.57191264855E+02  0.60806104493E+02  0.00000000000E+00 0.  1.
         11    1    1    2    0    0 -0.13629685029E+02  0.10976501009E+02 -0.15563767505E+02  0.23419708524E+02  0.00000000000E+00 0. -1.
</event>
<event>
 7    1  0.8661710E-006  0.9887951E+02  0.7561462E-02  0.1282670E+00
         -4   -1    0    0    0  501 -0.00000000000E+00  0.00000000000E+00  0.70313813488E+02  0.70313813488E+02  0.00000000000E+00 0.  1.
          4   -1    0    0  501    0  0.00000000000E+00 -0.00000000000E+00 -0.17086409766E+03  0.17086409766E+03  0.00000000000E+00 0. -1.
         23    2    1    2    0    0  0.77635766993E+01 -0.30217703926E+02 -0.49059838279E+02  0.13227183208E+03  0.11880903617E+03 0.  0.
          5    1    3    3  502    0 -0.11390925294E+02  0.35405540169E+02  0.13226745775E+02  0.39695398442E+02  0.41800000000E+01 0. -1.
         -5    1    3    3    0  502  0.19154501993E+02 -0.65623244095E+02 -0.62286584054E+02  0.92576433639E+02  0.41800000000E+01 0.  1.
        -11    1    1    2    0    0  0.24234367887E+02  0.49052928690E+02 -0.45780430007E+02  0.71339625536E+02  0.00000000000E+00 0. -1.
         11    1    1    2    0    0 -0.31997944586E+02 -0.18835224764E+02 -0.57100158883E+01  0.37566453534E+02  0.00000000000E+00 0.  1.
</event>
<event>
 7    1  0.8661710E-006  0.1098048E+03  0.7561462E-02  0.1260932E+00
         -1   -1    0    0    0  501 -0.00000000000E+00  0.00000000000E+00  0.10021486318E+03  0.10021486318E+03  0.00000000000E+00 0.  1.
          1   -1    0    0  501    0  0.00000000000E+00 -0.00000000000E+00 -0.20026363118E+03  0.20026363118E+03  0.00000000000E+00 0. -1.
         23    2    1    2    0    0 -0.23883631235E+02  0.75341982398E+02 -0.69732088819E+01  0.14816363943E+03  0.12512791956E+03 0.  0.
          5    1    3    3  502    0  0.20253694747E+02  0.29683614384E+01 -0.49136785885E+02  0.53394001982E+02  0.41800000000E+01 0. -1.
         -5    1    3    3    0  502 -0.44137325982E+02  0.72373620960E+02  0.42163577003E+02  0.94769637444E+02  0.41800000000E+01 0. -1.
        -11    1    1    2    0    0 -0.29755810027E+02 -0.38987247207E+02 -0.65660284603E+02  0.81955394266E+02  0.00000000000E+00 0. -1.
         11    1    1    2    0    0  0.53639441262E+02 -0.36354735191E+02 -0.27415274510E+02  0.70359460673E+02  0.00000000000E+00 0.  1.
</event>
<event>
 7    1  0.8661710E-006  0.1033842E+03  0.7561462E-02  0.1273336E+00
          2   -1    0    0  501    0  0.00000000000E+00  0.00000000000E+00  0.31786241386E+03  0.31786241386E+03  0.00000000000E+00 0.  1.
         -2   -1    0    0    0  501 -0.00000000000E+00 -0.00000000000E+00 -0.80481446235E+02  0.80481446235E+02  0.00000000000E+00 0. -1.
         23    2    1    2    0    0  0.57363214720E+02 -0.79656893019E+02  0.50312825855E+02  0.16677358097E+03  0.12508512244E+03 0.  0.
          5    1    3    3  502    0  0.30659728225E+02 -0.19426131162E+02 -0.40471504263E+02  0.54523468012E+02  0.41800000000E+01 0. -1.
         -5    1    3    3    0  502  0.26703486495E+02 -0.60230761857E+02  0.90784330118E+02  0.11225011296E+03  0.41800000000E+01 0. -1.
        -11    1    1    2    0    0 -0.45330044595E+02  0.33100854463E+02  0.23100170390E+02  0.60696765822E+02  0.00000000000E+00 0.  1.
         11    1    1    2    0    0 -0.12033170125E+02  0.46556038556E+02  0.16396797138E+03  0.17087351330E+03  0.00000000000E+00 0. -1.
</event>
<event>
 7    1  0.8661710E-006  0.8655866E+02  0.7561462E-02  0.1311406E+00
         -2   -1    0    0    0  501 -0.00000000000E+00  0.00000000000E+00  0.20772961946E+03  0.20772961946E+03  0.00000000000E+00 0. -1.
          2   -1    0    0  501    0  0.00000000000E+00 -0.00000000000E+00 -0.69039105130E+02  0.69039105130E+02  0.00000000000E+00 0.  1.
         23    2    1    2    0    0 -0.42031544902E+02 -0.25673229289E+02  0.93594828538E+02  0.16380425624E+03  0.12508427945E+03 0.  0.
          5    1    3    3  502    0 -0.24240520501E+02 -0.41988429685E+02 -0.16215958737E+02  0.51293866878E+02  0.41800000000E+01 0. -1.
         -5    1    3    3    0  502 -0.17791024400E+02  0.16315200396E+02  0.10981078727E+03  0.11251038936E+03  0.41800000000E+01 0. -1.
        -11    1    1    2    0    0  0.52055757222E+02  0.50902987831E+02  0.18859188513E+02  0.75210272047E+02  0.00000000000E+00 0.  1.
         11    1    1    2    0    0 -0.10024212320E+02 -0.25229758542E+02  0.26236497278E+02  0.37754196299E+02  0.00000000000E+00 0. -1.
</event>
<event>
 7    1  0.8661710E-006  0.1231957E+03  0.7561462E-02  0.1237916E+00
         -3   -1    0    0    0  501 -0.00000000000E+00  0.00000000000E+00  0.45257206286E+02  0.45257206286E+02  0.00000000000E+00 0.  1.
          3   -1    0    0  501    0  0.00000000000E+00 -0.00000000000E+00 -0.39974529169E+03  0.39974529169E+03  0.00000000000E+00 0. -1.
         23    2    1    2    0    0 -0.27824198991E+02  0.67648581325E+02 -0.13638463068E+03  0.19899507722E+03  0.12509099355E+03 0.  0.
          5    1    3    3  502    0 -0.20471362509E+02  0.10476571972E+03 -0.99501341431E+02  0.14598945872E+03  0.41800000000E+01 0. -1.
         -5    1    3    3    0  502 -0.73528364822E+01 -0.37117138393E+02 -0.36883289253E+02  0.53005618503E+02  0.41800000000E+01 0. -1.
        -11    1    1    2    0    0 -0.22621171425E+02 -0.34065994956E+02 -0.37412479948E+02  0.55424751373E+02  0.00000000000E+00 0.  1.
         11    1    1    2    0    0  0.50445370416E+02 -0.33582586369E+02 -0.18069097477E+03  0.19058266938E+03  0.00000000000E+00 0. -1.
</event>
<event>
 7    1  0.8661710E-006  0.1404731E+03  0.7561462E-02  0.1212694E+00
         -2   -1    0    0    0  501 -0.00000000000E+00  0.00000000000E+00  0.21793840513E+03  0.21793840513E+03  0.00000000000E+00 0.  1.
          2   -1    0    0  501    0  0.00000000000E+00 -0.00000000000E+00 -0.14495729892E+03  0.14495729892E+03  0.00000000000E+00 0. -1.
         23    2    1    2    0    0 -0.39638596214E+02  0.11172482796E+03  0.11984722147E+03  0.20587647805E+03  0.11818676841E+03 0.  0.
          5    1    3    3  502    0 -0.22877880882E+02 -0.40174627595E+01 -0.14507036560E+02  0.27703139721E+02  0.41800000000E+01 0. -1.
         -5    1    3    3    0  502 -0.16760715333E+02  0.11574229072E+03  0.13435425803E+03  0.17817333833E+03  0.41800000000E+01 0.  1.
        -11    1    1    2    0    0 -0.22627091091E+02 -0.29159508844E+02 -0.38399058000E+02  0.53261147778E+02  0.00000000000E+00 0.  1.
         11    1    1    2    0    0  0.62265687306E+02 -0.82565319120E+02 -0.84670572577E+01  0.10375807822E+03  0.00000000000E+00 0. -1.
</event>
<event>
 7    1  0.8661710E-006  0.1933858E+03  0.7561462E-02  0.1155443E+00
          1   -1    0    0  501    0  0.00000000000E+00  0.00000000000E+00  0.46230997582E+03  0.46230997582E+03  0.00000000000E+00 0. -1.
         -1   -1    0    0    0  501 -0.00000000000E+00 -0.00000000000E+00 -0.24581158202E+03  0.24581158202E+03  0.00000000000E+00 0.  1.
         23    2    1    2    0    0 -0.14360779322E+03  0.11491421215E+03 -0.16359547607E+03  0.27611471313E+03  0.12508949033E+03 0.  0.
          5    1    3    3  502    0 -0.10446335223E+03  0.87610713608E+02 -0.37857408689E+02  0.14155876833E+03  0.41800000000E+01 0. -1.
         -5    1    3    3    0  502 -0.39144440990E+02  0.27303498539E+02 -0.12573806738E+03  0.13455594480E+03  0.41800000000E+01 0. -1.
        -11    1    1    2    0    0 -0.87394220207E+01 -0.22830356743E+02  0.26019999567E+02  0.35702143685E+02  0.00000000000E+00 0.  1.
         11    1    1    2    0    0  0.15234721524E+03 -0.92083855404E+02  0.35407387030E+03  0.39630470102E+03  0.00000000000E+00 0. -1.
</event>
<event>
 7    1  0.8661710E-006  0.8840861E+02  0.7561462E-02  0.1306752E+00
         -1   -1    0    0    0  501 -0.00000000000E+00  0.00000000000E+00  0.42334593700E+02  0.42334593700E+02  0.00000000000E+00 0.  1.
          1   -1    0    0  501    0  0.00000000000E+00 -0.00000000000E+00 -0.39622941238E+03  0.39622941238E+03  0.00000000000E+00 0. -1.
         23    2    1    2    0    0 -0.59731280564E+02 -0.87233164116E+01 -0.13307978869E+03  0.19235797704E+03  0.12508972399E+03 0.  0.
          5    1    3    3  502    0 -0.49013790650E+02  0.24553262745E+02 -0.14508974116E+03  0.15515708097E+03  0.41800000000E+01 0.  1.
         -5    1    3    3    0  502 -0.10717489914E+02 -0.33276579156E+02  0.12009952471E+02  0.37200896075E+02  0.41800000000E+01 0.  1.
        -11    1    1    2    0    0  0.52805319205E+02  0.32405085645E+02 -0.21056036621E+03  0.21948612514E+03  0.00000000000E+00 0. -1.
         11    1    1    2    0    0  0.69259613591E+01 -0.23681769234E+02 -0.10254663784E+02  0.26719903894E+02  0.00000000000E+00 0.  1.
</event>
<event>
 7    1  0.8661710E-006  0.1120268E+03  0.7561462E-02  0.1256862E+00
         -1   -1    0    0    0  501 -0.00000000000E+00  0.00000000000E+00  0.66426568656E+02  0.66426568656E+02  0.00000000000E+00 0.  1.
          1   -1    0    0  501    0  0.00000000000E+00 -0.00000000000E+00 -0.23541204887E+03  0.23541204887E+03  0.00000000000E+00 0. -1.
         23    2    1    2    0    0  0.40256907877E+02 -0.74270736949E+01 -0.38430807527E+02  0.13711452016E+03  0.12509070555E+03 0.  0.
          5    1    3    3  502    0 -0.29058662451E+02  0.32488265528E+02  0.80313132392E+01  0.44518172164E+02  0.41800000000E+01 0. -1.
         -5    1    3    3    0  502  0.69315570329E+02 -0.39915339223E+02 -0.46462120766E+02  0.92596347992E+02  0.41800000000E+01 0. -1.
        -11    1    1    2    0    0 -0.15573002518E+02 -0.42069763654E+02 -0.52429419181E+02  0.69001647930E+02  0.00000000000E+00 0.  1.
         11    1    1    2    0    0 -0.24683905360E+02  0.49496837349E+02 -0.78125253508E+02  0.95722449442E+02  0.00000000000E+00 0. -1.
</event>
<event>
 7    1  0.8661710E-006  0.9460318E+02  0.7561462E-02  0.1292072E+00
         -2   -1    0    0    0  501 -0.00000000000E+00  0.00000000000E+00  0.24559530281E+03  0.24559530281E+03  0.00000000000E+00 0.  1.
          2   -1    0    0  501    0  0.00000000000E+00 -0.00000000000E+00 -0.93124285964E+02  0.93124285964E+02  0.00000000000E+00 0. -1.
         23    2    1    2    0    0 -0.35105841336E+02 -0.22680920112E+02  0.19048745548E+03  0.23168878674E+03  0.12508948385E+03 0.  0.
          5    1    3    3  502    0  0.27824759515E+02  0.21175209525E+02  0.12772598334E+03  0.13249153165E+03  0.41800000000E+01 0. -1.
         -5    1    3    3    0  502 -0.62930600851E+02 -0.43856129637E+02  0.62761472145E+02  0.99197255083E+02  0.41800000000E+01 0. -1.
        -11    1    1    2    0    0  0.90718484467E+01  0.43126493172E+02 -0.54469158190E+02  0.70064841693E+02  0.00000000000E+00 0. -1.
         11    1    1    2    0    0  0.26033992889E+02 -0.20445573060E+02  0.16452719557E+02  0.36965960346E+02  0.00000000000E+00 0.  1.
</event>
<event>
 7    1  0.8661710E-006  0.7629736E+02  0.7561462E-02  0.1339900E+00
         -2   -1    0    0    0  501 -0.00000000000E+00  0.00000000000E+00  0.65555145567E+02  0.65555145567E+02  0.00000000000E+00 0.  1.
          2   -1    0    0  501    0  0.00000000000E+00 -0.00000000000E+00 -0.18248901033E+03  0.18248901033E+03  0.00000000000E+00 0. -1.
         23    2    1    2    0    0  0.39690946135E+02 -0.16332141208E+01 -0.40574701441E+02  0.12611297422E+03  0.11260611562E+03 0.  0.
          5    1    3    3  502    0  0.20623483688E+02  0.25559403302E+02 -0.72596543854E+02  0.79789358665E+02  0.41800000000E+01 0. -1.
         -5    1    3    3    0  502  0.19067462446E+02 -0.27192617422E+02  0.32021842413E+02  0.46323615554E+02  0.41800000000E+01 0.  1.
        -11    1    1    2    0    0 -0.31877470434E+02 -0.35706400643E+02 -0.67531891436E+02  0.82774854450E+02  0.00000000000E+00 0.  1.
         11    1    1    2    0    0 -0.78134757007E+01  0.37339614764E+02 -0.88272718886E+01  0.39156327232E+02  0.00000000000E+00 0. -1.
</event>
<event>
 7    1  0.8661710E-006  0.1189577E+03  0.7561462E-02  0.1244826E+00
          2   -1    0    0  501    0  0.00000000000E+00  0.00000000000E+00  0.29769323912E+02  0.29769323912E+02  0.00000000000E+00 0. -1.
         -2   -1    0    0    0  501 -0.00000000000E+00 -0.00000000000E+00 -0.55791370411E+03  0.55791370411E+03  0.00000000000E+00 0.  1.
         23    2    1    2    0    0  0.54340906950E+02  0.28147548998E+02 -0.37297238828E+03  0.39812162130E+03  0.12508878544E+03 0.  0.
          5    1    3    3  502    0 -0.31352694288E+02  0.30362319828E+02 -0.64930250523E+02  0.78347123351E+02  0.41800000000E+01 0.  1.
         -5    1    3    3    0  502  0.85693601238E+02 -0.22147708296E+01 -0.30804213775E+03  0.31977449794E+03  0.41800000000E+01 0.  1.
        -11    1    1    2    0    0  0.22363395138E+02 -0.21880623575E+02 -0.54505481988E+02  0.62846882953E+02  0.00000000000E+00 0.  1.
         11    1    1    2    0    0 -0.76704302087E+02 -0.62669254235E+01 -0.10066650993E+03  0.12671452377E+03  0.00000000000E+00 0. -1.
</event>
<event>
 7    1  0.8661710E-006  0.1888108E+03  0.7561462E-02  0.1159538E+00
          2   -1    0    0  501    0  0.00000000000E+00  0.00000000000E+00  0.15676008808E+04  0.15676008808E+04  0.00000000000E+00 0. -1.
         -2   -1    0    0    0  501 -0.00000000000E+00 -0.00000000000E+00 -0.25889633001E+02  0.25889633001E+02  0.00000000000E+00 0.  1.
         23    2    1    2    0    0 -0.60725397011E+02  0.15773612017E+03  0.76493598335E+03  0.79331159086E+03  0.12509182277E+03 0.  0.
          5    1    3    3  502    0  0.14245565378E+02  0.67998119432E+02  0.12782527237E+03  0.14554536418E+03  0.41800000000E+01 0. -1.
         -5    1    3    3    0  502 -0.74970962390E+02  0.89738000741E+02  0.63711071098E+03  0.64776622667E+03  0.41800000000E+01 0. -1.
        -11    1    1    2    0    0  0.16048710614E+02  0.89966404035E+01  0.10385869453E+03  0.10547572744E+03  0.00000000000E+00 0. -1.
         11    1    1    2    0    0  0.44676686397E+02 -0.16673276058E+03  0.67291656998E+03  0.69470319555E+03  0.00000000000E+00 0.  1.
</event>
<event>
 7    1  0.8661710E-006  0.1180923E+03  0.7561462E-02  0.1246278E+00
         -1   -1    0    0    0  501 -0.00000000000E+00  0.00000000000E+00  0.21739180923E+03  0.21739180923E+03  0.00000000000E+00 0.  1.
          1   -1    0    0  501    0  0.00000000000E+00 -0.00000000000E+00 -0.13289072885E+03  0.13289072885E+03  0.00000000000E+00 0. -1.
         23    2    1    2    0    0  0.43143405615E+02 -0.29669163196E+02  0.16934059294E+03  0.21692926206E+03  0.12506180723E+03 0.  0.
          5    1    3    3  502    0  0.30527259185E+01 -0.74148199234E+02  0.79050196318E+02  0.10850659207E+03  0.41800000000E+01 0.  1.
         -5    1    3    3    0  502  0.40090679697E+02  0.44479036038E+02  0.90290396621E+02  0.10842266999E+03  0.41800000000E+01 0.  1.
        -11    1    1    2    0    0 -0.19826975290E+02 -0.31020416857E+02 -0.21752016595E+02  0.42761260939E+02  0.00000000000E+00 0.  1.
         11    1    1    2    0    0 -0.23316430325E+02  0.60689580054E+02 -0.63087495966E+02  0.90592015087E+02  0.00000000000E+00 0. -1.
</event>
<event>
 7    1  0.8661710E-006  0.2602766E+03  0.7561462E-02  0.1106977E+00
          1   -1    0    0  501    0  0.00000000000E+00  0.00000000000E+00  0.99165919377E+02  0.99165919377E+02  0.00000000000E+00 0.  1.
         -1   -1    0    0    0  501 -0.00000000000E+00 -0.00000000000E+00 -0.70635291956E+03  0.70635291956E+03  0.00000000000E+00 0. -1.
         23    2    1    2    0    0  0.23679022307E+03  0.24613569089E+02 -0.35616235589E+03  0.44628985004E+03  0.12509024329E+03 0.  0.
          5    1    3    3  502    0  0.18441972037E+03 -0.35109573179E+02 -0.27163269116E+03  0.33021978544E+03  0.41800000000E+01 0.  1.
         -5    1    3    3    0  502  0.52370502693E+02  0.59723142269E+02 -0.84529664734E+02  0.11607006459E+03  0.41800000000E+01 0.  1.
        -11    1    1    2    0    0  0.18908255180E+01  0.11658489729E+02 -0.28691311938E+02  0.31027197499E+02  0.00000000000E+00 0.  1.
         11    1    1    2    0    0 -0.23868104858E+03 -0.36272058819E+02 -0.22233333235E+03  0.32820179140E+03  0.00000000000E+00 0. -1.
</event>
<event>
 7    1  0.8661710E-006  0.1209750E+03  0.7561462E-02  0.1241497E+00
         -1   -1    0    0    0  501 -0.00000000000E+00  0.00000000000E+00  0.17531320399E+03  0.17531320399E+03  0.00000000000E+00 0.  1.
          1   -1    0    0  501    0  0.00000000000E+00 -0.00000000000E+00 -0.91546987705E+02  0.91546987705E+02  0.00000000000E+00 0. -1.
         23    2    1    2    0    0 -0.91680441634E+01 -0.62200206364E+02  0.74027485824E+02  0.15836946126E+03  0.12509156205E+03 0.  0.
          5    1    3    3  502    0 -0.64712791620E+02 -0.36482233151E+02  0.21092729021E+02  0.77337405907E+02  0.41800000000E+01 0. -1.
         -5    1    3    3    0  502  0.55544747456E+02 -0.25717973213E+02  0.52934756804E+02  0.81032055348E+02  0.41800000000E+01 0. -1.
        -11    1    1    2    0    0  0.38966625061E+02  0.65496845589E+02 -0.21425457983E+01  0.76241885820E+02  0.00000000000E+00 0.  1.
         11    1    1    2    0    0 -0.29798580898E+02 -0.32966392254E+01  0.11881276257E+02  0.32248844618E+02  0.00000000000E+00 0. -1.
</event>
<event>
 7    1  0.8661710E-006  0.1430654E+03  0.7561462E-02  0.1209263E+00
          1   -1    0    0  501    0  0.00000000000E+00  0.00000000000E+00  0.18796556176E+03  0.18796556176E+03  0.00000000000E+00 0. -1.
         -1   -1    0    0    0  501 -0.00000000000E+00 -0.00000000000E+00 -0.15809428037E+03  0.15809428037E+03  0.00000000000E+00 0.  1.
         23    2    1    2    0    0  0.11711095598E+03  0.32937972131E+02 -0.25009613779E+02  0.17627510017E+03  0.12509014406E+03 0.  0.
          5    1    3    3  502    0  0.51175202068E+00 -0.30867712049E+02 -0.29932091535E+02  0.43202778162E+02  0.41800000000E+01 0. -1.
         -5    1    3    3    0  502  0.11659920396E+03  0.63805684180E+02  0.49224777564E+01  0.13307232201E+03  0.41800000000E+01 0. -1.
        -11    1    1    2    0    0 -0.44509362327E+02 -0.17138953395E+02 -0.30490621191E+02  0.56608347784E+02  0.00000000000E+00 0.  1.
         11    1    1    2    0    0 -0.72601593656E+02 -0.15799018736E+02  0.85371516354E+02  0.11317639418E+03  0.00000000000E+00 0. -1.
</event>
<event>
 7    1  0.8661710E-006  0.1267424E+03  0.7561462E-02  0.1232371E+00
         -3   -1    0    0    0  501 -0.00000000000E+00  0.00000000000E+00  0.16035612820E+03  0.16035612820E+03  0.00000000000E+00 0.  1.
          3   -1    0    0  501    0  0.00000000000E+00 -0.00000000000E+00 -0.11131804908E+03  0.11131804908E+03  0.00000000000E+00 0. -1.
         23    2    1    2    0    0  0.14362521624E+02 -0.77985513350E+02  0.42117643807E+02  0.15397649186E+03  0.12508733671E+03 0.  0.
          5    1    3    3  502    0 -0.33455376878E+02  0.18842208502E+02  0.19219793342E+01  0.38671145158E+02  0.41800000000E+01 0.  1.
         -5    1    3    3    0  502  0.47817898501E+02 -0.96827721852E+02  0.40195664472E+02  0.11530534670E+03  0.41800000000E+01 0.  1.
        -11    1    1    2    0    0  0.28960286041E+02  0.24307317971E+02  0.26288609311E+02  0.46050351291E+02  0.00000000000E+00 0.  1.
         11    1    1    2    0    0 -0.43322807665E+02  0.53678195379E+02 -0.19368174001E+02  0.71647334126E+02  0.00000000000E+00 0. -1.
</event>
<event>
 6    1  0.8661710E-006  0.6087495E+02  0.7561462E-02  0.1394196E+00
          2   -1    0    0  501    0  0.00000000000E+00  0.00000000000E+00  0.19892231432E+03  0.19892231432E+03  0.00000000000E+00 0. -1.
         -2   -1    0    0    0  501 -0.00000000000E+00 -0.00000000000E+00 -0.49063355638E+02  0.49063355638E+02  0.00000000000E+00 0.  1.
          5    1    1    2  502    0 -0.28686941007E+02 -0.22624668550E+02  0.14502787097E+03  0.14961741867E+03  0.41800000000E+01 0. -1.
         -5    1    1    2    0  502  0.17628448443E+02  0.20752945090E+02 -0.20873288643E+02  0.34563181323E+02  0.41800000000E+01 0.  1.
        -11    1    1    2    0    0 -0.18108615671E+02  0.16765678435E+02  0.53690781524E+01  0.25255433774E+02  0.00000000000E+00 0. -1.
         11    1    1    2    0    0  0.29167108235E+02 -0.14893954974E+02  0.20335298205E+02  0.38549636193E+02  0.00000000000E+00 0.  1.
</event>
<event>
 7    1  0.8661710E-006  0.9757005E+02  0.7561462E-02  0.1285490E+00
         -1   -1    0    0    0  501 -0.00000000000E+00  0.00000000000E+00  0.43757364929E+03  0.43757364929E+03  0.00000000000E+00 0.  1.
          1   -1    0    0  501    0  0.00000000000E+00 -0.00000000000E+00 -0.30517900642E+02  0.30517900642E+02  0.00000000000E+00 0. -1.
         23    2    1    2    0    0 -0.22710828952E+02 -0.27505512895E+01  0.29692840424E+03  0.32301345452E+03  0.12509143563E+03 0.  0.
          5    1    3    3  502    0 -0.43552836969E+02 -0.42649477672E+02  0.76042976170E+02  0.97549137252E+02  0.41800000000E+01 0. -1.
         -5    1    3    3    0  502  0.20842008017E+02  0.39898926383E+02  0.22088542807E+03  0.22546431726E+03  0.41800000000E+01 0. -1.
        -11    1    1    2    0    0 -0.24718317756E+02  0.26116047661E+02  0.70024386212E+02  0.78717582803E+02  0.00000000000E+00 0.  1.
         11    1    1    2    0    0  0.47429146708E+02 -0.23365496372E+02  0.40102958191E+02  0.66360512609E+02  0.00000000000E+00 0. -1.
</event>
<event>
 6    1  0.8661710E-006  0.1218310E+03  0.7561462E-02  0.1240107E+00
         -2   -1    0    0    0  501 -0.00000000000E+00  0.00000000000E+00  0.13613449858E+03  0.13613449858E+03  0.00000000000E+00 0.  1.
          2   -1    0    0  501    0  0.00000000000E+00 -0.00000000000E+00 -0.11545959902E+03  0.11545959902E+03  0.00000000000E+00 0. -1.
          5    1    1    2  502    0  0.17162977167E+00 -0.67592629018E+02  0.97135421545E+01  0.68415044073E+02  0.41800000000E+01 0. -1.
         -5    1    1    2    0  502 -0.71973466985E+01  0.86199432387E+02  0.18063377423E+02  0.88464128026E+02  0.41800000000E+01 0.  1.
        -11    1    1    2    0    0  0.33641973027E+01  0.35224138482E+02  0.12173404324E+02  0.37419908179E+02  0.00000000000E+00 0.  1.
         11    1    1    2    0    0  0.36615196241E+01 -0.53830941851E+02 -0.19275424337E+02  0.57295017322E+02  0.00000000000E+00 0. -1.
</event>
<event>
 7    1  0.8661710E-006  0.1622926E+03  0.7561462E-02  0.1186132E+00
         -1   -1    0    0    0  501 -0.00000000000E+00  0.00000000000E+00  0.44496731899E+03  0.44496731899E+03  0.00000000000E+00 0.  1.
          1   -1    0    0  501    0  0.00000000000E+00 -0.00000000000E+00 -0.12282054193E+03  0.12282054193E+03  0.00000000000E+00 0. -1.
         23    2    1    2    0    0  0.18246779472E+02  0.14390109108E+03  0.32897257335E+03  0.38067093084E+03  0.12508770763E+03 0.  0.
          5    1    3    3  502    0 -0.37387135913E+02  0.93128666787E+02  0.25894534224E+03  0.27774252317E+03  0.41800000000E+01 0. -1.
         -5    1    3    3    0  502  0.55633915386E+02  0.50772424291E+02  0.70027231106E+02  0.10292840767E+03  0.41800000000E+01 0. -1.
        -11    1    1    2    0    0 -0.26072048927E+02 -0.13140143021E+03  0.38554475681E+02  0.13940062837E+03  0.00000000000E+00 0.  1.
         11    1    1    2    0    0  0.78252694544E+01 -0.12499660869E+02 -0.45380271970E+02  0.47716301700E+02  0.00000000000E+00 0. -1.
</event>
<event>
 7    1  0.8661710E-006  0.2857852E+03  0.7561462E-02  0.1092570E+00
         -1   -1    0    0    0  501 -0.00000000000E+00  0.00000000000E+00  0.22048695066E+03  0.22048695066E+03  0.00000000000E+00 0.  1.
          1   -1    0    0  501    0  0.00000000000E+00 -0.00000000000E+00 -0.39724533577E+03  0.39724533577E+03  0.00000000000E+00 0. -1.
         23    2    1    2    0    0  0.27116470531E+03 -0.25444828252E+02 -0.51303223499E+02  0.30407137320E+03  0.12509853145E+03 0.  0.
          5    1    3    3  502    0  0.17851719262E+03  0.42503950265E+02 -0.44658905621E+02  0.18890967180E+03  0.41800000000E+01 0.  1.
         -5    1    3    3    0  502  0.92647512683E+02 -0.67948778517E+02 -0.66443178776E+01  0.11516170140E+03  0.41800000000E+01 0.  1.
        -11    1    1    2    0    0 -0.15003089244E+03  0.23755464802E+02 -0.20313858886E+02  0.15325222236E+03  0.00000000000E+00 0.  1.
         11    1    1    2    0    0 -0.12113381286E+03  0.16893634502E+01 -0.10514130273E+03  0.16040869087E+03  0.00000000000E+00 0. -1.
</event>
<event>
 7    1  0.8661710E-006  0.1297231E+03  0.7561462E-02  0.1227867E+00
          1   -1    0    0  501    0  0.00000000000E+00  0.00000000000E+00  0.70766598861E+03  0.70766598861E+03  0.00000000000E+00 0. -1.
         -1   -1    0    0    0  501 -0.00000000000E+00 -0.00000000000E+00 -0.25645347813E+02  0.25645347813E+02  0.00000000000E+00 0.  1.
         23    2    1    2    0    0  0.70606573495E+02  0.36809147091E+02  0.41101476418E+03  0.43694428465E+03  0.12508784907E+03 0.  0.
          5    1    3    3  502    0  0.33545997580E+02 -0.45763029696E+02  0.18084678789E+03  0.18958539482E+03  0.41800000000E+01 0. -1.
         -5    1    3    3    0  502  0.37060575915E+02  0.82572176787E+02  0.23016797629E+03  0.24735888983E+03  0.41800000000E+01 0. -1.
        -11    1    1    2    0    0 -0.55502226010E+01  0.22948734908E+02  0.22447843864E+02  0.32578445312E+02  0.00000000000E+00 0.  1.
         11    1    1    2    0    0 -0.65056350894E+02 -0.59757881999E+02  0.24855803276E+03  0.26378860646E+03  0.00000000000E+00 0. -1.
</event>
<event>
 7    1  0.8661710E-006  0.1113264E+03  0.7561462E-02  0.1258133E+00
         -3   -1    0    0    0  501 -0.00000000000E+00  0.00000000000E+00  0.26799373890E+03  0.26799373890E+03  0.00000000000E+00 0.  1.
          3   -1    0    0  501    0  0.00000000000E+00 -0.00000000000E+00 -0.74231754687E+02  0.74231754687E+02  0.00000000000E+00 0. -1.
         23    2    1    2    0    0 -0.57179626949E+02 -0.17975181762E+01  0.18977329941E+03  0.23438189160E+03  0.12509286604E+03 0.  0.
          5    1    3    3  502    0 -0.36033577524E+02 -0.61825644883E+02  0.12057483573E+03  0.14027327788E+03  0.41800000000E+01 0. -1.
         -5    1    3    3    0  502 -0.21146049425E+02  0.60028126707E+02  0.69198463677E+02  0.94108613727E+02  0.41800000000E+01 0. -1.
        -11    1    1    2    0    0  0.18130764541E+02  0.32701760021E+02 -0.29673466512E+02  0.47735147912E+02  0.00000000000E+00 0. -1.
         11    1    1    2    0    0  0.39048862408E+02 -0.30904241845E+02  0.33662151311E+02  0.60108454066E+02  0.00000000000E+00 0.  1.
</event>
<event>
 7    1  0.8661710E-006  0.1172603E+03  0.7561462E-02  0.1247686E+00
         -4   -1    0    0    0  501 -0.00000000000E+00  0.00000000000E+00  0.16993359740E+03  0.16993359740E+03  0.00000000000E+00 0.  1.
          4   -1    0    0  501    0  0.00000000000E+00 -0.00000000000E+00 -0.14108455450E+03  0.14108455450E+03  0.00000000000E+00 0. -1.
         23    2    1    2    0    0 -0.82813919720E+02  0.44201333230E+02  0.74334284827E+02  0.17316262526E+03  0.12509118965E+03 0.  0.
          5    1    3    3  502    0 -0.10783777899E+03  0.39004889006E+02  0.24998071907E+02  0.11744251336E+03  0.41800000000E+01 0. -1.
         -5    1    3    3    0  502  0.25023859271E+02  0.51964442244E+01  0.49336212920E+02  0.55720111904E+02  0.41800000000E+01 0. -1.
        -11    1    1    2    0    0  0.16719512684E+02 -0.90360289623E+01  0.27415510763E+02  0.33358689335E+02  0.00000000000E+00 0.  1.
         11    1    1    2    0    0  0.66094407037E+02 -0.35165304268E+02 -0.72900752685E+02  0.10449683731E+03  0.00000000000E+00 0. -1.
</event>
<event>
 7    1  0.8661710E-006  0.1334311E+03  0.7561462E-02  0.1222452E+00
         -2   -1    0    0    0  501 -0.00000000000E+00  0.00000000000E+00  0.50084274865E+02  0.50084274865E+02  0.00000000000E+00 0.  1.
          2   -1    0    0  501    0  0.00000000000E+00 -0.00000000000E+00 -0.41916203510E+03  0.41916203510E+03  0.00000000000E+00 0. -1.
         23    2    1    2    0    0 -0.51528686876E+02 -0.69535416521E+02 -0.13408467490E+03  0.20277468305E+03  0.12509393400E+03 0.  0.
          5    1    3    3  502    0 -0.73065584692E+02 -0.93447327217E+02 -0.95401350383E+02  0.15228221395E+03  0.41800000000E+01 0.  1.
         -5    1    3    3    0  502  0.21536897816E+02  0.23911910696E+02 -0.38683324515E+02  0.50492469104E+02  0.41800000000E+01 0.  1.
        -11    1    1    2    0    0  0.71215255869E+02  0.44928470657E+02 -0.11576492335E+03  0.14314921454E+03  0.00000000000E+00 0.  1.
         11    1    1    2    0    0 -0.19686568993E+02  0.24606945864E+02 -0.11922816199E+03  0.12332241238E+03  0.00000000000E+00 0. -1.
</event>
<event>
 7    1  0.8661710E-006  0.1130014E+03  0.7561462E-02  0.1255111E+00
          1   -1    0    0  501    0  0.00000000000E+00  0.00000000000E+00  0.34081736501E+03  0.34081736501E+03  0.00000000000E+00 0. -1.
         -1   -1    0    0    0  501 -0.00000000000E+00 -0.00000000000E+00 -0.64931238744E+02  0.64931238744E+02  0.00000000000E+00 0.  1.
         23    2    1    2    0    0  0.20105623853E+02  0.25504351173E+02  0.18232200106E+02  0.13051857237E+03  0.12509187253E+03 0.  0.
          5    1    3    3  502    0  0.72560581044E+02  0.24144292354E+02  0.98686366541E+01  0.77219473996E+02  0.41800000000E+01 0.  1.
         -5    1    3    3    0  502 -0.52454957192E+02  0.13600588190E+01  0.83635634515E+01  0.53299098375E+02  0.41800000000E+01 0.  1.
        -11    1    1    2    0    0 -0.55772804385E+02 -0.24967822648E+02  0.16313694229E+03  0.17420579731E+03  0.00000000000E+00 0.  1.
         11    1    1    2    0    0  0.35667180532E+02 -0.53652852506E+00  0.94516983871E+02  0.10102423407E+03  0.00000000000E+00 0. -1.
</event>
<event>
 7    1  0.8661710E-006  0.1224122E+03  0.7561462E-02  0.1239170E+00
          1   -1    0    0  501    0  0.00000000000E+00  0.00000000000E+00  0.81516683180E+03  0.81516683180E+03  0.00000000000E+00 0. -1.
         -1   -1    0    0    0  501 -0.00000000000E+00 -0.00000000000E+00 -0.24996097886E+02  0.24996097886E+02  0.00000000000E+00 0.  1.
         23    2    1    2    0    0 -0.20534146762E+02 -0.20902169210E+02  0.36955282548E+03  0.39124772789E+03  0.12508773680E+03 0.  0.
          5    1    3    3  502    0  0.21432051313E+01 -0.51538383887E+02  0.59604219581E+02  0.78936263744E+02  0.41800000000E+01 0.  1.
         -5    1    3    3    0  502 -0.22677351893E+02  0.30636214678E+02  0.30994860590E+03  0.31231146415E+03  0.41800000000E+01 0.  1.
        -11    1    1    2    0    0 -0.22711770771E+02  0.79057601605E+02  0.26006818282E+03  0.27276617939E+03  0.00000000000E+00 0. -1.
         11    1    1    2    0    0  0.43245917533E+02 -0.58155432396E+02  0.16054972561E+03  0.17614902240E+03  0.00000000000E+00 0.  1.
</event>
<event>
 7    1  0.8661710E-006  0.2299860E+03  0.7561462E-02  0.1126650E+00
         -2   -1    0    0    0  501 -0.00000000000E+00  0.00000000000E+00  0.16769018180E+03  0.16769018180E+03  0.00000000000E+00 0.  1.
          2   -1    0    0  501    0  0.00000000000E+00 -0.00000000000E+00 -0.32846558440E+03  0.32846558440E+03  0.00000000000E+00 0. -1.
         23    2    1    2    0    0 -0.19218959585E+03 -0.73593395612E+02 -0.51814678908E+02  0.24634584576E+03  0.12509470868E+03 0.  0.
          5    1    3    3  502    0 -0.88407782062E+02 -0.95017023945E+02 -0.37411371438E+01  0.12990627112E+03  0.41800000000E+01 0.  1.
         -5    1    3    3    0  502 -0.10378181379E+03  0.21423628333E+02 -0.48073541764E+02  0.11643957464E+03  0.41800000000E+01 0.  1.
        -11    1    1    2    0    0  0.15214154122E+03  0.14703883232E+02 -0.83554997222E+02  0.17419727411E+03  0.00000000000E+00 0. -1.
         11    1    1    2    0    0  0.40048054633E+02  0.58889512380E+02 -0.25405726464E+02  0.75612646333E+02  0.00000000000E+00 0.  1.
</event>
<event>
 7    1  0.8661710E-006  0.2447038E+03  0.7561462E-02  0.1116698E+00
         -2   -1    0    0    0  501 -0.00000000000E+00  0.00000000000E+00  0.85412904815E+02  0.85412904815E+02  0.00000000000E+00 0.  1.
          2   -1    0    0  501    0  0.00000000000E+00 -0.00000000000E+00 -0.83873581030E+03  0.83873581030E+03  0.00000000000E+00 0. -1.
         23    2    1    2    0    0 -0.18939318404E+03  0.14312760449E+03 -0.28564725606E+03  0.39191467276E+03  0.12508983373E+03 0.  0.
          5    1    3    3  502    0 -0.18613153956E+03  0.10671196243E+03 -0.18015686513E+03  0.28018986670E+03  0.41800000000E+01 0.  1.
         -5    1    3    3    0  502 -0.32616444744E+01  0.36415642056E+02 -0.10549039093E+03  0.11172480606E+03  0.41800000000E+01 0.  1.
        -11    1    1    2    0    0  0.27116604523E+02 -0.13334487241E+02 -0.14143595454E+02  0.33364053759E+02  0.00000000000E+00 0.  1.
         11    1    1    2    0    0  0.16227657952E+03 -0.12979311725E+03 -0.45353205397E+03  0.49886998859E+03  0.00000000000E+00 0. -1.
</event>
<event>
 7    1  0.8661710E-006  0.1545121E+03  0.7561462E-02  0.1195036E+00
          2   -1    0    0  501    0  0.00000000000E+00  0.00000000000E+00  0.75934879826E+03  0.75934879826E+03  0.00000000000E+00 0. -1.
         -2   -1    0    0    0  501 -0.00000000000E+00 -0.00000000000E+00 -0.50531443221E+02  0.50531443221E+02  0.00000000000E+00 0.  1.
         23    2    1    2    0    0  0.93514736942E+02 -0.93548136899E+02  0.17680813717E+03  0.25378126553E+03  0.12509018114E+03 0.  0.
          5    1    3    3  502    0 -0.27911650067E+02 -0.17839788895E+02  0.11997960863E+02  0.35478750572E+02  0.41800000000E+01 0. -1.
         -5    1    3    3    0  502  0.12142638701E+03 -0.75708348004E+02  0.16481017631E+03  0.21830251495E+03  0.41800000000E+01 0. -1.
        -11    1    1    2    0    0 -0.64460413858E+02  0.69208602029E+02  0.49191894508E+03  0.50092836223E+03  0.00000000000E+00 0. -1.
         11    1    1    2    0    0 -0.29054323084E+02  0.24339534870E+02  0.40090272783E+02  0.55170613730E+02  0.00000000000E+00 0.  1.
</event>
<event>
 7    1  0.8661710E-006  0.1014015E+03  0.7561462E-02  0.1277376E+00
          1   -1    0    0  501    0  0.00000000000E+00  0.00000000000E+00  0.57939523490E+02  0.57939523490E+02  0.00000000000E+00 0. -1.
         -1   -1    0    0    0  501 -0.00000000000E+00 -0.00000000000E+00 -0.21469699614E+03  0.21469699614E+03  0.00000000000E+00 0.  1.
         23    2    1    2    0    0  0.14695178442E+02 -0.18063528977E+02 -0.10626785578E+03  0.16578141985E+03  0.12509349562E+03 0.  0.
          5    1    3    3  502    0  0.51200149350E+02 -0.43123787186E+02 -0.22158755508E+02  0.70637094790E+02  0.41800000000E+01 0.  1.
         -5    1    3    3    0  502 -0.36504970909E+02  0.25060258209E+02 -0.84109100268E+02  0.95144325056E+02  0.41800000000E+01 0.  1.
        -11    1    1    2    0    0 -0.16978915728E+02 -0.34600604267E+02 -0.85155556113E+01  0.39471509754E+02  0.00000000000E+00 0.  1.
         11    1    1    2    0    0  0.22837372864E+01  0.52664133244E+02 -0.41974061261E+02  0.67383590028E+02  0.00000000000E+00 0. -1.
</event>
<event>
 6    1  0.8661710E-006  0.1012032E+03  0.7561462E-02  0.1277786E+00
          1   -1    0    0  501    0  0.00000000000E+00  0.00000000000E+00  0.15525925213E+03  0.15525925213E+03  0.00000000000E+00 0. -1.
         -1   -1    0    0    0  501 -0.00000000000E+00 -0.00000000000E+00 -0.11329896385E+03  0.11329896385E+03  0.00000000000E+00 0.  1.
          5    1    1    2  502    0  0.20973018126E+02 -0.60871372980E+02  0.69395591064E+02  0.94754482727E+02  0.41800000000E+01 0. -1.
         -5    1    1    2    0  502 -0.24729070395E+01  0.41734282917E+02 -0.59311893125E+02  0.72685890693E+02  0.41800000000E+01 0.  1.
        -11    1    1    2    0    0 -0.49700146607E+02 -0.12698329979E+02  0.14867314847E+02  0.53407763553E+02  0.00000000000E+00 0. -1.
         11    1    1    2    0    0  0.31200035521E+02  0.31835420041E+02  0.17009275501E+02  0.47710079006E+02  0.00000000000E+00 0.  1.
</event>
<event>
 7    1  0.8661710E-006  0.1975098E+03  0.7561462E-02  0.1151857E+00
         -1   -1    0    0    0  501 -0.00000000000E+00  0.00000000000E+00  0.59372908638E+03  0.59372908638E+03  0.00000000000E+00 0. -1.
          1   -1    0    0  501    0  0.00000000000E+00 -0.00000000000E+00 -0.71051878532E+02  0.71051878532E+02  0.00000000000E+00 0.  1.
         23    2    1    2    0    0  0.10132292939E+03  0.14061023077E+03  0.29529531021E+03  0.36453256051E+03  0.12508834647E+03 0.  0.
          5    1    3    3  502    0  0.12421206980E+03  0.12738920824E+03  0.28469934362E+03  0.33574966466E+03  0.41800000000E+01 0. -1.
         -5    1    3    3    0  502 -0.22889140411E+02  0.13221022538E+02  0.10595966589E+02  0.28782895853E+02  0.41800000000E+01 0. -1.
        -11    1    1    2    0    0 -0.29591961463E+02 -0.10710097366E+03  0.95929295789E+02  0.14679486549E+03  0.00000000000E+00 0.  1.
         11    1    1    2    0    0 -0.71730967931E+02 -0.33509257113E+02  0.13145260185E+03  0.15345353892E+03  0.00000000000E+00 0. -1.
</event>
<event>
 7    1  0.8661710E-006  0.1189043E+03  0.7561462E-02  0.1244916E+00
          2   -1    0    0  501    0  0.00000000000E+00  0.00000000000E+00  0.62483891906E+03  0.62483891906E+03  0.00000000000E+00 0. -1.
         -2   -1    0    0    0  501 -0.00000000000E+00 -0.00000000000E+00 -0.26956130761E+02  0.26956130761E+02  0.00000000000E+00 0.  1.
         23    2    1    2    0    0 -0.29418031869E+02 -0.44387641871E+02  0.20970290170E+03  0.24991840621E+03  0.12509284324E+03 0.  0.
          5    1    3    3  502    0 -0.27637104162E+02  0.40262405221E+02  0.99167808299E+02  0.11061915478E+03  0.41800000000E+01 0. -1.
         -5    1    3    3    0  502 -0.17809277070E+01 -0.84650047092E+02  0.11053509340E+03  0.13929925143E+03  0.41800000000E+01 0. -1.
        -11    1    1    2    0    0  0.49460338751E+02 -0.59740613438E+01  0.18467940344E+03  0.19128119764E+03  0.00000000000E+00 0.  1.
         11    1    1    2    0    0 -0.20042306881E+02  0.50361703215E+02  0.20350048316E+03  0.21059544596E+03  0.00000000000E+00 0. -1.
</event>
<event>
 7    1  0.8661710E-006  0.1482841E+03  0.7561462E-02  0.1202598E+00
          2   -1    0    0  501    0  0.00000000000E+00  0.00000000000E+00  0.48787466338E+03  0.48787466338E+03  0.00000000000E+00 0. -1.
         -2   -1    0    0    0  501 -0.00000000000E+00 -0.00000000000E+00 -0.59298881125E+02  0.59298881125E+02  0.00000000000E+00 0.  1.
         23    2    1    2    0    0  0.11369987703E+03 -0.61855179220E+02  0.20017741640E+03  0.26920920644E+03  0.12509545782E+03 0.  0.
          5    1    3    3  502    0  0.35540830950E+02 -0.46872753469E+02  0.17647465270E+03  0.18606714145E+03  0.41800000000E+01 0.  1.
         -5    1    3    3    0  502  0.78159046075E+02 -0.14982425751E+02  0.23702763700E+02  0.83142064996E+02  0.41800000000E+01 0.  1.
        -11    1    1    2    0    0 -0.13017529668E+02 -0.22871083269E+02  0.46973001431E+02  0.53842412576E+02  0.00000000000E+00 0.  1.
         11    1    1    2    0    0 -0.10068234736E+03  0.84726262489E+02  0.18142536442E+03  0.22412192548E+03  0.00000000000E+00 0. -1.
</event>
<event>
 7    1  0.8661710E-006  0.9243103E+02  0.7561462E-02  0.1297069E+00
          1   -1    0    0  501    0  0.00000000000E+00  0.00000000000E+00  0.71610793497E+02  0.71610793497E+02  0.00000000000E+00 0. -1.
         -1   -1    0    0    0  501 -0.00000000000E+00 -0.00000000000E+00 -0.29356344695E+03  0.29356344695E+03  0.00000000000E+00 0.  1.
         23    2    1    2    0    0  0.44131022812E+02 -0.20048832348E+01 -0.22950070476E+03  0.26508346861E+03  0.12508838920E+03 0.  0.
          5    1    3    3  502    0 -0.17436000173E+02  0.48645560632E+02 -0.10644924221E+03  0.11840320197E+03  0.41800000000E+01 0. -1.
         -5    1    3    3    0  502  0.61567022985E+02 -0.50650443867E+02 -0.12305146256E+03  0.14668026664E+03  0.41800000000E+01 0. -1.
        -11    1    1    2    0    0 -0.19872624404E+02 -0.13832653968E+02 -0.38621954184E+02  0.45584195304E+02  0.00000000000E+00 0.  1.
         11    1    1    2    0    0 -0.24258398408E+02  0.15837537202E+02  0.46170005495E+02  0.54506576533E+02  0.00000000000E+00 0. -1.
</event>
<event>
 7    1  0.8661710E-006  0.9221811E+02  0.7561462E-02  0.1297567E+00
          2   -1    0    0  501    0  0.00000000000E+00  0.00000000000E+00  0.15609224915E+03  0.15609224915E+03  0.00000000000E+00 0.  1.
         -2   -1    0    0    0  501 -0.00000000000E+00 -0.00000000000E+00 -0.81073166014E+02  0.81073166014E+02  0.00000000000E+00 0. -1.
         23    2    1    2    0    0 -0.18238415088E+02  0.76735657472E+01  0.20003599479E+02  0.12825994548E+03  0.12513571124E+03 0.  0.
          5    1    3    3  502    0  0.42331733184E+02  0.16273153696E+01  0.45342060850E+02  0.62193236544E+02  0.41800000000E+01 0. -1.
         -5    1    3    3    0  502 -0.60570148272E+02  0.60462503776E+01 -0.25338461371E+02  0.66066708939E+02  0.41800000000E+01 0. -1.
        -11    1    1    2    0    0  0.40627385740E+02 -0.29013072659E+02  0.59480948931E+02  0.77655174605E+02  0.00000000000E+00 0.  1.
         11    1    1    2    0    0 -0.22388970652E+02  0.21339506912E+02 -0.44654652774E+01  0.31250295074E+02  0.00000000000E+00 0. -1.
</event>
<event>
 7    1  0.8661710E-006  0.8349774E+02  0.7561462E-02  0.1319409E+00
          1   -1    0    0  501    0  0.00000000000E+00  0.00000000000E+00  0.15371318422E+03  0.15371318422E+03  0.00000000000E+00 0. -1.
         -1   -1    0    0    0  501 -0.00000000000E+00 -0.00000000000E+00 -0.97129158158E+02  0.97129158158E+02  0.00000000000E+00 0.  1.
         23    2    1    2    0    0  0.18664802527E+02  0.54089394449E+02  0.38711683655E+02  0.14288912669E+03  0.12507865777E+03 0.  0.
          5    1    3    3  502    0  0.22396559263E+02  0.44759227325E+02  0.83148023229E+02  0.97139386782E+02  0.41800000000E+01 0. -1.
         -5    1    3    3    0  502 -0.37317567351E+01  0.93301671243E+01 -0.44436339574E+02  0.45749739908E+02  0.41800000000E+01 0. -1.
        -11    1    1    2    0    0  0.32151525658E+01 -0.75327078971E+02  0.76022378820E+01  0.75777965486E+02  0.00000000000E+00 0.  1.
         11    1    1    2    0    0 -0.21879955093E+02  0.21237684522E+02  0.10270104527E+02  0.32175250204E+02  0.00000000000E+00 0. -1.
</event>
<event>
 7    1  0.8661710E-006  0.1408397E+03  0.7561462E-02  0.1212204E+00
         -1   -1    0    0    0  501 -0.00000000000E+00  0.00000000000E+00  0.14655798758E+03  0.14655798758E+03  0.00000000000E+00 0. -1.
          1   -1    0    0  501    0  0.00000000000E+00 -0.00000000000E+00 -0.15553973081E+03  0.15553973081E+03  0.00000000000E+00 0.  1.
         23    2    1    2    0    0 -0.35102639507E+02 -0.75432368418E+02  0.39307821934E+02  0.15528792344E+03  0.12508795624E+03 0.  0.
          5    1    3    3  502    0 -0.23391324853E+02  0.30543259901E+02 -0.63713683324E+01  0.39218765128E+02  0.41800000000E+01 0. -1.
         -5    1    3    3    0  502 -0.11711314654E+02 -0.10597562832E+03  0.45679190267E+02  0.11606915831E+03  0.41800000000E+01 0. -1.
        -11    1    1    2    0    0 -0.38237909765E+02  0.14380065508E+02 -0.24004821007E+01  0.40922931732E+02  0.00000000000E+00 0. -1.
         11    1    1    2    0    0  0.73340549272E+02  0.61052302910E+02 -0.45889083063E+02  0.10588686322E+03  0.00000000000E+00 0.  1.
</event>
<event>
 7    1  0.8661710E-006  0.1122423E+03  0.7561462E-02  0.1256473E+00
         -1   -1    0    0    0  501 -0.00000000000E+00  0.00000000000E+00  0.30277805587E+03  0.30277805587E+03  0.00000000000E+00 0.  1.
          1   -1    0    0  501    0  0.00000000000E+00 -0.00000000000E+00 -0.49654406481E+02  0.49654406481E+02  0.00000000000E+00 0. -1.
         23    2    1    2    0    0 -0.13624528209E+02  0.33753091903E+02  0.20862133542E+03  0.24592126103E+03  0.12501802291E+03 0.  0.
          5    1    3    3  502    0 -0.66913367672E+02  0.10488130864E+01  0.97125203111E+02  0.11802235492E+03  0.41800000000E+01 0. -1.
         -5    1    3    3    0  502  0.53288839464E+02  0.32704278816E+02  0.11149613231E+03  0.12789890611E+03  0.41800000000E+01 0. -1.
        -11    1    1    2    0    0  0.11701710553E+02 -0.63697209941E+02  0.40130175011E+02  0.76188552491E+02  0.00000000000E+00 0. -1.
         11    1    1    2    0    0  0.19228176561E+01  0.29944118039E+02  0.43721389586E+01  0.30322648828E+02  0.00000000000E+00 0.  1.
</event>
<event>
 7    1  0.8661710E-006  0.5785784E+02  0.7561462E-02  0.1407048E+00
          3   -1    0    0  501    0  0.00000000000E+00  0.00000000000E+00  0.70305758663E+02  0.70305758663E+02  0.00000000000E+00 0. -1.
         -3   -1    0    0    0  501 -0.00000000000E+00 -0.00000000000E+00 -0.25399702391E+03  0.25399702391E+03  0.00000000000E+00 0.  1.
         23    2    1    2    0    0  0.72127352645E-01 -0.75220305796E+01 -0.19385377802E+03  0.23083404610E+03  0.12509389850E+03 0.  0.
          5    1    3    3  502    0 -0.15689005218E+02  0.26807413497E+02 -0.19007488858E+03  0.19264142331E+03  0.41800000000E+01 0. -1.
         -5    1    3    3    0  502  0.15761132571E+02 -0.34329444077E+02 -0.37788894329E+01  0.38192622794E+02  0.41800000000E+01 0. -1.
        -11    1    1    2    0    0 -0.27377711398E+01  0.26784210066E+02  0.45652582717E+02  0.53000449134E+02  0.00000000000E+00 0. -1.
         11    1    1    2    0    0  0.26656437872E+01 -0.19262179487E+02 -0.35490069946E+02  0.40468287339E+02  0.00000000000E+00 0.  1.
</event>
<event>
 7    1  0.8661710E-006  0.2155689E+03  0.7561462E-02  0.1137230E+00
          2   -1    0    0  501    0  0.00000000000E+00  0.00000000000E+00  0.27996747465E+03  0.27996747465E+03  0.00000000000E+00 0. -1.
         -2   -1    0    0    0  501 -0.00000000000E+00 -0.00000000000E+00 -0.17967653420E+03  0.17967653420E+03  0.00000000000E+00 0.  1.
         23    2    1    2    0    0  0.82350129725E+02 -0.17762042349E+03  0.55462455631E+02  0.23886103318E+03  0.12509176823E+03 0.  0.
          5    1    3    3  502    0  0.70616505846E+02 -0.22005286524E+02  0.29125981525E+01  0.74140941192E+02  0.41800000000E+01 0. -1.
         -5    1    3    3    0  502  0.11733623879E+02 -0.15561513697E+03  0.52549857479E+02  0.16472009198E+03  0.41800000000E+01 0. -1.
        -11    1    1    2    0    0 -0.32842242040E+02  0.27394353431E+02 -0.23137603904E+02  0.48625221609E+02  0.00000000000E+00 0.  1.
         11    1    1    2    0    0 -0.49507887685E+02  0.15022607006E+03  0.67966088721E+02  0.17215775406E+03  0.00000000000E+00 0. -1.
</event>
<event>
 7    1  0.8661710E-006  0.1057722E+03  0.7561462E-02  0.1268606E+00
          4   -1    0    0  501    0  0.00000000000E+00  0.00000000000E+00  0.26196964603E+03  0.26196964603E+03  0.00000000000E+00 0. -1.
         -4   -1    0    0    0  501 -0.00000000000E+00 -0.00000000000E+00 -0.12300527016E+03  0.12300527016E+03  0.00000000000E+00 0.  1.
         23    2    1    2    0    0 -0.79216040112E+02 -0.37004782352E+02 -0.47021684581E+02  0.15967405586E+03  0.12506090663E+03 0.  0.
          5    1    3    3  502    0 -0.27273587283E+02  0.25159029584E+01 -0.81259155052E+02  0.85852786854E+02  0.41800000000E+01 0. -1.
         -5    1    3    3    0  502 -0.51942452830E+02 -0.39520685311E+02  0.34237470470E+02  0.73821269006E+02  0.41800000000E+01 0. -1.
        -11    1    1    2    0    0  0.67597633845E+02 -0.11491679987E+02  0.65169420838E+02  0.94596787592E+02  0.00000000000E+00 0. -1.
         11    1    1    2    0    0  0.11618406267E+02  0.48496462340E+02  0.12081663961E+03  0.13070407274E+03  0.00000000000E+00 0.  1.
</event>
<event>
 7    1  0.8661710E-006  0.8882574E+02  0.7561462E-02  0.1305720E+00
          1   -1    0    0  501    0  0.00000000000E+00  0.00000000000E+00  0.79900106924E+02  0.79900106924E+02  0.00000000000E+00 0. -1.
         -1   -1    0    0    0  501 -0.00000000000E+00 -0.00000000000E+00 -0.20943110198E+03  0.20943110198E+03  0.00000000000E+00 0.  1.
         23    2    1    2    0    0 -0.23151559411E+02  0.43373389510E+02 -0.13501118761E+03  0.18438873155E+03  0.11555923988E+03 0.  0.
          5    1    3    3  502    0 -0.31105937258E+02  0.53948809546E+02 -0.15813965226E+02  0.64386390489E+02  0.41800000000E+01 0. -1.
         -5    1    3    3    0  502  0.79543778465E+01 -0.10575420036E+02 -0.11919722238E+03  0.12000234106E+03  0.41800000000E+01 0.  1.
        -11    1    1    2    0    0 -0.30119117448E+02  0.36043428467E+01 -0.10575213179E+02  0.32124564697E+02  0.00000000000E+00 0.  1.
         11    1    1    2    0    0  0.53270676859E+02 -0.46977732357E+02  0.16055405734E+02  0.72817912657E+02  0.00000000000E+00 0. -1.
</event>
<event>
 7    1  0.8661710E-006  0.5336944E+02  0.7561462E-02  0.1427971E+00
          2   -1    0    0  501    0  0.00000000000E+00  0.00000000000E+00  0.10168208170E+03  0.10168208170E+03  0.00000000000E+00 0.  1.
         -2   -1    0    0    0  501 -0.00000000000E+00 -0.00000000000E+00 -0.13021106129E+03  0.13021106129E+03  0.00000000000E+00 0. -1.
         23    2    1    2    0    0  0.38580198984E+02 -0.41484601055E+01 -0.52930482870E+01  0.13107729521E+03  0.12509036527E+03 0.  0.
          5    1    3    3  502    0  0.79552272678E+01 -0.11166681766E+02  0.58293014121E+02  0.60029395448E+02  0.41800000000E+01 0. -1.
         -5    1    3    3    0  502  0.30624971716E+02  0.70182216600E+01 -0.63586062408E+02  0.71047899761E+02  0.41800000000E+01 0. -1.
        -11    1    1    2    0    0 -0.32866127121E+02 -0.18250405970E+02  0.26483635941E+02  0.45985243314E+02  0.00000000000E+00 0.  1.
         11    1    1    2    0    0 -0.57140718634E+01  0.22398866076E+02 -0.49719567250E+02  0.54830604467E+02  0.00000000000E+00 0. -1.
</event>
<event>
 6    1  0.8661710E-006  0.1465879E+03  0.7561462E-02  0.1204730E+00
          1   -1    0    0  501    0  0.00000000000E+00  0.00000000000E+00  0.13637808528E+03  0.13637808528E+03  0.00000000000E+00 0. -1.
         -1   -1    0    0    0  501 -0.00000000000E+00 -0.00000000000E+00 -0.17548944246E+03  0.17548944246E+03  0.00000000000E+00 0.  1.
          5    1    1    2  502    0 -0.84467875537E+02 -0.27480985687E+02 -0.15290839426E+02  0.90229201162E+02  0.41800000000E+01 0. -1.
         -5    1    1    2    0  502  0.96000755323E+02 -0.36368721958E+02 -0.41042665691E+02  0.11063815692E+03  0.41800000000E+01 0.  1.
        -11    1    1    2    0    0  0.32182221120E+02  0.41181908991E+02 -0.12155544479E+02  0.53660061927E+02  0.00000000000E+00 0.  1.
         11    1    1    2    0    0 -0.43715100907E+02  0.22667798654E+02  0.29377692422E+02  0.57340107735E+02  0.00000000000E+00 0. -1.
</event>
<event>
 7    1  0.8661710E-006  0.9132736E+02  0.7561462E-02  0.1299669E+00
          1   -1    0    0  501    0  0.00000000000E+00  0.00000000000E+00  0.94340475776E+02  0.94340475776E+02  0.00000000000E+00 0. -1.
         -1   -1    0    0    0  501 -0.00000000000E+00 -0.00000000000E+00 -0.24647636827E+03  0.24647636827E+03  0.00000000000E+00 0.  1.
         23    2    1    2    0    0  0.12619407819E+02  0.68966526089E+02 -0.17273959667E+03  0.22450453370E+03  0.12509071196E+03 0.  0.
          5    1    3    3  502    0  0.75156575836E+01  0.77307021280E+02 -0.33220793034E+02  0.84581050702E+02  0.41800000000E+01 0.  1.
         -5    1    3    3    0  502  0.51037502356E+01 -0.83404951909E+01 -0.13951880363E+03  0.13992348300E+03  0.41800000000E+01 0.  1.
        -11    1    1    2    0    0  0.60371477640E+01  0.10770003896E+02 -0.21075517501E+02  0.24425756385E+02  0.00000000000E+00 0.  1.
         11    1    1    2    0    0 -0.18656555583E+02 -0.79736529985E+02  0.41679221672E+02  0.91886553965E+02  0.00000000000E+00 0. -1.
</event>
<event>
 7    1  0.8661710E-006  0.1619072E+03  0.7561462E-02  0.1186560E+00
         -2   -1    0    0    0  501 -0.00000000000E+00  0.00000000000E+00  0.43663434635E+02  0.43663434635E+02  0.00000000000E+00 0.  1.
          2   -1    0    0  501    0  0.00000000000E+00 -0.00000000000E+00 -0.75948626948E+03  0.75948626948E+03  0.00000000000E+00 0. -1.
         23    2    1    2    0    0 -0.14112305294E+03 -0.12853096584E+02 -0.45175106136E+03  0.48970114359E+03  0.12508905001E+03 0.  0.
          5    1    3    3  502    0 -0.11065136576E+03  0.38995030054E+02 -0.36965262409E+03  0.38784645417E+03  0.41800000000E+01 0.  1.
         -5    1    3    3    0  502 -0.30471687180E+02 -0.51848126638E+02 -0.82098437265E+02  0.10185468942E+03  0.41800000000E+01 0.  1.
        -11    1    1    2    0    0  0.97049235848E+02 -0.79949052135E+01 -0.89723576497E+02  0.13241145293E+03  0.00000000000E+00 0.  1.
         11    1    1    2    0    0  0.44073817093E+02  0.20848001798E+02 -0.17434819699E+03  0.18103710759E+03  0.00000000000E+00 0. -1.
</event>
<event>
 7    1  0.8661710E-006  0.8005182E+02  0.7561462E-02  0.1328904E+00
          1   -1    0    0  501    0  0.00000000000E+00  0.00000000000E+00  0.23875906183E+03  0.23875906183E+03  0.00000000000E+00 0. -1.
         -1   -1    0    0    0  501 -0.00000000000E+00 -0.00000000000E+00 -0.57584081979E+02  0.57584081979E+02  0.00000000000E+00 0.  1.
         23    2    1    2    0    0 -0.21864733589E+02 -0.31298636710E+02  0.75080692172E+02  0.15080082300E+03  0.12508439809E+03 0.  0.
          5    1    3    3  502    0  0.11869097131E+01  0.25862696902E+02  0.84350476519E+02  0.88333250447E+02  0.41800000000E+01 0. -1.
         -5    1    3    3    0  502 -0.23051643302E+02 -0.57161333612E+02 -0.92697843463E+01  0.62467572556E+02  0.41800000000E+01 0. -1.
        -11    1    1    2    0    0 -0.16264953651E+02 -0.73163494551E+01 -0.77341929146E+01  0.19439532573E+02  0.00000000000E+00 0.  1.
         11    1    1    2    0    0  0.38129687240E+02  0.38614986166E+02  0.11382848060E+03  0.12610278823E+03  0.00000000000E+00 0. -1.
</event>
<event>
 7    1  0.8661710E-006  0.1162449E+03  0.7561462E-02  0.1249424E+00
          1   -1    0    0  501    0  0.00000000000E+00  0.00000000000E+00  0.35317912199E+03  0.35317912199E+03  0.00000000000E+00 0. -1.
         -1   -1    0    0    0  501 -0.00000000000E+00 -0.00000000000E+00 -0.46371308318E+02  0.46371308318E+02  0.00000000000E+00 0.  1.
         23    2    1    2    0    0 -0.53603561271E+02 -0.40806209672E+02  0.15274481902E+03  0.20860895245E+03  0.12509287260E+03 0.  0.
          5    1    3    3  502    0  0.26590987624E+01 -0.74970719601E+02  0.69006360122E+02  0.10201485059E+03  0.41800000000E+01 0. -1.
         -5    1    3    3    0  502 -0.56262660033E+02  0.34164509929E+02  0.83738458899E+02  0.10659410186E+03  0.41800000000E+01 0. -1.
        -11    1    1    2    0    0 -0.12803006189E+02  0.16044631801E+02 -0.89372880431E+00  0.20546190115E+02  0.00000000000E+00 0.  1.
         11    1    1    2    0    0  0.66406567459E+02  0.24761577872E+02  0.15495672345E+03  0.17039528774E+03  0.00000000000E+00 0. -1.
</event>
<event>
 7    1  0.8661710E-006  0.1610062E+03  0.7561462E-02  0.1187565E+00
          2   -1    0    0  501    0  0.00000000000E+00  0.00000000000E+00  0.10848863551E+04  0.10848863551E+04  0.00000000000E+00 0. -1.
         -2   -1    0    0    0  501 -0.00000000000E+00 -0.00000000000E+00 -0.24367952930E+02  0.24367952930E+02  0.00000000000E+00 0.  1.
         23    2    1    2    0    0  0.10721090001E+03 -0.57549528827E+02  0.54611812707E+03  0.57332267809E+03  0.12509100345E+03 0.  0.
          5    1    3    3  502    0 -0.27985313550E+02 -0.63360791986E+01  0.71475921352E+02  0.77133672330E+02  0.41800000000E+01 0.  1.
         -5    1    3    3    0  502  0.13519621356E+03 -0.51213449628E+02  0.47464220572E+03  0.49618900576E+03  0.41800000000E+01 0.  1.
        -11    1    1    2    0    0 -0.90395054628E+01 -0.20865770475E+02  0.51788363019E+02  0.56560830799E+02  0.00000000000E+00 0.  1.
         11    1    1    2    0    0 -0.98171394551E+02  0.78415299301E+02  0.46261191212E+03  0.47937079918E+03  0.00000000000E+00 0. -1.
</event>
<event>
 7    1  0.8661710E-006  0.1751290E+03  0.7561462E-02  0.1172602E+00
          2   -1    0    0  501    0  0.00000000000E+00  0.00000000000E+00  0.24071761566E+03  0.24071761566E+03  0.00000000000E+00 0. -1.
         -2   -1    0    0    0  501 -0.00000000000E+00 -0.00000000000E+00 -0.13768926076E+03  0.13768926076E+03  0.00000000000E+00 0.  1.
         23    2    1    2    0    0  0.13156855479E+03 -0.53132710721E+02  0.26180544068E+02  0.19096580477E+03  0.12509655529E+03 0.  0.
          5    1    3    3  502    0  0.17775305136E+02 -0.69556634573E+02 -0.39999554910E+01  0.72024710549E+02  0.41800000000E+01 0.  1.
         -5    1    3    3    0  502  0.11379324965E+03  0.16423923851E+02  0.30180499559E+02  0.11894109422E+03  0.41800000000E+01 0.  1.
        -11    1    1    2    0    0  0.81245620675E+01  0.17250881605E+02 -0.73493084680E+01  0.20435600307E+02  0.00000000000E+00 0.  1.
         11    1    1    2    0    0 -0.13969311685E+03  0.35881829116E+02  0.84197119303E+02  0.16700547134E+03  0.00000000000E+00 0. -1.
</event>
<event>
 7    1  0.8661710E-006  0.1346790E+03  0.7561462E-02  0.1220674E+00
          3   -1    0    0  501    0  0.00000000000E+00  0.00000000000E+00  0.15083904367E+02  0.15083904367E+02  0.00000000000E+00 0. -1.
         -3   -1    0    0    0  501 -0.00000000000E+00 -0.00000000000E+00 -0.13367368615E+04  0.13367368615E+04  0.00000000000E+00 0.  1.
         23    2    1    2    0    0  0.69147363547E+02  0.55283392796E+02 -0.84432331767E+03  0.85811826272E+03  0.12508987431E+03 0.  0.
          5    1    3    3  502    0 -0.22263284056E+02 -0.15625614673E+02 -0.31930076123E+03  0.32048441799E+03  0.41800000000E+01 0.  1.
         -5    1    3    3    0  502  0.91410647603E+02  0.70909007469E+02 -0.52502255644E+03  0.53763384474E+03  0.41800000000E+01 0.  1.
        -11    1    1    2    0    0 -0.22517818967E+02  0.24742180147E+02 -0.13005329275E+03  0.13428732854E+03  0.00000000000E+00 0. -1.
         11    1    1    2    0    0 -0.46629544580E+02 -0.80025572943E+02 -0.34727634670E+03  0.35941517459E+03  0.00000000000E+00 0.  1.
</event>
<event>
 7    1  0.8661710E-006  0.9048524E+02  0.7561462E-02  0.1301681E+00
          3   -1    0    0  501    0  0.00000000000E+00  0.00000000000E+00  0.10532769948E+03  0.10532769948E+03  0.00000000000E+00 0. -1.
         -3   -1    0    0    0  501 -0.00000000000E+00 -0.00000000000E+00 -0.11744412427E+03  0.11744412427E+03  0.00000000000E+00 0.  1.
         23    2    1    2    0    0  0.10094205261E+02  0.29382848148E+02 -0.11973390626E+02  0.12943990209E+03  0.12508429728E+03 0.  0.
          5    1    3    3  502    0 -0.54647037834E+02  0.23002673302E+01 -0.20632120188E+02  0.58606712562E+02  0.41800000000E+01 0. -1.
         -5    1    3    3    0  502  0.64741243095E+02  0.27082580818E+02  0.86587295616E+01  0.70833189529E+02  0.41800000000E+01 0. -1.
        -11    1    1    2    0    0 -0.18755748801E+02 -0.38753158682E+02 -0.35462624043E+02  0.55777980646E+02  0.00000000000E+00 0.  1.
         11    1    1    2    0    0  0.86615435395E+01  0.93703105344E+01  0.35319589877E+02  0.37553941006E+02  0.00000000000E+00 0. -1.
</event>
<event>
 7    1  0.8661710E-006  0.1102192E+03  0.7561462E-02  0.1260165E+00
         -1   -1    0    0    0  501 -0.00000000000E+00  0.00000000000E+00  0.47689651032E+02  0.47689651032E+02  0.00000000000E+00 0.  1.
          1   -1    0    0  501    0  0.00000000000E+00 -0.00000000000E+00 -0.32754255581E+03  0.32754255581E+03  0.00000000000E+00 0. -1.
         23    2    1    2    0    0 -0.21214636502E+02  0.45249240780E+02 -0.99884281093E+02  0.16769568329E+03  0.12508963983E+03 0.  0.
          5    1    3    3  502    0  0.48512548969E+02  0.27462572982E+02 -0.18281410200E+02  0.58816177036E+02  0.41800000000E+01 0. -1.
         -5    1    3    3    0  502 -0.69727185471E+02  0.17786667798E+02 -0.81602870894E+02  0.10887950626E+03  0.41800000000E+01 0. -1.
        -11    1    1    2    0    0 -0.14568267411E+02  0.15924859727E+02 -0.10825393769E+02  0.24145904890E+02  0.00000000000E+00 0.  1.
         11    1    1    2    0    0  0.35782903913E+02 -0.61174100507E+02 -0.16914322991E+03  0.18339061866E+03  0.00000000000E+00 0. -1.
</event>
<event>
 7    1  0.8661710E-006  0.1091440E+03  0.7561462E-02  0.1262163E+00
          3   -1    0    0  501    0  0.00000000000E+00  0.00000000000E+00  0.46867809038E+02  0.46867809038E+02  0.00000000000E+00 0. -1.
         -3   -1    0    0    0  501 -0.00000000000E+00 -0.00000000000E+00 -0.26536754930E+03  0.26536754930E+03  0.00000000000E+00 0.  1.
         23    2    1    2    0    0  0.23080928130E+02 -0.16690938895E+02 -0.14592650461E+03  0.19430259937E+03  0.12509052198E+03 0.  0.
          5    1    3    3  502    0  0.29435540182E+02  0.51505278207E+02 -0.73218615075E+02  0.94327528869E+02  0.41800000000E+01 0.  1.
         -5    1    3    3    0  502 -0.63546120518E+01 -0.68196217102E+02 -0.72707889535E+02  0.99975070503E+02  0.41800000000E+01 0.  1.
        -11    1    1    2    0    0  0.21718045826E+02 -0.22066274940E+02 -0.39162366977E+02  0.49922790302E+02  0.00000000000E+00 0.  1.
         11    1    1    2    0    0 -0.44798973956E+02  0.38757213835E+02 -0.33410868671E+02  0.68009968660E+02  0.00000000000E+00 0. -1.
</event>
<event>
 7    1  0.8661710E-006  0.1598455E+03  0.7561462E-02  0.1188871E+00
          3   -1    0    0  501    0  0.00000000000E+00  0.00000000000E+00  0.25975174619E+03  0.25975174619E+03  0.00000000000E+00 0. -1.
         -3   -1    0    0    0  501 -0.00000000000E+00 -0.00000000000E+00 -0.18488352917E+03  0.18488352917E+03  0.00000000000E+00 0.  1.
         23    2    1    2    0    0 -0.13936982712E+03  0.46939785026E+02 -0.83696965772E+02  0.21042677020E+03  0.12508777481E+03 0.  0.
          5    1    3    3  502    0  0.43141953862E+01 -0.14941920607E+02 -0.47000665247E+02  0.49683077672E+02  0.41800000000E+01 0.  1.
         -5    1    3    3    0  502 -0.14368402250E+03  0.61881705634E+02 -0.36696300525E+02  0.16074369253E+03  0.41800000000E+01 0.  1.
        -11    1    1    2    0    0  0.75184936475E+02 -0.26766249355E+02  0.14509146227E+03  0.16559208677E+03  0.00000000000E+00 0.  1.
         11    1    1    2    0    0  0.64184890643E+02 -0.20173535672E+02  0.13473720526E+02  0.68616418393E+02  0.00000000000E+00 0. -1.
</event>
<event>
 7    1  0.8661710E-006  0.2609296E+03  0.7561462E-02  0.1106586E+00
          2   -1    0    0  501    0  0.00000000000E+00  0.00000000000E+00  0.20776351914E+04  0.20776351914E+04  0.00000000000E+00 0.  1.
         -2   -1    0    0    0  501 -0.00000000000E+00 -0.00000000000E+00 -0.36735589394E+02  0.36735589394E+02  0.00000000000E+00 0. -1.
         23    2    1    2    0    0  0.45246193889E+00 -0.24155386196E+03  0.74660987296E+03  0.79462424775E+03  0.12511162917E+03 0.  0.
          5    1    3    3  502    0  0.28164806361E+02 -0.79000809868E+01  0.39138614801E+02  0.49040505355E+02  0.41800000000E+01 0. -1.
         -5    1    3    3    0  502 -0.27712344422E+02 -0.23365378097E+03  0.70747125816E+03  0.74558374239E+03  0.41800000000E+01 0. -1.
        -11    1    1    2    0    0  0.40801562976E+02  0.74842099707E+02  0.37679491858E+03  0.38631660344E+03  0.00000000000E+00 0.  1.
         11    1    1    2    0    0 -0.41254024915E+02  0.16671176225E+03  0.91749481050E+03  0.93342992963E+03  0.00000000000E+00 0. -1.
</event>
<event>
 7    1  0.8661710E-006  0.1107920E+03  0.7561462E-02  0.1259110E+00
          2   -1    0    0  501    0  0.00000000000E+00  0.00000000000E+00  0.37371292443E+03  0.37371292443E+03  0.00000000000E+00 0. -1.
         -2   -1    0    0    0  501 -0.00000000000E+00 -0.00000000000E+00 -0.36295358228E+02  0.36295358228E+02  0.00000000000E+00 0.  1.
         23    2    1    2    0    0  0.23128667535E+02  0.14687956477E+02  0.13977053523E+03  0.18884201744E+03  0.12399529710E+03 0.  0.
          5    1    3    3  502    0  0.73535702380E+02  0.16678183858E+02  0.94179073592E+02  0.12071798393E+03  0.41800000000E+01 0. -1.
         -5    1    3    3    0  502 -0.50407034846E+02 -0.19902273803E+01  0.45591461637E+02  0.68124033506E+02  0.41800000000E+01 0. -1.
        -11    1    1    2    0    0 -0.39605969116E+02 -0.45610892342E+02  0.93806967823E+02  0.11157389256E+03  0.00000000000E+00 0.  1.
         11    1    1    2    0    0  0.16477301581E+02  0.30922935865E+02  0.10384006315E+03  0.10959237266E+03  0.00000000000E+00 0. -1.
</event>
<event>
 7    1  0.8661710E-006  0.9604719E+02  0.7561462E-02  0.1288835E+00
          1   -1    0    0  501    0  0.00000000000E+00  0.00000000000E+00  0.17863873278E+02  0.17863873278E+02  0.00000000000E+00 0. -1.
         -1   -1    0    0    0  501 -0.00000000000E+00 -0.00000000000E+00 -0.84157233302E+03  0.84157233302E+03  0.00000000000E+00 0.  1.
         23    2    1    2    0    0 -0.16415467755E+02 -0.42551842132E+02 -0.59074069737E+03  0.60555870068E+03  0.12508653639E+03 0.  0.
          5    1    3    3  502    0 -0.47195907556E+02 -0.80870288386E+01 -0.84640924627E+02  0.97336592539E+02  0.41800000000E+01 0.  1.
         -5    1    3    3    0  502  0.30780439801E+02 -0.34464813294E+02 -0.50609977274E+03  0.50822210814E+03  0.41800000000E+01 0.  1.
        -11    1    1    2    0    0  0.48509204013E+02  0.58255430092E+01 -0.84551646707E+02  0.97652756163E+02  0.00000000000E+00 0. -1.
         11    1    1    2    0    0 -0.32093736259E+02  0.36726299123E+02 -0.14841611567E+03  0.15622474946E+03  0.00000000000E+00 0.  1.
</event>
<event>
 7    1  0.8661710E-006  0.2020608E+03  0.7561462E-02  0.1148012E+00
         -2   -1    0    0    0  501 -0.00000000000E+00  0.00000000000E+00  0.27348047095E+03  0.27348047095E+03  0.00000000000E+00 0.  1.
          2   -1    0    0  501    0  0.00000000000E+00 -0.00000000000E+00 -0.19120798956E+03  0.19120798956E+03  0.00000000000E+00 0. -1.
         23    2    1    2    0    0  0.13407537521E+03 -0.14725633923E+03  0.84648694980E+02  0.24994841116E+03  0.12509264966E+03 0.  0.
          5    1    3    3  502    0  0.52258676817E+02 -0.27838793248E+02 -0.28808036133E+02  0.65979868582E+02  0.41800000000E+01 0. -1.
         -5    1    3    3    0  502  0.81816698389E+02 -0.11941754599E+03  0.11345673111E+03  0.18396854258E+03  0.41800000000E+01 0. -1.
        -11    1    1    2    0    0 -0.85143932555E+02  0.80475505600E+02 -0.40007836707E+02  0.12379993235E+03  0.00000000000E+00 0. -1.
         11    1    1    2    0    0 -0.48931442651E+02  0.66780833635E+02  0.37631623115E+02  0.90940116995E+02  0.00000000000E+00 0.  1.
</event>
<event>
 7    1  0.8661710E-006  0.1492690E+03  0.7561462E-02  0.1201374E+00
          1   -1    0    0  501    0  0.00000000000E+00  0.00000000000E+00  0.51890601258E+03  0.51890601258E+03  0.00000000000E+00 0. -1.
         -1   -1    0    0    0  501 -0.00000000000E+00 -0.00000000000E+00 -0.71504931251E+02  0.71504931251E+02  0.00000000000E+00 0.  1.
         23    2    1    2    0    0  0.10310997444E+03 -0.93009695956E+02  0.11721140463E+03  0.22061067793E+03  0.12509231579E+03 0.  0.
          5    1    3    3  502    0  0.44487164251E+02 -0.73719204488E+02 -0.20872900328E+01  0.86229102240E+02  0.41800000000E+01 0.  1.
         -5    1    3    3    0  502  0.58622810192E+02 -0.19290491469E+02  0.11929869467E+03  0.13438157569E+03  0.41800000000E+01 0.  1.
        -11    1    1    2    0    0 -0.74988115485E+02  0.96422420295E+02  0.31456521492E+03  0.33744892212E+03  0.00000000000E+00 0. -1.
         11    1    1    2    0    0 -0.28121858958E+02 -0.34127243394E+01  0.15624461767E+02  0.32351343777E+02  0.00000000000E+00 0.  1.
</event>
<event>
 7    1  0.8661710E-006  0.1195653E+03  0.7561462E-02  0.1243816E+00
          2   -1    0    0  501    0  0.00000000000E+00  0.00000000000E+00  0.20649451018E+02  0.20649451018E+02  0.00000000000E+00 0. -1.
         -2   -1    0    0    0  501 -0.00000000000E+00 -0.00000000000E+00 -0.84876814594E+03  0.84876814594E+03  0.00000000000E+00 0.  1.
         23    2    1    2    0    0 -0.51315432253E+02  0.54854645967E+02 -0.45985236949E+03  0.48244605810E+03  0.12509073299E+03 0.  0.
          5    1    3    3  502    0 -0.85931686217E+02  0.15175929253E+02 -0.34723675663E+03  0.35805781807E+03  0.41800000000E+01 0. -1.
         -5    1    3    3    0  502  0.34616253964E+02  0.39678716714E+02 -0.11261561286E+03  0.12438824003E+03  0.41800000000E+01 0. -1.
        -11    1    1    2    0    0  0.63741000109E+02 -0.28524769072E+02 -0.33735884789E+03  0.34451062363E+03  0.00000000000E+00 0.  1.
         11    1    1    2    0    0 -0.12425567856E+02 -0.26329876895E+02 -0.30907477541E+02  0.42460915225E+02  0.00000000000E+00 0. -1.
</event>
<event>
 7    1  0.8661710E-006  0.1469903E+03  0.7561462E-02  0.1204221E+00
         -3   -1    0    0    0  501 -0.00000000000E+00  0.00000000000E+00  0.18045837648E+03  0.18045837648E+03  0.00000000000E+00 0.  1.
          3   -1    0    0  501    0  0.00000000000E+00 -0.00000000000E+00 -0.15220360457E+03  0.15220360457E+03  0.00000000000E+00 0. -1.
         23    2    1    2    0    0  0.99857787888E+02  0.51936522164E+02  0.72753392173E+02  0.18332984673E+03  0.12509115274E+03 0.  0.
          5    1    3    3  502    0  0.88739173375E+02 -0.19676989563E+02  0.61612129332E+02  0.10988790511E+03  0.41800000000E+01 0.  1.
         -5    1    3    3    0  502  0.11118614513E+02  0.71613511728E+02  0.11141262840E+02  0.73441941616E+02  0.41800000000E+01 0.  1.
        -11    1    1    2    0    0 -0.98793947461E+02 -0.22992109089E+02 -0.58571547689E+02  0.11713030067E+03  0.00000000000E+00 0. -1.
         11    1    1    2    0    0 -0.10638404269E+01 -0.28944413075E+02  0.14072927425E+02  0.32201833660E+02  0.00000000000E+00 0.  1.
</event>
<event>
 7    1  0.8661710E-006  0.1876283E+03  0.7561462E-02  0.1160618E+00
          2   -1    0    0  501    0  0.00000000000E+00  0.00000000000E+00  0.53032913317E+03  0.53032913317E+03  0.00000000000E+00 0. -1.
         -2   -1    0    0    0  501 -0.00000000000E+00 -0.00000000000E+00 -0.73380551389E+02  0.73380551389E+02  0.00000000000E+00 0.  1.
         23    2    1    2    0    0 -0.12988350128E+03  0.89665031910E+02  0.14560306005E+03  0.24314212590E+03  0.11405393654E+03 0.  0.
          5    1    3    3  502    0  0.18401824955E+02  0.28679072698E+02  0.26218663120E+02  0.43197303947E+02  0.41800000000E+01 0. -1.
         -5    1    3    3    0  502 -0.14828532623E+03  0.60985959212E+02  0.11938439693E+03  0.19994482195E+03  0.41800000000E+01 0.  1.
        -11    1    1    2    0    0  0.76489105570E+01 -0.52099801176E+02  0.71978958902E+02  0.89184447298E+02  0.00000000000E+00 0.  1.
         11    1    1    2    0    0  0.12223459072E+03 -0.37565230733E+02  0.23936656283E+03  0.27138311136E+03  0.00000000000E+00 0. -1.
</event>
<event>
 7    1  0.8661710E-006  0.8457529E+02  0.7561462E-02  0.1316547E+00
          3   -1    0    0  501    0  0.00000000000E+00  0.00000000000E+00  0.37321753135E+02  0.37321753135E+02  0.00000000000E+00 0. -1.
         -3   -1    0    0    0  501 -0.00000000000E+00 -0.00000000000E+00 -0.37185339927E+03  0.37185339927E+03  0.00000000000E+00 0.  1.
         23    2    1    2    0    0  0.17310291235E+02  0.25745151016E+02 -0.23971960931E+03  0.27216804939E+03  0.12508995578E+03 0.  0.
          5    1    3    3  502    0  0.28887990239E+02 -0.14463110525E+02 -0.41081797317E+01  0.32833627378E+02  0.41800000000E+01 0.  1.
         -5    1    3    3    0  502 -0.11577699004E+02  0.40208261541E+02 -0.23561142958E+03  0.23933442201E+03  0.41800000000E+01 0.  1.
        -11    1    1    2    0    0  0.59599056080E+01 -0.56022220051E+02 -0.35909511341E+02  0.66809450073E+02  0.00000000000E+00 0. -1.
         11    1    1    2    0    0 -0.23270196843E+02  0.30277069034E+02 -0.58902525478E+02  0.70197652939E+02  0.00000000000E+00 0.  1.
</event>
<event>
 7    1  0.8661710E-006  0.7352300E+02  0.7561462E-02  0.1348507E+00
          3   -1    0    0  501    0  0.00000000000E+00  0.00000000000E+00  0.11304683639E+02  0.11304683639E+02  0.00000000000E+00 0. -1.
         -3   -1    0    0    0  501 -0.00000000000E+00 -0.00000000000E+00 -0.12030199170E+04  0.12030199170E+04  0.00000000000E+00 0.  1.
         23    2    1    2    0    0 -0.14033034842E+02  0.47603095104E+01 -0.88486748774E+03  0.89378922330E+03  0.12509643563E+03 0.  0.
          5    1    3    3  502    0 -0.37015617092E+02 -0.42905683946E+01 -0.78123088825E+02  0.86655953594E+02  0.41800000000E+01 0. -1.
         -5    1    3    3    0  502  0.22982582250E+02  0.90508779050E+01 -0.80674439891E+03  0.80713326970E+03  0.41800000000E+01 0. -1.
        -11    1    1    2    0    0 -0.25885133245E+02  0.23998447774E+02 -0.19749724447E+03  0.20062683567E+03  0.00000000000E+00 0.  1.
         11    1    1    2    0    0  0.39918168087E+02 -0.28758757285E+02 -0.10935050117E+03  0.11990854169E+03  0.00000000000E+00 0. -1.
</event>
<event>
 7    1  0.8661710E-006  0.1225178E+03  0.7561462E-02  0.1239000E+00
          1   -1    0    0  501    0  0.00000000000E+00  0.00000000000E+00  0.40328581731E+03  0.40328581731E+03  0.00000000000E+00 0. -1.
         -1   -1    0    0    0  501 -0.00000000000E+00 -0.00000000000E+00 -0.72763606668E+02  0.72763606668E+02  0.00000000000E+00 0.  1.
         23    2    1    2    0    0  0.24439230975E+02  0.99608890782E+02  0.60487375801E+02  0.17270069073E+03  0.12509036260E+03 0.  0.
          5    1    3    3  502    0  0.31286565931E+02  0.70177356122E+02  0.97839958150E+02  0.12447425569E+03  0.41800000000E+01 0.  1.
         -5    1    3    3    0  502 -0.68473349565E+01  0.29431534660E+02 -0.37352582349E+02  0.48226435039E+02  0.41800000000E+01 0.  1.
        -11    1    1    2    0    0  0.26912885163E+02 -0.76823034395E+02  0.17373871408E+03  0.19186251008E+03  0.00000000000E+00 0. -1.
         11    1    1    2    0    0 -0.51352116138E+02 -0.22785856388E+02  0.96296120759E+02  0.11148622317E+03  0.00000000000E+00 0.  1.
</event>
<event>
 7    1  0.8661710E-006  0.1233294E+03  0.7561462E-02  0.1237703E+00
          1   -1    0    0  501    0  0.00000000000E+00  0.00000000000E+00  0.52268645876E+02  0.52268645876E+02  0.00000000000E+00 0. -1.
         -1   -1    0    0    0  501 -0.00000000000E+00 -0.00000000000E+00 -0.29218322169E+03  0.29218322169E+03  0.00000000000E+00 0.  1.
         23    2    1    2    0    0 -0.48530604556E+02 -0.31662748826E+02 -0.14387893172E+03  0.19926391447E+03  0.12508881394E+03 0.  0.
          5    1    3    3  502    0  0.41129253295E+02  0.32382071369E+01 -0.40097888222E+02  0.57683745561E+02  0.41800000000E+01 0. -1.
         -5    1    3    3    0  502 -0.89659857850E+02 -0.34900955962E+02 -0.10378104350E+03  0.14158016891E+03  0.41800000000E+01 0. -1.
        -11    1    1    2    0    0  0.10637593241E+02 -0.32595978674E+02 -0.30565508628E+02  0.45933718914E+02  0.00000000000E+00 0. -1.
         11    1    1    2    0    0  0.37893011315E+02  0.64258727499E+02 -0.65470135460E+02  0.99254234184E+02  0.00000000000E+00 0.  1.
</event>
<event>
 7    1  0.8661710E-006  0.1045651E+03  0.7561462E-02  0.1270979E+00
         -1   -1    0    0    0  501 -0.00000000000E+00  0.00000000000E+00  0.13237518932E+03  0.13237518932E+03  0.00000000000E+00 0.  1.
          1   -1    0    0  501    0  0.00000000000E+00 -0.00000000000E+00 -0.13832810182E+03  0.13832810182E+03  0.00000000000E+00 0. -1.
         23    2    1    2    0    0  0.44793479680E+02 -0.56343609941E+02  0.33644899458E+02  0.14819064207E+03  0.12508968357E+03 0.  0.
          5    1    3    3  502    0  0.28447525673E+02  0.10283046859E+02  0.65627429224E+02  0.72383939076E+02  0.41800000000E+01 0. -1.
         -5    1    3    3    0  502  0.16345954007E+02 -0.66626656801E+02 -0.31982529766E+02  0.75806702996E+02  0.41800000000E+01 0. -1.
        -11    1    1    2    0    0 -0.27247620061E+02 -0.18536897353E+02 -0.30790955826E+02  0.45101356112E+02  0.00000000000E+00 0. -1.
         11    1    1    2    0    0 -0.17545859619E+02  0.74880507294E+02 -0.88068561325E+01  0.77411292958E+02  0.00000000000E+00 0.  1.
</event>
<event>
 7    1  0.8661710E-006  0.2446465E+03  0.7561462E-02  0.1116736E+00
          2   -1    0    0  501    0  0.00000000000E+00  0.00000000000E+00  0.90669623668E+03  0.90669623668E+03  0.00000000000E+00 0. -1.
         -2   -1    0    0    0  501 -0.00000000000E+00 -0.00000000000E+00 -0.82486026960E+02  0.82486026960E+02  0.00000000000E+00 0.  1.
         23    2    1    2    0    0 -0.23537483419E+03  0.39810745651E+02  0.28319714409E+03  0.39094223217E+03  0.12509595690E+03 0.  0.
          5    1    3    3  502    0 -0.23760347589E+02  0.27537549063E+02  0.11387181418E+03  0.11961242908E+03  0.41800000000E+01 0.  1.
         -5    1    3    3    0  502 -0.21161448661E+03  0.12273196588E+02  0.16932532992E+03  0.27132980310E+03  0.41800000000E+01 0.  1.
        -11    1    1    2    0    0  0.13664042993E+03 -0.77434276541E+01  0.20443891441E+03  0.24601999408E+03  0.00000000000E+00 0.  1.
         11    1    1    2    0    0  0.98734404265E+02 -0.32067317997E+02  0.33657415121E+03  0.35222003738E+03  0.00000000000E+00 0. -1.
</event>
<event>
 7    1  0.8661710E-006  0.9119552E+02  0.7561462E-02  0.1299982E+00
          2   -1    0    0  501    0  0.00000000000E+00  0.00000000000E+00  0.20525729383E+03  0.20525729383E+03  0.00000000000E+00 0. -1.
         -2   -1    0    0    0  501 -0.00000000000E+00 -0.00000000000E+00 -0.11557550486E+03  0.11557550486E+03  0.00000000000E+00 0.  1.
         23    2    1    2    0    0 -0.14141224298E+02 -0.50118751875E+02 -0.51551950429E+02  0.14497368896E+03  0.12509157999E+03 0.  0.
          5    1    3    3  502    0  0.33925164821E+02 -0.46224025354E+02  0.17994913443E+02  0.60240075016E+02  0.41800000000E+01 0. -1.
         -5    1    3    3    0  502 -0.48066389119E+02 -0.38947265213E+01 -0.69546863872E+02  0.84733613945E+02  0.41800000000E+01 0. -1.
        -11    1    1    2    0    0  0.25798128615E+02  0.79089645945E+00  0.50606609855E-02  0.25810249570E+02  0.00000000000E+00 0.  1.
         11    1    1    2    0    0 -0.11656904317E+02  0.49327855416E+02  0.14122867874E+03  0.15004886016E+03  0.00000000000E+00 0. -1.
</event>
<event>
 7    1  0.8661710E-006  0.1040803E+03  0.7561462E-02  0.1271942E+00
         -1   -1    0    0    0  501 -0.00000000000E+00  0.00000000000E+00  0.29661550850E+02  0.29661550850E+02  0.00000000000E+00 0.  1.
          1   -1    0    0  501    0  0.00000000000E+00 -0.00000000000E+00 -0.49558370185E+03  0.49558370185E+03  0.00000000000E+00 0. -1.
         23    2    1    2    0    0  0.16951404581E+02 -0.48361341701E+02 -0.26659304721E+03  0.29890726403E+03  0.12509008826E+03 0.  0.
          5    1    3    3  502    0  0.28234128835E+02  0.21007435739E+02 -0.19610365197E+03  0.19928018743E+03  0.41800000000E+01 0.  1.
         -5    1    3    3    0  502 -0.11282724254E+02 -0.69368777439E+02 -0.70489395244E+02  0.99627076600E+02  0.41800000000E+01 0.  1.
        -11    1    1    2    0    0  0.36205866369E+02  0.12984972624E+02 -0.44266024848E+02  0.58642605923E+02  0.00000000000E+00 0.  1.
         11    1    1    2    0    0 -0.53157270950E+02  0.35376369076E+02 -0.15506307894E+03  0.16769538274E+03  0.00000000000E+00 0. -1.
</event>
<event>
 7    1  0.8661710E-006  0.1045493E+03  0.7561462E-02  0.1271010E+00
          3   -1    0    0  501    0  0.00000000000E+00  0.00000000000E+00  0.69833237182E+02  0.69833237182E+02  0.00000000000E+00 0. -1.
         -3   -1    0    0    0  501 -0.00000000000E+00 -0.00000000000E+00 -0.29782932489E+03  0.29782932489E+03  0.00000000000E+00 0.  1.
         23    2    1    2    0    0  0.59170713938E+02 -0.66325892231E+02 -0.16518560399E+03  0.22546516395E+03  0.12509180237E+03 0.  0.
          5    1    3    3  502    0 -0.27982621902E+01 -0.31577496090E+02  0.12286368371E+02  0.34254865032E+02  0.41800000000E+01 0. -1.
         -5    1    3    3    0  502  0.61968976129E+02 -0.34748396141E+02 -0.17747197236E+03  0.19121029891E+03  0.41800000000E+01 0. -1.
        -11    1    1    2    0    0 -0.62450835193E+02  0.29651251807E+02  0.29733202564E+00  0.69133146583E+02  0.00000000000E+00 0. -1.
         11    1    1    2    0    0  0.32801212551E+01  0.36674640424E+02 -0.63107815739E+02  0.73064251539E+02  0.00000000000E+00 0.  1.
</event>
<event>
 7    1  0.8661710E-006  0.1723324E+03  0.7561462E-02  0.1175437E+00
         -2   -1    0    0    0  501 -0.00000000000E+00  0.00000000000E+00  0.58428298056E+02  0.58428298056E+02  0.00000000000E+00 0. -1.
          2   -1    0    0  501    0  0.00000000000E+00 -0.00000000000E+00 -0.68095482582E+03  0.68095482582E+03  0.00000000000E+00 0.  1.
         23    2    1    2    0    0  0.86331618077E+02 -0.14328148844E+03 -0.35029112876E+03  0.40784060839E+03  0.12508938308E+03 0.  0.
          5    1    3    3  502    0  0.59008004674E+02 -0.10476300258E+03 -0.33812882083E+03  0.35889525380E+03  0.41800000000E+01 0. -1.
         -5    1    3    3    0  502  0.27323613403E+02 -0.38518485860E+02 -0.12162307934E+02  0.48945354597E+02  0.41800000000E+01 0. -1.
        -11    1    1    2    0    0 -0.58994592269E+02  0.13661048553E+03 -0.26254317194E+03  0.30178088708E+03  0.00000000000E+00 0.  1.
         11    1    1    2    0    0 -0.27337025808E+02  0.66710029111E+01 -0.96922270643E+01  0.29761628406E+02  0.00000000000E+00 0. -1.
</event>
<event>
 7    1  0.8661710E-006  0.2686303E+03  0.7561462E-02  0.1102066E+00
          1   -1    0    0  501    0  0.00000000000E+00  0.00000000000E+00  0.66959591359E+03  0.66959591359E+03  0.00000000000E+00 0. -1.
         -1   -1    0    0    0  501 -0.00000000000E+00 -0.00000000000E+00 -0.14556224694E+03  0.14556224694E+03  0.00000000000E+00 0.  1.
         23    2    1    2    0    0 -0.24870198747E+03  0.80999447997E+02  0.95678725969E+02  0.30530957418E+03  0.12508368534E+03 0.  0.
          5    1    3    3  502    0 -0.19713046405E+03  0.69959051685E+02  0.16215401743E+02  0.20984542030E+03  0.41800000000E+01 0.  1.
         -5    1    3    3    0  502 -0.51571523417E+02  0.11040396312E+02  0.79463324226E+02  0.95464153876E+02  0.41800000000E+01 0.  1.
        -11    1    1    2    0    0  0.12747271961E+03  0.32390606553E+01  0.22397916427E+03  0.25773329585E+03  0.00000000000E+00 0. -1.
         11    1    1    2    0    0  0.12122926785E+03 -0.84238508652E+02  0.20437577641E+03  0.25211529051E+03  0.00000000000E+00 0.  1.
</event>
<event>
 7    1  0.8661710E-006  0.1273199E+03  0.7561462E-02  0.1231488E+00
         -1   -1    0    0    0  501 -0.00000000000E+00  0.00000000000E+00  0.28127581053E+03  0.28127581053E+03  0.00000000000E+00 0.  1.
          1   -1    0    0  501    0  0.00000000000E+00 -0.00000000000E+00 -0.10540851305E+03  0.10540851305E+03  0.00000000000E+00 0. -1.
         23    2    1    2    0    0 -0.77334664682E+02 -0.30648963033E+02  0.19586182219E+03  0.24683965111E+03  0.12509176899E+03 0.  0.
          5    1    3    3  502    0 -0.27566846031E+02 -0.65738971664E+02  0.45784400675E+02  0.84824684737E+02  0.41800000000E+01 0.  1.
         -5    1    3    3    0  502 -0.49767818650E+02  0.35090008631E+02  0.15007742152E+03  0.16201496637E+03  0.41800000000E+01 0.  1.
        -11    1    1    2    0    0  0.22561069536E+02  0.57080257526E+02 -0.42870948406E+02  0.74867054670E+02  0.00000000000E+00 0. -1.
         11    1    1    2    0    0  0.54773595145E+02 -0.26431294493E+02  0.22876423695E+02  0.64977617799E+02  0.00000000000E+00 0.  1.
</event>
<event>
 7    1  0.8661710E-006  0.8692284E+02  0.7561462E-02  0.1310479E+00
          1   -1    0    0  501    0  0.00000000000E+00  0.00000000000E+00  0.10867130268E+03  0.10867130268E+03  0.00000000000E+00 0. -1.
         -1   -1    0    0    0  501 -0.00000000000E+00 -0.00000000000E+00 -0.14603058092E+03  0.14603058092E+03  0.00000000000E+00 0.  1.
         23    2    1    2    0    0  0.46335327766E+02  0.42468636664E+02 -0.73829359250E+01  0.14018547576E+03  0.12508761798E+03 0.  0.
          5    1    3    3  502    0  0.67417887109E+02  0.49391329046E+01  0.37864553528E+02  0.77593578020E+02  0.41800000000E+01 0. -1.
         -5    1    3    3    0  502 -0.21082559343E+02  0.37529503759E+02 -0.45247489453E+02  0.62591897740E+02  0.41800000000E+01 0. -1.
        -11    1    1    2    0    0 -0.98169613239E+01 -0.82140811773E+01 -0.56447050995E+02  0.57880164350E+02  0.00000000000E+00 0.  1.
         11    1    1    2    0    0 -0.36518366442E+02 -0.34254555487E+02  0.26470708673E+02  0.56636243491E+02  0.00000000000E+00 0. -1.
</event>
<event>
 7    1  0.8661710E-006  0.1095886E+03  0.7561462E-02  0.1261334E+00
          1   -1    0    0  501    0  0.00000000000E+00  0.00000000000E+00  0.37398617101E+03  0.37398617101E+03  0.00000000000E+00 0.  1.
         -1   -1    0    0    0  501 -0.00000000000E+00 -0.00000000000E+00 -0.43142978260E+02  0.43142978260E+02  0.00000000000E+00 0. -1.
         23    2    1    2    0    0  0.42995987022E+02  0.29807674227E+02  0.11874018052E+03  0.18023327732E+03  0.12509057295E+03 0.  0.
          5    1    3    3  502    0 -0.66427663400E+01  0.58317652436E+02  0.13519796705E+02  0.60376586797E+02  0.41800000000E+01 0. -1.
         -5    1    3    3    0  502  0.49638753362E+02 -0.28509978210E+02  0.10522038382E+03  0.11985669053E+03  0.41800000000E+01 0. -1.
        -11    1    1    2    0    0  0.11818994780E+02 -0.44618375805E+02  0.69780119761E+02  0.83664527794E+02  0.00000000000E+00 0.  1.
         11    1    1    2    0    0 -0.54814981802E+02  0.14810701579E+02  0.14232289246E+03  0.15323134415E+03  0.00000000000E+00 0. -1.
</event>
<event>
 7    1  0.8661710E-006  0.1027264E+03  0.7561462E-02  0.1274665E+00
         -1   -1    0    0    0  501 -0.00000000000E+00  0.00000000000E+00  0.55577643740E+02  0.55577643740E+02  0.00000000000E+00 0.  1.
          1   -1    0    0  501    0  0.00000000000E+00 -0.00000000000E+00 -0.24415271714E+03  0.24415271714E+03  0.00000000000E+00 0. -1.
         23    2    1    2    0    0 -0.28430607342E+01 -0.15000446206E+02 -0.53885963552E+02  0.13705527689E+03  0.12508938994E+03 0.  0.
          5    1    3    3  502    0  0.48244205377E+02 -0.35289614659E+02  0.66873278287E-01  0.59919421954E+02  0.41800000000E+01 0. -1.
         -5    1    3    3    0  502 -0.51087266111E+02  0.20289168453E+02 -0.53952836831E+02  0.77135854940E+02  0.41800000000E+01 0. -1.
        -11    1    1    2    0    0 -0.40514847322E+02 -0.80423478843E+01 -0.50806081028E+02  0.65478164929E+02  0.00000000000E+00 0.  1.
         11    1    1    2    0    0  0.43357908056E+02  0.23042794090E+02 -0.83883028819E+02  0.97196919058E+02  0.00000000000E+00 0. -1.
</event>
<event>
 7    1  0.8661710E-006  0.1044481E+03  0.7561462E-02  0.1271211E+00
          2   -1    0    0  501    0  0.00000000000E+00  0.00000000000E+00  0.84519071040E+02  0.84519071040E+02  0.00000000000E+00 0.  1.
         -2   -1    0    0    0  501 -0.00000000000E+00 -0.00000000000E+00 -0.28582506596E+03  0.28582506596E+03  0.00000000000E+00 0. -1.
         23    2    1    2    0    0 -0.88200041830E+02 -0.45778567453E+02 -0.16699517128E+03  0.23110761533E+03  0.12509363699E+03 0.  0.
          5    1    3    3  502    0 -0.51336534214E+02 -0.14572054959E+01  0.29409848041E+01  0.51610899862E+02  0.41800000000E+01 0.  1.
         -5    1    3    3    0  502 -0.36863507616E+02 -0.44321361957E+02 -0.16993615608E+03  0.17949671546E+03  0.41800000000E+01 0.  1.
        -11    1    1    2    0    0  0.24973678897E+02  0.98337734046E+01  0.31337508929E+02  0.41260479916E+02  0.00000000000E+00 0.  1.
         11    1    1    2    0    0  0.63226362933E+02  0.35944794048E+02 -0.65648332576E+02  0.97976041759E+02  0.00000000000E+00 0. -1.
</event>
<event>
 7    1  0.8661710E-006  0.1788153E+03  0.7561462E-02  0.1168955E+00
         -2   -1    0    0    0  501 -0.00000000000E+00  0.00000000000E+00  0.53588779904E+02  0.53588779904E+02  0.00000000000E+00 0.  1.
          2   -1    0    0  501    0  0.00000000000E+00 -0.00000000000E+00 -0.70768696550E+03  0.70768696550E+03  0.00000000000E+00 0. -1.
         23    2    1    2    0    0  0.14092746466E+03 -0.69687863975E+02 -0.27160601550E+03  0.33783714719E+03  0.12508861533E+03 0.  0.
          5    1    3    3  502    0  0.15439928172E+03 -0.87475635376E+02 -0.24905767116E+03  0.30584035206E+03  0.41800000000E+01 0. -1.
         -5    1    3    3    0  502 -0.13471817066E+02  0.17787771401E+02 -0.22548344338E+02  0.31996795134E+02  0.41800000000E+01 0. -1.
        -11    1    1    2    0    0 -0.85782653484E+02  0.46776243758E+02 -0.12258758785E+03  0.15676223178E+03  0.00000000000E+00 0.  1.
         11    1    1    2    0    0 -0.55144811173E+02  0.22911620217E+02 -0.25990458225E+03  0.26667636643E+03  0.00000000000E+00 0. -1.
</event>
<event>
 6    1  0.8661710E-006  0.1078064E+03  0.7561462E-02  0.1264687E+00
          2   -1    0    0  501    0  0.00000000000E+00  0.00000000000E+00  0.24556719847E+03  0.24556719847E+03  0.00000000000E+00 0. -1.
         -2   -1    0    0    0  501 -0.00000000000E+00 -0.00000000000E+00 -0.10919998035E+03  0.10919998035E+03  0.00000000000E+00 0.  1.
          5    1    1    2  502    0  0.35704848727E+02  0.27273293981E+02  0.54277306567E+02  0.70584468513E+02  0.41800000000E+01 0. -1.
         -5    1    1    2    0  502 -0.70641385146E+02 -0.10636591443E+02 -0.71690625581E+02  0.10129343794E+03  0.41800000000E+01 0.  1.
        -11    1    1    2    0    0  0.54448507614E+02 -0.40678444969E+02  0.10251767350E+03  0.12300101319E+03  0.00000000000E+00 0.  1.
         11    1    1    2    0    0 -0.19511971195E+02  0.24041742432E+02  0.51262863641E+02  0.59888259181E+02  0.00000000000E+00 0. -1.
</event>
<event>
 7    1  0.8661710E-006  0.1510237E+03  0.7561462E-02  0.1199221E+00
         -2   -1    0    0    0  501 -0.00000000000E+00  0.00000000000E+00  0.41700007010E+03  0.41700007010E+03  0.00000000000E+00 0.  1.
          2   -1    0    0  501    0  0.00000000000E+00 -0.00000000000E+00 -0.99132915915E+02  0.99132915915E+02  0.00000000000E+00 0. -1.
         23    2    1    2    0    0 -0.38078358939E+02  0.12035714052E+03  0.31361835459E+03  0.36046697718E+03  0.12507664294E+03 0.  0.
          5    1    3    3  502    0 -0.63232114324E+02  0.11731341240E+03  0.17779296388E+03  0.22223534241E+03  0.41800000000E+01 0.  1.
         -5    1    3    3    0  502  0.25153755385E+02  0.30437281233E+01  0.13582539071E+03  0.13823163477E+03  0.41800000000E+01 0.  1.
        -11    1    1    2    0    0  0.28641093166E+02 -0.72657234205E+01 -0.24739569414E+02  0.38537634195E+02  0.00000000000E+00 0.  1.
         11    1    1    2    0    0  0.94372657733E+01 -0.11309141710E+03  0.28988369009E+02  0.11712837464E+03  0.00000000000E+00 0. -1.
</event>
<event>
 7    1  0.8661710E-006  0.1086929E+03  0.7561462E-02  0.1263010E+00
          1   -1    0    0  501    0  0.00000000000E+00  0.00000000000E+00  0.89554130882E+02  0.89554130882E+02  0.00000000000E+00 0. -1.
         -1   -1    0    0    0  501 -0.00000000000E+00 -0.00000000000E+00 -0.23052929337E+03  0.23052929337E+03  0.00000000000E+00 0.  1.
         23    2    1    2    0    0 -0.40350974143E+02 -0.19002234158E+01 -0.17148437257E+03  0.21609566410E+03  0.12513446384E+03 0.  0.
          5    1    3    3  502    0 -0.27548761962E+02 -0.61900408403E+02 -0.10913062174E+03  0.12852065923E+03  0.41800000000E+01 0.  1.
         -5    1    3    3    0  502 -0.12802212181E+02  0.60000184987E+02 -0.62353750831E+02  0.87575004869E+02  0.41800000000E+01 0.  1.
        -11    1    1    2    0    0  0.41730059412E+02  0.35253671721E+02 -0.54777537082E+01  0.54901958198E+02  0.00000000000E+00 0.  1.
         11    1    1    2    0    0 -0.13790852684E+01 -0.33353448305E+02  0.35986963799E+02  0.49085801954E+02  0.00000000000E+00 0. -1.
</event>
<event>
 7    1  0.8661710E-006  0.1088424E+03  0.7561462E-02  0.1262729E+00
          1   -1    0    0  501    0  0.00000000000E+00  0.00000000000E+00  0.34257318528E+03  0.34257318528E+03  0.00000000000E+00 0. -1.
         -1   -1    0    0    0  501 -0.00000000000E+00 -0.00000000000E+00 -0.57331576497E+02  0.57331576497E+02  0.00000000000E+00 0.  1.
         23    2    1    2    0    0  0.38691140199E+02  0.48634793854E+02  0.58627526842E+02  0.14818695128E+03  0.12107781846E+03 0.  0.
          5    1    3    3  502    0 -0.31178707479E+02  0.21240790936E+02  0.62278346113E+02  0.72933859038E+02  0.41800000000E+01 0. -1.
         -5    1    3    3    0  502  0.69869847677E+02  0.27394002918E+02 -0.36508192705E+01  0.75253092240E+02  0.41800000000E+01 0.  1.
        -11    1    1    2    0    0  0.81153043641E+01  0.19944992753E+02  0.21469110306E+02  0.30406966277E+02  0.00000000000E+00 0.  1.
         11    1    1    2    0    0 -0.46806444563E+02 -0.68579786607E+02  0.20514497164E+03  0.22131084422E+03  0.00000000000E+00 0. -1.
</event>
<event>
 7    1  0.8661710E-006  0.7986287E+02  0.7561462E-02  0.1329441E+00
         -1   -1    0    0    0  501 -0.00000000000E+00  0.00000000000E+00  0.27415612075E+03  0.27415612075E+03  0.00000000000E+00 0.  1.
          1   -1    0    0  501    0  0.00000000000E+00 -0.00000000000E+00 -0.40525642382E+02  0.40525642382E+02  0.00000000000E+00 0. -1.
         23    2    1    2    0    0 -0.73822348489E+01 -0.92006140099E+01  0.16422669196E+03  0.20677610362E+03  0.12508717755E+03 0.  0.
          5    1    3    3  502    0 -0.37381063031E+02 -0.33525959741E+02  0.14994290857E+02  0.52570286362E+02  0.41800000000E+01 0.  1.
         -5    1    3    3    0  502  0.29998828182E+02  0.24325345731E+02  0.14923240111E+03  0.15420581726E+03  0.41800000000E+01 0.  1.
        -11    1    1    2    0    0 -0.17698276214E+02  0.32018718059E+02  0.63790795698E+02  0.73537017229E+02  0.00000000000E+00 0.  1.
         11    1    1    2    0    0  0.25080511063E+02 -0.22818104049E+02  0.56129907079E+01  0.34368642281E+02  0.00000000000E+00 0. -1.
</event>
<event>
 7    1  0.8661710E-006  0.1204735E+03  0.7561462E-02  0.1242318E+00
         -2   -1    0    0    0  501 -0.00000000000E+00  0.00000000000E+00  0.53175909407E+03  0.53175909407E+03  0.00000000000E+00 0.  1.
          2   -1    0    0  501    0  0.00000000000E+00 -0.00000000000E+00 -0.43862513154E+02  0.43862513154E+02  0.00000000000E+00 0. -1.
         23    2    1    2    0    0  0.99081788377E+02 -0.93748706200E+01  0.34297259371E+03  0.37839486580E+03  0.12508950974E+03 0.  0.
          5    1    3    3  502    0  0.23459966299E+01  0.33989950856E+02  0.23069574953E+02  0.41358169058E+02  0.41800000000E+01 0.  1.
         -5    1    3    3    0  502  0.96735791747E+02 -0.43364821475E+02  0.31990301875E+03  0.33703669675E+03  0.41800000000E+01 0.  1.
        -11    1    1    2    0    0 -0.53023088588E+02 -0.20862797244E+01  0.97373552437E+01  0.53950130433E+02  0.00000000000E+00 0. -1.
         11    1    1    2    0    0 -0.46058699788E+02  0.11461150344E+02  0.13518663197E+03  0.14327661099E+03  0.00000000000E+00 0.  1.
</event>
<event>
 7    1  0.8661710E-006  0.9959235E+02  0.7561462E-02  0.1281156E+00
          2   -1    0    0  501    0  0.00000000000E+00  0.00000000000E+00  0.16105074488E+03  0.16105074488E+03  0.00000000000E+00 0. -1.
         -2   -1    0    0    0  501 -0.00000000000E+00 -0.00000000000E+00 -0.11823774091E+03  0.11823774091E+03  0.00000000000E+00 0.  1.
         23    2    1    2    0    0 -0.30973929311E+02  0.69141786353E+02 -0.15061755908E+02  0.14701809447E+03  0.12508993842E+03 0.  0.
          5    1    3    3  502    0 -0.16388479177E+02  0.27392310552E+01 -0.61982753742E+02  0.64307229749E+02  0.41800000000E+01 0.  1.
         -5    1    3    3    0  502 -0.14585450135E+02  0.66402555298E+02  0.46920997834E+02  0.82710864724E+02  0.41800000000E+01 0.  1.
        -11    1    1    2    0    0 -0.27545542050E+02 -0.66775317223E+01 -0.10368278082E+01  0.28362322342E+02  0.00000000000E+00 0.  1.
         11    1    1    2    0    0  0.58519471361E+02 -0.62464254631E+02  0.58911587687E+02  0.10390806898E+03  0.00000000000E+00 0. -1.
</event>
<event>
 7    1  0.8661710E-006  0.1994590E+03  0.7561462E-02  0.1150196E+00
         -1   -1    0    0    0  501 -0.00000000000E+00  0.00000000000E+00  0.96469586457E+02  0.96469586457E+02  0.00000000000E+00 0.  1.
          1   -1    0    0  501    0  0.00000000000E+00 -0.00000000000E+00 -0.63579722814E+03  0.63579722814E+03  0.00000000000E+00 0. -1.
         23    2    1    2    0    0 -0.68087771517E+02 -0.17813635616E+03 -0.10871243815E+03  0.25265662529E+03  0.12509384509E+03 0.  0.
          5    1    3    3  502    0 -0.84829211671E+02 -0.11634529863E+03 -0.23434907489E+02  0.14594139562E+03  0.41800000000E+01 0.  1.
         -5    1    3    3    0  502  0.16741440154E+02 -0.61791057524E+02 -0.85277530660E+02  0.10671522967E+03  0.41800000000E+01 0.  1.
        -11    1    1    2    0    0  0.39489697483E+02  0.10601812421E+03 -0.34955281065E+03  0.36740501671E+03  0.00000000000E+00 0. -1.
         11    1    1    2    0    0  0.28598074035E+02  0.72118231946E+02 -0.81062392884E+02  0.11220517260E+03  0.00000000000E+00 0.  1.
</event>
<event>
 7    1  0.8661710E-006  0.1304484E+03  0.7561462E-02  0.1226792E+00
          1   -1    0    0  501    0  0.00000000000E+00  0.00000000000E+00  0.27982198469E+03  0.27982198469E+03  0.00000000000E+00 0. -1.
         -1   -1    0    0    0  501 -0.00000000000E+00 -0.00000000000E+00 -0.95813681380E+02  0.95813681380E+02  0.00000000000E+00 0.  1.
         23    2    1    2    0    0 -0.16833560112E+02  0.97347188180E+02  0.46046921860E+02  0.16591320572E+03  0.12508808507E+03 0.  0.
          5    1    3    3  502    0 -0.67218623448E+02  0.26591520370E+02  0.19467086261E+02  0.74979278080E+02  0.41800000000E+01 0. -1.
         -5    1    3    3    0  502  0.50385063337E+02  0.70755667811E+02  0.26579835599E+02  0.90933927636E+02  0.41800000000E+01 0. -1.
        -11    1    1    2    0    0  0.21553108403E+02 -0.57610043468E+02 -0.45708532910E+01  0.61679383023E+02  0.00000000000E+00 0.  1.
         11    1    1    2    0    0 -0.47195482908E+01 -0.39737144712E+02  0.14253223474E+03  0.14804307733E+03  0.00000000000E+00 0. -1.
</event>
<event>
 7    1  0.8661710E-006  0.1763297E+03  0.7561462E-02  0.1171403E+00
         -1   -1    0    0    0  501 -0.00000000000E+00  0.00000000000E+00  0.57510338964E+02  0.57510338964E+02  0.00000000000E+00 0.  1.
          1   -1    0    0  501    0  0.00000000000E+00 -0.00000000000E+00 -0.57649812508E+03  0.57649812508E+03  0.00000000000E+00 0. -1.
         23    2    1    2    0    0 -0.66704053810E+02  0.12711282615E+03 -0.22716780875E+03  0.29641090270E+03  0.12508840290E+03 0.  0.
          5    1    3    3  502    0 -0.93245620362E+02  0.55989283189E+02 -0.16752446263E+03  0.19977853621E+03  0.41800000000E+01 0. -1.
         -5    1    3    3    0  502  0.26541566552E+02  0.71123542957E+02 -0.59643346119E+02  0.96632366493E+02  0.41800000000E+01 0. -1.
        -11    1    1    2    0    0  0.60326414697E+02 -0.24720032631E+02 -0.89195425256E+02  0.11048158313E+03  0.00000000000E+00 0.  1.
         11    1    1    2    0    0  0.63776391133E+01 -0.10239279352E+03 -0.20262455211E+03  0.22711597822E+03  0.00000000000E+00 0. -1.
</event>
<event>
 7    1  0.8661710E-006  0.1125409E+03  0.7561462E-02  0.1255936E+00
         -1   -1    0    0    0  501 -0.00000000000E+00  0.00000000000E+00  0.15615582775E+02  0.15615582775E+02  0.00000000000E+00 0.  1.
          1   -1    0    0  501    0  0.00000000000E+00 -0.00000000000E+00 -0.85541861063E+03  0.85541861063E+03  0.00000000000E+00 0. -1.
         23    2    1    2    0    0 -0.17003897061E+02 -0.30357317076E+02 -0.53627458532E+03  0.55176852822E+03  0.12508948261E+03 0.  0.
          5    1    3    3  502    0  0.27754977505E+02  0.36272549942E+02 -0.26101773890E+03  0.26501654491E+03  0.41800000000E+01 0. -1.
         -5    1    3    3    0  502 -0.44758874566E+02 -0.66629867018E+02 -0.27525684642E+03  0.28675198331E+03  0.41800000000E+01 0. -1.
        -11    1    1    2    0    0  0.44477509720E+02  0.48586339701E+02 -0.21064387483E+03  0.22070279400E+03  0.00000000000E+00 0. -1.
         11    1    1    2    0    0 -0.27473612659E+02 -0.18229022625E+02 -0.92884567709E+02  0.98562871188E+02  0.00000000000E+00 0.  1.
</event>
<event>
 7    1  0.8661710E-006  0.2453755E+03  0.7561462E-02  0.1116263E+00
         -2   -1    0    0    0  501 -0.00000000000E+00  0.00000000000E+00  0.57018275731E+02  0.57018275731E+02  0.00000000000E+00 0.  1.
          2   -1    0    0  501    0  0.00000000000E+00 -0.00000000000E+00 -0.11216146867E+04  0.11216146867E+04  0.00000000000E+00 0. -1.
         23    2    1    2    0    0 -0.57899943153E+00 -0.22073380123E+03 -0.40716730498E+03  0.47974587314E+03  0.12508853788E+03 0.  0.
          5    1    3    3  502    0  0.59782352340E+02 -0.14376555896E+03 -0.24514284306E+03  0.29043923890E+03  0.41800000000E+01 0.  1.
         -5    1    3    3    0  502 -0.60361351771E+02 -0.76968242276E+02 -0.16202446192E+03  0.18930663424E+03  0.41800000000E+01 0.  1.
        -11    1    1    2    0    0 -0.41968567567E+02  0.13512801786E+03 -0.38625065258E+03  0.41135204933E+03  0.00000000000E+00 0. -1.
         11    1    1    2    0    0  0.42547566998E+02  0.85605783373E+02 -0.27117845342E+03  0.28753503996E+03  0.00000000000E+00 0.  1.
</event>
<event>
 7    1  0.8661710E-006  0.9860487E+02  0.7561462E-02  0.1283257E+00
         -1   -1    0    0    0  501 -0.00000000000E+00  0.00000000000E+00  0.21570441097E+03  0.21570441097E+03  0.00000000000E+00 0.  1.
          1   -1    0    0  501    0  0.00000000000E+00 -0.00000000000E+00 -0.86748740017E+02  0.86748740017E+02  0.00000000000E+00 0. -1.
         23    2    1    2    0    0  0.34493825088E+02 -0.40944098485E+02  0.14138345217E+03  0.19622068519E+03  0.12508810327E+03 0.  0.
          5    1    3    3  502    0  0.42285659106E+02 -0.58386308128E+02  0.22349466812E+02  0.75591064350E+02  0.41800000000E+01 0. -1.
         -5    1    3    3    0  502 -0.77918340185E+01  0.17442209643E+02  0.11903398536E+03  0.12062962084E+03  0.41800000000E+01 0. -1.
        -11    1    1    2    0    0  0.82389641177E+00 -0.27982462643E+02 -0.48890069162E+01  0.28418293571E+02  0.00000000000E+00 0.  1.
         11    1    1    2    0    0 -0.35317721500E+02  0.68926561128E+02 -0.75387742983E+01  0.77814172223E+02  0.00000000000E+00 0. -1.
</event>
<event>
 7    1  0.8661710E-006  0.7005616E+02  0.7561462E-02  0.1359902E+00
         -1   -1    0    0    0  501 -0.00000000000E+00  0.00000000000E+00  0.77321411300E+02  0.77321411300E+02  0.00000000000E+00 0.  1.
          1   -1    0    0  501    0  0.00000000000E+00 -0.00000000000E+00 -0.18937896366E+03  0.18937896366E+03  0.00000000000E+00 0. -1.
         23    2    1    2    0    0 -0.20167756214E+01  0.47036418989E+02 -0.33339423005E+02  0.13779450041E+03  0.12513718521E+03 0.  0.
          5    1    3    3  502    0  0.20934887452E+02  0.40609265332E+02 -0.75985275013E+02  0.88761570300E+02  0.41800000000E+01 0. -1.
         -5    1    3    3    0  502 -0.22951663073E+02  0.64271536565E+01  0.42645852008E+02  0.49032930112E+02  0.41800000000E+01 0. -1.
        -11    1    1    2    0    0  0.25400282684E+02 -0.36301401843E+02  0.18349026317E+01  0.44343353548E+02  0.00000000000E+00 0.  1.
         11    1    1    2    0    0 -0.23383507062E+02 -0.10735017146E+02 -0.80553031982E+02  0.84562520996E+02  0.00000000000E+00 0. -1.
</event>
<event>
 7    1  0.8661710E-006  0.1115910E+03  0.7561462E-02  0.1257652E+00
         -3   -1    0    0    0  501 -0.00000000000E+00  0.00000000000E+00  0.46505585471E+02  0.46505585471E+02  0.00000000000E+00 0.  1.
          3   -1    0    0  501    0  0.00000000000E+00 -0.00000000000E+00 -0.43316112245E+03  0.43316112245E+03  0.00000000000E+00 0. -1.
         23    2    1    2    0    0  0.21527696502E+02  0.66284940739E+02 -0.14426721652E+03  0.20326617702E+03  0.12508786462E+03 0.  0.
          5    1    3    3  502    0  0.55563746171E+02  0.83349369112E+02 -0.12544733750E+03  0.16058939599E+03  0.41800000000E+01 0.  1.
         -5    1    3    3    0  502 -0.34036049669E+02 -0.17064428374E+02 -0.18819879018E+02  0.42676781029E+02  0.41800000000E+01 0.  1.
        -11    1    1    2    0    0  0.12591089638E+02 -0.38848017645E+02 -0.22598693257E+03  0.22964711561E+03  0.00000000000E+00 0. -1.
         11    1    1    2    0    0 -0.34118786140E+02 -0.27436923094E+02 -0.16401387887E+02  0.46753415288E+02  0.00000000000E+00 0.  1.
</event>
<event>
 7    1  0.8661710E-006  0.1379142E+03  0.7561462E-02  0.1216163E+00
         -3   -1    0    0    0  501 -0.00000000000E+00  0.00000000000E+00  0.10568115701E+04  0.10568115701E+04  0.00000000000E+00 0.  1.
          3   -1    0    0  501    0  0.00000000000E+00 -0.00000000000E+00 -0.18445589401E+02  0.18445589401E+02  0.00000000000E+00 0. -1.
         23    2    1    2    0    0 -0.72717951681E+01  0.84623108979E+02  0.63614536846E+03  0.65385145455E+03  0.12500738070E+03 0.  0.
          5    1    3    3  502    0 -0.40250496237E+02 -0.16864087780E+02  0.21014034795E+03  0.21466471098E+03  0.41800000000E+01 0.  1.
         -5    1    3    3    0  502  0.32978701069E+02  0.10148719676E+03  0.42600502051E+03  0.43918674357E+03  0.41800000000E+01 0.  1.
        -11    1    1    2    0    0  0.29628516553E+02 -0.95745165058E+02  0.30585904480E+03  0.32186136909E+03  0.00000000000E+00 0. -1.
         11    1    1    2    0    0 -0.22356721385E+02  0.11122056080E+02  0.96361567460E+02  0.99544335881E+02  0.00000000000E+00 0.  1.
</event>
<event>
 7    1  0.8661710E-006  0.1529227E+03  0.7561462E-02  0.1196927E+00
         -2   -1    0    0    0  501 -0.00000000000E+00  0.00000000000E+00  0.61968223311E+02  0.61968223311E+02  0.00000000000E+00 0.  1.
          2   -1    0    0  501    0  0.00000000000E+00 -0.00000000000E+00 -0.50102552815E+03  0.50102552815E+03  0.00000000000E+00 0. -1.
         23    2    1    2    0    0 -0.12890626364E+03  0.49117903616E+02 -0.24726067430E+03  0.30953706884E+03  0.12508382257E+03 0.  0.
          5    1    3    3  502    0 -0.10485075755E+03  0.27690609140E+02 -0.69590420344E+02  0.12892148850E+03  0.41800000000E+01 0.  1.
         -5    1    3    3    0  502 -0.24055506097E+02  0.21427294477E+02 -0.17767025395E+03  0.18061558034E+03  0.41800000000E+01 0.  1.
        -11    1    1    2    0    0  0.36774699128E+02 -0.61719675982E+02 -0.96507355309E+02  0.12031361738E+03  0.00000000000E+00 0.  1.
         11    1    1    2    0    0  0.92131564516E+02  0.12601772366E+02 -0.95289275234E+02  0.13314306524E+03  0.00000000000E+00 0. -1.
</event>
<event>
 7    1  0.8661710E-006  0.1117774E+03  0.7561462E-02  0.1257313E+00
          2   -1    0    0  501    0  0.00000000000E+00  0.00000000000E+00  0.17639928583E+03  0.17639928583E+03  0.00000000000E+00 0. -1.
         -2   -1    0    0    0  501 -0.00000000000E+00 -0.00000000000E+00 -0.74437914289E+02  0.74437914289E+02  0.00000000000E+00 0.  1.
         23    2    1    2    0    0  0.38529754363E+02  0.76513245912E+01  0.63562624283E+02  0.14568944844E+03  0.12506847502E+03 0.  0.
          5    1    3    3  502    0 -0.17546459150E+02 -0.48406540408E+02  0.26667667908E+02  0.58135258618E+02  0.41800000000E+01 0.  1.
         -5    1    3    3    0  502  0.56076213514E+02  0.56057864999E+02  0.36894956374E+02  0.87554189826E+02  0.41800000000E+01 0.  1.
        -11    1    1    2    0    0 -0.48559544311E+02  0.27593488929E+02  0.39629333122E+02  0.68482946919E+02  0.00000000000E+00 0. -1.
         11    1    1    2    0    0  0.10029789947E+02 -0.35244813520E+02 -0.12305858607E+01  0.36664804759E+02  0.00000000000E+00 0.  1.
</event>
<event>
 7    1  0.8661710E-006  0.1303098E+03  0.7561462E-02  0.1226997E+00
         -1   -1    0    0    0  501 -0.00000000000E+00  0.00000000000E+00  0.28667326433E+02  0.28667326433E+02  0.00000000000E+00 0.  1.
          1   -1    0    0  501    0  0.00000000000E+00 -0.00000000000E+00 -0.74654168315E+03  0.74654168315E+03  0.00000000000E+00 0. -1.
         23    2    1    2    0    0  0.58369749119E+01  0.90919531531E+02 -0.26772068177E+03  0.30922709954E+03  0.12508638677E+03 0.  0.
          5    1    3    3  502    0  0.51278179820E+02  0.15351763417E+02 -0.16638495014E+03  0.17483292710E+03  0.41800000000E+01 0. -1.
         -5    1    3    3    0  502 -0.45441204908E+02  0.75567768114E+02 -0.10133573163E+03  0.13439417244E+03  0.41800000000E+01 0. -1.
        -11    1    1    2    0    0 -0.39242514244E+02 -0.66712095541E+02 -0.25371216233E+03  0.26525523544E+03  0.00000000000E+00 0.  1.
         11    1    1    2    0    0  0.33405539332E+02 -0.24207435989E+02 -0.19644151263E+03  0.20072667461E+03  0.00000000000E+00 0. -1.
</event>
<event>
 7    1  0.8661710E-006  0.2675822E+03  0.7561462E-02  0.1102671E+00
         -1   -1    0    0    0  501 -0.00000000000E+00  0.00000000000E+00  0.10118931395E+03  0.10118931395E+03  0.00000000000E+00 0.  1.
          1   -1    0    0  501    0  0.00000000000E+00 -0.00000000000E+00 -0.72675813572E+03  0.72675813572E+03  0.00000000000E+00 0. -1.
         23    2    1    2    0    0 -0.19836457193E+03  0.14834378922E+03 -0.33846848444E+03  0.43767924671E+03  0.12509126605E+03 0.  0.
          5    1    3    3  502    0 -0.21541565392E+03  0.14075979486E+03 -0.32355408526E+03  0.41342707010E+03  0.41800000000E+01 0.  1.
         -5    1    3    3    0  502  0.17051081988E+02  0.75839943575E+01 -0.14914399180E+02  0.24252176609E+02  0.41800000000E+01 0.  1.
        -11    1    1    2    0    0  0.34782739993E+02  0.41664631129E+01 -0.71500015040E+02  0.79620666708E+02  0.00000000000E+00 0. -1.
         11    1    1    2    0    0  0.16358183194E+03 -0.15251025233E+03 -0.21560032229E+03  0.31064753625E+03  0.00000000000E+00 0.  1.
</event>
<event>
 7    1  0.8661710E-006  0.1284592E+03  0.7561462E-02  0.1229760E+00
         -2   -1    0    0    0  501 -0.00000000000E+00  0.00000000000E+00  0.22343646601E+03  0.22343646601E+03  0.00000000000E+00 0.  1.
          2   -1    0    0  501    0  0.00000000000E+00 -0.00000000000E+00 -0.10707271181E+03  0.10707271181E+03  0.00000000000E+00 0. -1.
         23    2    1    2    0    0 -0.76060444493E+02  0.62703418212E+02  0.11413365480E+03  0.19593552607E+03  0.12508928549E+03 0.  0.
          5    1    3    3  502    0 -0.10011564543E+03  0.79947595955E+02  0.82653581078E+02  0.15252490755E+03  0.41800000000E+01 0.  1.
         -5    1    3    3    0  502  0.24055200938E+02 -0.17244177743E+02  0.31480073719E+02  0.43410618512E+02  0.41800000000E+01 0.  1.
        -11    1    1    2    0    0  0.49823331274E+02 -0.45432436570E+02  0.45325354764E+02  0.81245667062E+02  0.00000000000E+00 0.  1.
         11    1    1    2    0    0  0.26237113219E+02 -0.17270981642E+02 -0.43095255355E+02  0.53327984690E+02  0.00000000000E+00 0. -1.
</event>
<event>
 7    1  0.8661710E-006  0.1760009E+03  0.7561462E-02  0.1171730E+00
         -3   -1    0    0    0  501 -0.00000000000E+00  0.00000000000E+00  0.40957142690E+03  0.40957142690E+03  0.00000000000E+00 0.  1.
          3   -1    0    0  501    0  0.00000000000E+00 -0.00000000000E+00 -0.10831098805E+03  0.10831098805E+03  0.00000000000E+00 0. -1.
         23    2    1    2    0    0 -0.12553689186E+03  0.73842225830E+02  0.28747790024E+03  0.34569262270E+03  0.12509061007E+03 0.  0.
          5    1    3    3  502    0  0.20724292758E+02  0.40451640360E+01  0.77391801910E+02  0.80329465735E+02  0.41800000000E+01 0.  1.
         -5    1    3    3    0  502 -0.14626118462E+03  0.69797061794E+02  0.21008609833E+03  0.26536315696E+03  0.41800000000E+01 0.  1.
        -11    1    1    2    0    0  0.38189659649E+02  0.17472598160E+02  0.18147514575E+02  0.45750126511E+02  0.00000000000E+00 0.  1.
         11    1    1    2    0    0  0.87347232215E+02 -0.91314823989E+02 -0.43649759664E+01  0.12643966573E+03  0.00000000000E+00 0. -1.
</event>
<event>
 7    1  0.8661710E-006  0.1134001E+03  0.7561462E-02  0.1254400E+00
          1   -1    0    0  501    0  0.00000000000E+00  0.00000000000E+00  0.11855962905E+03  0.11855962905E+03  0.00000000000E+00 0. -1.
         -1   -1    0    0    0  501 -0.00000000000E+00 -0.00000000000E+00 -0.14042173650E+03  0.14042173650E+03  0.00000000000E+00 0.  1.
         23    2    1    2    0    0 -0.56100281704E+02  0.53197211337E+01 -0.68418817442E+02  0.15331100060E+03  0.12509031650E+03 0.  0.
          5    1    3    3  502    0 -0.14029979293E+02  0.63081745888E+02 -0.41069148176E+02  0.76683077111E+02  0.41800000000E+01 0. -1.
         -5    1    3    3    0  502 -0.42070302411E+02 -0.57762024754E+02 -0.27349669266E+02  0.76627923485E+02  0.41800000000E+01 0. -1.
        -11    1    1    2    0    0  0.19860314257E+02  0.32495751828E+02  0.42100513681E+01  0.38316191118E+02  0.00000000000E+00 0.  1.
         11    1    1    2    0    0  0.36239967448E+02 -0.37815472962E+02  0.42346658632E+02  0.67354173837E+02  0.00000000000E+00 0. -1.
</event>
<event>
 7    1  0.8661710E-006  0.8122548E+02  0.7561462E-02  0.1325609E+00
         -2   -1    0    0    0  501 -0.00000000000E+00  0.00000000000E+00  0.92850226284E+02  0.92850226284E+02  0.00000000000E+00 0.  1.
          2   -1    0    0  501    0  0.00000000000E+00 -0.00000000000E+00 -0.35665574001E+03  0.35665574001E+03  0.00000000000E+00 0. -1.
         23    2    1    2    0    0  0.40742941698E+02  0.13653329484E+02  0.32806647809E+02  0.13627321826E+03  0.12509081969E+03 0.  0.
          5    1    3    3  502    0  0.24711102695E+02  0.42175107289E+02 -0.35407771919E+02  0.60502570057E+02  0.41800000000E+01 0.  1.
         -5    1    3    3    0  502  0.16031839003E+02 -0.28521777805E+02  0.68214419728E+02  0.75770648208E+02  0.41800000000E+01 0.  1.
        -11    1    1    2    0    0 -0.37530413441E+02  0.22733224253E+02 -0.25095227856E+03  0.25475945033E+03  0.00000000000E+00 0. -1.
         11    1    1    2    0    0 -0.32125282570E+01 -0.36386553738E+02 -0.45659882978E+02  0.58473297703E+02  0.00000000000E+00 0.  1.
</event>
<event>
 7    1  0.8661710E-006  0.6996879E+02  0.7561462E-02  0.1360199E+00
          2   -1    0    0  501    0  0.00000000000E+00  0.00000000000E+00  0.23300178424E+03  0.23300178424E+03  0.00000000000E+00 0. -1.
         -2   -1    0    0    0  501 -0.00000000000E+00 -0.00000000000E+00 -0.67171049700E+02  0.67171049700E+02  0.00000000000E+00 0.  1.
         23    2    1    2    0    0  0.61002984694E+02 -0.10424212925E+01  0.80200688142E+02  0.16063120792E+03  0.12509110199E+03 0.  0.
          5    1    3    3  502    0  0.47626323844E+02  0.98642054394E+01  0.11313313736E+03  0.12321586116E+03  0.41800000000E+01 0.  1.
         -5    1    3    3    0  502  0.13376660849E+02 -0.10906626732E+02 -0.32932449217E+02  0.37415346766E+02  0.41800000000E+01 0.  1.
        -11    1    1    2    0    0 -0.11963815559E+02 -0.17275786075E+02  0.84612523045E+02  0.87182938258E+02  0.00000000000E+00 0. -1.
         11    1    1    2    0    0 -0.49039169135E+02  0.18318207368E+02  0.10175233571E+01  0.52358687764E+02  0.00000000000E+00 0.  1.
</event>
<event>
 7    1  0.8661710E-006  0.1278006E+03  0.7561462E-02  0.1230756E+00
          3   -1    0    0  501    0  0.00000000000E+00  0.00000000000E+00  0.65997001528E+03  0.65997001528E+03  0.00000000000E+00 0. -1.
         -3   -1    0    0    0  501 -0.00000000000E+00 -0.00000000000E+00 -0.31947194919E+02  0.31947194919E+02  0.00000000000E+00 0.  1.
         23    2    1    2    0    0  0.77890242383E+02  0.50094071108E+02  0.27932993268E+03  0.31976456411E+03  0.12509140398E+03 0.  0.
          5    1    3    3  502    0  0.70471867911E+02 -0.14843536453E+02  0.21952383136E+03  0.23107314789E+03  0.41800000000E+01 0.  1.
         -5    1    3    3    0  502  0.74183744718E+01  0.64937607561E+02  0.59806101325E+02  0.88691416221E+02  0.41800000000E+01 0.  1.
        -11    1    1    2    0    0  0.99960556217E+01 -0.24454263791E+02  0.27361379399E+02  0.38033895780E+02  0.00000000000E+00 0.  1.
         11    1    1    2    0    0 -0.87886298005E+02 -0.25639807317E+02  0.32133150828E+03  0.33411875031E+03  0.00000000000E+00 0. -1.
</event>
<event>
 7    1  0.8661710E-006  0.1024269E+03  0.7561462E-02  0.1275274E+00
         -1   -1    0    0    0  501 -0.00000000000E+00  0.00000000000E+00  0.22642599709E+03  0.22642599709E+03  0.00000000000E+00 0.  1.
          1   -1    0    0  501    0  0.00000000000E+00 -0.00000000000E+00 -0.70738627907E+02  0.70738627907E+02  0.00000000000E+00 0. -1.
         23    2    1    2    0    0 -0.21130954764E+02 -0.11770580182E+02  0.16178023766E+03  0.20592471627E+03  0.12508828749E+03 0.  0.
          5    1    3    3  502    0 -0.23293717742E+02  0.53232263679E+02  0.51149679378E+02  0.77524404435E+02  0.41800000000E+01 0. -1.
         -5    1    3    3    0  502  0.21627629772E+01 -0.65002843860E+02  0.11063055828E+03  0.12840031184E+03  0.41800000000E+01 0. -1.
        -11    1    1    2    0    0 -0.82632020850E+00 -0.32234965510E+02  0.17506578500E+02  0.36691362707E+02  0.00000000000E+00 0.  1.
         11    1    1    2    0    0  0.21957274973E+02  0.44005545691E+02 -0.23599446974E+02  0.54548546024E+02  0.00000000000E+00 0. -1.
</event>
<event>
 7    1  0.8661710E-006  0.9584627E+02  0.7561462E-02  0.1289281E+00
          2   -1    0    0  501    0  0.00000000000E+00  0.00000000000E+00  0.15326307907E+03  0.15326307907E+03  0.00000000000E+00 0. -1.
         -2   -1    0    0    0  501 -0.00000000000E+00 -0.00000000000E+00 -0.10636785130E+03  0.10636785130E+03  0.00000000000E+00 0.  1.
         23    2    1    2    0    0 -0.39080884860E+02 -0.18122227050E+02 -0.25616410743E+02  0.12864387928E+03  0.11847918173E+03 0.  0.
          5    1    3    3  502    0  0.41910069779E+01 -0.35947563553E+02  0.35959237666E+02  0.51189169152E+02  0.41800000000E+01 0. -1.
         -5    1    3    3    0  502 -0.43271891838E+02  0.17825336504E+02 -0.61575648410E+02  0.77454710133E+02  0.41800000000E+01 0.  1.
        -11    1    1    2    0    0 -0.33666750713E+02  0.17762346376E+01  0.30169936264E+02  0.45241907201E+02  0.00000000000E+00 0.  1.
         11    1    1    2    0    0  0.72747635573E+02  0.16345992412E+02  0.42341702251E+02  0.85745143880E+02  0.00000000000E+00 0. -1.
</event>
<event>
 7    1  0.8661710E-006  0.1889032E+03  0.7561462E-02  0.1159454E+00
          1   -1    0    0  501    0  0.00000000000E+00  0.00000000000E+00  0.17604521928E+03  0.17604521928E+03  0.00000000000E+00 0. -1.
         -1   -1    0    0    0  501 -0.00000000000E+00 -0.00000000000E+00 -0.33290314090E+03  0.33290314090E+03  0.00000000000E+00 0.  1.
         23    2    1    2    0    0 -0.15046022641E+03 -0.66025238070E+02 -0.22825031471E+03  0.30780314877E+03  0.12508781089E+03 0.  0.
          5    1    3    3  502    0 -0.31027349835E+00  0.20523292684E+02 -0.70036074331E+02  0.73101476866E+02  0.41800000000E+01 0. -1.
         -5    1    3    3    0  502 -0.15014995291E+03 -0.86548530754E+02 -0.15821424038E+03  0.23470167190E+03  0.41800000000E+01 0. -1.
        -11    1    1    2    0    0 -0.26835858872E+01  0.24746680076E+02 -0.45307847466E+01  0.25300747388E+02  0.00000000000E+00 0.  1.
         11    1    1    2    0    0  0.15314381229E+03  0.41278557995E+02  0.75923177836E+02  0.17584446402E+03  0.00000000000E+00 0. -1.
</event>
<event>
 7    1  0.8661710E-006  0.1000261E+03  0.7561462E-02  0.1280241E+00
          1   -1    0    0  501    0  0.00000000000E+00  0.00000000000E+00  0.50122612157E+03  0.50122612157E+03  0.00000000000E+00 0. -1.
         -1   -1    0    0    0  501 -0.00000000000E+00 -0.00000000000E+00 -0.25416617575E+02  0.25416617575E+02  0.00000000000E+00 0.  1.
         23    2    1    2    0    0 -0.19149473201E+02 -0.66439370222E+01  0.22280446477E+03  0.25632295506E+03  0.12509509801E+03 0.  0.
          5    1    3    3  502    0 -0.52176512748E+02 -0.49133710211E+02  0.11137661809E+03  0.13250937106E+03  0.41800000000E+01 0. -1.
         -5    1    3    3    0  502  0.33027039548E+02  0.42489773189E+02  0.11142784668E+03  0.12381358400E+03  0.41800000000E+01 0. -1.
        -11    1    1    2    0    0  0.45400000344E+02 -0.47864542169E+01  0.22731128440E+03  0.23185014598E+03  0.00000000000E+00 0. -1.
         11    1    1    2    0    0 -0.26250527143E+02  0.11430391239E+02  0.25693754830E+02  0.38469638112E+02  0.00000000000E+00 0.  1.
</event>
<event>
 7    1  0.8661710E-006  0.1639720E+03  0.7561462E-02  0.1184284E+00
         -1   -1    0    0    0  501 -0.00000000000E+00  0.00000000000E+00  0.74492231323E+03  0.74492231323E+03  0.00000000000E+00 0.  1.
          1   -1    0    0  501    0  0.00000000000E+00 -0.00000000000E+00 -0.44704012539E+02  0.44704012539E+02  0.00000000000E+00 0. -1.
         23    2    1    2    0    0 -0.12120013665E+03  0.69677903530E+02  0.45900773878E+03  0.49586145877E+03  0.12508396650E+03 0.  0.
          5    1    3    3  502    0 -0.13149818148E+03  0.89164412942E+02  0.34750805433E+03  0.38212744536E+03  0.41800000000E+01 0. -1.
         -5    1    3    3    0  502  0.10298044837E+02 -0.19486509412E+02  0.11149968444E+03  0.11373401342E+03  0.41800000000E+01 0. -1.
        -11    1    1    2    0    0  0.10191144216E+03 -0.75040128577E+02  0.13251432923E+03  0.18324030777E+03  0.00000000000E+00 0. -1.
         11    1    1    2    0    0  0.19288694484E+02  0.53622250464E+01  0.10869623268E+03  0.11052455923E+03  0.00000000000E+00 0.  1.
</event>
<event>
 7    1  0.8661710E-006  0.1063176E+03  0.7561462E-02  0.1267545E+00
          2   -1    0    0  501    0  0.00000000000E+00  0.00000000000E+00  0.26369611462E+03  0.26369611462E+03  0.00000000000E+00 0. -1.
         -2   -1    0    0    0  501 -0.00000000000E+00 -0.00000000000E+00 -0.51089492270E+02  0.51089492270E+02  0.00000000000E+00 0.  1.
         23    2    1    2    0    0  0.31516109336E+02  0.47280567862E+01  0.94283857580E+02  0.15985452940E+03  0.12509358537E+03 0.  0.
          5    1    3    3  502    0  0.74223612503E+02  0.51359130570E+01  0.25459781118E+02  0.78747667333E+02  0.41800000000E+01 0.  1.
         -5    1    3    3    0  502 -0.42707503167E+02 -0.40785627081E+00  0.68824076461E+02  0.81106862066E+02  0.41800000000E+01 0.  1.
        -11    1    1    2    0    0 -0.33804403734E+02  0.38888220518E+02  0.39912244369E+02  0.65176826077E+02  0.00000000000E+00 0.  1.
         11    1    1    2    0    0  0.22882943982E+01 -0.43616277304E+02  0.78410520400E+02  0.89754251412E+02  0.00000000000E+00 0. -1.
</event>
<event>
 7    1  0.8661710E-006  0.2630287E+03  0.7561462E-02  0.1105337E+00
         -2   -1    0    0    0  501 -0.00000000000E+00  0.00000000000E+00  0.79552787277E+02  0.79552787277E+02  0.00000000000E+00 0.  1.
          2   -1    0    0  501    0  0.00000000000E+00 -0.00000000000E+00 -0.13238552303E+04  0.13238552303E+04  0.00000000000E+00 0. -1.
         23    2    1    2    0    0 -0.65312549093E+02 -0.24339325946E+03 -0.25872214475E+03  0.38221879892E+03  0.12509218298E+03 0.  0.
          5    1    3    3  502    0 -0.50869175664E+01 -0.19474055512E+03 -0.22506531319E+03  0.29769384969E+03  0.41800000000E+01 0.  1.
         -5    1    3    3    0  502 -0.60225631527E+02 -0.48652704341E+02 -0.33656831561E+02  0.84524949235E+02  0.41800000000E+01 0.  1.
        -11    1    1    2    0    0  0.14393943375E+02  0.10914910575E+03 -0.27442647871E+03  0.29568666711E+03  0.00000000000E+00 0.  1.
         11    1    1    2    0    0  0.50918605718E+02  0.13424415372E+03 -0.71115381960E+03  0.72550255158E+03  0.00000000000E+00 0. -1.
</event>
