<event>
 8    1  0.3710605E-009  0.1715809E+03  0.7561462E-02  0.1176209E+00
          4   -1    0    0  501    0  0.00000000000E+00  0.00000000000E+00  0.10921561544E+03  0.10921561544E+03  0.00000000000E+00 0. -1.
         -4   -1    0    0    0  501 -0.00000000000E+00 -0.00000000000E+00 -0.36794321802E+03  0.36794321802E+03  0.00000000000E+00 0.  1.
         25    2    1    2    0    0  0.14068669928E+03 -0.78476984624E+02 -0.18880925112E+03  0.27793448927E+03  0.12508901851E+03 0.  0.
         23    2    1    2    0    0 -0.14068669928E+03  0.78476984624E+02 -0.69918351460E+02  0.19922434418E+03  0.94076452811E+02 0.  0.
          5    1    3    3  502    0  0.10273124184E+03 -0.37523639881E+02 -0.19290477206E+03  0.22179146757E+03  0.41800000000E+01 0. -1.
         -5    1    3    3    0  502  0.37955457432E+02 -0.40953344743E+02  0.40955209452E+01  0.56143021706E+02  0.41800000000E+01 0. -1.
        -11    1    4    4    0    0 -0.11414418163E+03  0.23311817790E+02 -0.73757126343E+02  0.13788563644E+03  0.00000000000E+00 0. -1.
         11    1    4    4    0    0 -0.26542517643E+02  0.55165166834E+02  0.38387748836E+01  0.61338707740E+02  0.00000000000E+00 0.  1.
</event>
<event>
 8    1  0.3710605E-009  0.9195984E+02  0.7561462E-02  0.1298174E+00
         -2   -1    0    0    0  501 -0.00000000000E+00  0.00000000000E+00  0.19905534869E+03  0.19905534869E+03  0.00000000000E+00 0.  1.
          2   -1    0    0  501    0  0.00000000000E+00 -0.00000000000E+00 -0.76789033427E+02  0.76789033427E+02  0.00000000000E+00 0. -1.
         25    2    1    2    0    0  0.29237926803E+02 -0.11444990729E+02  0.12527159591E+03  0.17979247924E+03  0.12508604508E+03 0.  0.
         23    2    1    2    0    0 -0.29237926803E+02  0.11444990729E+02 -0.30052806523E+01  0.96051902871E+02  0.90725366667E+02 0.  0.
          5    1    3    3  502    0 -0.14190822077E+02 -0.47606070381E+02  0.11051070372E+03  0.12123450584E+03  0.41800000000E+01 0.  1.
         -5    1    3    3    0  502  0.43428748880E+02  0.36161079652E+02  0.14760892188E+02  0.58557973403E+02  0.41800000000E+01 0.  1.
        -11    1    4    4    0    0 -0.29563688846E+02  0.39503242178E+02  0.25934973148E+02  0.55741731880E+02  0.00000000000E+00 0.  1.
         11    1    4    4    0    0  0.32576204378E+00 -0.28058251449E+02 -0.28940253800E+02  0.40310170991E+02  0.00000000000E+00 0. -1.
</event>
<event>
 8    1  0.3710605E-009  0.1059510E+03  0.7561462E-02  0.1268257E+00
         -2   -1    0    0    0  501 -0.00000000000E+00  0.00000000000E+00  0.34056795736E+02  0.34056795736E+02  0.00000000000E+00 0. -1.
          2   -1    0    0  501    0  0.00000000000E+00 -0.00000000000E+00 -0.35944353813E+03  0.35944353813E+03  0.00000000000E+00 0.  1.
         25    2    1    2    0    0 -0.23295983042E+02  0.40193541291E+01 -0.17799572932E+03  0.21883643652E+03  0.12509215906E+03 0.  0.
         23    2    1    2    0    0  0.23295983042E+02 -0.40193541291E+01 -0.14739101307E+03  0.17466389735E+03  0.90689074694E+02 0.  0.
          5    1    3    3  502    0 -0.11362430270E+02 -0.58354078726E+02 -0.11368354163E+03  0.12835779432E+03  0.41800000000E+01 0. -1.
         -5    1    3    3    0  502 -0.11933552772E+02  0.62373432855E+02 -0.64312187695E+02  0.90478642198E+02  0.41800000000E+01 0. -1.
        -11    1    4    4    0    0 -0.32159632423E+02  0.47825709863E+01 -0.28728457719E+02  0.43387085933E+02  0.00000000000E+00 0. -1.
         11    1    4    4    0    0  0.55455615465E+02 -0.88019251154E+01 -0.11866255535E+03  0.13127681141E+03  0.00000000000E+00 0.  1.
</event>
<event>
 8    1  0.3710605E-009  0.9894333E+02  0.7561462E-02  0.1282534E+00
          1   -1    0    0  501    0  0.00000000000E+00  0.00000000000E+00  0.52942655140E+02  0.52942655140E+02  0.00000000000E+00 0. -1.
         -1   -1    0    0    0  501 -0.00000000000E+00 -0.00000000000E+00 -0.25656422942E+03  0.25656422942E+03  0.00000000000E+00 0.  1.
         25    2    1    2    0    0  0.38893512456E+02  0.38961881261E+01 -0.13885015778E+03  0.19093089759E+03  0.12508939102E+03 0.  0.
         23    2    1    2    0    0 -0.38893512456E+02 -0.38961881261E+01 -0.64771416502E+02  0.11857598697E+03  0.91307407683E+02 0.  0.
          5    1    3    3  502    0  0.59510223524E+02  0.30895706119E+02 -0.24406131150E+02  0.71478269412E+02  0.41800000000E+01 0.  1.
         -5    1    3    3    0  502 -0.20616711067E+02 -0.26999517993E+02 -0.11444402663E+03  0.11945262817E+03  0.41800000000E+01 0.  1.
        -11    1    4    4    0    0 -0.51978022756E+02 -0.35047047879E+02 -0.28060386137E+02  0.68683299898E+02  0.00000000000E+00 0. -1.
         11    1    4    4    0    0  0.13084510300E+02  0.31150859753E+02 -0.36711030365E+02  0.49892687075E+02  0.00000000000E+00 0.  1.
</event>
<event>
 8    1  0.3710605E-009  0.1061173E+03  0.7561462E-02  0.1267934E+00
          1   -1    0    0  501    0  0.00000000000E+00  0.00000000000E+00  0.14337804895E+03  0.14337804895E+03  0.00000000000E+00 0. -1.
         -1   -1    0    0    0  501 -0.00000000000E+00 -0.00000000000E+00 -0.13179046062E+03  0.13179046062E+03  0.00000000000E+00 0.  1.
         25    2    1    2    0    0 -0.80743658294E+02  0.99774754370E+00  0.30015606101E+02  0.15188443043E+03  0.12508960685E+03 0.  0.
         23    2    1    2    0    0  0.80743658294E+02 -0.99774754370E+00 -0.18428017772E+02  0.12328407915E+03  0.91317240858E+02 0.  0.
          5    1    3    3  502    0 -0.74936175032E+02 -0.26111009213E+02 -0.30557055841E+02  0.85137660247E+02  0.41800000000E+01 0.  1.
         -5    1    3    3    0  502 -0.58074832622E+01  0.27108756757E+02  0.60572661942E+02  0.66746770180E+02  0.41800000000E+01 0.  1.
        -11    1    4    4    0    0  0.32075154098E+02  0.32490339392E+02 -0.39691834870E+02  0.60496937274E+02  0.00000000000E+00 0.  1.
         11    1    4    4    0    0  0.48668504197E+02 -0.33488086936E+02  0.21263817098E+02  0.62787141876E+02  0.00000000000E+00 0. -1.
</event>
<event>
 8    1  0.3710605E-009  0.9668115E+02  0.7561462E-02  0.1287434E+00
         -2   -1    0    0    0  501 -0.00000000000E+00  0.00000000000E+00  0.36247610177E+02  0.36247610177E+02  0.00000000000E+00 0.  1.
          2   -1    0    0  501    0  0.00000000000E+00 -0.00000000000E+00 -0.44600418243E+03  0.44600418243E+03  0.00000000000E+00 0. -1.
         25    2    1    2    0    0  0.23470863006E+02  0.60557018009E+02 -0.21056351256E+03  0.25338370402E+03  0.12509306456E+03 0.  0.
         23    2    1    2    0    0 -0.23470863006E+02 -0.60557018009E+02 -0.19919305969E+03  0.22886808858E+03  0.92112393865E+02 0.  0.
          5    1    3    3  502    0  0.65265959939E+02  0.55975392672E+02 -0.18487675488E+03  0.20393571783E+03  0.41800000000E+01 0.  1.
         -5    1    3    3    0  502 -0.41795096933E+02  0.45816253376E+01 -0.25686757689E+02  0.49447986197E+02  0.41800000000E+01 0.  1.
        -11    1    4    4    0    0 -0.70355846133E+01 -0.14321501445E+02  0.66282485951E+01  0.17278267677E+02  0.00000000000E+00 0.  1.
         11    1    4    4    0    0 -0.16435278393E+02 -0.46235516565E+02 -0.20582130828E+03  0.21158982091E+03  0.00000000000E+00 0. -1.
</event>
<event>
 8    1  0.3710605E-009  0.9895040E+02  0.7561462E-02  0.1282519E+00
         -2   -1    0    0    0  501 -0.00000000000E+00  0.00000000000E+00  0.33456539274E+03  0.33456539274E+03  0.00000000000E+00 0.  1.
          2   -1    0    0  501    0  0.00000000000E+00 -0.00000000000E+00 -0.37711461876E+02  0.37711461876E+02  0.00000000000E+00 0. -1.
         25    2    1    2    0    0  0.21782217470E+02  0.49144014630E+01  0.19355589136E+03  0.23153716835E+03  0.12508781278E+03 0.  0.
         23    2    1    2    0    0 -0.21782217470E+02 -0.49144014630E+01  0.10329803951E+03  0.14073968627E+03  0.92943843181E+02 0.  0.
          5    1    3    3  502    0 -0.51828350514E+02  0.80496072827E+01  0.92291112041E+02  0.10623603841E+03  0.41800000000E+01 0. -1.
         -5    1    3    3    0  502  0.73610567984E+02 -0.31352058197E+01  0.10126477932E+03  0.12530112994E+03  0.41800000000E+01 0. -1.
        -11    1    4    4    0    0  0.10851730164E+02 -0.28977395838E+02  0.94245559953E+02  0.99195136413E+02  0.00000000000E+00 0.  1.
         11    1    4    4    0    0 -0.32633947635E+02  0.24062994375E+02  0.90524795522E+01  0.41544549854E+02  0.00000000000E+00 0. -1.
</event>
<event>
 8    1  0.3710605E-009  0.1559950E+03  0.7561462E-02  0.1193294E+00
         -4   -1    0    0    0  501 -0.00000000000E+00  0.00000000000E+00  0.53695306230E+03  0.53695306230E+03  0.00000000000E+00 0.  1.
          4   -1    0    0  501    0  0.00000000000E+00 -0.00000000000E+00 -0.62864188487E+02  0.62864188487E+02  0.00000000000E+00 0. -1.
         25    2    1    2    0    0 -0.12064267238E+03 -0.57303321868E+02  0.35298191088E+03  0.39759541439E+03  0.12509020361E+03 0.  0.
         23    2    1    2    0    0  0.12064267238E+03  0.57303321868E+02  0.12110696294E+03  0.20222183641E+03  0.91588479359E+02 0.  0.
          5    1    3    3  502    0 -0.40956487952E+02  0.24513526720E+02  0.33984067114E+02  0.58742966517E+02  0.41800000000E+01 0.  1.
         -5    1    3    3    0  502 -0.79686184425E+02 -0.81816848587E+02  0.31899784376E+03  0.33885244787E+03  0.41800000000E+01 0.  1.
        -11    1    4    4    0    0  0.30754538966E+01  0.28604946029E+02  0.60241315486E+02  0.66758650717E+02  0.00000000000E+00 0.  1.
         11    1    4    4    0    0  0.11756721848E+03  0.28698375839E+02  0.60865647453E+02  0.13546318569E+03  0.00000000000E+00 0. -1.
</event>
<event>
 8    1  0.3710605E-009  0.1476559E+03  0.7561462E-02  0.1203383E+00
          1   -1    0    0  501    0  0.00000000000E+00  0.00000000000E+00  0.95391006072E+02  0.95391006072E+02  0.00000000000E+00 0. -1.
         -1   -1    0    0    0  501 -0.00000000000E+00 -0.00000000000E+00 -0.26961035673E+03  0.26961035673E+03  0.00000000000E+00 0.  1.
         25    2    1    2    0    0 -0.10286590632E+03  0.42040897482E+02 -0.50258466792E+02  0.17470549368E+03  0.12508902548E+03 0.  0.
         23    2    1    2    0    0  0.10286590632E+03 -0.42040897482E+02 -0.12396088387E+03  0.19029586912E+03  0.92181263450E+02 0.  0.
          5    1    3    3  502    0 -0.44203507447E+02  0.77715448700E+02  0.18076802968E-01  0.89504825367E+02  0.41800000000E+01 0. -1.
         -5    1    3    3    0  502 -0.58662398869E+02 -0.35674551218E+02 -0.50276543595E+02  0.85200668316E+02  0.41800000000E+01 0. -1.
        -11    1    4    4    0    0  0.13451443371E+01  0.18679438461E+02 -0.43137652771E+02  0.47027523017E+02  0.00000000000E+00 0.  1.
         11    1    4    4    0    0  0.10152076198E+03 -0.60720335944E+02 -0.80823231095E+02  0.14326834610E+03  0.00000000000E+00 0. -1.
</event>
<event>
 8    1  0.3710605E-009  0.3619588E+03  0.7561462E-02  0.1057811E+00
         -1   -1    0    0    0  501 -0.00000000000E+00  0.00000000000E+00  0.63509901615E+02  0.63509901615E+02  0.00000000000E+00 0.  1.
          1   -1    0    0  501    0  0.00000000000E+00 -0.00000000000E+00 -0.32465898694E+04  0.32465898694E+04  0.00000000000E+00 0. -1.
         25    2    1    2    0    0 -0.17256614500E+02  0.35587730329E+03 -0.25534132178E+04  0.25811843487E+04  0.12508850952E+03 0.  0.
         23    2    1    2    0    0  0.17256614500E+02 -0.35587730329E+03 -0.62966674995E+03  0.72891542231E+03  0.88831476174E+02 0.  0.
          5    1    3    3  502    0  0.61015853092E+01  0.28466007015E+03 -0.16266674210E+04  0.16514033292E+04  0.41800000000E+01 0.  1.
         -5    1    3    3    0  502 -0.23358199810E+02  0.71217233137E+02 -0.92674579687E+03  0.92978101950E+03  0.41800000000E+01 0.  1.
        -11    1    4    4    0    0  0.44238022831E+02 -0.14788110784E+03 -0.22098024630E+03  0.26955165363E+03  0.00000000000E+00 0.  1.
         11    1    4    4    0    0 -0.26981408331E+02 -0.20799619545E+03 -0.40868650365E+03  0.45936376868E+03  0.00000000000E+00 0. -1.
</event>
<event>
 8    1  0.3710605E-009  0.1078725E+03  0.7561462E-02  0.1264561E+00
          1   -1    0    0  501    0  0.00000000000E+00  0.00000000000E+00  0.21043192083E+03  0.21043192083E+03  0.00000000000E+00 0. -1.
         -1   -1    0    0    0  501 -0.00000000000E+00 -0.00000000000E+00 -0.16639562511E+03  0.16639562511E+03  0.00000000000E+00 0.  1.
         25    2    1    2    0    0  0.45010338601E+02  0.52829451976E+02 -0.11382496175E+03  0.18281526105E+03  0.12509362964E+03 0.  0.
         23    2    1    2    0    0 -0.45010338601E+02 -0.52829451976E+02  0.15786125747E+03  0.19401228489E+03  0.88902803685E+02 0.  0.
          5    1    3    3  502    0  0.85278426325E+02  0.13203416978E+02 -0.69872788716E+02  0.11111444199E+03  0.41800000000E+01 0. -1.
         -5    1    3    3    0  502 -0.40268087724E+02  0.39626034999E+02 -0.43952173037E+02  0.71700819056E+02  0.41800000000E+01 0. -1.
        -11    1    4    4    0    0 -0.14165066641E+02 -0.33309912223E+02  0.46280965041E+01  0.36491350242E+02  0.00000000000E+00 0.  1.
         11    1    4    4    0    0 -0.30845271959E+02 -0.19519539754E+02  0.15323316096E+03  0.15752093465E+03  0.00000000000E+00 0. -1.
</event>
<event>
 8    1  0.3710605E-009  0.6090294E+02  0.7561462E-02  0.1394081E+00
          2   -1    0    0  501    0  0.00000000000E+00  0.00000000000E+00  0.26262096797E+03  0.26262096797E+03  0.00000000000E+00 0. -1.
         -2   -1    0    0    0  501 -0.00000000000E+00 -0.00000000000E+00 -0.53015658741E+02  0.53015658741E+02  0.00000000000E+00 0.  1.
         25    2    1    2    0    0  0.17226658309E+02 -0.41083869646E+02  0.15209662450E+03  0.20190907033E+03  0.12509695198E+03 0.  0.
         23    2    1    2    0    0 -0.17226658309E+02  0.41083869646E+02  0.57508684728E+02  0.11372755638E+03  0.87418911911E+02 0.  0.
          5    1    3    3  502    0  0.29541256383E+02 -0.28064649289E+01  0.15821008439E+03  0.16102318242E+03  0.41800000000E+01 0. -1.
         -5    1    3    3    0  502 -0.12314598074E+02 -0.38277404717E+02 -0.61134598968E+01  0.40885887902E+02  0.41800000000E+01 0. -1.
        -11    1    4    4    0    0 -0.19671501087E+02  0.13823936127E+02  0.76647710660E+02  0.80330198023E+02  0.00000000000E+00 0. -1.
         11    1    4    4    0    0  0.24448427770E+01  0.27259933520E+02 -0.19139025932E+02  0.33397358358E+02  0.00000000000E+00 0.  1.
</event>
<event>
 8    1  0.3710605E-009  0.1714439E+03  0.7561462E-02  0.1176350E+00
         -1   -1    0    0    0  501 -0.00000000000E+00  0.00000000000E+00  0.49427569354E+02  0.49427569354E+02  0.00000000000E+00 0.  1.
          1   -1    0    0  501    0  0.00000000000E+00 -0.00000000000E+00 -0.80684515473E+03  0.80684515473E+03  0.00000000000E+00 0. -1.
         25    2    1    2    0    0 -0.54313188378E+02  0.15783779935E+03 -0.37337265058E+03  0.42768589357E+03  0.12508154950E+03 0.  0.
         23    2    1    2    0    0  0.54313188378E+02 -0.15783779935E+03 -0.38404493480E+03  0.42858683051E+03  0.91287819610E+02 0.  0.
          5    1    3    3  502    0 -0.48317309925E+02  0.11004738494E+03 -0.12053631733E+03  0.17026880385E+03  0.41800000000E+01 0.  1.
         -5    1    3    3    0  502 -0.59958784530E+01  0.47790414410E+02 -0.25283633325E+03  0.25741708972E+03  0.41800000000E+01 0.  1.
        -11    1    4    4    0    0  0.64082803043E+02 -0.13474014160E+03 -0.24165082981E+03  0.28400111787E+03  0.00000000000E+00 0.  1.
         11    1    4    4    0    0 -0.97696146654E+01 -0.23097657748E+02 -0.14239410499E+03  0.14458571264E+03  0.00000000000E+00 0. -1.
</event>
<event>
 8    1  0.3710605E-009  0.9272151E+02  0.7561462E-02  0.1296392E+00
         -1   -1    0    0    0  501 -0.00000000000E+00  0.00000000000E+00  0.20668082953E+03  0.20668082953E+03  0.00000000000E+00 0.  1.
          1   -1    0    0  501    0  0.00000000000E+00 -0.00000000000E+00 -0.58403451268E+02  0.58403451268E+02  0.00000000000E+00 0. -1.
         25    2    1    2    0    0 -0.15685449005E+02 -0.19673855225E+02  0.11563562677E+03  0.17219674899E+03  0.12508808215E+03 0.  0.
         23    2    1    2    0    0  0.15685449005E+02  0.19673855225E+02  0.32641751494E+02  0.92887531808E+02  0.83243712885E+02 0.  0.
          5    1    3    3  502    0 -0.46074990467E+02  0.18638462950E+02  0.11244800330E+03  0.12301350695E+03  0.41800000000E+01 0. -1.
         -5    1    3    3    0  502  0.30389541462E+02 -0.38312318174E+02  0.31876234750E+01  0.49183242040E+02  0.41800000000E+01 0. -1.
        -11    1    4    4    0    0  0.46594601555E+02 -0.51008784888E+01  0.22519958213E+02  0.52002157392E+02  0.00000000000E+00 0.  1.
         11    1    4    4    0    0 -0.30909152550E+02  0.24774733713E+02  0.10121793280E+02  0.40885374416E+02  0.00000000000E+00 0. -1.
</event>
<event>
 8    1  0.3710605E-009  0.6820843E+02  0.7561462E-02  0.1366294E+00
          2   -1    0    0  501    0  0.00000000000E+00  0.00000000000E+00  0.21826890396E+02  0.21826890396E+02  0.00000000000E+00 0.  1.
         -2   -1    0    0    0  501 -0.00000000000E+00 -0.00000000000E+00 -0.61575945011E+03  0.61575945011E+03  0.00000000000E+00 0. -1.
         25    2    1    2    0    0  0.94724509271E+01  0.29676548619E+02 -0.32259429864E+03  0.34739692695E+03  0.12508844261E+03 0.  0.
         23    2    1    2    0    0 -0.94724509271E+01 -0.29676548619E+02 -0.27133826107E+03  0.29018941355E+03  0.98056203028E+02 0.  0.
          5    1    3    3  502    0 -0.12714492820E+02  0.21910841178E+02 -0.32250082985E+03  0.32352125269E+03  0.41800000000E+01 0.  1.
         -5    1    3    3    0  502  0.22186943747E+02  0.77657074404E+01 -0.93468788627E-01  0.23875674259E+02  0.41800000000E+01 0.  1.
        -11    1    4    4    0    0  0.23626977324E+02  0.17382612344E+02 -0.29497395319E+02  0.41599105759E+02  0.00000000000E+00 0.  1.
         11    1    4    4    0    0 -0.33099428251E+02 -0.47059160963E+02 -0.24184086575E+03  0.24859030779E+03  0.00000000000E+00 0. -1.
</event>
<event>
 8    1  0.3710605E-009  0.1739306E+03  0.7561462E-02  0.1173810E+00
          3   -1    0    0  501    0  0.00000000000E+00  0.00000000000E+00  0.60122706315E+03  0.60122706315E+03  0.00000000000E+00 0. -1.
         -3   -1    0    0    0  501 -0.00000000000E+00 -0.00000000000E+00 -0.70747564318E+02  0.70747564318E+02  0.00000000000E+00 0.  1.
         25    2    1    2    0    0  0.20905755264E+02  0.16445696299E+03  0.35765285556E+03  0.41357708807E+03  0.12508916583E+03 0.  0.
         23    2    1    2    0    0 -0.20905755264E+02 -0.16445696299E+03  0.17282664327E+03  0.25839753940E+03  0.97041725361E+02 0.  0.
          5    1    3    3  502    0  0.42865143438E+02  0.13847389409E+03  0.34943316363E+03  0.37832981393E+03  0.41800000000E+01 0. -1.
         -5    1    3    3    0  502 -0.21959388174E+02  0.25983068904E+02  0.82196919252E+01  0.35247274135E+02  0.41800000000E+01 0. -1.
        -11    1    4    4    0    0 -0.27982218717E+02 -0.10398539576E+03  0.16497458908E+03  0.19700909151E+03  0.00000000000E+00 0. -1.
         11    1    4    4    0    0  0.70764634532E+01 -0.60471567233E+02  0.78520541909E+01  0.61388447884E+02  0.00000000000E+00 0.  1.
</event>
<event>
 8    1  0.3710605E-009  0.1125432E+03  0.7561462E-02  0.1255931E+00
         -2   -1    0    0    0  501 -0.00000000000E+00  0.00000000000E+00  0.87327111945E+02  0.87327111945E+02  0.00000000000E+00 0. -1.
          2   -1    0    0  501    0  0.00000000000E+00 -0.00000000000E+00 -0.16022551102E+03  0.16022551102E+03  0.00000000000E+00 0.  1.
         25    2    1    2    0    0 -0.34584459752E+02  0.27155732021E+02 -0.14050314863E+02  0.13333420965E+03  0.12508829472E+03 0.  0.
         23    2    1    2    0    0  0.34584459752E+02 -0.27155732021E+02 -0.58848084215E+02  0.11421841332E+03  0.87459878162E+02 0.  0.
          5    1    3    3  502    0 -0.81758240570E+02  0.21413614291E+02 -0.49146977265E+01  0.84761898468E+02  0.41800000000E+01 0.  1.
         -5    1    3    3    0  502  0.47173780818E+02  0.57421177295E+01 -0.91356171361E+01  0.48572311178E+02  0.41800000000E+01 0.  1.
        -11    1    4    4    0    0  0.22376364082E+02 -0.56613108653E+02 -0.55106834006E+02  0.82112781557E+02  0.00000000000E+00 0.  1.
         11    1    4    4    0    0  0.12208095670E+02  0.29457376632E+02 -0.37412502086E+01  0.32105631765E+02  0.00000000000E+00 0. -1.
</event>
<event>
 8    1  0.3710605E-009  0.1105876E+03  0.7561462E-02  0.1259486E+00
         -2   -1    0    0    0  501 -0.00000000000E+00  0.00000000000E+00  0.13103360372E+03  0.13103360372E+03  0.00000000000E+00 0. -1.
          2   -1    0    0  501    0  0.00000000000E+00 -0.00000000000E+00 -0.95954336083E+02  0.95954336083E+02  0.00000000000E+00 0.  1.
         25    2    1    2    0    0  0.16047937972E+02  0.16871305641E+02  0.34655859385E+02  0.13187395403E+03  0.12509010310E+03 0.  0.
         23    2    1    2    0    0 -0.16047937972E+02 -0.16871305641E+02  0.42340824846E+00  0.95113985771E+02  0.92218836186E+02 0.  0.
          5    1    3    3  502    0 -0.32177374345E+02 -0.40648427873E+02  0.12354550541E+02  0.53458258739E+02  0.41800000000E+01 0.  1.
         -5    1    3    3    0  502  0.48225312317E+02  0.57519733515E+02  0.22301308844E+02  0.78415695290E+02  0.41800000000E+01 0.  1.
        -11    1    4    4    0    0 -0.27992081334E+02 -0.50808313402E+02 -0.68391486149E+01  0.58410746288E+02  0.00000000000E+00 0.  1.
         11    1    4    4    0    0  0.11944143362E+02  0.33937007760E+02  0.72625568633E+01  0.36703239483E+02  0.00000000000E+00 0. -1.
</event>
<event>
 8    1  0.3710605E-009  0.1588304E+03  0.7561462E-02  0.1190024E+00
          1   -1    0    0  501    0  0.00000000000E+00  0.00000000000E+00  0.19515733901E+03  0.19515733901E+03  0.00000000000E+00 0. -1.
         -1   -1    0    0    0  501 -0.00000000000E+00 -0.00000000000E+00 -0.20389544024E+03  0.20389544024E+03  0.00000000000E+00 0.  1.
         25    2    1    2    0    0  0.12033791263E+03 -0.96270811022E+02 -0.67839101321E+02  0.20975034645E+03  0.12507510502E+03 0.  0.
         23    2    1    2    0    0 -0.12033791263E+03  0.96270811022E+02  0.59101000095E+02  0.18930243281E+03  0.92699517712E+02 0.  0.
          5    1    3    3  502    0  0.55950423605E+02 -0.55101984720E+02 -0.99583850567E+02  0.12689008754E+03  0.41800000000E+01 0. -1.
         -5    1    3    3    0  502  0.64387489023E+02 -0.41168826302E+02  0.31744749246E+02  0.82860258909E+02  0.41800000000E+01 0. -1.
        -11    1    4    4    0    0 -0.72935130752E+02  0.88114273705E+02  0.16779941702E+01  0.11439612840E+03  0.00000000000E+00 0.  1.
         11    1    4    4    0    0 -0.47402781876E+02  0.81565373170E+01  0.57423005925E+02  0.74906304408E+02  0.00000000000E+00 0. -1.
</event>
<event>
 8    1  0.3710605E-009  0.1450255E+03  0.7561462E-02  0.1206722E+00
          1   -1    0    0  501    0  0.00000000000E+00  0.00000000000E+00  0.21052088397E+03  0.21052088397E+03  0.00000000000E+00 0. -1.
         -1   -1    0    0    0  501 -0.00000000000E+00 -0.00000000000E+00 -0.16580024049E+03  0.16580024049E+03  0.00000000000E+00 0.  1.
         25    2    1    2    0    0 -0.10422793574E+03  0.90863270746E+02  0.88335365828E+02  0.20632691716E+03  0.12509221930E+03 0.  0.
         23    2    1    2    0    0  0.10422793574E+03 -0.90863270746E+02 -0.43614722345E+02  0.16999420730E+03  0.88747901100E+02 0.  0.
          5    1    3    3  502    0 -0.76401443600E+02  0.32164104140E+02  0.10992817823E+03  0.13774391801E+03  0.41800000000E+01 0.  1.
         -5    1    3    3    0  502 -0.27826492139E+02  0.58699166606E+02 -0.21592812405E+02  0.68582999151E+02  0.41800000000E+01 0.  1.
        -11    1    4    4    0    0  0.51098809424E+02 -0.23725259259E+02  0.23663847600E+02  0.61106087542E+02  0.00000000000E+00 0. -1.
         11    1    4    4    0    0  0.53129126315E+02 -0.67138011487E+02 -0.67278569945E+02  0.10888811975E+03  0.00000000000E+00 0.  1.
</event>
<event>
 8    1  0.3710605E-009  0.8702038E+02  0.7561462E-02  0.1310232E+00
         -1   -1    0    0    0  501 -0.00000000000E+00  0.00000000000E+00  0.23465080114E+03  0.23465080114E+03  0.00000000000E+00 0.  1.
          1   -1    0    0  501    0  0.00000000000E+00 -0.00000000000E+00 -0.71020272403E+02  0.71020272403E+02  0.00000000000E+00 0. -1.
         25    2    1    2    0    0 -0.63754350412E+02 -0.20256327940E+02  0.73097119585E+02  0.15957931410E+03  0.12508969813E+03 0.  0.
         23    2    1    2    0    0  0.63754350412E+02  0.20256327940E+02  0.90533409154E+02  0.14609175944E+03  0.93121254214E+02 0.  0.
          5    1    3    3  502    0 -0.71097316798E+02 -0.30235003488E+02 -0.76784928726E+01  0.77752270350E+02  0.41800000000E+01 0. -1.
         -5    1    3    3    0  502  0.73429663864E+01  0.99786755475E+01  0.80775612457E+02  0.81827043750E+02  0.41800000000E+01 0. -1.
        -11    1    4    4    0    0  0.44977902346E+02 -0.11748593075E+02 -0.18614932282E+01  0.46524254919E+02  0.00000000000E+00 0. -1.
         11    1    4    4    0    0  0.18776448066E+02  0.32004921016E+02  0.92394902382E+02  0.99567504525E+02  0.00000000000E+00 0.  1.
</event>
<event>
 8    1  0.3710605E-009  0.1144759E+03  0.7561462E-02  0.1252499E+00
         -1   -1    0    0    0  501 -0.00000000000E+00  0.00000000000E+00  0.30312436474E+03  0.30312436474E+03  0.00000000000E+00 0.  1.
          1   -1    0    0  501    0  0.00000000000E+00 -0.00000000000E+00 -0.71696732804E+02  0.71696732804E+02  0.00000000000E+00 0. -1.
         25    2    1    2    0    0  0.81022133816E+02 -0.55301489366E+02  0.98004117690E+02  0.18675765490E+03  0.12510305226E+03 0.  0.
         23    2    1    2    0    0 -0.81022133816E+02  0.55301489366E+02  0.13342351425E+03  0.18806344264E+03  0.89124538768E+02 0.  0.
          5    1    3    3  502    0  0.51109571200E+01 -0.11207078988E+02 -0.29302801133E+02  0.32060053905E+02  0.41800000000E+01 0.  1.
         -5    1    3    3    0  502  0.75911176696E+02 -0.44094410378E+02  0.12730691882E+03  0.15469760100E+03  0.41800000000E+01 0.  1.
        -11    1    4    4    0    0 -0.65558481878E+02  0.77179565659E+02  0.82876703851E+02  0.13085544674E+03  0.00000000000E+00 0.  1.
         11    1    4    4    0    0 -0.15463651938E+02 -0.21878076293E+02  0.50546810398E+02  0.57207995900E+02  0.00000000000E+00 0. -1.
</event>
<event>
 8    1  0.3710605E-009  0.1780561E+03  0.7561462E-02  0.1169698E+00
         -1   -1    0    0    0  501 -0.00000000000E+00  0.00000000000E+00  0.24642745324E+03  0.24642745324E+03  0.00000000000E+00 0.  1.
          1   -1    0    0  501    0  0.00000000000E+00 -0.00000000000E+00 -0.29010771647E+03  0.29010771647E+03  0.00000000000E+00 0. -1.
         25    2    1    2    0    0  0.16212787632E+03  0.72698119830E+01 -0.20526932134E+03  0.29003599987E+03  0.12508832277E+03 0.  0.
         23    2    1    2    0    0 -0.16212787632E+03 -0.72698119830E+01  0.16158905811E+03  0.24649916983E+03  0.91173014539E+02 0.  0.
          5    1    3    3  502    0 -0.15050611201E+02 -0.92410606909E+00  0.35288263443E+01  0.16040569969E+02  0.41800000000E+01 0.  1.
         -5    1    3    3    0  502  0.17717848752E+03  0.81939180521E+01 -0.20879814768E+03  0.27399542991E+03  0.41800000000E+01 0.  1.
        -11    1    4    4    0    0 -0.12950635448E+03  0.52596804569E+00  0.66324904243E+02  0.14550314572E+03  0.00000000000E+00 0. -1.
         11    1    4    4    0    0 -0.32621521843E+02 -0.77957800287E+01  0.95264153868E+02  0.10099602411E+03  0.00000000000E+00 0.  1.
</event>
<event>
 8    1  0.3710605E-009  0.8873677E+02  0.7561462E-02  0.1305940E+00
         -1   -1    0    0    0  501 -0.00000000000E+00  0.00000000000E+00  0.19129778138E+03  0.19129778138E+03  0.00000000000E+00 0.  1.
          1   -1    0    0  501    0  0.00000000000E+00 -0.00000000000E+00 -0.70070999349E+02  0.70070999349E+02  0.00000000000E+00 0. -1.
         25    2    1    2    0    0  0.22808278512E+02 -0.12169279147E+02  0.10620042983E+03  0.16611604808E+03  0.12509077188E+03 0.  0.
         23    2    1    2    0    0 -0.22808278512E+02  0.12169279147E+02  0.15026352199E+02  0.95252732649E+02  0.90437729367E+02 0.  0.
          5    1    3    3  502    0  0.85602150589E+01  0.56524045735E+02  0.43947044377E+02  0.72229219417E+02  0.41800000000E+01 0.  1.
         -5    1    3    3    0  502  0.14248063453E+02 -0.68693324883E+02  0.62253385455E+02  0.93886828662E+02  0.41800000000E+01 0.  1.
        -11    1    4    4    0    0 -0.32432195487E+02  0.19438862778E+02  0.47441547733E+02  0.60666441642E+02  0.00000000000E+00 0.  1.
         11    1    4    4    0    0  0.96239169755E+01 -0.72695836310E+01 -0.32415195534E+02  0.34586291007E+02  0.00000000000E+00 0. -1.
</event>
<event>
 8    1  0.3710605E-009  0.7431634E+02  0.7561462E-02  0.1346001E+00
          3   -1    0    0  501    0  0.00000000000E+00  0.00000000000E+00  0.35859585867E+03  0.35859585867E+03  0.00000000000E+00 0. -1.
         -3   -1    0    0    0  501 -0.00000000000E+00 -0.00000000000E+00 -0.42809344567E+02  0.42809344567E+02  0.00000000000E+00 0.  1.
         25    2    1    2    0    0  0.27539426811E+02  0.46437194004E+02  0.20723048328E+03  0.24800598210E+03  0.12509061093E+03 0.  0.
         23    2    1    2    0    0 -0.27539426811E+02 -0.46437194004E+02  0.10855603083E+03  0.15339922114E+03  0.93979126409E+02 0.  0.
          5    1    3    3  502    0 -0.31368887830E+01  0.18995946379E+02 -0.13207735461E+02  0.23719248009E+02  0.41800000000E+01 0.  1.
         -5    1    3    3    0  502  0.30676315594E+02  0.27441247625E+02  0.22043821874E+03  0.22428673409E+03  0.41800000000E+01 0.  1.
        -11    1    4    4    0    0 -0.23080893930E+02  0.13976185803E+02 -0.22905983558E+01  0.27079665342E+02  0.00000000000E+00 0.  1.
         11    1    4    4    0    0 -0.44585328815E+01 -0.60413379807E+02  0.11084662918E+03  0.12631955580E+03  0.00000000000E+00 0. -1.
</event>
<event>
 8    1  0.3710605E-009  0.9930258E+02  0.7561462E-02  0.1281769E+00
          2   -1    0    0  501    0  0.00000000000E+00  0.00000000000E+00  0.69065108523E+03  0.69065108523E+03  0.00000000000E+00 0. -1.
         -2   -1    0    0    0  501 -0.00000000000E+00 -0.00000000000E+00 -0.19744104348E+02  0.19744104348E+02  0.00000000000E+00 0.  1.
         25    2    1    2    0    0  0.17396407392E+02  0.40205277010E+02  0.34931551027E+03  0.37361465841E+03  0.12508991954E+03 0.  0.
         23    2    1    2    0    0 -0.17396407392E+02 -0.40205277010E+02  0.32159147061E+03  0.33678053117E+03  0.89894120592E+02 0.  0.
          5    1    3    3  502    0 -0.35939086773E+02  0.27938016486E+02  0.28681283721E+03  0.29043282651E+03  0.41800000000E+01 0.  1.
         -5    1    3    3    0  502  0.53335494165E+02  0.12267260524E+02  0.62502673061E+02  0.83181831900E+02  0.41800000000E+01 0.  1.
        -11    1    4    4    0    0 -0.29627384408E+02  0.20533509470E+02  0.87639317077E+02  0.94763161702E+02  0.00000000000E+00 0. -1.
         11    1    4    4    0    0  0.12230977017E+02 -0.60738786480E+02  0.23395215354E+03  0.24201736947E+03  0.00000000000E+00 0.  1.
</event>
<event>
 8    1  0.3710605E-009  0.1082494E+03  0.7561462E-02  0.1263846E+00
         -1   -1    0    0    0  501 -0.00000000000E+00  0.00000000000E+00  0.24313187441E+03  0.24313187441E+03  0.00000000000E+00 0.  1.
          1   -1    0    0  501    0  0.00000000000E+00 -0.00000000000E+00 -0.57013397741E+02  0.57013397741E+02  0.00000000000E+00 0. -1.
         25    2    1    2    0    0  0.10769941606E+02 -0.23883156618E+02  0.15515582655E+03  0.20101704715E+03  0.12509246948E+03 0.  0.
         23    2    1    2    0    0 -0.10769941606E+02  0.23883156618E+02  0.30962650117E+02  0.99128224998E+02  0.90450663219E+02 0.  0.
          5    1    3    3  502    0 -0.29152263244E+02  0.41289780077E+02  0.52868020342E+02  0.73261179119E+02  0.41800000000E+01 0.  1.
         -5    1    3    3    0  502  0.39922204850E+02 -0.65172936695E+02  0.10228780621E+03  0.12775586803E+03  0.41800000000E+01 0.  1.
        -11    1    4    4    0    0 -0.59406675986E+01  0.56225629897E+02  0.34504821047E+02  0.66235909176E+02  0.00000000000E+00 0.  1.
         11    1    4    4    0    0 -0.48292740078E+01 -0.32342473279E+02 -0.35421709300E+01  0.32892315823E+02  0.00000000000E+00 0. -1.
</event>
<event>
 8    1  0.3710605E-009  0.9700762E+02  0.7561462E-02  0.1286717E+00
         -1   -1    0    0    0  501 -0.00000000000E+00  0.00000000000E+00  0.12039550444E+02  0.12039550444E+02  0.00000000000E+00 0.  1.
          1   -1    0    0  501    0  0.00000000000E+00 -0.00000000000E+00 -0.10609476951E+04  0.10609476951E+04  0.00000000000E+00 0. -1.
         25    2    1    2    0    0 -0.10677874277E+01  0.27724773205E+01 -0.77085245608E+03  0.78094105445E+03  0.12508634889E+03 0.  0.
         23    2    1    2    0    0  0.10677874277E+01 -0.27724773205E+01 -0.27805568855E+03  0.29204619107E+03  0.89259089077E+02 0.  0.
          5    1    3    3  502    0  0.57777352561E+02  0.22940164873E+01 -0.24384832467E+03  0.25064509336E+03  0.41800000000E+01 0.  1.
         -5    1    3    3    0  502 -0.58845139989E+02  0.47846083320E+00 -0.52700413141E+03  0.53029596109E+03  0.41800000000E+01 0.  1.
        -11    1    4    4    0    0 -0.37796398529E+02  0.22255621338E+01 -0.63412831073E+02  0.73855995107E+02  0.00000000000E+00 0.  1.
         11    1    4    4    0    0  0.38864185956E+02 -0.49980394543E+01 -0.21464285748E+03  0.21819019596E+03  0.00000000000E+00 0. -1.
</event>
<event>
 8    1  0.3710605E-009  0.1137040E+03  0.7561462E-02  0.1253860E+00
         -2   -1    0    0    0  501 -0.00000000000E+00  0.00000000000E+00  0.50011257638E+02  0.50011257638E+02  0.00000000000E+00 0. -1.
          2   -1    0    0  501    0  0.00000000000E+00 -0.00000000000E+00 -0.36495775862E+03  0.36495775862E+03  0.00000000000E+00 0.  1.
         25    2    1    2    0    0 -0.44317513415E+02 -0.66466950342E+02 -0.15762338200E+03  0.21650429558E+03  0.12508829670E+03 0.  0.
         23    2    1    2    0    0  0.44317513415E+02  0.66466950342E+02 -0.15732311899E+03  0.19846472068E+03  0.90861345477E+02 0.  0.
          5    1    3    3  502    0  0.18609802729E+02 -0.35757532458E+02 -0.13776471541E+03  0.14360193278E+03  0.41800000000E+01 0. -1.
         -5    1    3    3    0  502 -0.62927316144E+02 -0.30709417884E+02 -0.19858666581E+02  0.72902362803E+02  0.41800000000E+01 0. -1.
        -11    1    4    4    0    0 -0.85718089330E+01  0.63164762526E+02 -0.59438286434E+02  0.87156026914E+02  0.00000000000E+00 0. -1.
         11    1    4    4    0    0  0.52889322348E+02  0.33021878162E+01 -0.97884832553E+02  0.11130869376E+03  0.00000000000E+00 0.  1.
</event>
<event>
 8    1  0.3710605E-009  0.9045241E+02  0.7561462E-02  0.1301760E+00
          2   -1    0    0  501    0  0.00000000000E+00  0.00000000000E+00  0.87761879697E+02  0.87761879697E+02  0.00000000000E+00 0. -1.
         -2   -1    0    0    0  501 -0.00000000000E+00 -0.00000000000E+00 -0.15750488165E+03  0.15750488165E+03  0.00000000000E+00 0.  1.
         25    2    1    2    0    0 -0.20121423570E+02  0.20313508923E+02 -0.74821862339E+01  0.12853466378E+03  0.12509063255E+03 0.  0.
         23    2    1    2    0    0  0.20121423570E+02 -0.20313508923E+02 -0.62260815716E+02  0.11673209756E+03  0.94511708778E+02 0.  0.
          5    1    3    3  502    0  0.13239681805E+02 -0.32845107057E+02 -0.43346690361E+02  0.56129298919E+02  0.41800000000E+01 0. -1.
         -5    1    3    3    0  502 -0.33361105375E+02  0.53158615980E+02  0.35864504127E+02  0.72405364863E+02  0.41800000000E+01 0. -1.
        -11    1    4    4    0    0 -0.29733146155E+02 -0.10521340491E+02 -0.57653235401E+02  0.65716467785E+02  0.00000000000E+00 0.  1.
         11    1    4    4    0    0  0.49854569725E+02 -0.97921684325E+01 -0.46075803148E+01  0.51015629776E+02  0.00000000000E+00 0. -1.
</event>
<event>
 8    1  0.3710605E-009  0.9766689E+02  0.7561462E-02  0.1285280E+00
         -3   -1    0    0    0  501 -0.00000000000E+00  0.00000000000E+00  0.68329748513E+02  0.68329748513E+02  0.00000000000E+00 0.  1.
          3   -1    0    0  501    0  0.00000000000E+00 -0.00000000000E+00 -0.22554273347E+03  0.22554273347E+03  0.00000000000E+00 0. -1.
         25    2    1    2    0    0 -0.47698874299E+02 -0.31965246293E+02 -0.65671066765E+02  0.15251679579E+03  0.12510685196E+03 0.  0.
         23    2    1    2    0    0  0.47698874299E+02  0.31965246293E+02 -0.91541918193E+02  0.14135568620E+03  0.91129290865E+02 0.  0.
          5    1    3    3  502    0  0.23832267452E+02 -0.27734974748E+02  0.19077612435E+02  0.41456404722E+02  0.41800000000E+01 0. -1.
         -5    1    3    3    0  502 -0.71531141752E+02 -0.42302715443E+01 -0.84748679200E+02  0.11106039107E+03  0.41800000000E+01 0. -1.
        -11    1    4    4    0    0 -0.69087443828E+01 -0.13844172735E+02 -0.62503319682E+02  0.64389881495E+02  0.00000000000E+00 0. -1.
         11    1    4    4    0    0  0.54607618682E+02  0.45809419028E+02 -0.29038598510E+02  0.76965804701E+02  0.00000000000E+00 0.  1.
</event>
<event>
 8    1  0.3710605E-009  0.1633358E+03  0.7561462E-02  0.1184981E+00
          2   -1    0    0  501    0  0.00000000000E+00  0.00000000000E+00  0.12329499336E+04  0.12329499336E+04  0.00000000000E+00 0. -1.
         -2   -1    0    0    0  501 -0.00000000000E+00 -0.00000000000E+00 -0.27767745409E+02  0.27767745409E+02  0.00000000000E+00 0.  1.
         25    2    1    2    0    0 -0.21775518428E+02  0.14782979030E+03  0.62012134132E+03  0.65001990100E+03  0.12509026193E+03 0.  0.
         23    2    1    2    0    0  0.21775518428E+02 -0.14782979030E+03  0.58506084683E+03  0.61069777797E+03  0.91256569198E+02 0.  0.
          5    1    3    3  502    0 -0.21555886158E+02  0.27841008264E+02  0.37905734710E+03  0.38071212584E+03  0.41800000000E+01 0.  1.
         -5    1    3    3    0  502 -0.21963227024E+00  0.11998878204E+03  0.24106399422E+03  0.26930777516E+03  0.41800000000E+01 0.  1.
        -11    1    4    4    0    0  0.53431809121E+02 -0.10587988590E+03  0.34077480151E+03  0.36082263484E+03  0.00000000000E+00 0.  1.
         11    1    4    4    0    0 -0.31656290692E+02 -0.41949904398E+02  0.24428604532E+03  0.24987514313E+03  0.00000000000E+00 0. -1.
</event>
<event>
 8    1  0.3710605E-009  0.1248615E+03  0.7561462E-02  0.1235286E+00
         -1   -1    0    0    0  501 -0.00000000000E+00  0.00000000000E+00  0.10231418399E+04  0.10231418399E+04  0.00000000000E+00 0.  1.
          1   -1    0    0  501    0  0.00000000000E+00 -0.00000000000E+00 -0.21994387609E+02  0.21994387609E+02  0.00000000000E+00 0. -1.
         25    2    1    2    0    0 -0.59678006479E+02 -0.27092206403E+02  0.82374612558E+03  0.83576303056E+03  0.12508681682E+03 0.  0.
         23    2    1    2    0    0  0.59678006479E+02  0.27092206403E+02  0.17740132669E+03  0.20937319692E+03  0.89835698776E+02 0.  0.
          5    1    3    3  502    0 -0.95170833928E+02 -0.35748909804E+02  0.52562283052E+03  0.53538052313E+03  0.41800000000E+01 0.  1.
         -5    1    3    3    0  502  0.35492827449E+02  0.86567034012E+01  0.29812329506E+03  0.30038250743E+03  0.41800000000E+01 0.  1.
        -11    1    4    4    0    0  0.81409673430E+02  0.71775635641E+01  0.13056003023E+03  0.15402913309E+03  0.00000000000E+00 0.  1.
         11    1    4    4    0    0 -0.21731666951E+02  0.19914642839E+02  0.46841296458E+02  0.55344063834E+02  0.00000000000E+00 0. -1.
</event>
<event>
 8    1  0.3710605E-009  0.1507615E+03  0.7561462E-02  0.1199540E+00
         -3   -1    0    0    0  501 -0.00000000000E+00  0.00000000000E+00  0.47223722593E+03  0.47223722593E+03  0.00000000000E+00 0.  1.
          3   -1    0    0  501    0  0.00000000000E+00 -0.00000000000E+00 -0.57339323831E+02  0.57339323831E+02  0.00000000000E+00 0. -1.
         25    2    1    2    0    0  0.55693492386E+01 -0.11944685684E+03  0.24691809958E+03  0.30152311179E+03  0.12509624209E+03 0.  0.
         23    2    1    2    0    0 -0.55693492386E+01  0.11944685684E+03  0.16797980252E+03  0.22805343797E+03  0.97429909435E+02 0.  0.
          5    1    3    3  502    0 -0.36221619807E+02 -0.86882909337E+02  0.22519049687E+03  0.24410833242E+03  0.41800000000E+01 0. -1.
         -5    1    3    3    0  502  0.41790969046E+02 -0.32563947507E+02  0.21727602707E+02  0.57414779373E+02  0.41800000000E+01 0. -1.
        -11    1    4    4    0    0 -0.44707510298E+02  0.10187390316E+03  0.12466552515E+03  0.16708844000E+03  0.00000000000E+00 0. -1.
         11    1    4    4    0    0  0.39138161060E+02  0.17572953682E+02  0.43314277374E+02  0.60964997963E+02  0.00000000000E+00 0.  1.
</event>
<event>
 8    1  0.3710605E-009  0.8709616E+02  0.7561462E-02  0.1310040E+00
          2   -1    0    0  501    0  0.00000000000E+00  0.00000000000E+00  0.28360788965E+03  0.28360788965E+03  0.00000000000E+00 0. -1.
         -2   -1    0    0    0  501 -0.00000000000E+00 -0.00000000000E+00 -0.54035440845E+02  0.54035440845E+02  0.00000000000E+00 0.  1.
         25    2    1    2    0    0  0.22239641498E+02  0.54040008180E+02  0.14490242788E+03  0.20014788086E+03  0.12509011339E+03 0.  0.
         23    2    1    2    0    0 -0.22239641498E+02 -0.54040008180E+02  0.84670020918E+02  0.13749544964E+03  0.91219855789E+02 0.  0.
          5    1    3    3  502    0  0.49574767856E+01 -0.50779089501E+01 -0.21307331635E+02  0.22843741305E+02  0.41800000000E+01 0. -1.
         -5    1    3    3    0  502  0.17282164712E+02  0.59117917130E+02  0.16620975952E+03  0.17730413955E+03  0.41800000000E+01 0. -1.
        -11    1    4    4    0    0  0.99882670666E+01 -0.68266976168E+02  0.37206037165E+02  0.78386444719E+02  0.00000000000E+00 0.  1.
         11    1    4    4    0    0 -0.32227908564E+02  0.14226967988E+02  0.47463983753E+02  0.59109004917E+02  0.00000000000E+00 0. -1.
</event>
<event>
 8    1  0.3710605E-009  0.1923557E+03  0.7561462E-02  0.1156354E+00
         -1   -1    0    0    0  501 -0.00000000000E+00  0.00000000000E+00  0.12998658095E+04  0.12998658095E+04  0.00000000000E+00 0.  1.
          1   -1    0    0  501    0  0.00000000000E+00 -0.00000000000E+00 -0.30639189437E+02  0.30639189437E+02  0.00000000000E+00 0. -1.
         25    2    1    2    0    0 -0.90628083816E+02  0.13319987997E+03  0.52283693910E+03  0.56121574179E+03  0.12509590861E+03 0.  0.
         23    2    1    2    0    0  0.90628083816E+02 -0.13319987997E+03  0.74638968092E+03  0.76928925709E+03  0.93556120614E+02 0.  0.
          5    1    3    3  502    0 -0.12036214007E+03  0.12311807291E+03  0.43616570364E+03  0.46893826680E+03  0.41800000000E+01 0.  1.
         -5    1    3    3    0  502  0.29734056254E+02  0.10081807053E+02  0.86671235462E+02  0.92277474994E+02  0.41800000000E+01 0.  1.
        -11    1    4    4    0    0  0.63616589928E+02 -0.23476554946E+02  0.37528345499E+03  0.38136057837E+03  0.00000000000E+00 0.  1.
         11    1    4    4    0    0  0.27011493888E+02 -0.10972332502E+03  0.37110622593E+03  0.38792867873E+03  0.00000000000E+00 0. -1.
</event>
<event>
 8    1  0.3710605E-009  0.8804917E+02  0.7561462E-02  0.1307646E+00
         -2   -1    0    0    0  501 -0.00000000000E+00  0.00000000000E+00  0.62879784169E+02  0.62879784169E+02  0.00000000000E+00 0. -1.
          2   -1    0    0  501    0  0.00000000000E+00 -0.00000000000E+00 -0.20861637152E+03  0.20861637152E+03  0.00000000000E+00 0.  1.
         25    2    1    2    0    0  0.70516513083E+01  0.34069562836E+02 -0.64156717281E+02  0.14482259345E+03  0.12508812215E+03 0.  0.
         23    2    1    2    0    0 -0.70516513083E+01 -0.34069562836E+02 -0.81579870069E+02  0.12667356224E+03  0.90445869293E+02 0.  0.
          5    1    3    3  502    0  0.59299404978E+02  0.21323983935E+02 -0.29301784126E+01  0.63223334831E+02  0.41800000000E+01 0.  1.
         -5    1    3    3    0  502 -0.52247753670E+02  0.12745578901E+02 -0.61226538868E+02  0.81599258617E+02  0.41800000000E+01 0.  1.
        -11    1    4    4    0    0  0.20244339670E+02 -0.98699336934E+01  0.12507480169E+02  0.25762102787E+02  0.00000000000E+00 0. -1.
         11    1    4    4    0    0 -0.27295990979E+02 -0.24199629143E+02 -0.94087350238E+02  0.10091145945E+03  0.00000000000E+00 0.  1.
</event>
<event>
 8    1  0.3710605E-009  0.1051670E+03  0.7561462E-02  0.1269791E+00
          1   -1    0    0  501    0  0.00000000000E+00  0.00000000000E+00  0.49554745024E+03  0.49554745024E+03  0.00000000000E+00 0. -1.
         -1   -1    0    0    0  501 -0.00000000000E+00 -0.00000000000E+00 -0.30921972140E+02  0.30921972140E+02  0.00000000000E+00 0.  1.
         25    2    1    2    0    0 -0.17587837860E+02  0.32811867068E+02  0.16221541639E+03  0.20820006044E+03  0.12508986046E+03 0.  0.
         23    2    1    2    0    0  0.17587837860E+02 -0.32811867068E+02  0.30241006171E+03  0.31826936195E+03  0.91965160080E+02 0.  0.
          5    1    3    3  502    0 -0.56453162483E+02 -0.67389395295E+01  0.29246844065E+02  0.64072015327E+02  0.41800000000E+01 0.  1.
         -5    1    3    3    0  502  0.38865324623E+02  0.39550806597E+02  0.13296857233E+03  0.14412804511E+03  0.41800000000E+01 0.  1.
        -11    1    4    4    0    0  0.53793019594E+02 -0.29528989156E+02  0.16210628298E+03  0.17333233149E+03  0.00000000000E+00 0.  1.
         11    1    4    4    0    0 -0.36205181734E+02 -0.32828779122E+01  0.14030377873E+03  0.14493703045E+03  0.00000000000E+00 0. -1.
</event>
<event>
 8    1  0.3710605E-009  0.6169906E+02  0.7561462E-02  0.1390837E+00
          1   -1    0    0  501    0  0.00000000000E+00  0.00000000000E+00  0.10273332819E+03  0.10273332819E+03  0.00000000000E+00 0. -1.
         -1   -1    0    0    0  501 -0.00000000000E+00 -0.00000000000E+00 -0.16104909074E+03  0.16104909074E+03  0.00000000000E+00 0.  1.
         25    2    1    2    0    0 -0.22044654410E+02 -0.95410822120E+01 -0.10099658980E+03  0.16255700481E+03  0.12508984621E+03 0.  0.
         23    2    1    2    0    0  0.22044654410E+02  0.95410822120E+01  0.42680827241E+02  0.10122541412E+03  0.88588556887E+02 0.  0.
          5    1    3    3  502    0  0.23186056032E+02 -0.38305737864E+02 -0.99022121985E+02  0.10875557820E+03  0.41800000000E+01 0.  1.
         -5    1    3    3    0  502 -0.45230710442E+02  0.28764655652E+02 -0.19744678115E+01  0.53801426608E+02  0.41800000000E+01 0.  1.
        -11    1    4    4    0    0  0.10752896459E+02  0.16326823463E+01 -0.27568430663E+02  0.29636275122E+02  0.00000000000E+00 0.  1.
         11    1    4    4    0    0  0.11291757951E+02  0.79083998657E+01  0.70249257903E+02  0.71589138995E+02  0.00000000000E+00 0. -1.
</event>
<event>
 8    1  0.3710605E-009  0.1116535E+03  0.7561462E-02  0.1257538E+00
         -1   -1    0    0    0  501 -0.00000000000E+00  0.00000000000E+00  0.87410465357E+02  0.87410465357E+02  0.00000000000E+00 0.  1.
          1   -1    0    0  501    0  0.00000000000E+00 -0.00000000000E+00 -0.16382765185E+03  0.16382765185E+03  0.00000000000E+00 0. -1.
         25    2    1    2    0    0  0.35417303833E+02 -0.29066061860E+02 -0.58924909906E+02  0.14566880815E+03  0.12509210726E+03 0.  0.
         23    2    1    2    0    0 -0.35417303833E+02  0.29066061860E+02 -0.17492276583E+02  0.10556930905E+03  0.93486244499E+02 0.  0.
          5    1    3    3  502    0 -0.43742752729E+02 -0.30779634218E+02 -0.19170035615E+02  0.56971720743E+02  0.41800000000E+01 0. -1.
         -5    1    3    3    0  502  0.79160056563E+02  0.17135723587E+01 -0.39754874291E+02  0.88697087411E+02  0.41800000000E+01 0. -1.
        -11    1    4    4    0    0 -0.48643196806E+02 -0.95310562652E+01 -0.35502544395E+02  0.60970749442E+02  0.00000000000E+00 0. -1.
         11    1    4    4    0    0  0.13225892972E+02  0.38597118125E+02  0.18010267812E+02  0.44598559608E+02  0.00000000000E+00 0.  1.
</event>
<event>
 8    1  0.3710605E-009  0.1427507E+03  0.7561462E-02  0.1209675E+00
         -4   -1    0    0    0  501 -0.00000000000E+00  0.00000000000E+00  0.15102484313E+03  0.15102484313E+03  0.00000000000E+00 0.  1.
          4   -1    0    0  501    0  0.00000000000E+00 -0.00000000000E+00 -0.14755281046E+03  0.14755281046E+03  0.00000000000E+00 0. -1.
         25    2    1    2    0    0  0.69714811403E+01  0.10346604649E+03 -0.83902873515E+01  0.16270225398E+03  0.12509117555E+03 0.  0.
         23    2    1    2    0    0 -0.69714811403E+01 -0.10346604649E+03  0.11862320026E+02  0.13587539962E+03  0.86991868921E+02 0.  0.
          5    1    3    3  502    0  0.57072911209E+02  0.68769474391E+02  0.25257719263E+02  0.92962264302E+02  0.41800000000E+01 0.  1.
         -5    1    3    3    0  502 -0.50101430069E+02  0.34696572101E+02 -0.33648006614E+02  0.69739989673E+02  0.41800000000E+01 0.  1.
        -11    1    4    4    0    0  0.12305465940E+02 -0.11284429691E+03  0.60988530796E+01  0.11367698028E+03  0.00000000000E+00 0.  1.
         11    1    4    4    0    0 -0.19276947080E+02  0.93782504186E+01  0.57634669463E+01  0.22198419333E+02  0.00000000000E+00 0. -1.
</event>
<event>
 8    1  0.3710605E-009  0.1716998E+03  0.7561462E-02  0.1176087E+00
          4   -1    0    0  501    0  0.00000000000E+00  0.00000000000E+00  0.70272472112E+02  0.70272472112E+02  0.00000000000E+00 0. -1.
         -4   -1    0    0    0  501 -0.00000000000E+00 -0.00000000000E+00 -0.70982533890E+03  0.70982533890E+03  0.00000000000E+00 0.  1.
         25    2    1    2    0    0 -0.12163412276E+03 -0.70499879158E+02 -0.56620472584E+03  0.59665763840E+03  0.12508978021E+03 0.  0.
         23    2    1    2    0    0  0.12163412276E+03  0.70499879158E+02 -0.73348140947E+02  0.18344017261E+03  0.92223935970E+02 0.  0.
          5    1    3    3  502    0 -0.11835230165E+03 -0.98165046206E+02 -0.52240427075E+03  0.54457996484E+03  0.41800000000E+01 0. -1.
         -5    1    3    3    0  502 -0.32818211134E+01  0.27665167047E+02 -0.43800455085E+02  0.52077673558E+02  0.41800000000E+01 0. -1.
        -11    1    4    4    0    0 -0.27334106614E+01  0.30706854448E+02  0.48945379053E+01  0.31214402849E+02  0.00000000000E+00 0.  1.
         11    1    4    4    0    0  0.12436753343E+03  0.39793024710E+02 -0.78242678852E+02  0.15222576976E+03  0.00000000000E+00 0. -1.
</event>
<event>
 8    1  0.3710605E-009  0.1212858E+03  0.7561462E-02  0.1240991E+00
          1   -1    0    0  501    0  0.00000000000E+00  0.00000000000E+00  0.49140330734E+03  0.49140330734E+03  0.00000000000E+00 0. -1.
         -1   -1    0    0    0  501 -0.00000000000E+00 -0.00000000000E+00 -0.43183800957E+02  0.43183800957E+02  0.00000000000E+00 0.  1.
         25    2    1    2    0    0 -0.82053062391E+02 -0.20957880852E+02  0.15518550798E+03  0.21657279719E+03  0.12509714936E+03 0.  0.
         23    2    1    2    0    0  0.82053062391E+02  0.20957880852E+02  0.29303399840E+03  0.31801431111E+03  0.89956878742E+02 0.  0.
          5    1    3    3  502    0 -0.84018086648E+02  0.12831700566E+02  0.16087819693E+03  0.18199713754E+03  0.41800000000E+01 0. -1.
         -5    1    3    3    0  502  0.19650242572E+01 -0.33789581419E+02 -0.56926889517E+01  0.34575659651E+02  0.41800000000E+01 0. -1.
        -11    1    4    4    0    0  0.98190806963E+02  0.32614270622E+02  0.23922873876E+03  0.26064442190E+03  0.00000000000E+00 0.  1.
         11    1    4    4    0    0 -0.16137744573E+02 -0.11656389770E+02  0.53805259647E+02  0.57369889210E+02  0.00000000000E+00 0. -1.
</event>
<event>
 8    1  0.3710605E-009  0.2322103E+03  0.7561462E-02  0.1125094E+00
          2   -1    0    0  501    0  0.00000000000E+00  0.00000000000E+00  0.11400486278E+04  0.11400486278E+04  0.00000000000E+00 0. -1.
         -2   -1    0    0    0  501 -0.00000000000E+00 -0.00000000000E+00 -0.53198387505E+02  0.53198387505E+02  0.00000000000E+00 0.  1.
         25    2    1    2    0    0  0.15375765369E+03  0.15829851247E+03  0.54642686862E+03  0.60243666444E+03  0.12509107398E+03 0.  0.
         23    2    1    2    0    0 -0.15375765369E+03 -0.15829851247E+03  0.54042337168E+03  0.59081035088E+03  0.91102222365E+02 0.  0.
          5    1    3    3  502    0  0.11885351074E+03  0.90971138807E+02  0.47549716002E+03  0.49851472065E+03  0.41800000000E+01 0.  1.
         -5    1    3    3    0  502  0.34904142951E+02  0.67327373666E+02  0.70929708600E+02  0.10392194379E+03  0.41800000000E+01 0.  1.
        -11    1    4    4    0    0 -0.63033243740E+02 -0.12869977378E+03  0.32199540812E+03  0.35244554818E+03  0.00000000000E+00 0. -1.
         11    1    4    4    0    0 -0.90724409954E+02 -0.29598738692E+02  0.21842796357E+03  0.23836480269E+03  0.00000000000E+00 0.  1.
</event>
<event>
 8    1  0.3710605E-009  0.1031938E+03  0.7561462E-02  0.1273720E+00
          2   -1    0    0  501    0  0.00000000000E+00  0.00000000000E+00  0.55296772411E+03  0.55296772411E+03  0.00000000000E+00 0. -1.
         -2   -1    0    0    0  501 -0.00000000000E+00 -0.00000000000E+00 -0.39415198173E+02  0.39415198173E+02  0.00000000000E+00 0.  1.
         25    2    1    2    0    0 -0.61765289658E+02 -0.45819035853E+02  0.14908757867E+03  0.20926013748E+03  0.12509342096E+03 0.  0.
         23    2    1    2    0    0  0.61765289658E+02  0.45819035853E+02  0.36446494726E+03  0.38312278481E+03  0.89632780844E+02 0.  0.
          5    1    3    3  502    0 -0.78200174573E+02 -0.17596595152E+02  0.15616338412E+03  0.17558297869E+03  0.41800000000E+01 0.  1.
         -5    1    3    3    0  502  0.16434884915E+02 -0.28222440701E+02 -0.70758054492E+01  0.33677158788E+02  0.41800000000E+01 0.  1.
        -11    1    4    4    0    0  0.62315480443E+02  0.17298426701E+02  0.33826201818E+03  0.34438880297E+03  0.00000000000E+00 0. -1.
         11    1    4    4    0    0 -0.55019078489E+00  0.28520609152E+02  0.26202929084E+02  0.38733981836E+02  0.00000000000E+00 0.  1.
</event>
<event>
 8    1  0.3710605E-009  0.1087867E+03  0.7561462E-02  0.1262833E+00
          3   -1    0    0  501    0  0.00000000000E+00  0.00000000000E+00  0.31864063525E+03  0.31864063525E+03  0.00000000000E+00 0. -1.
         -3   -1    0    0    0  501 -0.00000000000E+00 -0.00000000000E+00 -0.53827882040E+02  0.53827882040E+02  0.00000000000E+00 0.  1.
         25    2    1    2    0    0  0.23633400406E+02 -0.76065005108E+01  0.48890801447E+02  0.13658059433E+03  0.12509017474E+03 0.  0.
         23    2    1    2    0    0 -0.23633400406E+02  0.76065005108E+01  0.21592195176E+03  0.23588792296E+03  0.91675659160E+02 0.  0.
          5    1    3    3  502    0  0.67279331077E+02  0.20993122635E+02  0.45767445215E+02  0.84138879418E+02  0.41800000000E+01 0.  1.
         -5    1    3    3    0  502 -0.43645930672E+02 -0.28599623146E+02  0.31233562325E+01  0.52441714908E+02  0.41800000000E+01 0.  1.
        -11    1    4    4    0    0  0.35159338004E+02 -0.11663380816E+01  0.90341590724E+02  0.96949174354E+02  0.00000000000E+00 0.  1.
         11    1    4    4    0    0 -0.58792738409E+02  0.87728385924E+01  0.12558036104E+03  0.13893874861E+03  0.00000000000E+00 0. -1.
</event>
<event>
 8    1  0.3710605E-009  0.1351352E+03  0.7561462E-02  0.1220029E+00
          1   -1    0    0  501    0  0.00000000000E+00  0.00000000000E+00  0.79689004584E+03  0.79689004584E+03  0.00000000000E+00 0. -1.
         -1   -1    0    0    0  501 -0.00000000000E+00 -0.00000000000E+00 -0.25489442463E+02  0.25489442463E+02  0.00000000000E+00 0.  1.
         25    2    1    2    0    0 -0.56681542652E+02  0.65481818268E+02  0.51407188342E+03  0.53611359466E+03  0.12508884546E+03 0.  0.
         23    2    1    2    0    0  0.56681542652E+02 -0.65481818268E+02  0.25732871996E+03  0.28626589364E+03  0.90716183478E+02 0.  0.
          5    1    3    3  502    0 -0.56168584342E+02  0.10015408217E+03  0.42970144442E+03  0.44479945344E+03  0.41800000000E+01 0.  1.
         -5    1    3    3    0  502 -0.51295830965E+00 -0.34672263906E+02  0.84370438996E+02  0.91314141221E+02  0.41800000000E+01 0.  1.
        -11    1    4    4    0    0  0.46468770291E+02  0.72166486277E+01  0.14171553434E+03  0.14931416310E+03  0.00000000000E+00 0. -1.
         11    1    4    4    0    0  0.10212772361E+02 -0.72698466896E+02  0.11561318562E+03  0.13695173054E+03  0.00000000000E+00 0.  1.
</event>
<event>
 8    1  0.3710605E-009  0.8810534E+02  0.7561462E-02  0.1307506E+00
         -1   -1    0    0    0  501 -0.00000000000E+00  0.00000000000E+00  0.43448421940E+02  0.43448421940E+02  0.00000000000E+00 0.  1.
          1   -1    0    0  501    0  0.00000000000E+00 -0.00000000000E+00 -0.56199124621E+03  0.56199124621E+03  0.00000000000E+00 0. -1.
         25    2    1    2    0    0  0.49973068012E+02 -0.49034478024E+01 -0.47687328257E+03  0.49555720935E+03  0.12508984283E+03 0.  0.
         23    2    1    2    0    0 -0.49973068012E+02  0.49034478024E+01 -0.41669541699E+02  0.10988245880E+03  0.88410704782E+02 0.  0.
          5    1    3    3  502    0  0.78538531239E+02 -0.24423890714E+02 -0.19698081138E+03  0.21350348892E+03  0.41800000000E+01 0.  1.
         -5    1    3    3    0  502 -0.28565463227E+02  0.19520442912E+02 -0.27989247119E+03  0.28205372043E+03  0.41800000000E+01 0.  1.
        -11    1    4    4    0    0 -0.29927967596E+02 -0.12525682216E+02  0.23133671249E+02  0.39846489242E+02  0.00000000000E+00 0.  1.
         11    1    4    4    0    0 -0.20045100416E+02  0.17429130018E+02 -0.64803212948E+02  0.70035969561E+02  0.00000000000E+00 0. -1.
</event>
<event>
 8    1  0.3710605E-009  0.2305797E+03  0.7561462E-02  0.1126232E+00
         -1   -1    0    0    0  501 -0.00000000000E+00  0.00000000000E+00  0.81036743485E+02  0.81036743485E+02  0.00000000000E+00 0.  1.
          1   -1    0    0  501    0  0.00000000000E+00 -0.00000000000E+00 -0.98367276911E+03  0.98367276911E+03  0.00000000000E+00 0. -1.
         25    2    1    2    0    0 -0.17097809764E+03  0.13800175327E+03 -0.72396841621E+03  0.76684688378E+03  0.12508349893E+03 0.  0.
         23    2    1    2    0    0  0.17097809764E+03 -0.13800175327E+03 -0.17866760941E+03  0.29786262882E+03  0.92314880779E+02 0.  0.
          5    1    3    3  502    0 -0.83071956935E+02  0.97477858843E+02 -0.22835286727E+03  0.26184993295E+03  0.41800000000E+01 0. -1.
         -5    1    3    3    0  502 -0.87906140708E+02  0.40523894429E+02 -0.49561554894E+03  0.50499695082E+03  0.41800000000E+01 0. -1.
        -11    1    4    4    0    0  0.80666606435E+02 -0.12678848657E+02 -0.81503600739E+02  0.11537197030E+03  0.00000000000E+00 0. -1.
         11    1    4    4    0    0  0.90311491208E+02 -0.12532290462E+03 -0.97164008670E+02  0.18249065852E+03  0.00000000000E+00 0.  1.
</event>
<event>
 8    1  0.3710605E-009  0.1884325E+03  0.7561462E-02  0.1159883E+00
         -2   -1    0    0    0  501 -0.00000000000E+00  0.00000000000E+00  0.79546231044E+02  0.79546231044E+02  0.00000000000E+00 0.  1.
          2   -1    0    0  501    0  0.00000000000E+00 -0.00000000000E+00 -0.50063058608E+03  0.50063058608E+03  0.00000000000E+00 0. -1.
         25    2    1    2    0    0 -0.30902266185E+02  0.16305339773E+03 -0.24355988775E+03  0.32017280855E+03  0.12509135800E+03 0.  0.
         23    2    1    2    0    0  0.30902266185E+02 -0.16305339773E+03 -0.17752446728E+03  0.26000400857E+03  0.92443428221E+02 0.  0.
          5    1    3    3  502    0  0.45724849787E+02  0.79291829510E+02 -0.83997557840E+02  0.12430212483E+03  0.41800000000E+01 0. -1.
         -5    1    3    3    0  502 -0.76627115972E+02  0.83761568222E+02 -0.15956232991E+03  0.19587068372E+03  0.41800000000E+01 0. -1.
        -11    1    4    4    0    0  0.40261386937E+02 -0.98523810491E+02 -0.51782397728E+02  0.11836104607E+03  0.00000000000E+00 0.  1.
         11    1    4    4    0    0 -0.93591207515E+01 -0.64529587242E+02 -0.12574206955E+03  0.14164296250E+03  0.00000000000E+00 0. -1.
</event>
<event>
 8    1  0.3710605E-009  0.9109645E+02  0.7561462E-02  0.1300218E+00
          1   -1    0    0  501    0  0.00000000000E+00  0.00000000000E+00  0.11672971830E+03  0.11672971830E+03  0.00000000000E+00 0. -1.
         -1   -1    0    0    0  501 -0.00000000000E+00 -0.00000000000E+00 -0.12719490286E+03  0.12719490286E+03  0.00000000000E+00 0.  1.
         25    2    1    2    0    0 -0.25987455292E+02  0.51160806167E+02  0.27353133220E+01  0.13765133667E+03  0.12509049776E+03 0.  0.
         23    2    1    2    0    0  0.25987455292E+02 -0.51160806167E+02 -0.13200497888E+02  0.10627328449E+03  0.88470231890E+02 0.  0.
          5    1    3    3  502    0 -0.43751685845E+02  0.76102676791E+02  0.33493574469E+02  0.94048494724E+02  0.41800000000E+01 0. -1.
         -5    1    3    3    0  502  0.17764230553E+02 -0.24941870624E+02 -0.30758261147E+02  0.43602841951E+02  0.41800000000E+01 0. -1.
        -11    1    4    4    0    0 -0.18098733452E+01 -0.25532464266E+02 -0.48313108523E+02  0.54674846394E+02  0.00000000000E+00 0.  1.
         11    1    4    4    0    0  0.27797328637E+02 -0.25628341901E+02  0.35112610635E+02  0.51598438092E+02  0.00000000000E+00 0. -1.
</event>
<event>
 8    1  0.3710605E-009  0.1430422E+03  0.7561462E-02  0.1209293E+00
          1   -1    0    0  501    0  0.00000000000E+00  0.00000000000E+00  0.99572880043E+03  0.99572880043E+03  0.00000000000E+00 0. -1.
         -1   -1    0    0    0  501 -0.00000000000E+00 -0.00000000000E+00 -0.38050524832E+02  0.38050524832E+02  0.00000000000E+00 0.  1.
         25    2    1    2    0    0  0.33685900489E+02 -0.12424792377E+03  0.24201681426E+03  0.30131170679E+03  0.12507725537E+03 0.  0.
         23    2    1    2    0    0 -0.33685900489E+02  0.12424792377E+03  0.71566146134E+03  0.73246761847E+03  0.88120363221E+02 0.  0.
          5    1    3    3  502    0  0.32638840710E+02 -0.78478683858E+02  0.24072304132E+03  0.25532186112E+03  0.41800000000E+01 0. -1.
         -5    1    3    3    0  502  0.10470597792E+01 -0.45769239909E+02  0.12937729359E+01  0.45989845666E+02  0.41800000000E+01 0. -1.
        -11    1    4    4    0    0  0.82856254578E+01  0.11055646732E+03  0.54712953801E+03  0.55824915174E+03  0.00000000000E+00 0. -1.
         11    1    4    4    0    0 -0.41971525947E+02  0.13691456448E+02  0.16853192333E+03  0.17421846673E+03  0.00000000000E+00 0.  1.
</event>
<event>
 8    1  0.3710605E-009  0.1419109E+03  0.7561462E-02  0.1210781E+00
          2   -1    0    0  501    0  0.00000000000E+00  0.00000000000E+00  0.11139026107E+03  0.11139026107E+03  0.00000000000E+00 0.  1.
         -2   -1    0    0    0  501 -0.00000000000E+00 -0.00000000000E+00 -0.24761258942E+03  0.24761258942E+03  0.00000000000E+00 0. -1.
         25    2    1    2    0    0  0.93566978870E+02 -0.76431662659E+02 -0.10131625537E+03  0.20126901223E+03  0.12509057954E+03 0.  0.
         23    2    1    2    0    0 -0.93566978870E+02  0.76431662659E+02 -0.34906072978E+02  0.15773383827E+03  0.95210037345E+02 0.  0.
          5    1    3    3  502    0  0.10349555971E+03 -0.20885112613E+02 -0.29237649568E+02  0.10963499150E+03  0.41800000000E+01 0. -1.
         -5    1    3    3    0  502 -0.99285808443E+01 -0.55546550046E+02 -0.72078605804E+02  0.91634020725E+02  0.41800000000E+01 0. -1.
        -11    1    4    4    0    0 -0.39677181114E+02  0.23905820285E+02 -0.62313432110E+02  0.77644901739E+02  0.00000000000E+00 0.  1.
         11    1    4    4    0    0 -0.53889797757E+02  0.52525842374E+02  0.27407359132E+02  0.80088936527E+02  0.00000000000E+00 0. -1.
</event>
<event>
 8    1  0.3710605E-009  0.1144595E+03  0.7561462E-02  0.1252527E+00
          4   -1    0    0  501    0  0.00000000000E+00  0.00000000000E+00  0.61852997250E+03  0.61852997250E+03  0.00000000000E+00 0. -1.
         -4   -1    0    0    0  501 -0.00000000000E+00 -0.00000000000E+00 -0.24491733927E+02  0.24491733927E+02  0.00000000000E+00 0.  1.
         25    2    1    2    0    0 -0.30553428043E+02  0.48500532471E+02  0.39035240577E+03  0.41389438391E+03  0.12509095384E+03 0.  0.
         23    2    1    2    0    0  0.30553428043E+02 -0.48500532471E+02  0.20368583280E+03  0.22912732251E+03  0.87895379974E+02 0.  0.
          5    1    3    3  502    0 -0.29640804087E+02 -0.38379740474E+02  0.10833296473E+03  0.11876483231E+03  0.41800000000E+01 0. -1.
         -5    1    3    3    0  502 -0.91262395662E+00  0.86880272945E+02  0.28201944104E+03  0.29512955161E+03  0.41800000000E+01 0. -1.
        -11    1    4    4    0    0  0.10564067446E+02 -0.65910942492E+02  0.88054455553E+02  0.11049633027E+03  0.00000000000E+00 0.  1.
         11    1    4    4    0    0  0.19989360597E+02  0.17410410021E+02  0.11563137725E+03  0.11863099224E+03  0.00000000000E+00 0. -1.
</event>
<event>
 8    1  0.3710605E-009  0.1828478E+03  0.7561462E-02  0.1165075E+00
         -1   -1    0    0    0  501 -0.00000000000E+00  0.00000000000E+00  0.25266924782E+03  0.25266924782E+03  0.00000000000E+00 0.  1.
          1   -1    0    0  501    0  0.00000000000E+00 -0.00000000000E+00 -0.14977261970E+03  0.14977261970E+03  0.00000000000E+00 0. -1.
         25    2    1    2    0    0  0.38735682161E+00 -0.16036882010E+03  0.40973255370E+02  0.20746985308E+03  0.12508646520E+03 0.  0.
         23    2    1    2    0    0 -0.38735682161E+00  0.16036882010E+03  0.61923372748E+02  0.19497201444E+03  0.91985182590E+02 0.  0.
          5    1    3    3  502    0  0.22565082629E+02  0.35261041634E+01 -0.20503475440E+02  0.30975494665E+02  0.41800000000E+01 0.  1.
         -5    1    3    3    0  502 -0.22177725807E+02 -0.16389492427E+03  0.61476730810E+02  0.17649435842E+03  0.41800000000E+01 0.  1.
        -11    1    4    4    0    0  0.34038821502E+02  0.43691707457E+02  0.46558894067E+02  0.72355630648E+02  0.00000000000E+00 0.  1.
         11    1    4    4    0    0 -0.34426178323E+02  0.11667711264E+03  0.15364478682E+02  0.12261638379E+03  0.00000000000E+00 0. -1.
</event>
<event>
 8    1  0.3710605E-009  0.2114592E+03  0.7561462E-02  0.1140416E+00
         -1   -1    0    0    0  501 -0.00000000000E+00  0.00000000000E+00  0.29427825899E+03  0.29427825899E+03  0.00000000000E+00 0.  1.
          1   -1    0    0  501    0  0.00000000000E+00 -0.00000000000E+00 -0.17004152410E+03  0.17004152410E+03  0.00000000000E+00 0. -1.
         25    2    1    2    0    0  0.18474205831E+03 -0.50912662937E+02  0.10374471214E+03  0.25126167847E+03  0.12509092061E+03 0.  0.
         23    2    1    2    0    0 -0.18474205831E+03  0.50912662937E+02  0.20492022750E+02  0.21305810462E+03  0.90841100798E+02 0.  0.
          5    1    3    3  502    0  0.13205616051E+03  0.25616878819E+02  0.74167253574E+02  0.15366622242E+03  0.41800000000E+01 0. -1.
         -5    1    3    3    0  502  0.52685897794E+02 -0.76529541757E+02  0.29577458565E+02  0.97595456057E+02  0.41800000000E+01 0. -1.
        -11    1    4    4    0    0 -0.50828455918E+02 -0.31255419315E+01  0.43322228856E+02  0.66858929518E+02  0.00000000000E+00 0.  1.
         11    1    4    4    0    0 -0.13391360239E+03  0.54038204869E+02 -0.22830206105E+02  0.14619917510E+03  0.00000000000E+00 0. -1.
</event>
<event>
 8    1  0.3710605E-009  0.1045696E+03  0.7561462E-02  0.1270970E+00
          1   -1    0    0  501    0  0.00000000000E+00  0.00000000000E+00  0.21492605354E+03  0.21492605354E+03  0.00000000000E+00 0. -1.
         -1   -1    0    0    0  501 -0.00000000000E+00 -0.00000000000E+00 -0.11436683629E+03  0.11436683629E+03  0.00000000000E+00 0.  1.
         25    2    1    2    0    0 -0.91626833585E+00 -0.10185976051E+03  0.10787534570E+02  0.16167911231E+03  0.12509002397E+03 0.  0.
         23    2    1    2    0    0  0.91626833585E+00  0.10185976051E+03  0.89771682678E+02  0.16761377753E+03  0.98281092018E+02 0.  0.
          5    1    3    3  502    0  0.14654213958E+01  0.76827110071E+00 -0.44690920582E+02  0.44916461157E+02  0.41800000000E+01 0.  1.
         -5    1    3    3    0  502 -0.23816897316E+01 -0.10262803161E+03  0.55478455152E+02  0.11676265115E+03  0.41800000000E+01 0.  1.
        -11    1    4    4    0    0 -0.68181509431E+00  0.69865221515E+02  0.10957315620E+03  0.12995341707E+03  0.00000000000E+00 0. -1.
         11    1    4    4    0    0  0.15980834302E+01  0.31994538992E+02 -0.19801473523E+02  0.37660360456E+02  0.00000000000E+00 0.  1.
</event>
<event>
 8    1  0.3710605E-009  0.9488818E+02  0.7561462E-02  0.1291428E+00
         -2   -1    0    0    0  501 -0.00000000000E+00  0.00000000000E+00  0.17479080298E+03  0.17479080298E+03  0.00000000000E+00 0.  1.
          2   -1    0    0  501    0  0.00000000000E+00 -0.00000000000E+00 -0.18055193693E+03  0.18055193693E+03  0.00000000000E+00 0. -1.
         25    2    1    2    0    0  0.32732481753E+01  0.46113440977E+02 -0.13556968756E+03  0.19017206385E+03  0.12509640319E+03 0.  0.
         23    2    1    2    0    0 -0.32732481753E+01 -0.46113440977E+02  0.12980855361E+03  0.16517067606E+03  0.91071005530E+02 0.  0.
          5    1    3    3  502    0 -0.16512345842E+02  0.65067194225E+02 -0.18346772352E+02  0.69717098228E+02  0.41800000000E+01 0. -1.
         -5    1    3    3    0  502  0.19785594017E+02 -0.18953753248E+02 -0.11722291521E+03  0.12045496562E+03  0.41800000000E+01 0. -1.
        -11    1    4    4    0    0  0.20257823586E+01 -0.70153782377E+02  0.64282622551E+02  0.95173066243E+02  0.00000000000E+00 0. -1.
         11    1    4    4    0    0 -0.52990305339E+01  0.24040341400E+02  0.65525931061E+02  0.69997609821E+02  0.00000000000E+00 0.  1.
</event>
<event>
 8    1  0.3710605E-009  0.1198862E+03  0.7561462E-02  0.1243285E+00
         -2   -1    0    0    0  501 -0.00000000000E+00  0.00000000000E+00  0.55379048121E+02  0.55379048121E+02  0.00000000000E+00 0.  1.
          2   -1    0    0  501    0  0.00000000000E+00 -0.00000000000E+00 -0.32412739626E+03  0.32412739626E+03  0.00000000000E+00 0. -1.
         25    2    1    2    0    0  0.72153863463E+02  0.31834350626E+02 -0.13864947630E+03  0.20271383020E+03  0.12509841639E+03 0.  0.
         23    2    1    2    0    0 -0.72153863463E+02 -0.31834350626E+02 -0.13009887184E+03  0.17679261418E+03  0.90057237818E+02 0.  0.
          5    1    3    3  502    0  0.64759086665E+01  0.55400906526E+02 -0.10750056065E+02  0.56958177134E+02  0.41800000000E+01 0.  1.
         -5    1    3    3    0  502  0.65677954797E+02 -0.23566555901E+02 -0.12789942024E+03  0.14575565306E+03  0.41800000000E+01 0.  1.
        -11    1    4    4    0    0  0.18163802176E+02  0.21398717279E-01 -0.42628867030E+01  0.18657340927E+02  0.00000000000E+00 0. -1.
         11    1    4    4    0    0 -0.90317665640E+02 -0.31855749343E+02 -0.12583598513E+03  0.15813527325E+03  0.00000000000E+00 0.  1.
</event>
<event>
 8    1  0.3710605E-009  0.7347101E+02  0.7561462E-02  0.1348672E+00
          4   -1    0    0  501    0  0.00000000000E+00  0.00000000000E+00  0.18163422231E+03  0.18163422231E+03  0.00000000000E+00 0. -1.
         -4   -1    0    0    0  501 -0.00000000000E+00 -0.00000000000E+00 -0.75021115860E+02  0.75021115860E+02  0.00000000000E+00 0.  1.
         25    2    1    2    0    0 -0.11616935152E+02  0.18876376596E+01  0.10382411255E+03  0.16298900091E+03  0.12508977462E+03 0.  0.
         23    2    1    2    0    0  0.11616935152E+02 -0.18876376596E+01  0.27889939039E+01  0.93666337259E+02  0.92882118248E+02 0.  0.
          5    1    3    3  502    0  0.16695357036E+02  0.28615300937E+02 -0.15928303032E+02  0.36996670550E+02  0.41800000000E+01 0. -1.
         -5    1    3    3    0  502 -0.28312292188E+02 -0.26727663277E+02  0.11975241558E+03  0.12599233036E+03  0.41800000000E+01 0. -1.
        -11    1    4    4    0    0 -0.24190899163E+01  0.34916908850E+02  0.29747547257E+02  0.45934290976E+02  0.00000000000E+00 0. -1.
         11    1    4    4    0    0  0.14036025068E+02 -0.36804546509E+02 -0.26958553353E+02  0.47732046283E+02  0.00000000000E+00 0.  1.
</event>
<event>
 8    1  0.3710605E-009  0.1139572E+03  0.7561462E-02  0.1253412E+00
          3   -1    0    0  501    0  0.00000000000E+00  0.00000000000E+00  0.30083953362E+03  0.30083953362E+03  0.00000000000E+00 0. -1.
         -3   -1    0    0    0  501 -0.00000000000E+00 -0.00000000000E+00 -0.93220437899E+02  0.93220437899E+02  0.00000000000E+00 0.  1.
         25    2    1    2    0    0 -0.45204720932E+02  0.62576030513E+02 -0.83382172484E+01  0.14722594328E+03  0.12508687429E+03 0.  0.
         23    2    1    2    0    0  0.45204720932E+02 -0.62576030513E+02  0.21595731297E+03  0.24683402824E+03  0.91270203687E+02 0.  0.
          5    1    3    3  502    0 -0.85887646393E+02  0.39010533434E+02 -0.24120605270E+02  0.97456582745E+02  0.41800000000E+01 0.  1.
         -5    1    3    3    0  502  0.40682925461E+02  0.23565497079E+02  0.15782388022E+02  0.49769360538E+02  0.41800000000E+01 0.  1.
        -11    1    4    4    0    0  0.48320314887E+02 -0.37882432433E+02  0.21311424498E+03  0.22178280577E+03  0.00000000000E+00 0. -1.
         11    1    4    4    0    0 -0.31155939552E+01 -0.24693598079E+02  0.28430679872E+01  0.25051222473E+02  0.00000000000E+00 0.  1.
</event>
<event>
 8    1  0.3710605E-009  0.2223244E+03  0.7561462E-02  0.1132162E+00
          1   -1    0    0  501    0  0.00000000000E+00  0.00000000000E+00  0.24174841770E+03  0.24174841770E+03  0.00000000000E+00 0. -1.
         -1   -1    0    0    0  501 -0.00000000000E+00 -0.00000000000E+00 -0.28351529369E+03  0.28351529369E+03  0.00000000000E+00 0.  1.
         25    2    1    2    0    0 -0.17983224679E+03  0.96233571501E+02 -0.14395527403E+03  0.27923518545E+03  0.12509448670E+03 0.  0.
         23    2    1    2    0    0  0.17983224679E+03 -0.96233571501E+02  0.10218839804E+03  0.24602852593E+03  0.92125075899E+02 0.  0.
          5    1    3    3  502    0 -0.13351584815E+03  0.12632575795E+03 -0.11224616549E+03  0.21540973259E+03  0.41800000000E+01 0.  1.
         -5    1    3    3    0  502 -0.46316398644E+02 -0.30092186446E+02 -0.31709108537E+02  0.63825452859E+02  0.41800000000E+01 0.  1.
        -11    1    4    4    0    0  0.99555415789E+02 -0.39512335979E+02  0.10174850049E+03  0.14773375667E+03  0.00000000000E+00 0. -1.
         11    1    4    4    0    0  0.80276831004E+02 -0.56721235522E+02  0.43989754775E+00  0.98294769266E+02  0.00000000000E+00 0.  1.
</event>
<event>
 8    1  0.3710605E-009  0.9924752E+02  0.7561462E-02  0.1281886E+00
         -2   -1    0    0    0  501 -0.00000000000E+00  0.00000000000E+00  0.63936091709E+02  0.63936091709E+02  0.00000000000E+00 0.  1.
          2   -1    0    0  501    0  0.00000000000E+00 -0.00000000000E+00 -0.23212604020E+03  0.23212604020E+03  0.00000000000E+00 0. -1.
         25    2    1    2    0    0 -0.43841828314E+02  0.21783805575E+02 -0.66196895391E+02  0.14975476045E+03  0.12509124359E+03 0.  0.
         23    2    1    2    0    0  0.43841828314E+02 -0.21783805575E+02 -0.10199305310E+03  0.14630737146E+03  0.92771892117E+02 0.  0.
          5    1    3    3  502    0  0.44063564465E+02  0.11268142567E+02 -0.21127653824E+02  0.50323144838E+02  0.41800000000E+01 0. -1.
         -5    1    3    3    0  502 -0.87905392780E+02  0.10515663008E+02 -0.45069241567E+02  0.99431615614E+02  0.41800000000E+01 0. -1.
        -11    1    4    4    0    0  0.31002746063E+02  0.77763072775E+01  0.69392263923E+01  0.32707706756E+02  0.00000000000E+00 0.  1.
         11    1    4    4    0    0  0.12839082252E+02 -0.29560112852E+02 -0.10893227949E+03  0.11359966470E+03  0.00000000000E+00 0. -1.
</event>
<event>
 8    1  0.3710605E-009  0.8725909E+02  0.7561462E-02  0.1309628E+00
         -2   -1    0    0    0  501 -0.00000000000E+00  0.00000000000E+00  0.20089200987E+02  0.20089200987E+02  0.00000000000E+00 0.  1.
          2   -1    0    0  501    0  0.00000000000E+00 -0.00000000000E+00 -0.59569416863E+03  0.59569416863E+03  0.00000000000E+00 0. -1.
         25    2    1    2    0    0  0.82094305067E+01  0.11376880612E+02 -0.33018576776E+03  0.35336495935E+03  0.12508926852E+03 0.  0.
         23    2    1    2    0    0 -0.82094305067E+01 -0.11376880612E+02 -0.24541919988E+03  0.26241841027E+03  0.91847755646E+02 0.  0.
          5    1    3    3  502    0 -0.67316956819E+01 -0.37269890323E+02 -0.29005094520E+02  0.47886619838E+02  0.41800000000E+01 0. -1.
         -5    1    3    3    0  502  0.14941126189E+02  0.48646770935E+02 -0.30118067324E+03  0.30547833951E+03  0.41800000000E+01 0. -1.
        -11    1    4    4    0    0  0.23951686494E+02 -0.37108024525E+02 -0.74512390384E+02  0.86618618615E+02  0.00000000000E+00 0.  1.
         11    1    4    4    0    0 -0.32161117001E+02  0.25731143913E+02 -0.17090680949E+03  0.17579979165E+03  0.00000000000E+00 0. -1.
</event>
<event>
 8    1  0.3710605E-009  0.1889117E+03  0.7561462E-02  0.1159447E+00
         -1   -1    0    0    0  501 -0.00000000000E+00  0.00000000000E+00  0.43634458933E+02  0.43634458933E+02  0.00000000000E+00 0.  1.
          1   -1    0    0  501    0  0.00000000000E+00 -0.00000000000E+00 -0.88903722929E+03  0.88903722929E+03  0.00000000000E+00 0. -1.
         25    2    1    2    0    0  0.85009345362E+01 -0.15659219076E+03 -0.55090888317E+03  0.58629600530E+03  0.12509607577E+03 0.  0.
         23    2    1    2    0    0 -0.85009345362E+01  0.15659219076E+03 -0.29449388719E+03  0.34637568293E+03  0.93038078444E+02 0.  0.
          5    1    3    3  502    0  0.58093512791E+02 -0.45503404262E+02 -0.27437793866E+03  0.28415865577E+03  0.41800000000E+01 0. -1.
         -5    1    3    3    0  502 -0.49592578255E+02 -0.11108878650E+03 -0.27653094452E+03  0.30213734953E+03  0.41800000000E+01 0. -1.
        -11    1    4    4    0    0 -0.50680861279E+02  0.92098781484E+02 -0.16272125902E+03  0.19372388440E+03  0.00000000000E+00 0.  1.
         11    1    4    4    0    0  0.42179926743E+02  0.64493409273E+02 -0.13177262817E+03  0.15265179853E+03  0.00000000000E+00 0. -1.
</event>
<event>
 8    1  0.3710605E-009  0.5482138E+02  0.7561462E-02  0.1420945E+00
         -2   -1    0    0    0  501 -0.00000000000E+00  0.00000000000E+00  0.15391054418E+02  0.15391054418E+02  0.00000000000E+00 0.  1.
          2   -1    0    0  501    0  0.00000000000E+00 -0.00000000000E+00 -0.84855317306E+03  0.84855317306E+03  0.00000000000E+00 0. -1.
         25    2    1    2    0    0 -0.28099769113E+02 -0.53692497446E+01 -0.63833629518E+03  0.65110584119E+03  0.12508862789E+03 0.  0.
         23    2    1    2    0    0  0.28099769113E+02  0.53692497446E+01 -0.19482582347E+03  0.21283838629E+03  0.80775313809E+02 0.  0.
          5    1    3    3  502    0 -0.22912081939E+02 -0.27136678852E+02 -0.62214246495E+03  0.62316938462E+03  0.41800000000E+01 0.  1.
         -5    1    3    3    0  502 -0.51876871732E+01  0.21767429107E+02 -0.16193830225E+02  0.27936456567E+02  0.41800000000E+01 0.  1.
        -11    1    4    4    0    0 -0.86830769544E+01 -0.81698602822E+01  0.20513079597E+01  0.12097533086E+02  0.00000000000E+00 0.  1.
         11    1    4    4    0    0  0.36782846067E+02  0.13539110027E+02 -0.19687713143E+03  0.20074085321E+03  0.00000000000E+00 0. -1.
</event>
<event>
 8    1  0.3710605E-009  0.9674636E+02  0.7561462E-02  0.1287291E+00
          2   -1    0    0  501    0  0.00000000000E+00  0.00000000000E+00  0.23969536746E+02  0.23969536746E+02  0.00000000000E+00 0. -1.
         -2   -1    0    0    0  501 -0.00000000000E+00 -0.00000000000E+00 -0.50993045000E+03  0.50993045000E+03  0.00000000000E+00 0.  1.
         25    2    1    2    0    0  0.83426601971E+01 -0.65245147551E+01 -0.33171537847E+03  0.35467549746E+03  0.12508975542E+03 0.  0.
         23    2    1    2    0    0 -0.83426601971E+01  0.65245147551E+01 -0.15424553478E+03  0.17922448928E+03  0.90650776543E+02 0.  0.
          5    1    3    3  502    0 -0.53345120099E+02  0.20486672816E+02 -0.17203044668E+03  0.18132113110E+03  0.41800000000E+01 0.  1.
         -5    1    3    3    0  502  0.61687780296E+02 -0.27011187571E+02 -0.15968493180E+03  0.17335436636E+03  0.41800000000E+01 0.  1.
        -11    1    4    4    0    0 -0.27259872910E+02 -0.21634146128E+02 -0.18717806040E+02  0.39515733736E+02  0.00000000000E+00 0. -1.
         11    1    4    4    0    0  0.18917212713E+02  0.28158660883E+02 -0.13552772874E+03  0.13970875555E+03  0.00000000000E+00 0.  1.
</event>
<event>
 8    1  0.3710605E-009  0.1060650E+03  0.7561462E-02  0.1268035E+00
          2   -1    0    0  501    0  0.00000000000E+00  0.00000000000E+00  0.39328010743E+02  0.39328010743E+02  0.00000000000E+00 0. -1.
         -2   -1    0    0    0  501 -0.00000000000E+00 -0.00000000000E+00 -0.45957211863E+03  0.45957211863E+03  0.00000000000E+00 0.  1.
         25    2    1    2    0    0  0.57910181127E+02 -0.52028511802E+02 -0.22272508775E+03  0.26704831913E+03  0.12509110647E+03 0.  0.
         23    2    1    2    0    0 -0.57910181127E+02  0.52028511802E+02 -0.19751902014E+03  0.23185181025E+03  0.93171580860E+02 0.  0.
          5    1    3    3  502    0 -0.94159861183E+01 -0.15538053199E+02  0.10597377667E+02  0.21444549546E+02  0.41800000000E+01 0.  1.
         -5    1    3    3    0  502  0.67326167245E+02 -0.36490458603E+02 -0.23332246542E+03  0.24560376958E+03  0.41800000000E+01 0.  1.
        -11    1    4    4    0    0 -0.80660286150E+02  0.33056624292E+02 -0.17168109146E+03  0.19254407116E+03  0.00000000000E+00 0.  1.
         11    1    4    4    0    0  0.22750105023E+02  0.18971887510E+02 -0.25837928678E+02  0.39307739093E+02  0.00000000000E+00 0. -1.
</event>
<event>
 8    1  0.3710605E-009  0.1371870E+03  0.7561462E-02  0.1217165E+00
         -3   -1    0    0    0  501 -0.00000000000E+00  0.00000000000E+00  0.10093601148E+04  0.10093601148E+04  0.00000000000E+00 0.  1.
          3   -1    0    0  501    0  0.00000000000E+00 -0.00000000000E+00 -0.23854528791E+02  0.23854528791E+02  0.00000000000E+00 0. -1.
         25    2    1    2    0    0  0.98853417245E+02 -0.43375712664E+02  0.45385493558E+03  0.48299630785E+03  0.12509068826E+03 0.  0.
         23    2    1    2    0    0 -0.98853417245E+02  0.43375712664E+02  0.53165065043E+03  0.55021833575E+03  0.91838730076E+02 0.  0.
          5    1    3    3  502    0  0.10562538511E+03 -0.16141700790E+02  0.19334453506E+03  0.22094537362E+03  0.41800000000E+01 0.  1.
         -5    1    3    3    0  502 -0.67719678652E+01 -0.27234011874E+02  0.26051040052E+03  0.26205093423E+03  0.41800000000E+01 0.  1.
        -11    1    4    4    0    0 -0.31454349079E+02  0.61671355293E+02  0.31779131298E+03  0.32524460141E+03  0.00000000000E+00 0.  1.
         11    1    4    4    0    0 -0.67399068166E+02 -0.18295642629E+02  0.21385933745E+03  0.22497373434E+03  0.00000000000E+00 0. -1.
</event>
<event>
 8    1  0.3710605E-009  0.1179350E+03  0.7561462E-02  0.1246543E+00
          1   -1    0    0  501    0  0.00000000000E+00  0.00000000000E+00  0.21234026986E+02  0.21234026986E+02  0.00000000000E+00 0. -1.
         -1   -1    0    0    0  501 -0.00000000000E+00 -0.00000000000E+00 -0.96856741629E+03  0.96856741629E+03  0.00000000000E+00 0.  1.
         25    2    1    2    0    0 -0.13532142408E+02 -0.48021588657E+02 -0.79193002026E+03  0.80329943049E+03  0.12509047197E+03 0.  0.
         23    2    1    2    0    0  0.13532142408E+02  0.48021588657E+02 -0.15540336904E+03  0.18650201278E+03  0.90241907162E+02 0.  0.
          5    1    3    3  502    0  0.46022325604E+02  0.12375475163E+02 -0.22369072092E+03  0.22874924670E+03  0.41800000000E+01 0.  1.
         -5    1    3    3    0  502 -0.59554468012E+02 -0.60397063820E+02 -0.56823929934E+03  0.57455018379E+03  0.41800000000E+01 0.  1.
        -11    1    4    4    0    0  0.52061213033E+02  0.21470458327E+02 -0.83642550541E+02  0.10083365879E+03  0.00000000000E+00 0.  1.
         11    1    4    4    0    0 -0.38529070625E+02  0.26551130329E+02 -0.71760818498E+02  0.85668353997E+02  0.00000000000E+00 0. -1.
</event>
<event>
 8    1  0.3710605E-009  0.1311776E+03  0.7561462E-02  0.1225719E+00
         -1   -1    0    0    0  501 -0.00000000000E+00  0.00000000000E+00  0.29970904739E+02  0.29970904739E+02  0.00000000000E+00 0.  1.
          1   -1    0    0  501    0  0.00000000000E+00 -0.00000000000E+00 -0.69739509096E+03  0.69739509096E+03  0.00000000000E+00 0. -1.
         25    2    1    2    0    0  0.76484880717E+02  0.45833353306E+02 -0.44312314839E+03  0.46899506909E+03  0.12509043504E+03 0.  0.
         23    2    1    2    0    0 -0.76484880717E+02 -0.45833353306E+02 -0.22430103783E+03  0.25837092661E+03  0.92162611131E+02 0.  0.
          5    1    3    3  502    0 -0.27644017072E+02  0.18395054184E+02 -0.42301143997E+02  0.53939121997E+02  0.41800000000E+01 0.  1.
         -5    1    3    3    0  502  0.10412889779E+03  0.27438299123E+02 -0.40082200439E+03  0.41505594710E+03  0.41800000000E+01 0.  1.
        -11    1    4    4    0    0 -0.32891287966E+02 -0.65503625660E+02 -0.91610809896E+02  0.11732477270E+03  0.00000000000E+00 0.  1.
         11    1    4    4    0    0 -0.43593592751E+02  0.19670272354E+02 -0.13269022794E+03  0.14104615391E+03  0.00000000000E+00 0. -1.
</event>
<event>
 8    1  0.3710605E-009  0.1002454E+03  0.7561462E-02  0.1279781E+00
         -1   -1    0    0    0  501 -0.00000000000E+00  0.00000000000E+00  0.73094030491E+02  0.73094030491E+02  0.00000000000E+00 0. -1.
          1   -1    0    0  501    0  0.00000000000E+00 -0.00000000000E+00 -0.17738897060E+03  0.17738897060E+03  0.00000000000E+00 0.  1.
         25    2    1    2    0    0  0.48913915382E+01  0.11766781967E+02 -0.24791746745E+02  0.12815848193E+03  0.12509029905E+03 0.  0.
         23    2    1    2    0    0 -0.48913915382E+01 -0.11766781967E+02 -0.79503193364E+02  0.12232451916E+03  0.92087715594E+02 0.  0.
          5    1    3    3  502    0  0.57308505781E+02  0.15385796681E+02  0.15896942721E+02  0.61572500049E+02  0.41800000000E+01 0. -1.
         -5    1    3    3    0  502 -0.52417114243E+02 -0.36190147140E+01 -0.40688689466E+02  0.66585981884E+02  0.41800000000E+01 0. -1.
        -11    1    4    4    0    0  0.29384527207E+02 -0.35889566101E+02 -0.22453584933E+02  0.51533240442E+02  0.00000000000E+00 0.  1.
         11    1    4    4    0    0 -0.34275918745E+02  0.24122784134E+02 -0.57049608431E+02  0.70791278717E+02  0.00000000000E+00 0. -1.
</event>
<event>
 8    1  0.3710605E-009  0.9718451E+02  0.7561462E-02  0.1286330E+00
         -2   -1    0    0    0  501 -0.00000000000E+00  0.00000000000E+00  0.34348787926E+02  0.34348787926E+02  0.00000000000E+00 0.  1.
          2   -1    0    0  501    0  0.00000000000E+00 -0.00000000000E+00 -0.97586181904E+03  0.97586181904E+03  0.00000000000E+00 0. -1.
         25    2    1    2    0    0 -0.27699192455E+02  0.47288655547E+02 -0.87371454300E+03  0.88432357807E+03  0.12509047075E+03 0.  0.
         23    2    1    2    0    0  0.27699192455E+02 -0.47288655547E+02 -0.67798488109E+02  0.12588702889E+03  0.90815454893E+02 0.  0.
          5    1    3    3  502    0 -0.26343347363E+02 -0.32420340746E+02 -0.13678406386E+03  0.14308180517E+03  0.41800000000E+01 0.  1.
         -5    1    3    3    0  502 -0.13558450924E+01  0.79708996293E+02 -0.73693047915E+03  0.74124177290E+03  0.41800000000E+01 0.  1.
        -11    1    4    4    0    0  0.19257136787E+02  0.47526889022E+01 -0.70360844548E+02  0.73103172397E+02  0.00000000000E+00 0. -1.
         11    1    4    4    0    0  0.84420556684E+01 -0.52041344450E+02  0.25623564388E+01  0.52783856496E+02  0.00000000000E+00 0.  1.
</event>
<event>
 8    1  0.3710605E-009  0.1325108E+03  0.7561462E-02  0.1223777E+00
         -2   -1    0    0    0  501 -0.00000000000E+00  0.00000000000E+00  0.12112285706E+03  0.12112285706E+03  0.00000000000E+00 0. -1.
          2   -1    0    0  501    0  0.00000000000E+00 -0.00000000000E+00 -0.23905773342E+03  0.23905773342E+03  0.00000000000E+00 0.  1.
         25    2    1    2    0    0 -0.13091508985E+02 -0.10608322052E+03 -0.14328488879E+03  0.21818090585E+03  0.12508921231E+03 0.  0.
         23    2    1    2    0    0  0.13091508985E+02  0.10608322052E+03  0.25350012437E+02  0.14199968463E+03  0.89979164361E+02 0.  0.
          5    1    3    3  502    0 -0.39687335154E+02 -0.75975064009E+02 -0.15408564500E+03  0.17637220110E+03  0.41800000000E+01 0. -1.
         -5    1    3    3    0  502  0.26595826169E+02 -0.30108156516E+02  0.10800756211E+02  0.41808704753E+02  0.41800000000E+01 0. -1.
        -11    1    4    4    0    0  0.42321024339E+02  0.17968347613E+02  0.16051074248E+02  0.48698743326E+02  0.00000000000E+00 0. -1.
         11    1    4    4    0    0 -0.29229515354E+02  0.88114872912E+02  0.92989381892E+01  0.93300941300E+02  0.00000000000E+00 0.  1.
</event>
<event>
 8    1  0.3710605E-009  0.1664628E+03  0.7561462E-02  0.1181588E+00
          1   -1    0    0  501    0  0.00000000000E+00  0.00000000000E+00  0.89000205579E+02  0.89000205579E+02  0.00000000000E+00 0. -1.
         -1   -1    0    0    0  501 -0.00000000000E+00 -0.00000000000E+00 -0.32995590206E+03  0.32995590206E+03  0.00000000000E+00 0.  1.
         25    2    1    2    0    0  0.12099025100E+03  0.51944486410E+02 -0.14406311916E+03  0.23181474933E+03  0.12508806977E+03 0.  0.
         23    2    1    2    0    0 -0.12099025100E+03 -0.51944486410E+02 -0.96892577323E+02  0.18714135831E+03  0.91087024027E+02 0.  0.
          5    1    3    3  502    0  0.14263063104E+03  0.34513654313E+02 -0.14099465158E+03  0.20354766866E+03  0.41800000000E+01 0. -1.
         -5    1    3    3    0  502 -0.21640380040E+02  0.17430832097E+02 -0.30684675803E+01  0.28267080662E+02  0.41800000000E+01 0. -1.
        -11    1    4    4    0    0 -0.17264998637E+02 -0.51474490267E+02 -0.48003695989E+02  0.72471084956E+02  0.00000000000E+00 0.  1.
         11    1    4    4    0    0 -0.10372525236E+03 -0.46999614375E+00 -0.48888881334E+02  0.11467027336E+03  0.00000000000E+00 0. -1.
</event>
<event>
 8    1  0.3710605E-009  0.8441875E+02  0.7561462E-02  0.1316960E+00
         -2   -1    0    0    0  501 -0.00000000000E+00  0.00000000000E+00  0.62016819886E+02  0.62016819886E+02  0.00000000000E+00 0.  1.
          2   -1    0    0  501    0  0.00000000000E+00 -0.00000000000E+00 -0.21203192177E+03  0.21203192177E+03  0.00000000000E+00 0. -1.
         25    2    1    2    0    0 -0.22644189843E+02  0.14786650199E+02 -0.49057588720E+02  0.13706028672E+03  0.12508985102E+03 0.  0.
         23    2    1    2    0    0  0.22644189843E+02 -0.14786650199E+02 -0.10095751317E+03  0.13698845494E+03  0.88555140809E+02 0.  0.
          5    1    3    3  502    0 -0.34973537272E+02  0.46449702836E+02  0.18637418033E+02  0.61200890139E+02  0.41800000000E+01 0.  1.
         -5    1    3    3    0  502  0.12329347429E+02 -0.31663052638E+02 -0.67695006753E+02  0.75859396581E+02  0.41800000000E+01 0.  1.
        -11    1    4    4    0    0  0.45818756139E+02  0.46607262782E+01 -0.19352370877E+02  0.49955931000E+02  0.00000000000E+00 0.  1.
         11    1    4    4    0    0 -0.23174566295E+02 -0.19447376477E+02 -0.81605142290E+02  0.87032523938E+02  0.00000000000E+00 0. -1.
</event>
<event>
 8    1  0.3710605E-009  0.1238093E+03  0.7561462E-02  0.1236942E+00
          2   -1    0    0  501    0  0.00000000000E+00  0.00000000000E+00  0.67646374161E+03  0.67646374161E+03  0.00000000000E+00 0. -1.
         -2   -1    0    0    0  501 -0.00000000000E+00 -0.00000000000E+00 -0.26012888009E+02  0.26012888009E+02  0.00000000000E+00 0.  1.
         25    2    1    2    0    0 -0.38042930823E+02 -0.62910959747E+02  0.43943821487E+03  0.46277269462E+03  0.12509024247E+03 0.  0.
         23    2    1    2    0    0  0.38042930823E+02  0.62910959747E+02  0.21101263873E+03  0.23970393499E+03  0.86755917985E+02 0.  0.
          5    1    3    3  502    0  0.30574653152E+02 -0.69320474781E+02  0.24135371545E+03  0.25300044664E+03  0.41800000000E+01 0. -1.
         -5    1    3    3    0  502 -0.68617583974E+02  0.64095150336E+01  0.19808449942E+03  0.20977224798E+03  0.41800000000E+01 0. -1.
        -11    1    4    4    0    0  0.58605524825E+02  0.35818158100E+02  0.85536918330E+02  0.10970010204E+03  0.00000000000E+00 0. -1.
         11    1    4    4    0    0 -0.20562594002E+02  0.27092801647E+02  0.12547572040E+03  0.13000383295E+03  0.00000000000E+00 0.  1.
</event>
<event>
 8    1  0.3710605E-009  0.9830135E+02  0.7561462E-02  0.1283909E+00
          2   -1    0    0  501    0  0.00000000000E+00  0.00000000000E+00  0.60574101745E+03  0.60574101745E+03  0.00000000000E+00 0. -1.
         -2   -1    0    0    0  501 -0.00000000000E+00 -0.00000000000E+00 -0.23952517518E+02  0.23952517518E+02  0.00000000000E+00 0.  1.
         25    2    1    2    0    0  0.37482299278E+02  0.32491198969E+02  0.37247882023E+03  0.39604386687E+03  0.12509864986E+03 0.  0.
         23    2    1    2    0    0 -0.37482299278E+02 -0.32491198969E+02  0.20930967970E+03  0.23364966810E+03  0.91219650376E+02 0.  0.
          5    1    3    3  502    0  0.68129314852E+02 -0.21841894616E+02  0.21383593130E+03  0.22552594045E+03  0.41800000000E+01 0.  1.
         -5    1    3    3    0  502 -0.30647015574E+02  0.54333093585E+02  0.15864288893E+03  0.17051792642E+03  0.41800000000E+01 0.  1.
        -11    1    4    4    0    0 -0.34020822431E+02 -0.46234802868E+01  0.20163603516E+03  0.20453822040E+03  0.00000000000E+00 0. -1.
         11    1    4    4    0    0 -0.34614768477E+01 -0.27867718682E+02  0.76736445425E+01  0.29111447698E+02  0.00000000000E+00 0.  1.
</event>
<event>
 8    1  0.3710605E-009  0.1320408E+03  0.7561462E-02  0.1224459E+00
          2   -1    0    0  501    0  0.00000000000E+00  0.00000000000E+00  0.21837918384E+02  0.21837918384E+02  0.00000000000E+00 0. -1.
         -2   -1    0    0    0  501 -0.00000000000E+00 -0.00000000000E+00 -0.12154094305E+04  0.12154094305E+04  0.00000000000E+00 0.  1.
         25    2    1    2    0    0 -0.10012272515E+03  0.65640737353E+02 -0.73015861724E+03  0.75040723063E+03  0.12508452726E+03 0.  0.
         23    2    1    2    0    0  0.10012272515E+03 -0.65640737353E+02 -0.46341289485E+03  0.48684011823E+03  0.89042254640E+02 0.  0.
          5    1    3    3  502    0 -0.35802095760E+02 -0.23414354222E+01 -0.39904262639E+02  0.53824668670E+02  0.41800000000E+01 0. -1.
         -5    1    3    3    0  502 -0.64320629394E+02  0.67982172775E+02 -0.69025435460E+03  0.69658256196E+03  0.41800000000E+01 0. -1.
        -11    1    4    4    0    0  0.50390241998E+02 -0.67829184994E+02 -0.38343500262E+03  0.39263516916E+03  0.00000000000E+00 0.  1.
         11    1    4    4    0    0  0.49732483156E+02  0.21884476417E+01 -0.79977892234E+02  0.94204949075E+02  0.00000000000E+00 0. -1.
</event>
<event>
 8    1  0.3710605E-009  0.2612398E+03  0.7561462E-02  0.1106401E+00
         -1   -1    0    0    0  501 -0.00000000000E+00  0.00000000000E+00  0.88323355740E+02  0.88323355740E+02  0.00000000000E+00 0.  1.
          1   -1    0    0  501    0  0.00000000000E+00 -0.00000000000E+00 -0.96775771732E+03  0.96775771732E+03  0.00000000000E+00 0. -1.
         25    2    1    2    0    0 -0.24541792847E+03  0.60902009682E+02 -0.27275476204E+03  0.39240440251E+03  0.12508813094E+03 0.  0.
         23    2    1    2    0    0  0.24541792847E+03 -0.60902009682E+02 -0.60667959955E+03  0.66367667055E+03  0.92019411697E+02 0.  0.
          5    1    3    3  502    0 -0.94963123032E+02  0.35771238583E+02 -0.30408407672E+02  0.10601754526E+03  0.41800000000E+01 0. -1.
         -5    1    3    3    0  502 -0.15045480543E+03  0.25130771099E+02 -0.24234635436E+03  0.28638685725E+03  0.41800000000E+01 0. -1.
        -11    1    4    4    0    0  0.77793901943E+02 -0.63893807835E+02 -0.20383355427E+03  0.22733769530E+03  0.00000000000E+00 0. -1.
         11    1    4    4    0    0  0.16762402652E+03  0.29917981528E+01 -0.40284604528E+03  0.43633897525E+03  0.00000000000E+00 0.  1.
</event>
<event>
 8    1  0.3710605E-009  0.1398729E+03  0.7561462E-02  0.1213500E+00
         -3   -1    0    0    0  501 -0.00000000000E+00  0.00000000000E+00  0.31718550073E+03  0.31718550073E+03  0.00000000000E+00 0.  1.
          3   -1    0    0  501    0  0.00000000000E+00 -0.00000000000E+00 -0.68563315479E+02  0.68563315479E+02  0.00000000000E+00 0. -1.
         25    2    1    2    0    0 -0.84156900792E+02  0.25789087908E+02  0.81167306984E+02  0.17315869264E+03  0.12509332559E+03 0.  0.
         23    2    1    2    0    0  0.84156900792E+02 -0.25789087908E+02  0.16745487827E+03  0.21259012357E+03  0.96984346044E+02 0.  0.
          5    1    3    3  502    0  0.12750785457E+02  0.49547565622E+02  0.15437418829E+02  0.53603452211E+02  0.41800000000E+01 0.  1.
         -5    1    3    3    0  502 -0.96907686249E+02 -0.23758477714E+02  0.65729888155E+02  0.11955524043E+03  0.41800000000E+01 0.  1.
        -11    1    4    4    0    0 -0.24216846575E+01 -0.40634081257E+02  0.35164416932E+02  0.53791535899E+02  0.00000000000E+00 0.  1.
         11    1    4    4    0    0  0.86578585449E+02  0.14844993348E+02  0.13229046134E+03  0.15879858767E+03  0.00000000000E+00 0. -1.
</event>
<event>
 8    1  0.3710605E-009  0.9906583E+02  0.7561462E-02  0.1282273E+00
         -1   -1    0    0    0  501 -0.00000000000E+00  0.00000000000E+00  0.52680195870E+03  0.52680195870E+03  0.00000000000E+00 0.  1.
          1   -1    0    0  501    0  0.00000000000E+00 -0.00000000000E+00 -0.33884645055E+02  0.33884645055E+02  0.00000000000E+00 0. -1.
         25    2    1    2    0    0  0.63333173314E+02  0.12804363896E+02  0.17345803441E+03  0.22340533187E+03  0.12508880857E+03 0.  0.
         23    2    1    2    0    0 -0.63333173314E+02 -0.12804363896E+02  0.31945927924E+03  0.33728127189E+03  0.86772015641E+02 0.  0.
          5    1    3    3  502    0  0.39917115804E+02 -0.26272307406E+02  0.17099078952E+03  0.17759204028E+03  0.41800000000E+01 0.  1.
         -5    1    3    3    0  502  0.23416057509E+02  0.39076671303E+02  0.24672448971E+01  0.45813291595E+02  0.41800000000E+01 0.  1.
        -11    1    4    4    0    0 -0.82958824710E+02 -0.44283429091E+01  0.21145623180E+03  0.22719048128E+03  0.00000000000E+00 0. -1.
         11    1    4    4    0    0  0.19625651396E+02 -0.83760209873E+01  0.10800304744E+03  0.11009079061E+03  0.00000000000E+00 0.  1.
</event>
<event>
 8    1  0.3710605E-009  0.6660357E+02  0.7561462E-02  0.1372039E+00
         -1   -1    0    0    0  501 -0.00000000000E+00  0.00000000000E+00  0.81235967634E+02  0.81235967634E+02  0.00000000000E+00 0.  1.
          1   -1    0    0  501    0  0.00000000000E+00 -0.00000000000E+00 -0.17007769019E+03  0.17007769019E+03  0.00000000000E+00 0. -1.
         25    2    1    2    0    0 -0.12177286278E+02  0.26852781383E+02 -0.80306325019E+02  0.15154190135E+03  0.12508590591E+03 0.  0.
         23    2    1    2    0    0  0.12177286278E+02 -0.26852781383E+02 -0.85353975372E+01  0.99771756476E+02  0.94932566647E+02 0.  0.
          5    1    3    3  502    0  0.28930595607E+01  0.27867520225E+01  0.33589158543E+02  0.34085770522E+02  0.41800000000E+01 0. -1.
         -5    1    3    3    0  502 -0.15070345839E+02  0.24066029361E+02 -0.11389548356E+03  0.11745613083E+03  0.41800000000E+01 0. -1.
        -11    1    4    4    0    0 -0.12450371570E+02  0.32309373105E+02 -0.86455046013E+01  0.35688262671E+02  0.00000000000E+00 0.  1.
         11    1    4    4    0    0  0.24627657848E+02 -0.59162154488E+02  0.11010706410E+00  0.64083493805E+02  0.00000000000E+00 0. -1.
</event>
<event>
 8    1  0.3710605E-009  0.1186221E+03  0.7561462E-02  0.1245388E+00
         -2   -1    0    0    0  501 -0.00000000000E+00  0.00000000000E+00  0.23413724970E+02  0.23413724970E+02  0.00000000000E+00 0.  1.
          2   -1    0    0  501    0  0.00000000000E+00 -0.00000000000E+00 -0.73060208012E+03  0.73060208012E+03  0.00000000000E+00 0. -1.
         25    2    1    2    0    0  0.55446918947E+02 -0.41456011997E+02 -0.42813449975E+03  0.45137519221E+03  0.12508977781E+03 0.  0.
         23    2    1    2    0    0 -0.55446918947E+02  0.41456011997E+02 -0.27905385540E+03  0.30264061288E+03  0.94484520428E+02 0.  0.
          5    1    3    3  502    0  0.90160184525E+02 -0.31399566026E+02 -0.37495828799E+03  0.38694441687E+03  0.41800000000E+01 0. -1.
         -5    1    3    3    0  502 -0.34713265578E+02 -0.10056445971E+02 -0.53176211767E+02  0.64430775337E+02  0.41800000000E+01 0. -1.
        -11    1    4    4    0    0 -0.50488628880E+02 -0.11770729679E+02 -0.20407111870E+03  0.21055325505E+03  0.00000000000E+00 0. -1.
         11    1    4    4    0    0 -0.49582900667E+01  0.53226741676E+02 -0.74982736693E+02  0.92087357829E+02  0.00000000000E+00 0.  1.
</event>
<event>
 8    1  0.3710605E-009  0.1267721E+03  0.7561462E-02  0.1232325E+00
          2   -1    0    0  501    0  0.00000000000E+00  0.00000000000E+00  0.21007642859E+03  0.21007642859E+03  0.00000000000E+00 0. -1.
         -2   -1    0    0    0  501 -0.00000000000E+00 -0.00000000000E+00 -0.85026364182E+02  0.85026364182E+02  0.00000000000E+00 0.  1.
         25    2    1    2    0    0 -0.62427699745E+02 -0.24294630777E+02  0.10824927556E+03  0.17847365190E+03  0.12508993558E+03 0.  0.
         23    2    1    2    0    0  0.62427699745E+02  0.24294630777E+02  0.16800788847E+02  0.11662914087E+03  0.93982143064E+02 0.  0.
          5    1    3    3  502    0 -0.42638532041E+01  0.48277449180E+02  0.33234143493E+02  0.58914117470E+02  0.41800000000E+01 0. -1.
         -5    1    3    3    0  502 -0.58163846541E+02 -0.72572079957E+02  0.75015132066E+02  0.11955953443E+03  0.41800000000E+01 0. -1.
        -11    1    4    4    0    0  0.45469003835E+02  0.58220973896E+02  0.24688979212E+02  0.77888752755E+02  0.00000000000E+00 0. -1.
         11    1    4    4    0    0  0.16958695909E+02 -0.33926343119E+02 -0.78881903645E+01  0.38740388118E+02  0.00000000000E+00 0.  1.
</event>
<event>
 8    1  0.3710605E-009  0.1304597E+03  0.7561462E-02  0.1226775E+00
          2   -1    0    0  501    0  0.00000000000E+00  0.00000000000E+00  0.22168065135E+04  0.22168065135E+04  0.00000000000E+00 0. -1.
         -2   -1    0    0    0  501 -0.00000000000E+00 -0.00000000000E+00 -0.12926163384E+02  0.12926163384E+02  0.00000000000E+00 0.  1.
         25    2    1    2    0    0  0.51328607049E+02 -0.89931533006E+02  0.16913688720E+04  0.16991466185E+04  0.12509301907E+03 0.  0.
         23    2    1    2    0    0 -0.51328607049E+02  0.89931533006E+02  0.51251147810E+03  0.53058605838E+03  0.90173408673E+02 0.  0.
          5    1    3    3  502    0  0.73111818908E+02 -0.81003975956E+02  0.16238813653E+04  0.16275488144E+04  0.41800000000E+01 0. -1.
         -5    1    3    3    0  502 -0.21783211859E+02 -0.89275570498E+01  0.67487506645E+02  0.71597804065E+02  0.41800000000E+01 0. -1.
        -11    1    4    4    0    0 -0.70765153737E+02  0.76335742910E+02  0.47448422809E+03  0.48576757337E+03  0.00000000000E+00 0.  1.
         11    1    4    4    0    0  0.19436546688E+02  0.13595790096E+02  0.38027250013E+02  0.44818485015E+02  0.00000000000E+00 0. -1.
</event>
<event>
 8    1  0.3710605E-009  0.1067348E+03  0.7561462E-02  0.1266739E+00
         -2   -1    0    0    0  501 -0.00000000000E+00  0.00000000000E+00  0.86541651176E+01  0.86541651176E+01  0.00000000000E+00 0.  1.
          2   -1    0    0  501    0  0.00000000000E+00 -0.00000000000E+00 -0.21084692247E+04  0.21084692247E+04  0.00000000000E+00 0. -1.
         25    2    1    2    0    0 -0.29285805206E+02 -0.24831250130E+02 -0.17419560354E+04  0.17468633345E+04  0.12508569391E+03 0.  0.
         23    2    1    2    0    0  0.29285805206E+02  0.24831250130E+02 -0.35785902420E+03  0.37026005532E+03  0.86920526907E+02 0.  0.
          5    1    3    3  502    0 -0.40119410793E+02 -0.65339277076E+02 -0.72937867042E+03  0.73340950738E+03  0.41800000000E+01 0.  1.
         -5    1    3    3    0  502  0.10833605586E+02  0.40508026945E+02 -0.10125773650E+04  0.10134538271E+04  0.41800000000E+01 0.  1.
        -11    1    4    4    0    0  0.36910359586E+02 -0.24710299475E+02 -0.18679473009E+03  0.19200324146E+03  0.00000000000E+00 0.  1.
         11    1    4    4    0    0 -0.76245543793E+01  0.49541549605E+02 -0.17106429411E+03  0.17825681386E+03  0.00000000000E+00 0. -1.
</event>
<event>
 8    1  0.3710605E-009  0.7327326E+02  0.7561462E-02  0.1349303E+00
         -2   -1    0    0    0  501 -0.00000000000E+00  0.00000000000E+00  0.25779820496E+02  0.25779820496E+02  0.00000000000E+00 0.  1.
          2   -1    0    0  501    0  0.00000000000E+00 -0.00000000000E+00 -0.94042084173E+03  0.94042084173E+03  0.00000000000E+00 0. -1.
         25    2    1    2    0    0 -0.57719286887E+01  0.16736686728E+02 -0.83665290909E+03  0.84613808050E+03  0.12509248236E+03 0.  0.
         23    2    1    2    0    0  0.57719286887E+01 -0.16736686728E+02 -0.77988112140E+02  0.12006258172E+03  0.89551359849E+02 0.  0.
          5    1    3    3  502    0 -0.46326681862E+02  0.43118562773E+02 -0.65644265081E+03  0.65949965740E+03  0.41800000000E+01 0. -1.
         -5    1    3    3    0  502  0.40554753173E+02 -0.26381876045E+02 -0.18021025828E+03  0.18663842310E+03  0.41800000000E+01 0. -1.
        -11    1    4    4    0    0  0.15964069512E+02 -0.12405497886E+01  0.16957287670E+02  0.23322523111E+02  0.00000000000E+00 0.  1.
         11    1    4    4    0    0 -0.10192140823E+02 -0.15496136939E+02 -0.94945399810E+02  0.96740058609E+02  0.00000000000E+00 0. -1.
</event>
<event>
 8    1  0.3710605E-009  0.1115319E+03  0.7561462E-02  0.1257759E+00
         -1   -1    0    0    0  501 -0.00000000000E+00  0.00000000000E+00  0.58812397385E+02  0.58812397385E+02  0.00000000000E+00 0.  1.
          1   -1    0    0  501    0  0.00000000000E+00 -0.00000000000E+00 -0.27703187613E+03  0.27703187613E+03  0.00000000000E+00 0. -1.
         25    2    1    2    0    0  0.20026609319E+02 -0.69131058959E+02 -0.13848970435E+03  0.20001874217E+03  0.12509168883E+03 0.  0.
         23    2    1    2    0    0 -0.20026609319E+02  0.69131058959E+02 -0.79729774396E+02  0.13582553135E+03  0.83135850548E+02 0.  0.
          5    1    3    3  502    0 -0.47041514610E+02 -0.41109596725E+02 -0.30165062018E+02  0.69500405799E+02  0.41800000000E+01 0.  1.
         -5    1    3    3    0  502  0.67068123928E+02 -0.28021462234E+02 -0.10832464233E+03  0.13051833637E+03  0.41800000000E+01 0.  1.
        -11    1    4    4    0    0  0.42193345755E+01  0.62316091971E+02 -0.89221459099E+02  0.10891082070E+03  0.00000000000E+00 0. -1.
         11    1    4    4    0    0 -0.24245943894E+02  0.68149669882E+01  0.94916847028E+01  0.26914710641E+02  0.00000000000E+00 0.  1.
</event>
<event>
 8    1  0.3710605E-009  0.9846213E+02  0.7561462E-02  0.1283564E+00
         -1   -1    0    0    0  501 -0.00000000000E+00  0.00000000000E+00  0.21963860141E+03  0.21963860141E+03  0.00000000000E+00 0.  1.
          1   -1    0    0  501    0  0.00000000000E+00 -0.00000000000E+00 -0.64821488028E+02  0.64821488028E+02  0.00000000000E+00 0. -1.
         25    2    1    2    0    0 -0.48947705951E+02  0.40947134162E+01  0.93095607071E+02  0.16348548637E+03  0.12509223638E+03 0.  0.
         23    2    1    2    0    0  0.48947705951E+02 -0.40947134162E+01  0.61721506312E+02  0.12097460307E+03  0.91720584657E+02 0.  0.
          5    1    3    3  502    0  0.32174561483E+02 -0.27617789702E+02  0.51592059959E+02  0.66911566754E+02  0.41800000000E+01 0. -1.
         -5    1    3    3    0  502 -0.81122267434E+02  0.31712503118E+02  0.41503547112E+02  0.96573919619E+02  0.41800000000E+01 0. -1.
        -11    1    4    4    0    0  0.49509577446E+02 -0.18386112372E+02 -0.47080995740E+01  0.53022764815E+02  0.00000000000E+00 0. -1.
         11    1    4    4    0    0 -0.56187149432E+00  0.14291398956E+02  0.66429605886E+02  0.67951838252E+02  0.00000000000E+00 0.  1.
</event>
<event>
 8    1  0.3710605E-009  0.9561460E+02  0.7561462E-02  0.1289798E+00
          2   -1    0    0  501    0  0.00000000000E+00  0.00000000000E+00  0.29129684240E+02  0.29129684240E+02  0.00000000000E+00 0. -1.
         -2   -1    0    0    0  501 -0.00000000000E+00 -0.00000000000E+00 -0.42194044421E+03  0.42194044421E+03  0.00000000000E+00 0.  1.
         25    2    1    2    0    0 -0.69914933553E+01  0.96551306353E+01 -0.20835194007E+03  0.24330940782E+03  0.12508730741E+03 0.  0.
         23    2    1    2    0    0  0.69914933553E+01 -0.96551306353E+01 -0.18445881991E+03  0.20776072064E+03  0.94854405650E+02 0.  0.
          5    1    3    3  502    0 -0.11887074823E+02 -0.46172816960E+02 -0.30412423352E+02  0.56706432333E+02  0.41800000000E+01 0.  1.
         -5    1    3    3    0  502  0.48955814674E+01  0.55827947595E+02 -0.17793951672E+03  0.18660297548E+03  0.41800000000E+01 0.  1.
        -11    1    4    4    0    0  0.44990520476E+02  0.72665016439E+01 -0.13834425736E+03  0.14565741493E+03  0.00000000000E+00 0.  1.
         11    1    4    4    0    0 -0.37999027121E+02 -0.16921632279E+02 -0.46114562546E+02  0.62103305708E+02  0.00000000000E+00 0. -1.
</event>
<event>
 8    1  0.3710605E-009  0.6639383E+02  0.7561462E-02  0.1372804E+00
         -2   -1    0    0    0  501 -0.00000000000E+00  0.00000000000E+00  0.19325513090E+02  0.19325513090E+02  0.00000000000E+00 0. -1.
          2   -1    0    0  501    0  0.00000000000E+00 -0.00000000000E+00 -0.15998354225E+04  0.15998354225E+04  0.00000000000E+00 0.  1.
         25    2    1    2    0    0 -0.31622644430E+02 -0.50651952054E+02 -0.14102043662E+04  0.14169990472E+04  0.12507731027E+03 0.  0.
         23    2    1    2    0    0  0.31622644430E+02  0.50651952054E+02 -0.17030554324E+03  0.20216188838E+03  0.91103453103E+02 0.  0.
          5    1    3    3  502    0 -0.54805346233E+01 -0.44277608891E+02 -0.15120715275E+03  0.15770738204E+03  0.41800000000E+01 0.  1.
         -5    1    3    3    0  502 -0.26142109807E+02 -0.63743431631E+01 -0.12589972134E+04  0.12592916652E+04  0.41800000000E+01 0.  1.
        -11    1    4    4    0    0  0.19187503569E+02  0.20237044764E+02 -0.16680168325E+03  0.16911682296E+03  0.00000000000E+00 0.  1.
         11    1    4    4    0    0  0.12435140861E+02  0.30414907290E+02 -0.35038599926E+01  0.33045065419E+02  0.00000000000E+00 0. -1.
</event>
<event>
 8    1  0.3710605E-009  0.1206075E+03  0.7561462E-02  0.1242098E+00
         -1   -1    0    0    0  501 -0.00000000000E+00  0.00000000000E+00  0.12905074952E+02  0.12905074952E+02  0.00000000000E+00 0.  1.
          1   -1    0    0  501    0  0.00000000000E+00 -0.00000000000E+00 -0.16452798248E+04  0.16452798248E+04  0.00000000000E+00 0. -1.
         25    2    1    2    0    0  0.75965765491E+02  0.57152859896E+02 -0.95452780742E+03  0.96737200757E+03  0.12509204195E+03 0.  0.
         23    2    1    2    0    0 -0.75965765491E+02 -0.57152859896E+02 -0.67784694240E+03  0.69081289216E+03  0.93320564364E+02 0.  0.
          5    1    3    3  502    0  0.26430919140E+02  0.52513140790E+02 -0.84441108974E+03  0.84646546552E+03  0.41800000000E+01 0.  1.
         -5    1    3    3    0  502  0.49534846351E+02  0.46397191059E+01 -0.11011671768E+03  0.12090654204E+03  0.41800000000E+01 0.  1.
        -11    1    4    4    0    0 -0.32442980809E+02 -0.77714477228E+02 -0.39231032774E+03  0.40124740526E+03  0.00000000000E+00 0.  1.
         11    1    4    4    0    0 -0.43522784682E+02  0.20561617332E+02 -0.28553661465E+03  0.28956548690E+03  0.00000000000E+00 0. -1.
</event>
<event>
 8    1  0.3710605E-009  0.1493329E+03  0.7561462E-02  0.1201295E+00
          1   -1    0    0  501    0  0.00000000000E+00  0.00000000000E+00  0.27950184767E+03  0.27950184767E+03  0.00000000000E+00 0. -1.
         -1   -1    0    0    0  501 -0.00000000000E+00 -0.00000000000E+00 -0.94592069984E+02  0.94592069984E+02  0.00000000000E+00 0.  1.
         25    2    1    2    0    0  0.11712135084E+03 -0.23335526806E+02  0.79863049872E+02  0.19049137630E+03  0.12508756963E+03 0.  0.
         23    2    1    2    0    0 -0.11712135084E+03  0.23335526806E+02  0.10504672781E+03  0.18360254135E+03  0.91723064334E+02 0.  0.
          5    1    3    3  502    0  0.37459124215E+02  0.33283173826E+02 -0.16752147736E+02  0.53000589625E+02  0.41800000000E+01 0.  1.
         -5    1    3    3    0  502  0.79662226629E+02 -0.56618700632E+02  0.96615197608E+02  0.13749078668E+03  0.41800000000E+01 0.  1.
        -11    1    4    4    0    0 -0.10044072272E+03 -0.21505136304E+02  0.70180278039E+02  0.12440289826E+03  0.00000000000E+00 0.  1.
         11    1    4    4    0    0 -0.16680628121E+02  0.44840663110E+02  0.34866449776E+02  0.59199643095E+02  0.00000000000E+00 0. -1.
</event>
<event>
 8    1  0.3710605E-009  0.1046333E+03  0.7561462E-02  0.1270844E+00
          1   -1    0    0  501    0  0.00000000000E+00  0.00000000000E+00  0.17451306823E+02  0.17451306823E+02  0.00000000000E+00 0. -1.
         -1   -1    0    0    0  501 -0.00000000000E+00 -0.00000000000E+00 -0.97655452103E+03  0.97655452103E+03  0.00000000000E+00 0.  1.
         25    2    1    2    0    0  0.25598519225E+02  0.34919409282E+02 -0.75750710736E+03  0.76898684416E+03  0.12509636067E+03 0.  0.
         23    2    1    2    0    0 -0.25598519225E+02 -0.34919409282E+02 -0.20159610684E+03  0.22501898369E+03  0.90099408415E+02 0.  0.
          5    1    3    3  502    0  0.65950361128E+02  0.52218083350E+02 -0.40007921818E+03  0.40884842128E+03  0.41800000000E+01 0. -1.
         -5    1    3    3    0  502 -0.40351841903E+02 -0.17298674068E+02 -0.35742788918E+03  0.36013842288E+03  0.41800000000E+01 0. -1.
        -11    1    4    4    0    0  0.23194069583E+02 -0.50692745262E+01 -0.13569685882E+03  0.13775812101E+03  0.00000000000E+00 0.  1.
         11    1    4    4    0    0 -0.48792588808E+02 -0.29850134756E+02 -0.65899248017E+02  0.87260862686E+02  0.00000000000E+00 0. -1.
</event>
<event>
 8    1  0.3710605E-009  0.6270210E+02  0.7561462E-02  0.1386830E+00
          4   -1    0    0  501    0  0.00000000000E+00  0.00000000000E+00  0.97626818213E+03  0.97626818213E+03  0.00000000000E+00 0. -1.
         -4   -1    0    0    0  501 -0.00000000000E+00 -0.00000000000E+00 -0.14491215358E+02  0.14491215358E+02  0.00000000000E+00 0.  1.
         25    2    1    2    0    0  0.41178686470E+02 -0.16539516122E+01  0.63346523377E+03  0.64701187815E+03  0.12509096009E+03 0.  0.
         23    2    1    2    0    0 -0.41178686470E+02  0.16539516122E+01  0.32831173300E+03  0.34374751934E+03  0.93141522688E+02 0.  0.
          5    1    3    3  502    0  0.40173010589E+02  0.12396020276E+02  0.63063509096E+03  0.63204875006E+03  0.41800000000E+01 0.  1.
         -5    1    3    3    0  502  0.10056758808E+01 -0.14049971889E+02  0.28301428124E+01  0.14963128095E+02  0.41800000000E+01 0.  1.
        -11    1    4    4    0    0 -0.54500277555E+02 -0.23518998444E+01  0.32486874574E+03  0.32941692981E+03  0.00000000000E+00 0. -1.
         11    1    4    4    0    0  0.13321591085E+02  0.40058514566E+01  0.34429872622E+01  0.14330589528E+02  0.00000000000E+00 0.  1.
</event>
<event>
 8    1  0.3710605E-009  0.9896378E+02  0.7561462E-02  0.1282490E+00
         -4   -1    0    0    0  501 -0.00000000000E+00  0.00000000000E+00  0.19750615109E+03  0.19750615109E+03  0.00000000000E+00 0.  1.
          4   -1    0    0  501    0  0.00000000000E+00 -0.00000000000E+00 -0.83882418833E+02  0.83882418833E+02  0.00000000000E+00 0. -1.
         25    2    1    2    0    0 -0.39580457278E+02  0.29823774380E+02  0.10589508957E+02  0.13497236777E+03  0.12509729111E+03 0.  0.
         23    2    1    2    0    0  0.39580457278E+02 -0.29823774380E+02  0.10303422330E+03  0.14641620216E+03  0.91463560866E+02 0.  0.
          5    1    3    3  502    0  0.11636996707E+02  0.49083239210E+02  0.47033208683E+02  0.69095435324E+02  0.41800000000E+01 0. -1.
         -5    1    3    3    0  502 -0.51217453985E+02 -0.19259464830E+02 -0.36443699725E+02  0.65876932441E+02  0.41800000000E+01 0. -1.
        -11    1    4    4    0    0  0.43546779302E+02  0.16033008530E+02  0.18095480752E+02  0.49807888669E+02  0.00000000000E+00 0. -1.
         11    1    4    4    0    0 -0.39663220238E+01 -0.45856782910E+02  0.84938742547E+02  0.96608313487E+02  0.00000000000E+00 0.  1.
</event>
<event>
 8    1  0.3710605E-009  0.1132463E+03  0.7561462E-02  0.1254674E+00
         -4   -1    0    0    0  501 -0.00000000000E+00  0.00000000000E+00  0.28120592882E+03  0.28120592882E+03  0.00000000000E+00 0.  1.
          4   -1    0    0  501    0  0.00000000000E+00 -0.00000000000E+00 -0.56278372232E+02  0.56278372232E+02  0.00000000000E+00 0. -1.
         25    2    1    2    0    0  0.41223966364E+02 -0.39572158545E+02  0.84586130487E+02  0.16145029528E+03  0.12508402472E+03 0.  0.
         23    2    1    2    0    0 -0.41223966364E+02  0.39572158545E+02  0.14034142610E+03  0.17603400577E+03  0.89592880154E+02 0.  0.
          5    1    3    3  502    0  0.25547099071E+02 -0.77096432496E+02  0.88726697926E+02  0.12035951769E+03  0.41800000000E+01 0.  1.
         -5    1    3    3    0  502  0.15676867293E+02  0.37524273952E+02 -0.41405674384E+01  0.41090777584E+02  0.41800000000E+01 0.  1.
        -11    1    4    4    0    0 -0.68706530121E+02  0.31901934822E+02  0.85617804760E+02  0.11431854276E+03  0.00000000000E+00 0. -1.
         11    1    4    4    0    0  0.27482563757E+02  0.76702237223E+01  0.54723621336E+02  0.61715463011E+02  0.00000000000E+00 0.  1.
</event>
<event>
 8    1  0.3710605E-009  0.1090961E+03  0.7561462E-02  0.1262253E+00
         -1   -1    0    0    0  501 -0.00000000000E+00  0.00000000000E+00  0.15462228553E+03  0.15462228553E+03  0.00000000000E+00 0.  1.
          1   -1    0    0  501    0  0.00000000000E+00 -0.00000000000E+00 -0.21099941923E+03  0.21099941923E+03  0.00000000000E+00 0. -1.
         25    2    1    2    0    0 -0.19324280254E+02  0.61387859359E+02  0.10024167927E+03  0.17273807633E+03  0.12509257239E+03 0.  0.
         23    2    1    2    0    0  0.19324280254E+02 -0.61387859359E+02 -0.15661881297E+03  0.19288362843E+03  0.92372855614E+02 0.  0.
          5    1    3    3  502    0 -0.45117979514E+02 -0.14450027434E+02  0.44055440265E+01  0.47763129990E+02  0.41800000000E+01 0.  1.
         -5    1    3    3    0  502  0.25793699260E+02  0.75837886793E+02  0.95836135240E+02  0.12497494634E+03  0.41800000000E+01 0.  1.
        -11    1    4    4    0    0  0.42764256228E+02 -0.36399116509E+02 -0.34180188732E+02  0.65741635173E+02  0.00000000000E+00 0.  1.
         11    1    4    4    0    0 -0.23439975974E+02 -0.24988742849E+02 -0.12243862424E+03  0.12714199325E+03  0.00000000000E+00 0. -1.
</event>
<event>
 8    1  0.3710605E-009  0.4305847E+02  0.7561462E-02  0.1486839E+00
          2   -1    0    0  501    0  0.00000000000E+00  0.00000000000E+00  0.29588822142E+03  0.29588822142E+03  0.00000000000E+00 0. -1.
         -2   -1    0    0    0  501 -0.00000000000E+00 -0.00000000000E+00 -0.44980690757E+02  0.44980690757E+02  0.00000000000E+00 0.  1.
         25    2    1    2    0    0 -0.26063737737E+02 -0.31265340686E+02  0.16526357324E+03  0.21123120604E+03  0.12509889614E+03 0.  0.
         23    2    1    2    0    0  0.26063737737E+02  0.31265340686E+02  0.85643957423E+02  0.12963770613E+03  0.88398005942E+02 0.  0.
          5    1    3    3  502    0  0.29050224490E+00 -0.76125745206E+00  0.17033404097E+03  0.17038727012E+03  0.41800000000E+01 0. -1.
         -5    1    3    3    0  502 -0.26354239982E+02 -0.30504083234E+02 -0.50704677338E+01  0.40843935927E+02  0.41800000000E+01 0. -1.
        -11    1    4    4    0    0  0.97880585417E+01  0.66966169585E+01 -0.18183232918E+02  0.21709001084E+02  0.00000000000E+00 0.  1.
         11    1    4    4    0    0  0.16275679195E+02  0.24568723728E+02  0.10382719034E+03  0.10792870505E+03  0.00000000000E+00 0. -1.
</event>
<event>
 8    1  0.3710605E-009  0.1024663E+03  0.7561462E-02  0.1275194E+00
          3   -1    0    0  501    0  0.00000000000E+00  0.00000000000E+00  0.81871863031E+02  0.81871863031E+02  0.00000000000E+00 0. -1.
         -3   -1    0    0    0  501 -0.00000000000E+00 -0.00000000000E+00 -0.15167894161E+03  0.15167894161E+03  0.00000000000E+00 0.  1.
         25    2    1    2    0    0 -0.47009486188E+01 -0.40303090779E+01 -0.51510176319E+02  0.13541993971E+03  0.12508764726E+03 0.  0.
         23    2    1    2    0    0  0.47009486188E+01  0.40303090779E+01 -0.18296902260E+02  0.98130864934E+02  0.96210954216E+02 0.  0.
          5    1    3    3  502    0 -0.55465957235E+02  0.29276258849E+02 -0.36690133993E+02  0.72781935098E+02  0.41800000000E+01 0.  1.
         -5    1    3    3    0  502  0.50765008616E+02 -0.33306567927E+02 -0.14820042327E+02  0.62638004609E+02  0.41800000000E+01 0.  1.
        -11    1    4    4    0    0  0.33091103612E+02  0.28548323945E+02 -0.36027988296E+02  0.56639596388E+02  0.00000000000E+00 0.  1.
         11    1    4    4    0    0 -0.28390154993E+02 -0.24518014867E+02  0.17731086036E+02  0.41491268546E+02  0.00000000000E+00 0. -1.
</event>
<event>
 8    1  0.3710605E-009  0.9671246E+02  0.7561462E-02  0.1287365E+00
          1   -1    0    0  501    0  0.00000000000E+00  0.00000000000E+00  0.75747347958E+02  0.75747347958E+02  0.00000000000E+00 0. -1.
         -1   -1    0    0    0  501 -0.00000000000E+00 -0.00000000000E+00 -0.24230445097E+03  0.24230445097E+03  0.00000000000E+00 0.  1.
         25    2    1    2    0    0  0.61993624934E+02 -0.43355291631E+02 -0.58162816012E+02  0.15733233471E+03  0.12509060529E+03 0.  0.
         23    2    1    2    0    0 -0.61993624934E+02  0.43355291631E+02 -0.10839428700E+03  0.16071946422E+03  0.91425017807E+02 0.  0.
          5    1    3    3  502    0  0.54502007626E+02 -0.70268583981E+02  0.39337545964E+01  0.89112791199E+02  0.41800000000E+01 0.  1.
         -5    1    3    3    0  502  0.74916173074E+01  0.26913292350E+02 -0.62096570609E+02  0.68219543508E+02  0.41800000000E+01 0.  1.
        -11    1    4    4    0    0 -0.44893257983E+02  0.35963223174E+02 -0.12382219186E+03  0.13653092408E+03  0.00000000000E+00 0.  1.
         11    1    4    4    0    0 -0.17100366951E+02  0.73920684572E+01  0.15427904858E+02  0.24188540143E+02  0.00000000000E+00 0. -1.
</event>
<event>
 8    1  0.3710605E-009  0.1542283E+03  0.7561462E-02  0.1195371E+00
          1   -1    0    0  501    0  0.00000000000E+00  0.00000000000E+00  0.58500850655E+03  0.58500850655E+03  0.00000000000E+00 0. -1.
         -1   -1    0    0    0  501 -0.00000000000E+00 -0.00000000000E+00 -0.62435470458E+02  0.62435470458E+02  0.00000000000E+00 0.  1.
         25    2    1    2    0    0 -0.13108971865E+03  0.10786119824E+02  0.41811355964E+03  0.45581475789E+03  0.12508912837E+03 0.  0.
         23    2    1    2    0    0  0.13108971865E+03 -0.10786119824E+02  0.10445947645E+03  0.19162921912E+03  0.92244895173E+02 0.  0.
          5    1    3    3  502    0 -0.27118412736E+02 -0.44673069534E+02  0.64842430396E+02  0.83385278260E+02  0.41800000000E+01 0.  1.
         -5    1    3    3    0  502 -0.10397130591E+03  0.55459189358E+02  0.35327112925E+03  0.37242947963E+03  0.41800000000E+01 0.  1.
        -11    1    4    4    0    0  0.10782893987E+03 -0.25225009996E+02  0.33694394749E+02  0.11575272627E+03  0.00000000000E+00 0.  1.
         11    1    4    4    0    0  0.23260778780E+02  0.14438890172E+02  0.70765081705E+02  0.75876492852E+02  0.00000000000E+00 0. -1.
</event>
<event>
 8    1  0.3710605E-009  0.8673051E+02  0.7561462E-02  0.1310968E+00
          2   -1    0    0  501    0  0.00000000000E+00  0.00000000000E+00  0.63929093596E+02  0.63929093596E+02  0.00000000000E+00 0.  1.
         -2   -1    0    0    0  501 -0.00000000000E+00 -0.00000000000E+00 -0.20134886872E+03  0.20134886872E+03  0.00000000000E+00 0. -1.
         25    2    1    2    0    0  0.11677564932E+02 -0.25607310945E+02 -0.60749154274E+02  0.14187738271E+03  0.12508649841E+03 0.  0.
         23    2    1    2    0    0 -0.11677564932E+02  0.25607310945E+02 -0.76670620846E+02  0.12340057960E+03  0.92505237947E+02 0.  0.
          5    1    3    3  502    0  0.59032678422E+02 -0.29846464221E+02 -0.66395930935E+02  0.93816632816E+02  0.41800000000E+01 0. -1.
         -5    1    3    3    0  502 -0.47355113490E+02  0.42391532761E+01  0.56467766607E+01  0.48060749898E+02  0.41800000000E+01 0. -1.
        -11    1    4    4    0    0  0.24050707935E+01  0.39557150823E+02  0.44629213298E+01  0.39880699763E+02  0.00000000000E+00 0.  1.
         11    1    4    4    0    0 -0.14082635726E+02 -0.13949839879E+02 -0.81133542176E+02  0.83519879835E+02  0.00000000000E+00 0. -1.
</event>
<event>
 8    1  0.3710605E-009  0.1043695E+03  0.7561462E-02  0.1271367E+00
          1   -1    0    0  501    0  0.00000000000E+00  0.00000000000E+00  0.31438555771E+03  0.31438555771E+03  0.00000000000E+00 0. -1.
         -1   -1    0    0    0  501 -0.00000000000E+00 -0.00000000000E+00 -0.59186206079E+02  0.59186206079E+02  0.00000000000E+00 0.  1.
         25    2    1    2    0    0  0.12654373545E+02 -0.81506659438E+02  0.14629709028E+03  0.20941606027E+03  0.12509507973E+03 0.  0.
         23    2    1    2    0    0 -0.12654373545E+02  0.81506659438E+02  0.10890226135E+03  0.16415570351E+03  0.91016063235E+02 0.  0.
          5    1    3    3  502    0 -0.36113484055E+01 -0.33579205766E+01 -0.22091904728E+02  0.23018299729E+02  0.41800000000E+01 0.  1.
         -5    1    3    3    0  502  0.16265721951E+02 -0.78148738861E+02  0.16838899501E+03  0.18639776055E+03  0.41800000000E+01 0.  1.
        -11    1    4    4    0    0  0.36842117204E+01  0.98615596092E+02  0.81784638833E+02  0.12816917086E+03  0.00000000000E+00 0. -1.
         11    1    4    4    0    0 -0.16338585266E+02 -0.17108936655E+02  0.27117622513E+02  0.35986532657E+02  0.00000000000E+00 0.  1.
</event>
<event>
 8    1  0.3710605E-009  0.1155030E+03  0.7561462E-02  0.1250706E+00
         -3   -1    0    0    0  501 -0.00000000000E+00  0.00000000000E+00  0.18597414146E+02  0.18597414146E+02  0.00000000000E+00 0.  1.
          3   -1    0    0  501    0  0.00000000000E+00 -0.00000000000E+00 -0.97580765878E+03  0.97580765878E+03  0.00000000000E+00 0. -1.
         25    2    1    2    0    0  0.35433822829E+02  0.56151024195E+02 -0.69258345872E+03  0.70691406079E+03  0.12508856355E+03 0.  0.
         23    2    1    2    0    0 -0.35433822829E+02 -0.56151024195E+02 -0.26462678591E+03  0.28749101214E+03  0.90638032405E+02 0.  0.
          5    1    3    3  502    0  0.43333122718E+02 -0.30710584253E+02 -0.22251420078E+03  0.22880328113E+03  0.41800000000E+01 0.  1.
         -5    1    3    3    0  502 -0.78992998891E+01  0.86861608447E+02 -0.47006925794E+03  0.47811077966E+03  0.41800000000E+01 0.  1.
        -11    1    4    4    0    0 -0.32731419061E+02  0.14323064706E+01 -0.19195790229E+03  0.19473375041E+03  0.00000000000E+00 0.  1.
         11    1    4    4    0    0 -0.27024037681E+01 -0.57583330665E+02 -0.72668883619E+02  0.92757261727E+02  0.00000000000E+00 0. -1.
</event>
<event>
 8    1  0.3710605E-009  0.1082249E+03  0.7561462E-02  0.1263893E+00
         -1   -1    0    0    0  501 -0.00000000000E+00  0.00000000000E+00  0.35181740498E+02  0.35181740498E+02  0.00000000000E+00 0.  1.
          1   -1    0    0  501    0  0.00000000000E+00 -0.00000000000E+00 -0.62779851936E+03  0.62779851936E+03  0.00000000000E+00 0. -1.
         25    2    1    2    0    0  0.36285398063E+02  0.74787449262E+02 -0.19307051710E+03  0.24460865350E+03  0.12508947244E+03 0.  0.
         23    2    1    2    0    0 -0.36285398063E+02 -0.74787449262E+02 -0.39954626176E+03  0.41837160636E+03  0.92129219234E+02 0.  0.
          5    1    3    3  502    0 -0.17974537748E+02 -0.13050253278E+02  0.31726793172E+01  0.22823921923E+02  0.41800000000E+01 0. -1.
         -5    1    3    3    0  502  0.54259935811E+02  0.87837702541E+02 -0.19624319642E+03  0.22178473158E+03  0.41800000000E+01 0. -1.
        -11    1    4    4    0    0 -0.15738398359E+02 -0.32272519955E+01 -0.49472004852E+01  0.16810328105E+02  0.00000000000E+00 0.  1.
         11    1    4    4    0    0 -0.20546999704E+02 -0.71560197267E+02 -0.39459906128E+03  0.40156127825E+03  0.00000000000E+00 0. -1.
</event>
<event>
 8    1  0.3710605E-009  0.4740693E+02  0.7561462E-02  0.1459852E+00
          2   -1    0    0  501    0  0.00000000000E+00  0.00000000000E+00  0.82744777550E+02  0.82744777550E+02  0.00000000000E+00 0. -1.
         -2   -1    0    0    0  501 -0.00000000000E+00 -0.00000000000E+00 -0.16730837903E+03  0.16730837903E+03  0.00000000000E+00 0.  1.
         25    2    1    2    0    0 -0.17154389878E+02  0.19981787596E+02 -0.83881923317E+02  0.15289475628E+03  0.12508830685E+03 0.  0.
         23    2    1    2    0    0  0.17154389878E+02 -0.19981787596E+02 -0.68167815983E+00  0.97158400296E+02  0.93518688696E+02 0.  0.
          5    1    3    3  502    0 -0.11295084225E+02  0.23686785882E+02  0.29224396001E+02  0.39499119923E+02  0.41800000000E+01 0.  1.
         -5    1    3    3    0  502 -0.58593056527E+01 -0.37049982857E+01 -0.11310631932E+03  0.11339563636E+03  0.41800000000E+01 0.  1.
        -11    1    4    4    0    0 -0.88405144274E+01 -0.30759942776E+02 -0.38470204644E+02  0.50042835853E+02  0.00000000000E+00 0.  1.
         11    1    4    4    0    0  0.25994904306E+02  0.10778155180E+02  0.37788526484E+02  0.47115564443E+02  0.00000000000E+00 0. -1.
</event>
<event>
 8    1  0.3710605E-009  0.1104350E+03  0.7561462E-02  0.1259766E+00
         -1   -1    0    0    0  501 -0.00000000000E+00  0.00000000000E+00  0.89245595224E+02  0.89245595224E+02  0.00000000000E+00 0.  1.
          1   -1    0    0  501    0  0.00000000000E+00 -0.00000000000E+00 -0.16625985147E+03  0.16625985147E+03  0.00000000000E+00 0. -1.
         25    2    1    2    0    0 -0.24454295663E+02  0.43696939203E+02 -0.20887471506E+02  0.13634678162E+03  0.12508686310E+03 0.  0.
         23    2    1    2    0    0  0.24454295663E+02 -0.43696939203E+02 -0.56126784738E+02  0.11915866507E+03  0.92418268886E+02 0.  0.
          5    1    3    3  502    0  0.29140253481E+02 -0.27328886697E+02 -0.24760676554E+02  0.47186713432E+02  0.41800000000E+01 0.  1.
         -5    1    3    3    0  502 -0.53594549144E+02  0.71025825900E+02  0.38732050486E+01  0.89160068192E+02  0.41800000000E+01 0.  1.
        -11    1    4    4    0    0  0.16209173463E+02 -0.65940378240E+02 -0.11853225150E+02  0.68930180133E+02  0.00000000000E+00 0.  1.
         11    1    4    4    0    0  0.82451222005E+01  0.22243439037E+02 -0.44273559588E+02  0.50228484935E+02  0.00000000000E+00 0. -1.
</event>
<event>
 8    1  0.3710605E-009  0.8758969E+02  0.7561462E-02  0.1308796E+00
         -2   -1    0    0    0  501 -0.00000000000E+00  0.00000000000E+00  0.12644904621E+03  0.12644904621E+03  0.00000000000E+00 0.  1.
          2   -1    0    0  501    0  0.00000000000E+00 -0.00000000000E+00 -0.13537140470E+03  0.13537140470E+03  0.00000000000E+00 0. -1.
         25    2    1    2    0    0 -0.40002924037E+02  0.77416391230E+01  0.58345215494E+02  0.14391676010E+03  0.12509077808E+03 0.  0.
         23    2    1    2    0    0  0.40002924037E+02 -0.77416391230E+01 -0.67267573988E+02  0.11790369080E+03  0.87841828798E+02 0.  0.
          5    1    3    3  502    0  0.37456574143E+02 -0.15589094999E+02  0.46824484322E+02  0.62096856293E+02  0.41800000000E+01 0.  1.
         -5    1    3    3    0  502 -0.77459498180E+02  0.23330734122E+02  0.11520731172E+02  0.81819903811E+02  0.41800000000E+01 0.  1.
        -11    1    4    4    0    0  0.37184464288E+02  0.74622392224E+01 -0.85775747854E+02  0.93786184049E+02  0.00000000000E+00 0. -1.
         11    1    4    4    0    0  0.28184597492E+01 -0.15203878345E+02  0.18508173866E+02  0.24117506752E+02  0.00000000000E+00 0.  1.
</event>
<event>
 8    1  0.3710605E-009  0.1290721E+03  0.7561462E-02  0.1228839E+00
         -4   -1    0    0    0  501 -0.00000000000E+00  0.00000000000E+00  0.17490035787E+03  0.17490035787E+03  0.00000000000E+00 0. -1.
          4   -1    0    0  501    0  0.00000000000E+00 -0.00000000000E+00 -0.12641294972E+03  0.12641294972E+03  0.00000000000E+00 0.  1.
         25    2    1    2    0    0  0.78590962977E+02  0.36218646569E+02  0.79445669059E+02  0.17160595141E+03  0.12509459782E+03 0.  0.
         23    2    1    2    0    0 -0.78590962977E+02 -0.36218646569E+02 -0.30958260916E+02  0.12970735619E+03  0.91527342957E+02 0.  0.
          5    1    3    3  502    0  0.60671050985E+02 -0.27507732569E+02  0.81375828727E+02  0.10524803884E+03  0.41800000000E+01 0.  1.
         -5    1    3    3    0  502  0.17919911992E+02  0.63726379138E+02 -0.19301596675E+01  0.66357912566E+02  0.41800000000E+01 0.  1.
        -11    1    4    4    0    0 -0.50979388503E+02  0.25832285491E+02 -0.21837282522E+02  0.61180649995E+02  0.00000000000E+00 0.  1.
         11    1    4    4    0    0 -0.27611574474E+02 -0.62050932061E+02 -0.91209783938E+01  0.68526706191E+02  0.00000000000E+00 0. -1.
</event>
<event>
 8    1  0.3710605E-009  0.1304687E+03  0.7561462E-02  0.1226762E+00
          4   -1    0    0  501    0  0.00000000000E+00  0.00000000000E+00  0.19733521915E+03  0.19733521915E+03  0.00000000000E+00 0. -1.
         -4   -1    0    0    0  501 -0.00000000000E+00 -0.00000000000E+00 -0.13350616073E+03  0.13350616073E+03  0.00000000000E+00 0.  1.
         25    2    1    2    0    0  0.97246092269E+02 -0.15452689941E+02  0.10446391583E+03  0.19040941832E+03  0.12508976292E+03 0.  0.
         23    2    1    2    0    0 -0.97246092269E+02  0.15452689941E+02 -0.40634857409E+02  0.14043196156E+03  0.91511508032E+02 0.  0.
          5    1    3    3  502    0  0.62934694427E+02  0.50419931433E+02  0.32930045331E+02  0.87205536142E+02  0.41800000000E+01 0. -1.
         -5    1    3    3    0  502  0.34311397842E+02 -0.65872621374E+02  0.71533870498E+02  0.10320388218E+03  0.41800000000E+01 0. -1.
        -11    1    4    4    0    0 -0.98691270560E+01  0.15553825795E+02 -0.49297425456E+02  0.52626583798E+02  0.00000000000E+00 0.  1.
         11    1    4    4    0    0 -0.87376965213E+02 -0.10113585396E+00  0.86625680468E+01  0.87805377759E+02  0.00000000000E+00 0. -1.
</event>
<event>
 8    1  0.3710605E-009  0.8684430E+02  0.7561462E-02  0.1310679E+00
         -1   -1    0    0    0  501 -0.00000000000E+00  0.00000000000E+00  0.47309567494E+03  0.47309567494E+03  0.00000000000E+00 0. -1.
          1   -1    0    0  501    0  0.00000000000E+00 -0.00000000000E+00 -0.57519503859E+02  0.57519503859E+02  0.00000000000E+00 0.  1.
         25    2    1    2    0    0 -0.17782378643E+02 -0.76883564748E+01  0.41356507976E+03  0.43250330192E+03  0.12509079568E+03 0.  0.
         23    2    1    2    0    0  0.17782378643E+02  0.76883564748E+01  0.20110913243E+01  0.98111876878E+02  0.96159097753E+02 0.  0.
          5    1    3    3  502    0 -0.57633439295E+02 -0.41282174679E+02  0.18823353406E+03  0.20118441047E+03  0.41800000000E+01 0.  1.
         -5    1    3    3    0  502  0.39851060652E+02  0.33593818205E+02  0.22533154570E+03  0.23131889145E+03  0.41800000000E+01 0.  1.
        -11    1    4    4    0    0 -0.12074033608E+02  0.15379122054E+02  0.42757307485E+02  0.47015816765E+02  0.00000000000E+00 0. -1.
         11    1    4    4    0    0  0.29856412251E+02 -0.76907655795E+01 -0.40746216161E+02  0.51096060113E+02  0.00000000000E+00 0.  1.
</event>
<event>
 8    1  0.3710605E-009  0.1333280E+03  0.7561462E-02  0.1222600E+00
          2   -1    0    0  501    0  0.00000000000E+00  0.00000000000E+00  0.38737423576E+03  0.38737423576E+03  0.00000000000E+00 0.  1.
         -2   -1    0    0    0  501 -0.00000000000E+00 -0.00000000000E+00 -0.10257984951E+03  0.10257984951E+03  0.00000000000E+00 0. -1.
         25    2    1    2    0    0 -0.90329780340E+01  0.11873608688E+03  0.58117422272E+01  0.17280585801E+03  0.12509290625E+03 0.  0.
         23    2    1    2    0    0  0.90329780340E+01 -0.11873608688E+03  0.27898264403E+03  0.31714822726E+03  0.92584174492E+02 0.  0.
          5    1    3    3  502    0 -0.15479108640E+02  0.10062882822E+03  0.57849824703E+02  0.11717439350E+03  0.41800000000E+01 0. -1.
         -5    1    3    3    0  502  0.64461306063E+01  0.18107258661E+02 -0.52038082475E+02  0.55631464512E+02  0.41800000000E+01 0. -1.
        -11    1    4    4    0    0  0.37675424268E+02 -0.10819590796E+03  0.17824970009E+03  0.21189324594E+03  0.00000000000E+00 0. -1.
         11    1    4    4    0    0 -0.28642446234E+02 -0.10540178916E+02  0.10073294394E+03  0.10525498132E+03  0.00000000000E+00 0.  1.
</event>
<event>
 8    1  0.3710605E-009  0.1045152E+03  0.7561462E-02  0.1271078E+00
          2   -1    0    0  501    0  0.00000000000E+00  0.00000000000E+00  0.96901823114E+02  0.96901823114E+02  0.00000000000E+00 0. -1.
         -2   -1    0    0    0  501 -0.00000000000E+00 -0.00000000000E+00 -0.23551099261E+03  0.23551099261E+03  0.00000000000E+00 0.  1.
         25    2    1    2    0    0 -0.11474856625E+00 -0.86360177401E+01  0.40279563310E+02  0.13169656614E+03  0.12508776257E+03 0.  0.
         23    2    1    2    0    0  0.11474856625E+00  0.86360177401E+01 -0.17888873281E+03  0.20071624958E+03  0.90615893479E+02 0.  0.
          5    1    3    3  502    0  0.28455182571E+01  0.57119095460E+02  0.68386046258E+01  0.57748826426E+02  0.41800000000E+01 0.  1.
         -5    1    3    3    0  502 -0.29602668234E+01 -0.65755113200E+02  0.33440958684E+02  0.73947739718E+02  0.41800000000E+01 0.  1.
        -11    1    4    4    0    0 -0.10251284622E+02 -0.37279053390E+02 -0.11524210356E+03  0.12155475758E+03  0.00000000000E+00 0.  1.
         11    1    4    4    0    0  0.10366033188E+02  0.45915071130E+02 -0.63646629248E+02  0.79161491999E+02  0.00000000000E+00 0. -1.
</event>
<event>
 8    1  0.3710605E-009  0.1525779E+03  0.7561462E-02  0.1197341E+00
          2   -1    0    0  501    0  0.00000000000E+00  0.00000000000E+00  0.45852382359E+03  0.45852382359E+03  0.00000000000E+00 0. -1.
         -2   -1    0    0    0  501 -0.00000000000E+00 -0.00000000000E+00 -0.62702665103E+02  0.62702665103E+02  0.00000000000E+00 0.  1.
         25    2    1    2    0    0 -0.90459623227E+02 -0.92319641563E+02  0.23618908008E+03  0.29688362458E+03  0.12509494532E+03 0.  0.
         23    2    1    2    0    0  0.90459623227E+02  0.92319641563E+02  0.15963207841E+03  0.22434286411E+03  0.90230042483E+02 0.  0.
          5    1    3    3  502    0 -0.10241835698E+03 -0.11045968998E+03  0.22798385150E+03  0.27328551352E+03  0.41800000000E+01 0. -1.
         -5    1    3    3    0  502  0.11958733754E+02  0.18140048418E+02  0.82052285806E+01  0.23598111061E+02  0.41800000000E+01 0. -1.
        -11    1    4    4    0    0  0.24116726246E+02  0.44300734770E+02  0.12615962240E+03  0.13586913523E+03  0.00000000000E+00 0. -1.
         11    1    4    4    0    0  0.66342896980E+02  0.48018906793E+02  0.33472456011E+02  0.88473728873E+02  0.00000000000E+00 0.  1.
</event>
<event>
 8    1  0.3710605E-009  0.2255819E+03  0.7561462E-02  0.1129789E+00
         -2   -1    0    0    0  501 -0.00000000000E+00  0.00000000000E+00  0.35722261955E+02  0.35722261955E+02  0.00000000000E+00 0.  1.
          2   -1    0    0  501    0  0.00000000000E+00 -0.00000000000E+00 -0.21158664053E+04  0.21158664053E+04  0.00000000000E+00 0. -1.
         25    2    1    2    0    0  0.14871080096E+03 -0.15740689754E+03 -0.15697563005E+04  0.15895516029E+04  0.12509045372E+03 0.  0.
         23    2    1    2    0    0 -0.14871080096E+03  0.15740689754E+03 -0.51038784279E+03  0.56203706430E+03  0.92185019736E+02 0.  0.
          5    1    3    3  502    0  0.86677302768E+02 -0.80028158326E+02 -0.44389918857E+03  0.45932714153E+03  0.41800000000E+01 0.  1.
         -5    1    3    3    0  502  0.62033498188E+02 -0.77378739214E+02 -0.11258571120E+04  0.11302244614E+04  0.41800000000E+01 0.  1.
        -11    1    4    4    0    0  0.60877608270E+01  0.37652400520E+02 -0.10891935291E+03  0.11540446063E+03  0.00000000000E+00 0. -1.
         11    1    4    4    0    0 -0.15479856178E+03  0.11975449702E+03 -0.40146848988E+03  0.44663260366E+03  0.00000000000E+00 0.  1.
</event>
<event>
 8    1  0.3710605E-009  0.1062077E+03  0.7561462E-02  0.1267758E+00
         -1   -1    0    0    0  501 -0.00000000000E+00  0.00000000000E+00  0.43351550673E+02  0.43351550673E+02  0.00000000000E+00 0.  1.
          1   -1    0    0  501    0  0.00000000000E+00 -0.00000000000E+00 -0.48385443348E+03  0.48385443348E+03  0.00000000000E+00 0. -1.
         25    2    1    2    0    0  0.51602092148E+02  0.66992745776E+02 -0.33249564888E+03  0.36517538122E+03  0.12509555799E+03 0.  0.
         23    2    1    2    0    0 -0.51602092148E+02 -0.66992745776E+02 -0.10800723393E+03  0.16203060293E+03  0.86241230305E+02 0.  0.
          5    1    3    3  502    0  0.22211755529E+02  0.72599615006E+02 -0.32536866536E+03  0.33413516274E+03  0.41800000000E+01 0.  1.
         -5    1    3    3    0  502  0.29390336619E+02 -0.56068692304E+01 -0.71269835151E+01  0.31040218478E+02  0.41800000000E+01 0.  1.
        -11    1    4    4    0    0  0.12929846214E+02 -0.27817870847E+02 -0.51840563909E+00  0.30680345597E+02  0.00000000000E+00 0.  1.
         11    1    4    4    0    0 -0.64531938361E+02 -0.39174874929E+02 -0.10748882829E+03  0.13135025733E+03  0.00000000000E+00 0. -1.
</event>
<event>
 8    1  0.3710605E-009  0.1182123E+03  0.7561462E-02  0.1246076E+00
         -3   -1    0    0    0  501 -0.00000000000E+00  0.00000000000E+00  0.21624711595E+02  0.21624711595E+02  0.00000000000E+00 0.  1.
          3   -1    0    0  501    0  0.00000000000E+00 -0.00000000000E+00 -0.90098067401E+03  0.90098067401E+03  0.00000000000E+00 0. -1.
         25    2    1    2    0    0 -0.26896785486E+02 -0.57449036416E+02 -0.68040606008E+03  0.69471131864E+03  0.12509029057E+03 0.  0.
         23    2    1    2    0    0  0.26896785486E+02  0.57449036416E+02 -0.19894990234E+03  0.22789406697E+03  0.91273288890E+02 0.  0.
          5    1    3    3  502    0  0.26618282223E+02  0.20895371068E+02 -0.81853070185E+02  0.88671004163E+02  0.41800000000E+01 0.  1.
         -5    1    3    3    0  502 -0.53515067709E+02 -0.78344407485E+02 -0.59855298989E+03  0.60604031447E+03  0.41800000000E+01 0.  1.
        -11    1    4    4    0    0 -0.31893468361E+02  0.19450551863E+02 -0.43043214929E+02  0.56993294723E+02  0.00000000000E+00 0.  1.
         11    1    4    4    0    0  0.58790253847E+02  0.37998484554E+02 -0.15590668741E+03  0.17090077225E+03  0.00000000000E+00 0. -1.
</event>
<event>
 8    1  0.3710605E-009  0.1692788E+03  0.7561462E-02  0.1178602E+00
         -1   -1    0    0    0  501 -0.00000000000E+00  0.00000000000E+00  0.32186165238E+02  0.32186165238E+02  0.00000000000E+00 0. -1.
          1   -1    0    0  501    0  0.00000000000E+00 -0.00000000000E+00 -0.10059559881E+04  0.10059559881E+04  0.00000000000E+00 0.  1.
         25    2    1    2    0    0 -0.78633633311E+01  0.13586444120E+03 -0.59144978669E+03  0.61966433791E+03  0.12510021038E+03 0.  0.
         23    2    1    2    0    0  0.78633633311E+01 -0.13586444120E+03 -0.38232003613E+03  0.41847781538E+03  0.10214740857E+03 0.  0.
          5    1    3    3  502    0  0.28528425903E+02  0.12836540269E+03 -0.54159732939E+03  0.55734790508E+03  0.41800000000E+01 0. -1.
         -5    1    3    3    0  502 -0.36391789234E+02  0.74990385129E+01 -0.49852457299E+02  0.62316432833E+02  0.41800000000E+01 0. -1.
        -11    1    4    4    0    0  0.17025195696E+02  0.12395915666E+02 -0.59639144241E+02  0.63248269063E+02  0.00000000000E+00 0.  1.
         11    1    4    4    0    0 -0.91618323647E+01 -0.14826035686E+03 -0.32268089189E+03  0.35522954632E+03  0.00000000000E+00 0. -1.
</event>
<event>
 8    1  0.3710605E-009  0.1201950E+03  0.7561462E-02  0.1242776E+00
          2   -1    0    0  501    0  0.00000000000E+00  0.00000000000E+00  0.29444293807E+03  0.29444293807E+03  0.00000000000E+00 0. -1.
         -2   -1    0    0    0  501 -0.00000000000E+00 -0.00000000000E+00 -0.54896536165E+02  0.54896536165E+02  0.00000000000E+00 0.  1.
         25    2    1    2    0    0 -0.57951743734E+02  0.26655806575E+02  0.14272702493E+03  0.20022210684E+03  0.12509577049E+03 0.  0.
         23    2    1    2    0    0  0.57951743734E+02 -0.26655806575E+02  0.96819376972E+02  0.14911736740E+03  0.93771322247E+02 0.  0.
          5    1    3    3  502    0 -0.46490994851E+02 -0.39065600492E+02  0.27023437663E+02  0.66597840259E+02  0.41800000000E+01 0. -1.
         -5    1    3    3    0  502 -0.11460748882E+02  0.65721407067E+02  0.11570358727E+03  0.13362426658E+03  0.41800000000E+01 0. -1.
        -11    1    4    4    0    0  0.40548581693E+01  0.32441359563E+02  0.20659409393E+02  0.38674214685E+02  0.00000000000E+00 0.  1.
         11    1    4    4    0    0  0.53896885565E+02 -0.59097166138E+02  0.76159967579E+02  0.11044315271E+03  0.00000000000E+00 0. -1.
</event>
<event>
 8    1  0.3710605E-009  0.1261437E+03  0.7561462E-02  0.1233293E+00
         -1   -1    0    0    0  501 -0.00000000000E+00  0.00000000000E+00  0.66413480759E+03  0.66413480759E+03  0.00000000000E+00 0.  1.
          1   -1    0    0  501    0  0.00000000000E+00 -0.00000000000E+00 -0.25217264364E+02  0.25217264364E+02  0.00000000000E+00 0. -1.
         25    2    1    2    0    0  0.70404662287E+01 -0.74843092866E+02  0.40365542968E+03  0.42922591108E+03  0.12508445192E+03 0.  0.
         23    2    1    2    0    0 -0.70404662287E+01  0.74843092866E+02  0.23526211354E+03  0.26012616088E+03  0.81647417533E+02 0.  0.
          5    1    3    3  502    0 -0.44011645383E+01 -0.10757681826E+03  0.33938474186E+03  0.35607810587E+03  0.41800000000E+01 0. -1.
         -5    1    3    3    0  502  0.11441630767E+02  0.32733725392E+02  0.64270687829E+02  0.73147805207E+02  0.41800000000E+01 0. -1.
        -11    1    4    4    0    0 -0.24715379853E+02  0.85481743434E+02  0.20523938027E+03  0.22369886383E+03  0.00000000000E+00 0.  1.
         11    1    4    4    0    0  0.17674913625E+02 -0.10638650568E+02  0.30022733269E+02  0.36427297051E+02  0.00000000000E+00 0. -1.
</event>
<event>
 8    1  0.3710605E-009  0.1181230E+03  0.7561462E-02  0.1246226E+00
          2   -1    0    0  501    0  0.00000000000E+00  0.00000000000E+00  0.88008023473E+03  0.88008023473E+03  0.00000000000E+00 0. -1.
         -2   -1    0    0    0  501 -0.00000000000E+00 -0.00000000000E+00 -0.23881713133E+02  0.23881713133E+02  0.00000000000E+00 0.  1.
         25    2    1    2    0    0  0.70259657524E+02 -0.37104858342E+02  0.62553580152E+03  0.64284895773E+03  0.12508618424E+03 0.  0.
         23    2    1    2    0    0 -0.70259657524E+02  0.37104858342E+02  0.23066272008E+03  0.26111299013E+03  0.93067250916E+02 0.  0.
          5    1    3    3  502    0  0.48706236188E+02  0.25039843094E+02  0.47942061978E+03  0.48255662285E+03  0.41800000000E+01 0.  1.
         -5    1    3    3    0  502  0.21553421336E+02 -0.62144701436E+02  0.14611518174E+03  0.16029233489E+03  0.41800000000E+01 0.  1.
        -11    1    4    4    0    0 -0.17609165431E+02 -0.27137972489E+02  0.10975364241E+03  0.11442208826E+03  0.00000000000E+00 0. -1.
         11    1    4    4    0    0 -0.52650492093E+02  0.64242830831E+02  0.12090907767E+03  0.14669090188E+03  0.00000000000E+00 0.  1.
</event>
<event>
 8    1  0.3710605E-009  0.2517374E+03  0.7561462E-02  0.1112212E+00
          1   -1    0    0  501    0  0.00000000000E+00  0.00000000000E+00  0.75174233884E+03  0.75174233884E+03  0.00000000000E+00 0. -1.
         -1   -1    0    0    0  501 -0.00000000000E+00 -0.00000000000E+00 -0.12276854899E+03  0.12276854899E+03  0.00000000000E+00 0.  1.
         25    2    1    2    0    0  0.24260340512E+03 -0.46137883566E+02  0.52470183849E+03  0.59324902698E+03  0.12508905718E+03 0.  0.
         23    2    1    2    0    0 -0.24260340512E+03  0.46137883566E+02  0.10427195137E+03  0.28126186085E+03  0.85149738987E+02 0.  0.
          5    1    3    3  502    0  0.17340380183E+03 -0.62999623894E+02  0.25823981942E+03  0.31740054794E+03  0.41800000000E+01 0.  1.
         -5    1    3    3    0  502  0.69199603291E+02  0.16861740328E+02  0.26646201907E+03  0.27584847905E+03  0.41800000000E+01 0.  1.
        -11    1    4    4    0    0 -0.16530491465E+03  0.39804118833E+02  0.27695569868E+02  0.17227050611E+03  0.00000000000E+00 0.  1.
         11    1    4    4    0    0 -0.77298490466E+02  0.63337647329E+01  0.76576381501E+02  0.10899135474E+03  0.00000000000E+00 0. -1.
</event>
<event>
 8    1  0.3710605E-009  0.1338185E+03  0.7561462E-02  0.1221897E+00
         -2   -1    0    0    0  501 -0.00000000000E+00  0.00000000000E+00  0.11929392994E+03  0.11929392994E+03  0.00000000000E+00 0.  1.
          2   -1    0    0  501    0  0.00000000000E+00 -0.00000000000E+00 -0.21983527821E+03  0.21983527821E+03  0.00000000000E+00 0. -1.
         25    2    1    2    0    0 -0.10560613225E+03 -0.73406192456E+01 -0.11946588507E+03  0.20279622442E+03  0.12509065146E+03 0.  0.
         23    2    1    2    0    0  0.10560613225E+03  0.73406192456E+01  0.18924536802E+02  0.13633298373E+03  0.83797401510E+02 0.  0.
          5    1    3    3  502    0 -0.91668694379E+02  0.27348371439E+02 -0.21893450343E+02  0.98223614866E+02  0.41800000000E+01 0.  1.
         -5    1    3    3    0  502 -0.13937437867E+02 -0.34688990685E+02 -0.97572434730E+02  0.10457260955E+03  0.41800000000E+01 0.  1.
        -11    1    4    4    0    0  0.19188671375E+02 -0.33560885094E+02  0.11980271378E+02  0.40473015946E+02  0.00000000000E+00 0.  1.
         11    1    4    4    0    0  0.86417460871E+02  0.40901504340E+02  0.69442654239E+01  0.95859967781E+02  0.00000000000E+00 0. -1.
</event>
<event>
 8    1  0.3710605E-009  0.1120833E+03  0.7561462E-02  0.1256760E+00
         -3   -1    0    0    0  501 -0.00000000000E+00  0.00000000000E+00  0.18237997105E+02  0.18237997105E+02  0.00000000000E+00 0.  1.
          3   -1    0    0  501    0  0.00000000000E+00 -0.00000000000E+00 -0.80207941015E+03  0.80207941015E+03  0.00000000000E+00 0. -1.
         25    2    1    2    0    0  0.41339041807E+02 -0.39977494496E+02 -0.45560885051E+03  0.47595549285E+03  0.12508832907E+03 0.  0.
         23    2    1    2    0    0 -0.41339041807E+02  0.39977494496E+02 -0.32823256253E+03  0.34436191440E+03  0.86841214519E+02 0.  0.
          5    1    3    3  502    0  0.33359138952E+02 -0.85051192263E+02 -0.31657945897E+03  0.32952475430E+03  0.41800000000E+01 0. -1.
         -5    1    3    3    0  502  0.79799028554E+01  0.45073697767E+02 -0.13902939155E+03  0.14643073855E+03  0.41800000000E+01 0. -1.
        -11    1    4    4    0    0 -0.55828904575E+02  0.14898521450E+02 -0.29351620303E+03  0.29914978517E+03  0.00000000000E+00 0. -1.
         11    1    4    4    0    0  0.14489862768E+02  0.25078973047E+02 -0.34716359497E+02  0.45212129223E+02  0.00000000000E+00 0.  1.
</event>
<event>
 8    1  0.3710605E-009  0.1159013E+03  0.7561462E-02  0.1250016E+00
          3   -1    0    0  501    0  0.00000000000E+00  0.00000000000E+00  0.32971869273E+03  0.32971869273E+03  0.00000000000E+00 0. -1.
         -3   -1    0    0    0  501 -0.00000000000E+00 -0.00000000000E+00 -0.54981082346E+02  0.54981082346E+02  0.00000000000E+00 0.  1.
         25    2    1    2    0    0 -0.16653257053E+02 -0.73292811398E+02  0.14630958012E+03  0.20664972324E+03  0.12509375568E+03 0.  0.
         23    2    1    2    0    0  0.16653257053E+02  0.73292811398E+02  0.12842803027E+03  0.17805005184E+03  0.97769600732E+02 0.  0.
          5    1    3    3  502    0  0.48953887690E+02 -0.18483408152E+02  0.24892084711E+02  0.58096538436E+02  0.41800000000E+01 0.  1.
         -5    1    3    3    0  502 -0.65607144744E+02 -0.54809403246E+02  0.12141749541E+03  0.14855318481E+03  0.41800000000E+01 0.  1.
        -11    1    4    4    0    0 -0.19855097034E+02  0.14790477964E+02 -0.72968173547E+01  0.25811366879E+02  0.00000000000E+00 0.  1.
         11    1    4    4    0    0  0.36508354087E+02  0.58502333434E+02  0.13572484762E+03  0.15223868496E+03  0.00000000000E+00 0. -1.
</event>
<event>
 8    1  0.3710605E-009  0.1515641E+03  0.7561462E-02  0.1198564E+00
         -2   -1    0    0    0  501 -0.00000000000E+00  0.00000000000E+00  0.18430030592E+03  0.18430030592E+03  0.00000000000E+00 0.  1.
          2   -1    0    0  501    0  0.00000000000E+00 -0.00000000000E+00 -0.13933727351E+03  0.13933727351E+03  0.00000000000E+00 0. -1.
         25    2    1    2    0    0 -0.57287710541E+01  0.11796879191E+03  0.20366656512E+02  0.17324059420E+03  0.12509215842E+03 0.  0.
         23    2    1    2    0    0  0.57287710541E+01 -0.11796879191E+03  0.24596375899E+02  0.15039698524E+03  0.89804324954E+02 0.  0.
          5    1    3    3  502    0 -0.43347562289E+01 -0.24749591982E+02  0.16602240266E+02  0.30404591704E+02  0.41800000000E+01 0.  1.
         -5    1    3    3    0  502 -0.13940148252E+01  0.14271838389E+03  0.37644162467E+01  0.14283600249E+03  0.41800000000E+01 0.  1.
        -11    1    4    4    0    0  0.22622762917E+02 -0.85968970535E+01  0.31253264191E+02  0.39527997211E+02  0.00000000000E+00 0.  1.
         11    1    4    4    0    0 -0.16893991863E+02 -0.10937189486E+03 -0.66568882919E+01  0.11086898803E+03  0.00000000000E+00 0. -1.
</event>
<event>
 8    1  0.3710605E-009  0.2021165E+03  0.7561462E-02  0.1147965E+00
         -1   -1    0    0    0  501 -0.00000000000E+00  0.00000000000E+00  0.51168043904E+02  0.51168043904E+02  0.00000000000E+00 0.  1.
          1   -1    0    0  501    0  0.00000000000E+00 -0.00000000000E+00 -0.12191249943E+04  0.12191249943E+04  0.00000000000E+00 0. -1.
         25    2    1    2    0    0 -0.78976861048E+01 -0.18598585578E+03 -0.28215604346E+03  0.36043316036E+03  0.12508764221E+03 0.  0.
         23    2    1    2    0    0  0.78976861048E+01  0.18598585578E+03 -0.88580090692E+03  0.90985987783E+03  0.92458848021E+02 0.  0.
          5    1    3    3  502    0 -0.41279968305E+02 -0.10237274854E+03 -0.72237898383E+02  0.13198485440E+03  0.41800000000E+01 0. -1.
         -5    1    3    3    0  502  0.33382282201E+02 -0.83613107233E+02 -0.20991814507E+03  0.22844830596E+03  0.41800000000E+01 0. -1.
        -11    1    4    4    0    0 -0.28990176083E+02  0.14755000876E+03 -0.56510412984E+03  0.58476842677E+03  0.00000000000E+00 0.  1.
         11    1    4    4    0    0  0.36887862187E+02  0.38435847013E+02 -0.32069677709E+03  0.32509145105E+03  0.00000000000E+00 0. -1.
</event>
<event>
 8    1  0.3710605E-009  0.1625514E+03  0.7561462E-02  0.1185846E+00
         -2   -1    0    0    0  501 -0.00000000000E+00  0.00000000000E+00  0.89115646138E+02  0.89115646138E+02  0.00000000000E+00 0.  1.
          2   -1    0    0  501    0  0.00000000000E+00 -0.00000000000E+00 -0.30501545468E+03  0.30501545468E+03  0.00000000000E+00 0. -1.
         25    2    1    2    0    0 -0.57664234832E+02 -0.10954868958E+03 -0.12290626110E+03  0.21465540401E+03  0.12507963098E+03 0.  0.
         23    2    1    2    0    0  0.57664234832E+02  0.10954868958E+03 -0.92993547441E+02  0.17947569681E+03  0.90761481421E+02 0.  0.
          5    1    3    3  502    0  0.35806810211E+02 -0.56085949182E+02 -0.61058903667E+02  0.90406987950E+02  0.41800000000E+01 0. -1.
         -5    1    3    3    0  502 -0.93471045043E+02 -0.53462740402E+02 -0.61847357433E+02  0.12424841606E+03  0.41800000000E+01 0. -1.
        -11    1    4    4    0    0 -0.88593275935E+01  0.75350386580E+02 -0.63985264112E+02  0.99248589243E+02  0.00000000000E+00 0. -1.
         11    1    4    4    0    0  0.66523562426E+02  0.34198303003E+02 -0.29008283329E+02  0.80227107563E+02  0.00000000000E+00 0.  1.
</event>
<event>
 8    1  0.3710605E-009  0.1201898E+03  0.7561462E-02  0.1242784E+00
          1   -1    0    0  501    0  0.00000000000E+00  0.00000000000E+00  0.47814658020E+03  0.47814658020E+03  0.00000000000E+00 0. -1.
         -1   -1    0    0    0  501 -0.00000000000E+00 -0.00000000000E+00 -0.43001450182E+02  0.43001450182E+02  0.00000000000E+00 0.  1.
         25    2    1    2    0    0  0.83680690300E+02 -0.34571550310E+02  0.28359569692E+03  0.32290932704E+03  0.12508502772E+03 0.  0.
         23    2    1    2    0    0 -0.83680690300E+02  0.34571550310E+02  0.15154943311E+03  0.19823870335E+03  0.90187043473E+02 0.  0.
          5    1    3    3  502    0  0.27506812474E+01 -0.39879183867E+02  0.15996236792E+02  0.43258150038E+02  0.41800000000E+01 0.  1.
         -5    1    3    3    0  502  0.80930009052E+02  0.53076335570E+01  0.26759946012E+03  0.27965117700E+03  0.41800000000E+01 0.  1.
        -11    1    4    4    0    0  0.84233424895E+01  0.24994325688E+02  0.82728419213E+01  0.27642520304E+02  0.00000000000E+00 0.  1.
         11    1    4    4    0    0 -0.92104032789E+02  0.95772246217E+01  0.14327659118E+03  0.17059618304E+03  0.00000000000E+00 0. -1.
</event>
<event>
 8    1  0.3710605E-009  0.9464514E+02  0.7561462E-02  0.1291977E+00
         -2   -1    0    0    0  501 -0.00000000000E+00  0.00000000000E+00  0.12727338337E+03  0.12727338337E+03  0.00000000000E+00 0.  1.
          2   -1    0    0  501    0  0.00000000000E+00 -0.00000000000E+00 -0.16348669607E+03  0.16348669607E+03  0.00000000000E+00 0. -1.
         25    2    1    2    0    0  0.98065679894E+01 -0.21452794886E+01  0.74867709532E+02  0.14612736756E+03  0.12508901878E+03 0.  0.
         23    2    1    2    0    0 -0.98065679894E+01  0.21452794886E+01 -0.11108102223E+03  0.14463271188E+03  0.92080708329E+02 0.  0.
          5    1    3    3  502    0  0.57610321043E+02 -0.13561692819E+02  0.35823266681E+01  0.59440508638E+02  0.41800000000E+01 0. -1.
         -5    1    3    3    0  502 -0.47803753053E+02  0.11416413330E+02  0.71285382863E+02  0.86686858919E+02  0.41800000000E+01 0. -1.
        -11    1    4    4    0    0 -0.20243247954E+02  0.38126871795E+02 -0.94040096486E+02  0.10347457266E+03  0.00000000000E+00 0. -1.
         11    1    4    4    0    0  0.10436679965E+02 -0.35981592306E+02 -0.17040925741E+02  0.41158139215E+02  0.00000000000E+00 0.  1.
</event>
<event>
 8    1  0.3710605E-009  0.8979453E+02  0.7561462E-02  0.1303350E+00
          2   -1    0    0  501    0  0.00000000000E+00  0.00000000000E+00  0.40478285256E+03  0.40478285256E+03  0.00000000000E+00 0. -1.
         -2   -1    0    0    0  501 -0.00000000000E+00 -0.00000000000E+00 -0.33803982335E+02  0.33803982335E+02  0.00000000000E+00 0.  1.
         25    2    1    2    0    0 -0.39397453446E+02  0.17771210831E+02  0.19737859958E+03  0.23764218253E+03  0.12509004786E+03 0.  0.
         23    2    1    2    0    0  0.39397453446E+02 -0.17771210831E+02  0.17360027065E+03  0.20094465237E+03  0.91508054684E+02 0.  0.
          5    1    3    3  502    0 -0.54128433779E+02  0.27023089291E+02  0.27094374428E+02  0.66420721344E+02  0.41800000000E+01 0. -1.
         -5    1    3    3    0  502  0.14730980333E+02 -0.92518784595E+01  0.17028422515E+03  0.17122146119E+03  0.41800000000E+01 0. -1.
        -11    1    4    4    0    0  0.59169995883E+02  0.16554356432E+02  0.10022697892E+03  0.11756097326E+03  0.00000000000E+00 0.  1.
         11    1    4    4    0    0 -0.19772542437E+02 -0.34325567264E+02  0.73373291731E+02  0.83383679110E+02  0.00000000000E+00 0. -1.
</event>
<event>
 8    1  0.3710605E-009  0.1274000E+03  0.7561462E-02  0.1231365E+00
         -2   -1    0    0    0  501 -0.00000000000E+00  0.00000000000E+00  0.24838271622E+02  0.24838271622E+02  0.00000000000E+00 0.  1.
          2   -1    0    0  501    0  0.00000000000E+00 -0.00000000000E+00 -0.75157380944E+03  0.75157380944E+03  0.00000000000E+00 0. -1.
         25    2    1    2    0    0  0.34903669356E+02 -0.57665566877E+02 -0.26046202324E+03  0.29669777807E+03  0.12508206196E+03 0.  0.
         23    2    1    2    0    0 -0.34903669356E+02  0.57665566877E+02 -0.46627351457E+03  0.47971430299E+03  0.90394902292E+02 0.  0.
          5    1    3    3  502    0 -0.24885408471E+02 -0.75436738077E+02 -0.14286777826E+03  0.16351959966E+03  0.41800000000E+01 0. -1.
         -5    1    3    3    0  502  0.59789077828E+02  0.17771171200E+02 -0.11759424498E+03  0.13317817841E+03  0.41800000000E+01 0. -1.
        -11    1    4    4    0    0  0.13806010457E+02  0.62299582384E+02 -0.26831029680E+03  0.27579387096E+03  0.00000000000E+00 0.  1.
         11    1    4    4    0    0 -0.48709679814E+02 -0.46340155068E+01 -0.19796321777E+03  0.20392043203E+03  0.00000000000E+00 0. -1.
</event>
<event>
 8    1  0.3710605E-009  0.1114361E+03  0.7561462E-02  0.1257933E+00
         -2   -1    0    0    0  501 -0.00000000000E+00  0.00000000000E+00  0.77026132328E+02  0.77026132328E+02  0.00000000000E+00 0.  1.
          2   -1    0    0  501    0  0.00000000000E+00 -0.00000000000E+00 -0.28829150289E+03  0.28829150289E+03  0.00000000000E+00 0. -1.
         25    2    1    2    0    0  0.37199015636E+02 -0.68214879565E+02 -0.19390802240E+03  0.24347617774E+03  0.12507314427E+03 0.  0.
         23    2    1    2    0    0 -0.37199015636E+02  0.68214879565E+02 -0.17357348163E+02  0.12184145748E+03  0.92233544155E+02 0.  0.
          5    1    3    3  502    0  0.67545841998E+02 -0.66689608146E+02 -0.19016188561E+03  0.21257695017E+03  0.41800000000E+01 0.  1.
         -5    1    3    3    0  502 -0.30346826362E+02 -0.15252714199E+01 -0.37461367865E+01  0.30899227563E+02  0.41800000000E+01 0.  1.
        -11    1    4    4    0    0 -0.38964019455E+01  0.63422903686E+02  0.24531473877E+02  0.68113433849E+02  0.00000000000E+00 0.  1.
         11    1    4    4    0    0 -0.33302613690E+02  0.47919758793E+01 -0.41888822041E+02  0.53728023632E+02  0.00000000000E+00 0. -1.
</event>
<event>
 8    1  0.3710605E-009  0.1258820E+03  0.7561462E-02  0.1233697E+00
          1   -1    0    0  501    0  0.00000000000E+00  0.00000000000E+00  0.47253291322E+03  0.47253291322E+03  0.00000000000E+00 0. -1.
         -1   -1    0    0    0  501 -0.00000000000E+00 -0.00000000000E+00 -0.44121685721E+02  0.44121685721E+02  0.00000000000E+00 0.  1.
         25    2    1    2    0    0  0.60234000329E+02  0.38514487089E+02  0.34829125754E+03  0.37691547918E+03  0.12508788053E+03 0.  0.
         23    2    1    2    0    0 -0.60234000329E+02 -0.38514487089E+02  0.80119969966E+02  0.13973911977E+03  0.89422097349E+02 0.  0.
          5    1    3    3  502    0 -0.34375753583E+02  0.22398158653E+02  0.16380541194E+03  0.16891730322E+03  0.41800000000E+01 0. -1.
         -5    1    3    3    0  502  0.94609753912E+02  0.16116328436E+02  0.18448584559E+03  0.20799817596E+03  0.41800000000E+01 0. -1.
        -11    1    4    4    0    0  0.17482607151E+02  0.12502798349E+02  0.16313808511E+02  0.26983362790E+02  0.00000000000E+00 0.  1.
         11    1    4    4    0    0 -0.77716607480E+02 -0.51017285438E+02  0.63806161455E+02  0.11275575698E+03  0.00000000000E+00 0. -1.
</event>
<event>
 8    1  0.3710605E-009  0.1988658E+03  0.7561462E-02  0.1150699E+00
          1   -1    0    0  501    0  0.00000000000E+00  0.00000000000E+00  0.20858928276E+03  0.20858928276E+03  0.00000000000E+00 0. -1.
         -1   -1    0    0    0  501 -0.00000000000E+00 -0.00000000000E+00 -0.22649054154E+03  0.22649054154E+03  0.00000000000E+00 0.  1.
         25    2    1    2    0    0  0.77858809602E+02  0.15186537152E+03 -0.87534614153E+02  0.22898914993E+03  0.12509451150E+03 0.  0.
         23    2    1    2    0    0 -0.77858809602E+02 -0.15186537152E+03  0.69633355375E+02  0.20609067437E+03  0.92192605882E+02 0.  0.
          5    1    3    3  502    0  0.16010683584E+02 -0.17294755810E+02 -0.32978829559E+02  0.40749554187E+02  0.41800000000E+01 0.  1.
         -5    1    3    3    0  502  0.61848126018E+02  0.16916012733E+03 -0.54555784594E+02  0.18823959574E+03  0.41800000000E+01 0.  1.
        -11    1    4    4    0    0 -0.97765506282E+02 -0.10929626856E+03  0.47476722239E+02  0.15413567949E+03  0.00000000000E+00 0.  1.
         11    1    4    4    0    0  0.19906696680E+02 -0.42569102969E+02  0.22156633136E+02  0.51954994872E+02  0.00000000000E+00 0. -1.
</event>
<event>
 8    1  0.3710605E-009  0.8683834E+02  0.7561462E-02  0.1310694E+00
         -2   -1    0    0    0  501 -0.00000000000E+00  0.00000000000E+00  0.15588955463E+03  0.15588955463E+03  0.00000000000E+00 0. -1.
          2   -1    0    0  501    0  0.00000000000E+00 -0.00000000000E+00 -0.84688368288E+02  0.84688368288E+02  0.00000000000E+00 0.  1.
         25    2    1    2    0    0  0.18678882369E+02  0.89356960217E+01  0.70057927191E+02  0.14485952486E+03  0.12508965373E+03 0.  0.
         23    2    1    2    0    0 -0.18678882369E+02 -0.89356960217E+01  0.11432591498E+01  0.95718398057E+02  0.93444943016E+02 0.  0.
          5    1    3    3  502    0  0.43380524505E+01  0.49866873890E+02  0.85054837338E+02  0.98779155520E+02  0.41800000000E+01 0.  1.
         -5    1    3    3    0  502  0.14340829918E+02 -0.40931177869E+02 -0.14996910147E+02  0.46080369339E+02  0.41800000000E+01 0.  1.
        -11    1    4    4    0    0 -0.11755386401E+02 -0.43276029325E+02 -0.25608107168E+02  0.51640865371E+02  0.00000000000E+00 0.  1.
         11    1    4    4    0    0 -0.69234959678E+01  0.34340333303E+02  0.26751366318E+02  0.44077532686E+02  0.00000000000E+00 0. -1.
</event>
<event>
 8    1  0.3710605E-009  0.1296287E+03  0.7561462E-02  0.1228008E+00
         -1   -1    0    0    0  501 -0.00000000000E+00  0.00000000000E+00  0.83633937177E+02  0.83633937177E+02  0.00000000000E+00 0.  1.
          1   -1    0    0  501    0  0.00000000000E+00 -0.00000000000E+00 -0.24736188301E+03  0.24736188301E+03  0.00000000000E+00 0. -1.
         25    2    1    2    0    0  0.40131610519E+02 -0.85099023247E+02 -0.83131658536E+02  0.17723183409E+03  0.12509140835E+03 0.  0.
         23    2    1    2    0    0 -0.40131610519E+02  0.85099023247E+02 -0.80596287301E+02  0.15376398610E+03  0.91078054300E+02 0.  0.
          5    1    3    3  502    0 -0.22218795016E+02 -0.68463667995E+02 -0.24124294584E+00  0.72100480480E+02  0.41800000000E+01 0.  1.
         -5    1    3    3    0  502  0.62350405535E+02 -0.16635355251E+02 -0.82890415590E+02  0.10513135361E+03  0.41800000000E+01 0.  1.
        -11    1    4    4    0    0 -0.13238096877E+02  0.93409062009E+02 -0.35898564076E+02  0.10094160182E+03  0.00000000000E+00 0.  1.
         11    1    4    4    0    0 -0.26893513642E+02 -0.83100387628E+01 -0.44697723225E+02  0.52822384287E+02  0.00000000000E+00 0. -1.
</event>
<event>
 8    1  0.3710605E-009  0.1048964E+03  0.7561462E-02  0.1270324E+00
          1   -1    0    0  501    0  0.00000000000E+00  0.00000000000E+00  0.35496101648E+03  0.35496101648E+03  0.00000000000E+00 0. -1.
         -1   -1    0    0    0  501 -0.00000000000E+00 -0.00000000000E+00 -0.58490591560E+02  0.58490591560E+02  0.00000000000E+00 0.  1.
         25    2    1    2    0    0 -0.56576694150E+02 -0.62900681197E+02  0.22130742155E+03  0.26792145101E+03  0.12509001183E+03 0.  0.
         23    2    1    2    0    0  0.56576694150E+02  0.62900681197E+02  0.75163003367E+02  0.14553015703E+03  0.91499352536E+02 0.  0.
          5    1    3    3  502    0 -0.49284852876E+02 -0.47499789669E+02  0.23554610540E+03  0.24532563443E+03  0.41800000000E+01 0.  1.
         -5    1    3    3    0  502 -0.72918412739E+01 -0.15400891528E+02 -0.14238683846E+02  0.22595816575E+02  0.41800000000E+01 0.  1.
        -11    1    4    4    0    0  0.41724965537E+02  0.86356911893E+02  0.50483709793E+02  0.10838401144E+03  0.00000000000E+00 0.  1.
         11    1    4    4    0    0  0.14851728613E+02 -0.23456230696E+02  0.24679293574E+02  0.37146145595E+02  0.00000000000E+00 0. -1.
</event>
<event>
 8    1  0.3710605E-009  0.1259101E+03  0.7561462E-02  0.1233654E+00
          2   -1    0    0  501    0  0.00000000000E+00  0.00000000000E+00  0.23703503161E+03  0.23703503161E+03  0.00000000000E+00 0. -1.
         -2   -1    0    0    0  501 -0.00000000000E+00 -0.00000000000E+00 -0.88936098093E+02  0.88936098093E+02  0.00000000000E+00 0.  1.
         25    2    1    2    0    0 -0.43070341255E+02  0.84466134283E+02  0.61557399838E+02  0.16860732255E+03  0.12509809594E+03 0.  0.
         23    2    1    2    0    0  0.43070341255E+02 -0.84466134283E+02  0.86541533682E+02  0.15736380715E+03  0.91018397109E+02 0.  0.
          5    1    3    3  502    0 -0.20871646808E+02  0.97562993146E+02  0.86785129290E+02  0.13230001639E+03  0.41800000000E+01 0.  1.
         -5    1    3    3    0  502 -0.22198694447E+02 -0.13096858863E+02 -0.25227729453E+02  0.36307306160E+02  0.41800000000E+01 0.  1.
        -11    1    4    4    0    0 -0.24075857264E+02 -0.11467457749E+02  0.39326175212E+02  0.47515234894E+02  0.00000000000E+00 0. -1.
         11    1    4    4    0    0  0.67146198520E+02 -0.72998676534E+02  0.47215358470E+02  0.10984857226E+03  0.00000000000E+00 0.  1.
</event>
<event>
 8    1  0.3710605E-009  0.2018723E+03  0.7561462E-02  0.1148169E+00
         -2   -1    0    0    0  501 -0.00000000000E+00  0.00000000000E+00  0.28810281480E+02  0.28810281480E+02  0.00000000000E+00 0.  1.
          2   -1    0    0  501    0  0.00000000000E+00 -0.00000000000E+00 -0.15724177054E+04  0.15724177054E+04  0.00000000000E+00 0. -1.
         25    2    1    2    0    0 -0.40208251791E+02 -0.17022318324E+03 -0.97912034693E+03  0.10024553905E+04  0.12509004944E+03 0.  0.
         23    2    1    2    0    0  0.40208251791E+02  0.17022318324E+03 -0.56448707697E+03  0.59877259639E+03  0.96386339823E+02 0.  0.
          5    1    3    3  502    0 -0.59351981466E+02 -0.17618016274E+03 -0.76161130159E+03  0.78398428209E+03  0.41800000000E+01 0.  1.
         -5    1    3    3    0  502  0.19143729675E+02  0.59569794974E+01 -0.21750904534E+03  0.21847110838E+03  0.41800000000E+01 0.  1.
        -11    1    4    4    0    0 -0.28039094588E+02  0.75671516613E+02 -0.27761039890E+03  0.28910189005E+03  0.00000000000E+00 0.  1.
         11    1    4    4    0    0  0.68247346379E+02  0.94551666630E+02 -0.28687667806E+03  0.30967070634E+03  0.00000000000E+00 0. -1.
</event>
<event>
 8    1  0.3710605E-009  0.1526790E+03  0.7561462E-02  0.1197219E+00
          2   -1    0    0  501    0  0.00000000000E+00  0.00000000000E+00  0.43310540444E+02  0.43310540444E+02  0.00000000000E+00 0. -1.
         -2   -1    0    0    0  501 -0.00000000000E+00 -0.00000000000E+00 -0.72513340221E+03  0.72513340221E+03  0.00000000000E+00 0.  1.
         25    2    1    2    0    0 -0.12194015661E+02 -0.12671430948E+03 -0.49250076433E+03  0.52384349276E+03  0.12509912788E+03 0.  0.
         23    2    1    2    0    0  0.12194015661E+02  0.12671430948E+03 -0.18932209744E+03  0.24460044990E+03  0.88211752432E+02 0.  0.
          5    1    3    3  502    0 -0.95436884393E+01  0.11046152825E+02 -0.19904450427E+03  0.19962286081E+03  0.41800000000E+01 0. -1.
         -5    1    3    3    0  502 -0.26503272216E+01 -0.13776046230E+03 -0.29345626006E+03  0.32422063194E+03  0.41800000000E+01 0. -1.
        -11    1    4    4    0    0 -0.34772106808E+02  0.35295819702E+02 -0.41900166365E+02  0.64888506237E+02  0.00000000000E+00 0. -1.
         11    1    4    4    0    0  0.46966122469E+02  0.91418489776E+02 -0.14742193107E+03  0.17971194366E+03  0.00000000000E+00 0.  1.
</event>
<event>
 8    1  0.3710605E-009  0.1097554E+03  0.7561462E-02  0.1261023E+00
          4   -1    0    0  501    0  0.00000000000E+00  0.00000000000E+00  0.12615358483E+03  0.12615358483E+03  0.00000000000E+00 0. -1.
         -4   -1    0    0    0  501 -0.00000000000E+00 -0.00000000000E+00 -0.14961173449E+03  0.14961173449E+03  0.00000000000E+00 0.  1.
         25    2    1    2    0    0  0.75743808333E+02  0.29641914866E+02  0.86085787007E+01  0.14945631467E+03  0.12508922716E+03 0.  0.
         23    2    1    2    0    0 -0.75743808333E+02 -0.29641914866E+02 -0.32066728356E+02  0.12630900464E+03  0.91158773407E+02 0.  0.
          5    1    3    3  502    0  0.30158223276E+02  0.41811892742E+02  0.60233805328E+02  0.79393554588E+02  0.41800000000E+01 0. -1.
         -5    1    3    3    0  502  0.45585585057E+02 -0.12169977876E+02 -0.51625226627E+02  0.70062760085E+02  0.41800000000E+01 0. -1.
        -11    1    4    4    0    0 -0.74105214849E+02 -0.56703228881E+02 -0.15646396667E+02  0.94613153218E+02  0.00000000000E+00 0. -1.
         11    1    4    4    0    0 -0.16385934839E+01  0.27061314015E+02 -0.16420331689E+02  0.31695851426E+02  0.00000000000E+00 0.  1.
</event>
<event>
 8    1  0.3710605E-009  0.1001460E+03  0.7561462E-02  0.1279989E+00
         -2   -1    0    0    0  501 -0.00000000000E+00  0.00000000000E+00  0.14971242649E+02  0.14971242649E+02  0.00000000000E+00 0.  1.
          2   -1    0    0  501    0  0.00000000000E+00 -0.00000000000E+00 -0.10122278427E+04  0.10122278427E+04  0.00000000000E+00 0. -1.
         25    2    1    2    0    0  0.29472948266E+02 -0.13193627227E+02 -0.75832805379E+03  0.76925411272E+03  0.12509087213E+03 0.  0.
         23    2    1    2    0    0 -0.29472948266E+02  0.13193627227E+02 -0.23892854629E+03  0.25794497266E+03  0.91684416392E+02 0.  0.
          5    1    3    3  502    0 -0.36492327205E+02 -0.75295875081E+01 -0.53419856865E+03  0.53551280823E+03  0.41800000000E+01 0. -1.
         -5    1    3    3    0  502  0.65965275471E+02 -0.56640397193E+01 -0.22412948515E+03  0.23374130449E+03  0.41800000000E+01 0. -1.
        -11    1    4    4    0    0 -0.25901185796E+02 -0.37534410056E+02 -0.97123025585E+02  0.10729671692E+03  0.00000000000E+00 0.  1.
         11    1    4    4    0    0 -0.35717624701E+01  0.50728037283E+02 -0.14180552070E+03  0.15064825573E+03  0.00000000000E+00 0. -1.
</event>
<event>
 8    1  0.3710605E-009  0.1290621E+03  0.7561462E-02  0.1228854E+00
         -1   -1    0    0    0  501 -0.00000000000E+00  0.00000000000E+00  0.58803776905E+03  0.58803776905E+03  0.00000000000E+00 0.  1.
          1   -1    0    0  501    0  0.00000000000E+00 -0.00000000000E+00 -0.60005511391E+02  0.60005511391E+02  0.00000000000E+00 0. -1.
         25    2    1    2    0    0  0.78395221299E+02 -0.86415711045E+02  0.10511638924E+03  0.20077582609E+03  0.12509193106E+03 0.  0.
         23    2    1    2    0    0 -0.78395221299E+02  0.86415711045E+02  0.42291586842E+03  0.44726745435E+03  0.87045149929E+02 0.  0.
          5    1    3    3  502    0  0.52559670637E+02 -0.57278290336E+02  0.13201678299E+03  0.15326194868E+03  0.41800000000E+01 0.  1.
         -5    1    3    3    0  502  0.25835550661E+02 -0.29137420709E+02 -0.26900393744E+02  0.47513877416E+02  0.41800000000E+01 0.  1.
        -11    1    4    4    0    0 -0.64097313748E+01 -0.15246953546E+02  0.22515690271E+02  0.27937619031E+02  0.00000000000E+00 0. -1.
         11    1    4    4    0    0 -0.71985489924E+02  0.10166266459E+03  0.40040017814E+03  0.41932983532E+03  0.00000000000E+00 0.  1.
</event>
<event>
 8    1  0.3710605E-009  0.6400097E+02  0.7561462E-02  0.1381769E+00
         -2   -1    0    0    0  501 -0.00000000000E+00  0.00000000000E+00  0.48389195734E+03  0.48389195734E+03  0.00000000000E+00 0.  1.
          2   -1    0    0  501    0  0.00000000000E+00 -0.00000000000E+00 -0.26994438162E+02  0.26994438162E+02  0.00000000000E+00 0. -1.
         25    2    1    2    0    0  0.41923110233E+01 -0.15112618426E+02  0.31536563807E+03  0.33963232647E+03  0.12509462340E+03 0.  0.
         23    2    1    2    0    0 -0.41923110233E+01  0.15112618426E+02  0.14153188111E+03  0.17125406903E+03  0.95135251519E+02 0.  0.
          5    1    3    3  502    0 -0.33843155133E+02 -0.20684112557E+02  0.29144995783E+03  0.29416618089E+03  0.41800000000E+01 0.  1.
         -5    1    3    3    0  502  0.38035466156E+02  0.55714941307E+01  0.23915680236E+02  0.45466145578E+02  0.41800000000E+01 0.  1.
        -11    1    4    4    0    0  0.20910574824E+02  0.12122875883E+02  0.14385111565E+03  0.14586761029E+03  0.00000000000E+00 0.  1.
         11    1    4    4    0    0 -0.25102885848E+02  0.29897425435E+01 -0.23192345400E+01  0.25386458737E+02  0.00000000000E+00 0. -1.
</event>
<event>
 8    1  0.3710605E-009  0.2573453E+03  0.7561462E-02  0.1108749E+00
          1   -1    0    0  501    0  0.00000000000E+00  0.00000000000E+00  0.20549199167E+03  0.20549199167E+03  0.00000000000E+00 0.  1.
         -1   -1    0    0    0  501 -0.00000000000E+00 -0.00000000000E+00 -0.36986178201E+03  0.36986178201E+03  0.00000000000E+00 0. -1.
         25    2    1    2    0    0  0.23152780593E+03 -0.10134220173E+03 -0.74679452631E+02  0.29171963096E+03  0.12509178898E+03 0.  0.
         23    2    1    2    0    0 -0.23152780593E+03  0.10134220173E+03 -0.89690337714E+02  0.28363414272E+03  0.92350438350E+02 0.  0.
          5    1    3    3  502    0  0.13546937124E+02 -0.26331932580E+02  0.26476033218E+02  0.39941744000E+02  0.41800000000E+01 0.  1.
         -5    1    3    3    0  502  0.21798086881E+03 -0.75010269153E+02 -0.10115548585E+03  0.25177788696E+03  0.41800000000E+01 0.  1.
        -11    1    4    4    0    0 -0.14006122788E+03  0.46527592852E+02 -0.53603819651E+01  0.14768445466E+03  0.00000000000E+00 0.  1.
         11    1    4    4    0    0 -0.91466578051E+02  0.54814608880E+02 -0.84329955749E+02  0.13594968806E+03  0.00000000000E+00 0. -1.
</event>
<event>
 8    1  0.3710605E-009  0.1157704E+03  0.7561462E-02  0.1250242E+00
         -2   -1    0    0    0  501 -0.00000000000E+00  0.00000000000E+00  0.80470307055E+02  0.80470307055E+02  0.00000000000E+00 0.  1.
          2   -1    0    0  501    0  0.00000000000E+00 -0.00000000000E+00 -0.17129773804E+03  0.17129773804E+03  0.00000000000E+00 0. -1.
         25    2    1    2    0    0 -0.26497770311E+02  0.31739346442E+02 -0.64995400149E+02  0.14691354962E+03  0.12509864538E+03 0.  0.
         23    2    1    2    0    0  0.26497770311E+02 -0.31739346442E+02 -0.25832030834E+02  0.10485449547E+03  0.92831317239E+02 0.  0.
          5    1    3    3  502    0 -0.52300407761E+02 -0.31838658409E+02 -0.42241179645E+02  0.74503842042E+02  0.41800000000E+01 0.  1.
         -5    1    3    3    0  502  0.25802637450E+02  0.63578004852E+02 -0.22754220504E+02  0.72409707575E+02  0.41800000000E+01 0.  1.
        -11    1    4    4    0    0  0.50084098792E+02 -0.50623974626E+02 -0.21089662062E+02  0.74269627740E+02  0.00000000000E+00 0. -1.
         11    1    4    4    0    0 -0.23586328481E+02  0.18884628183E+02 -0.47423687717E+01  0.30584867735E+02  0.00000000000E+00 0.  1.
</event>
<event>
 8    1  0.3710605E-009  0.8773228E+02  0.7561462E-02  0.1308438E+00
          2   -1    0    0  501    0  0.00000000000E+00  0.00000000000E+00  0.15708802154E+03  0.15708802154E+03  0.00000000000E+00 0. -1.
         -2   -1    0    0    0  501 -0.00000000000E+00 -0.00000000000E+00 -0.87682787890E+02  0.87682787890E+02  0.00000000000E+00 0.  1.
         25    2    1    2    0    0  0.14045132924E+02 -0.43232831377E+02  0.44641653297E+02  0.14038098226E+03  0.12509036535E+03 0.  0.
         23    2    1    2    0    0 -0.14045132924E+02  0.43232831377E+02  0.24763580349E+02  0.10438982716E+03  0.90651296935E+02 0.  0.
          5    1    3    3  502    0  0.34813285273E+02 -0.78989573219E+02  0.47691560897E+02  0.98708028497E+02  0.41800000000E+01 0. -1.
         -5    1    3    3    0  502 -0.20768152349E+02  0.35756741842E+02 -0.30499076005E+01  0.41672953766E+02  0.41800000000E+01 0. -1.
        -11    1    4    4    0    0 -0.49446673336E+01  0.34553376903E+02  0.58646682942E+02  0.68248216171E+02  0.00000000000E+00 0. -1.
         11    1    4    4    0    0 -0.91004655901E+01  0.86794544740E+01 -0.33883102592E+02  0.36141610994E+02  0.00000000000E+00 0.  1.
</event>
<event>
 8    1  0.3710605E-009  0.1312348E+03  0.7561462E-02  0.1225635E+00
          2   -1    0    0  501    0  0.00000000000E+00  0.00000000000E+00  0.10491276085E+03  0.10491276085E+03  0.00000000000E+00 0. -1.
         -2   -1    0    0    0  501 -0.00000000000E+00 -0.00000000000E+00 -0.30234829346E+03  0.30234829346E+03  0.00000000000E+00 0.  1.
         25    2    1    2    0    0  0.55737915656E+02 -0.80002194210E+02 -0.21936973219E+03  0.27069868013E+03  0.12509048605E+03 0.  0.
         23    2    1    2    0    0 -0.55737915656E+02  0.80002194210E+02  0.21934199579E+02  0.13656237418E+03  0.93065066546E+02 0.  0.
          5    1    3    3  502    0 -0.36347761800E+01  0.31575994833E+02 -0.40903598110E+02  0.51969527474E+02  0.41800000000E+01 0. -1.
         -5    1    3    3    0  502  0.59372691836E+02 -0.11157818904E+03 -0.17846613408E+03  0.21872915265E+03  0.41800000000E+01 0. -1.
        -11    1    4    4    0    0 -0.20529356184E+02  0.60093188910E+02 -0.30412194127E+02  0.70409852793E+02  0.00000000000E+00 0.  1.
         11    1    4    4    0    0 -0.35208559471E+02  0.19909005300E+02  0.52346393707E+02  0.66152521390E+02  0.00000000000E+00 0. -1.
</event>
<event>
 8    1  0.3710605E-009  0.1404474E+03  0.7561462E-02  0.1212728E+00
          1   -1    0    0  501    0  0.00000000000E+00  0.00000000000E+00  0.17085173046E+03  0.17085173046E+03  0.00000000000E+00 0. -1.
         -1   -1    0    0    0  501 -0.00000000000E+00 -0.00000000000E+00 -0.13152563694E+03  0.13152563694E+03  0.00000000000E+00 0.  1.
         25    2    1    2    0    0  0.10086301069E+03 -0.14269261828E+01  0.69095761660E+01  0.16084433885E+03  0.12509107104E+03 0.  0.
         23    2    1    2    0    0 -0.10086301069E+03  0.14269261828E+01  0.32416517357E+02  0.14153302854E+03  0.93837010430E+02 0.  0.
          5    1    3    3  502    0  0.47304052046E+02  0.50347188303E+02  0.39207716721E+02  0.79543888266E+02  0.41800000000E+01 0.  1.
         -5    1    3    3    0  502  0.53558958647E+02 -0.51774114486E+02 -0.32298140555E+02  0.81300450586E+02  0.41800000000E+01 0.  1.
        -11    1    4    4    0    0  0.72796890884E+01 -0.24759455180E+02  0.63557525481E+00  0.25815275515E+02  0.00000000000E+00 0.  1.
         11    1    4    4    0    0 -0.10814269978E+03  0.26186381362E+02  0.31780942102E+02  0.11571775303E+03  0.00000000000E+00 0. -1.
</event>
<event>
 8    1  0.3710605E-009  0.8820701E+02  0.7561462E-02  0.1307253E+00
          3   -1    0    0  501    0  0.00000000000E+00  0.00000000000E+00  0.77733712994E+02  0.77733712994E+02  0.00000000000E+00 0. -1.
         -3   -1    0    0    0  501 -0.00000000000E+00 -0.00000000000E+00 -0.17043741044E+03  0.17043741044E+03  0.00000000000E+00 0.  1.
         25    2    1    2    0    0 -0.91395010185E+01  0.11241595321E+01 -0.91763185547E+02  0.15541416381E+03  0.12509310883E+03 0.  0.
         23    2    1    2    0    0  0.91395010185E+01 -0.11241595321E+01 -0.94051190352E+00  0.92756959633E+02  0.92293958546E+02 0.  0.
          5    1    3    3  502    0  0.55927751006E+02 -0.93337430703E+01 -0.27069454948E+02  0.62970309539E+02  0.41800000000E+01 0.  1.
         -5    1    3    3    0  502 -0.65067252024E+02  0.10457902602E+02 -0.64693730599E+02  0.92443854266E+02  0.41800000000E+01 0.  1.
        -11    1    4    4    0    0 -0.21731389952E+02  0.43746975347E+01  0.37247454439E+02  0.43344713056E+02  0.00000000000E+00 0. -1.
         11    1    4    4    0    0  0.30870890970E+02 -0.54988570668E+01 -0.38187966343E+02  0.49412246576E+02  0.00000000000E+00 0.  1.
</event>
<event>
 8    1  0.3710605E-009  0.8744613E+02  0.7561462E-02  0.1309157E+00
          2   -1    0    0  501    0  0.00000000000E+00  0.00000000000E+00  0.32847881379E+03  0.32847881379E+03  0.00000000000E+00 0. -1.
         -2   -1    0    0    0  501 -0.00000000000E+00 -0.00000000000E+00 -0.49456710151E+02  0.49456710151E+02  0.00000000000E+00 0.  1.
         25    2    1    2    0    0  0.44008382324E+02  0.43944230576E+02  0.11591813328E+03  0.18152878748E+03  0.12509138237E+03 0.  0.
         23    2    1    2    0    0 -0.44008382324E+02 -0.43944230576E+02  0.16310397036E+03  0.19640673646E+03  0.90027039639E+02 0.  0.
          5    1    3    3  502    0  0.41251589967E+01  0.52462509128E+02  0.12827307159E+03  0.13871115708E+03  0.41800000000E+01 0. -1.
         -5    1    3    3    0  502  0.39883223328E+02 -0.85182785518E+01 -0.12354938315E+02  0.42817630402E+02  0.41800000000E+01 0. -1.
        -11    1    4    4    0    0 -0.45860898566E-01 -0.36520761557E+02  0.11357510309E+02  0.38246060821E+02  0.00000000000E+00 0.  1.
         11    1    4    4    0    0 -0.43962521426E+02 -0.74234690189E+01  0.15174646005E+03  0.15816067564E+03  0.00000000000E+00 0. -1.
</event>
<event>
 8    1  0.3710605E-009  0.9787161E+02  0.7561462E-02  0.1284836E+00
          1   -1    0    0  501    0  0.00000000000E+00  0.00000000000E+00  0.10296807416E+03  0.10296807416E+03  0.00000000000E+00 0. -1.
         -1   -1    0    0    0  501 -0.00000000000E+00 -0.00000000000E+00 -0.14018608563E+03  0.14018608563E+03  0.00000000000E+00 0.  1.
         25    2    1    2    0    0  0.31276795880E+02 -0.18611996844E+02 -0.59087961100E+02  0.14305102305E+03  0.12509022209E+03 0.  0.
         23    2    1    2    0    0 -0.31276795880E+02  0.18611996844E+02  0.21869949628E+02  0.10010313675E+03  0.90651524546E+02 0.  0.
          5    1    3    3  502    0 -0.12624077220E+02 -0.53089349229E+02  0.83989094235E+01  0.55370212269E+02  0.41800000000E+01 0. -1.
         -5    1    3    3    0  502  0.43900873100E+02  0.34477352385E+02 -0.67486870524E+02  0.87680810783E+02  0.41800000000E+01 0. -1.
        -11    1    4    4    0    0 -0.19589214069E+02 -0.29562924252E+02 -0.14813752520E+02  0.38433722977E+02  0.00000000000E+00 0.  1.
         11    1    4    4    0    0 -0.11687581811E+02  0.48174921096E+02  0.36683702148E+02  0.61669413768E+02  0.00000000000E+00 0. -1.
</event>
<event>
 8    1  0.3710605E-009  0.2931945E+03  0.7561462E-02  0.1088693E+00
         -2   -1    0    0    0  501 -0.00000000000E+00  0.00000000000E+00  0.49145290288E+02  0.49145290288E+02  0.00000000000E+00 0. -1.
          2   -1    0    0  501    0  0.00000000000E+00 -0.00000000000E+00 -0.22584032773E+04  0.22584032773E+04  0.00000000000E+00 0.  1.
         25    2    1    2    0    0  0.62837806240E+02  0.28085790225E+03 -0.15834063693E+04  0.16142035858E+04  0.12509090723E+03 0.  0.
         23    2    1    2    0    0 -0.62837806240E+02 -0.28085790225E+03 -0.62585161772E+03  0.69334498175E+03  0.78786199053E+02 0.  0.
          5    1    3    3  502    0  0.47778042281E+02  0.22630763469E+03 -0.14620188236E+04  0.14802075529E+04  0.41800000000E+01 0.  1.
         -5    1    3    3    0  502  0.15059763959E+02  0.54550267563E+02 -0.12138754569E+03  0.13399603289E+03  0.41800000000E+01 0.  1.
        -11    1    4    4    0    0 -0.69721981201E+02 -0.13190528299E+03 -0.30495431763E+03  0.33949564678E+03  0.00000000000E+00 0.  1.
         11    1    4    4    0    0  0.68841749606E+01 -0.14895261927E+03 -0.32089730009E+03  0.35384933497E+03  0.00000000000E+00 0. -1.
</event>
<event>
 8    1  0.3710605E-009  0.4812033E+02  0.7561462E-02  0.1455752E+00
          1   -1    0    0  501    0  0.00000000000E+00  0.00000000000E+00  0.73011415095E+03  0.73011415095E+03  0.00000000000E+00 0. -1.
         -1   -1    0    0    0  501 -0.00000000000E+00 -0.00000000000E+00 -0.19168922182E+02  0.19168922182E+02  0.00000000000E+00 0.  1.
         25    2    1    2    0    0 -0.26919828903E+01  0.37654941220E+02  0.48980563702E+03  0.50693465990E+03  0.12509214998E+03 0.  0.
         23    2    1    2    0    0  0.26919828903E+01 -0.37654941220E+02  0.22113959175E+03  0.24234841323E+03  0.91678203436E+02 0.  0.
          5    1    3    3  502    0 -0.21042300916E+00  0.97325768353E+01 -0.47195106431E+01  0.11597995965E+02  0.41800000000E+01 0. -1.
         -5    1    3    3    0  502 -0.24815598811E+01  0.27922364385E+02  0.49452514766E+03  0.49533666394E+03  0.41800000000E+01 0. -1.
        -11    1    4    4    0    0  0.12798530394E+02  0.47952002078E+01 -0.30066032572E+01  0.13994141218E+02  0.00000000000E+00 0.  1.
         11    1    4    4    0    0 -0.10106547504E+02 -0.42450141428E+02  0.22414619501E+03  0.22835427201E+03  0.00000000000E+00 0. -1.
</event>
<event>
 8    1  0.3710605E-009  0.9522887E+02  0.7561462E-02  0.1290661E+00
          1   -1    0    0  501    0  0.00000000000E+00  0.00000000000E+00  0.86375405491E+02  0.86375405491E+02  0.00000000000E+00 0. -1.
         -1   -1    0    0    0  501 -0.00000000000E+00 -0.00000000000E+00 -0.19394135708E+03  0.19394135708E+03  0.00000000000E+00 0.  1.
         25    2    1    2    0    0 -0.70496322341E+01 -0.49455428161E+02 -0.51973640818E+01  0.13479286210E+03  0.12508623581E+03 0.  0.
         23    2    1    2    0    0  0.70496322341E+01  0.49455428161E+02 -0.10236858750E+03  0.14552390047E+03  0.90566777639E+02 0.  0.
          5    1    3    3  502    0  0.33601803982E+02 -0.27988742392E+02 -0.52664175614E+02  0.68581620895E+02  0.41800000000E+01 0. -1.
         -5    1    3    3    0  502 -0.40651436216E+02 -0.21466685769E+02  0.47466811532E+02  0.66211241201E+02  0.41800000000E+01 0. -1.
        -11    1    4    4    0    0 -0.13723341924E+02  0.69891323681E+02 -0.55334374219E+02  0.90194346883E+02  0.00000000000E+00 0. -1.
         11    1    4    4    0    0  0.20772974158E+02 -0.20435895520E+02 -0.47034213285E+02  0.55329553589E+02  0.00000000000E+00 0.  1.
</event>
<event>
 8    1  0.3710605E-009  0.1032911E+03  0.7561462E-02  0.1273524E+00
          4   -1    0    0  501    0  0.00000000000E+00  0.00000000000E+00  0.26432394283E+03  0.26432394283E+03  0.00000000000E+00 0. -1.
         -4   -1    0    0    0  501 -0.00000000000E+00 -0.00000000000E+00 -0.58924995493E+02  0.58924995493E+02  0.00000000000E+00 0.  1.
         25    2    1    2    0    0 -0.46263400842E+02 -0.26497547900E+02  0.67686610181E+02  0.15189622514E+03  0.12509421934E+03 0.  0.
         23    2    1    2    0    0  0.46263400842E+02  0.26497547900E+02  0.13771233716E+03  0.17135271319E+03  0.86917444791E+02 0.  0.
          5    1    3    3  502    0  0.77762279130E+01 -0.67436521669E+02  0.31911533928E+02  0.75126377345E+02  0.41800000000E+01 0.  1.
         -5    1    3    3    0  502 -0.54039628755E+02  0.40938973769E+02  0.35775076253E+02  0.76769847793E+02  0.41800000000E+01 0.  1.
        -11    1    4    4    0    0  0.17421512944E+02  0.36233963174E+02  0.11927134498E+02  0.41936448799E+02  0.00000000000E+00 0.  1.
         11    1    4    4    0    0  0.28841887898E+02 -0.97364152737E+01  0.12578520266E+03  0.12941626439E+03  0.00000000000E+00 0. -1.
</event>
<event>
 8    1  0.3710605E-009  0.1632938E+03  0.7561462E-02  0.1185027E+00
          2   -1    0    0  501    0  0.00000000000E+00  0.00000000000E+00  0.39431221520E+03  0.39431221520E+03  0.00000000000E+00 0. -1.
         -2   -1    0    0    0  501 -0.00000000000E+00 -0.00000000000E+00 -0.81796939724E+02  0.81796939724E+02  0.00000000000E+00 0.  1.
         25    2    1    2    0    0  0.49544930256E+02 -0.12944077906E+03  0.12352604315E+03  0.22386318601E+03  0.12508567990E+03 0.  0.
         23    2    1    2    0    0 -0.49544930256E+02  0.12944077906E+03  0.18898923232E+03  0.25224596891E+03  0.93281742600E+02 0.  0.
          5    1    3    3  502    0  0.16658037569E+02 -0.14757026661E+03  0.92856639917E+02  0.17519789320E+03  0.41800000000E+01 0. -1.
         -5    1    3    3    0  502  0.32886892687E+02  0.18129487554E+02  0.30669403235E+02  0.48665292810E+02  0.41800000000E+01 0. -1.
        -11    1    4    4    0    0 -0.29794803330E+02  0.10306823573E+03  0.19117771284E+03  0.21922524811E+03  0.00000000000E+00 0. -1.
         11    1    4    4    0    0 -0.19750126926E+02  0.26372543333E+02 -0.21884805215E+01  0.33020720804E+02  0.00000000000E+00 0.  1.
</event>
<event>
 8    1  0.3710605E-009  0.1071894E+03  0.7561462E-02  0.1265865E+00
          2   -1    0    0  501    0  0.00000000000E+00  0.00000000000E+00  0.13232653034E+03  0.13232653034E+03  0.00000000000E+00 0. -1.
         -2   -1    0    0    0  501 -0.00000000000E+00 -0.00000000000E+00 -0.15733898443E+03  0.15733898443E+03  0.00000000000E+00 0.  1.
         25    2    1    2    0    0 -0.20965561351E+01  0.94088318315E+02 -0.29016891733E+02  0.15920458261E+03  0.12508841643E+03 0.  0.
         23    2    1    2    0    0  0.20965561351E+01 -0.94088318315E+02  0.40044376400E+01  0.13046093216E+03  0.90260800508E+02 0.  0.
          5    1    3    3  502    0 -0.11241519556E+02  0.12453703428E+02  0.45215546845E+02  0.48408517510E+02  0.41800000000E+01 0. -1.
         -5    1    3    3    0  502  0.91449634210E+01  0.81634614886E+02 -0.74232438578E+02  0.11079606510E+03  0.41800000000E+01 0. -1.
        -11    1    4    4    0    0 -0.28112249177E+02 -0.72351168332E+02 -0.26833580066E+02  0.82128138491E+02  0.00000000000E+00 0.  1.
         11    1    4    4    0    0  0.30208805312E+02 -0.21737149982E+02  0.30838017706E+02  0.48332793669E+02  0.00000000000E+00 0. -1.
</event>
<event>
 8    1  0.3710605E-009  0.4580478E+02  0.7561462E-02  0.1469379E+00
          1   -1    0    0  501    0  0.00000000000E+00  0.00000000000E+00  0.23701548686E+03  0.23701548686E+03  0.00000000000E+00 0. -1.
         -1   -1    0    0    0  501 -0.00000000000E+00 -0.00000000000E+00 -0.60306554734E+02  0.60306554734E+02  0.00000000000E+00 0.  1.
         25    2    1    2    0    0  0.27416659442E+02 -0.72365377223E+01  0.15490213269E+03  0.20111112938E+03  0.12508786893E+03 0.  0.
         23    2    1    2    0    0 -0.27416659442E+02  0.72365377223E+01  0.21806799438E+02  0.96210912218E+02  0.89313842347E+02 0.  0.
          5    1    3    3  502    0  0.23083643558E+01 -0.28768145316E+02  0.16398416318E+03  0.16655693592E+03  0.41800000000E+01 0.  1.
         -5    1    3    3    0  502  0.25108295086E+02  0.21531607594E+02 -0.90820304857E+01  0.34554193457E+02  0.41800000000E+01 0.  1.
        -11    1    4    4    0    0 -0.14901240267E+02  0.72992382725E+01  0.56733136437E+02  0.59109852062E+02  0.00000000000E+00 0. -1.
         11    1    4    4    0    0 -0.12515419176E+02 -0.62700550131E-01 -0.34926336999E+02  0.37101060155E+02  0.00000000000E+00 0.  1.
</event>
<event>
 8    1  0.3710605E-009  0.9200542E+02  0.7561462E-02  0.1298067E+00
         -1   -1    0    0    0  501 -0.00000000000E+00  0.00000000000E+00  0.54057454017E+03  0.54057454017E+03  0.00000000000E+00 0.  1.
          1   -1    0    0  501    0  0.00000000000E+00 -0.00000000000E+00 -0.21952896487E+02  0.21952896487E+02  0.00000000000E+00 0. -1.
         25    2    1    2    0    0 -0.76391659112E+01  0.30712070648E+02  0.34371543041E+03  0.36713671500E+03  0.12508989670E+03 0.  0.
         23    2    1    2    0    0  0.76391659112E+01 -0.30712070648E+02  0.17490621327E+03  0.19539072166E+03  0.81140387790E+02 0.  0.
          5    1    3    3  502    0  0.45840220176E+02 -0.21676296924E+02  0.10080516033E+03  0.11291740514E+03  0.41800000000E+01 0. -1.
         -5    1    3    3    0  502 -0.53479386087E+02  0.52388367573E+02  0.24291027008E+03  0.25421930986E+03  0.41800000000E+01 0. -1.
        -11    1    4    4    0    0 -0.20802535304E+02 -0.10859016351E+02  0.78088359988E+01  0.24731389585E+02  0.00000000000E+00 0. -1.
         11    1    4    4    0    0  0.28441701215E+02 -0.19853054298E+02  0.16709737727E+03  0.17065933207E+03  0.00000000000E+00 0.  1.
</event>
<event>
 8    1  0.3710605E-009  0.7367838E+02  0.7561462E-02  0.1348013E+00
         -2   -1    0    0    0  501 -0.00000000000E+00  0.00000000000E+00  0.25818212453E+02  0.25818212453E+02  0.00000000000E+00 0.  1.
          2   -1    0    0  501    0  0.00000000000E+00 -0.00000000000E+00 -0.59578701457E+03  0.59578701457E+03  0.00000000000E+00 0. -1.
         25    2    1    2    0    0  0.39326946327E+02  0.33585059559E+02 -0.41608078534E+03  0.43754304941E+03  0.12508451236E+03 0.  0.
         23    2    1    2    0    0 -0.39326946327E+02 -0.33585059559E+02 -0.15388801678E+03  0.18406217761E+03  0.86734068187E+02 0.  0.
          5    1    3    3  502    0  0.44717271709E+02  0.22560112005E+02 -0.48866334518E+02  0.70099815206E+02  0.41800000000E+01 0. -1.
         -5    1    3    3    0  502 -0.53903253813E+01  0.11024947554E+02 -0.36721445082E+03  0.36744323421E+03  0.41800000000E+01 0. -1.
        -11    1    4    4    0    0 -0.49498991277E+02 -0.46348685980E+02 -0.65845826627E+02  0.94519964631E+02  0.00000000000E+00 0.  1.
         11    1    4    4    0    0  0.10172044950E+02  0.12763626421E+02 -0.88042190155E+02  0.89542212979E+02  0.00000000000E+00 0. -1.
</event>
<event>
 8    1  0.3710605E-009  0.7853906E+02  0.7561462E-02  0.1333249E+00
          2   -1    0    0  501    0  0.00000000000E+00  0.00000000000E+00  0.10748287249E+03  0.10748287249E+03  0.00000000000E+00 0. -1.
         -2   -1    0    0    0  501 -0.00000000000E+00 -0.00000000000E+00 -0.11049994972E+03  0.11049994972E+03  0.00000000000E+00 0.  1.
         25    2    1    2    0    0 -0.25974848536E+01  0.41936176524E+01 -0.15738444142E+02  0.12617390213E+03  0.12509125308E+03 0.  0.
         23    2    1    2    0    0  0.25974848536E+01 -0.41936176524E+01  0.12721366904E+02  0.91808920081E+02  0.90789378641E+02 0.  0.
          5    1    3    3  502    0  0.19299653959E+02  0.30449135201E+02 -0.59980578156E+02  0.70105410871E+02  0.41800000000E+01 0. -1.
         -5    1    3    3    0  502 -0.21897138812E+02 -0.26255517549E+02  0.44242134014E+02  0.56068491259E+02  0.41800000000E+01 0. -1.
        -11    1    4    4    0    0  0.23434625922E+02 -0.39161584028E+02  0.21052498940E+02  0.50259517181E+02  0.00000000000E+00 0.  1.
         11    1    4    4    0    0 -0.20837141068E+02  0.34967966375E+02 -0.83311320360E+01  0.41549402900E+02  0.00000000000E+00 0. -1.
</event>
<event>
 8    1  0.3710605E-009  0.8636442E+02  0.7561462E-02  0.1311903E+00
         -1   -1    0    0    0  501 -0.00000000000E+00  0.00000000000E+00  0.24798891140E+03  0.24798891140E+03  0.00000000000E+00 0.  1.
          1   -1    0    0  501    0  0.00000000000E+00 -0.00000000000E+00 -0.84949249963E+02  0.84949249963E+02  0.00000000000E+00 0. -1.
         25    2    1    2    0    0 -0.46365453051E+02 -0.56828559276E+02  0.16043193827E+03  0.21625242471E+03  0.12508982369E+03 0.  0.
         23    2    1    2    0    0  0.46365453051E+02  0.56828559276E+02  0.26077231691E+01  0.11668573666E+03  0.90716704816E+02 0.  0.
          5    1    3    3  502    0 -0.79826625608E+01 -0.55996954851E+02  0.59639034721E+01  0.57030013140E+02  0.41800000000E+01 0. -1.
         -5    1    3    3    0  502 -0.38382790490E+02 -0.83160442472E+00  0.15446803480E+03  0.15922241157E+03  0.41800000000E+01 0. -1.
        -11    1    4    4    0    0  0.38953184097E+02  0.28915633003E+02 -0.41582594201E+02  0.63895043030E+02  0.00000000000E+00 0. -1.
         11    1    4    4    0    0  0.74122689535E+01  0.27912926273E+02  0.44190317370E+02  0.52790693625E+02  0.00000000000E+00 0.  1.
</event>
<event>
 8    1  0.3710605E-009  0.1938170E+03  0.7561462E-02  0.1155063E+00
         -2   -1    0    0    0  501 -0.00000000000E+00  0.00000000000E+00  0.66297438112E+02  0.66297438112E+02  0.00000000000E+00 0.  1.
          2   -1    0    0  501    0  0.00000000000E+00 -0.00000000000E+00 -0.70804612932E+03  0.70804612932E+03  0.00000000000E+00 0. -1.
         25    2    1    2    0    0  0.17825234710E+03 -0.32164203803E+02 -0.24691280351E+03  0.33078862967E+03  0.12508696867E+03 0.  0.
         23    2    1    2    0    0 -0.17825234710E+03  0.32164203803E+02 -0.39483588770E+03  0.44355493776E+03  0.89650261262E+02 0.  0.
          5    1    3    3  502    0  0.13979146690E+03 -0.62923683226E+02 -0.12043055279E+03  0.19499239619E+03  0.41800000000E+01 0.  1.
         -5    1    3    3    0  502  0.38460880203E+02  0.30759479423E+02 -0.12648225072E+03  0.13579623348E+03  0.41800000000E+01 0.  1.
        -11    1    4    4    0    0 -0.70390945263E+02 -0.54935582618E+01 -0.24597059707E+03  0.25590349544E+03  0.00000000000E+00 0. -1.
         11    1    4    4    0    0 -0.10786140184E+03  0.37657762065E+02 -0.14886529063E+03  0.18765144232E+03  0.00000000000E+00 0.  1.
</event>
<event>
 8    1  0.3710605E-009  0.1393310E+03  0.7561462E-02  0.1214232E+00
         -2   -1    0    0    0  501 -0.00000000000E+00  0.00000000000E+00  0.64163325940E+02  0.64163325940E+02  0.00000000000E+00 0.  1.
          2   -1    0    0  501    0  0.00000000000E+00 -0.00000000000E+00 -0.44716317538E+03  0.44716317538E+03  0.00000000000E+00 0. -1.
         25    2    1    2    0    0 -0.95780870710E+02  0.49494483164E+02 -0.31615901422E+03  0.35668936003E+03  0.12508836167E+03 0.  0.
         23    2    1    2    0    0  0.95780870710E+02 -0.49494483164E+02 -0.66840835213E+02  0.15463714129E+03  0.88437939570E+02 0.  0.
          5    1    3    3  502    0 -0.12284488143E+03  0.53874193260E+02 -0.23130961921E+03  0.26742271020E+03  0.41800000000E+01 0. -1.
         -5    1    3    3    0  502  0.27064010724E+02 -0.43797100956E+01 -0.84849395015E+02  0.89266649827E+02  0.41800000000E+01 0. -1.
        -11    1    4    4    0    0  0.58942983034E+02 -0.53586482195E+02 -0.16867603653E+01  0.79678299954E+02  0.00000000000E+00 0.  1.
         11    1    4    4    0    0  0.36837887676E+02  0.40919990308E+01 -0.65154074848E+02  0.74958841332E+02  0.00000000000E+00 0. -1.
</event>
<event>
 8    1  0.3710605E-009  0.7685637E+02  0.7561462E-02  0.1338217E+00
          2   -1    0    0  501    0  0.00000000000E+00  0.00000000000E+00  0.70821347203E+03  0.70821347203E+03  0.00000000000E+00 0. -1.
         -2   -1    0    0    0  501 -0.00000000000E+00 -0.00000000000E+00 -0.24538342105E+02  0.24538342105E+02  0.00000000000E+00 0.  1.
         25    2    1    2    0    0  0.37253930409E+02 -0.79700378286E+01  0.20076720393E+03  0.23959717659E+03  0.12509180638E+03 0.  0.
         23    2    1    2    0    0 -0.37253930409E+02  0.79700378286E+01  0.48290792599E+03  0.49315463754E+03  0.92466505855E+02 0.  0.
          5    1    3    3  502    0 -0.26300065774E+00 -0.15119790599E+02 -0.14237790885E+02  0.21186418442E+02  0.41800000000E+01 0. -1.
         -5    1    3    3    0  502  0.37516931067E+02  0.71497527708E+01  0.21500499481E+03  0.21841075815E+03  0.41800000000E+01 0. -1.
        -11    1    4    4    0    0 -0.18877607803E+02 -0.42169696386E+02  0.20206572970E+03  0.20728050195E+03  0.00000000000E+00 0.  1.
         11    1    4    4    0    0 -0.18376322606E+02  0.50139734214E+02  0.28084219630E+03  0.28587413559E+03  0.00000000000E+00 0. -1.
</event>
<event>
 8    1  0.3710605E-009  0.9572327E+02  0.7561462E-02  0.1289555E+00
         -1   -1    0    0    0  501 -0.00000000000E+00  0.00000000000E+00  0.51351411174E+03  0.51351411174E+03  0.00000000000E+00 0.  1.
          1   -1    0    0  501    0  0.00000000000E+00 -0.00000000000E+00 -0.29458275202E+02  0.29458275202E+02  0.00000000000E+00 0. -1.
         25    2    1    2    0    0 -0.19151506455E+02  0.47521622053E+02  0.33814547229E+03  0.36416468179E+03  0.12509384585E+03 0.  0.
         23    2    1    2    0    0  0.19151506455E+02 -0.47521622053E+02  0.14591036425E+03  0.17880770516E+03  0.89762332108E+02 0.  0.
          5    1    3    3  502    0  0.41141347976E+02  0.57805571194E+02  0.21780209830E+03  0.22910548007E+03  0.41800000000E+01 0.  1.
         -5    1    3    3    0  502 -0.60292854431E+02 -0.10283949141E+02  0.12034337398E+03  0.13505920171E+03  0.41800000000E+01 0.  1.
        -11    1    4    4    0    0  0.29617429045E+01 -0.41784969674E+02  0.15416229284E+03  0.15975220858E+03  0.00000000000E+00 0.  1.
         11    1    4    4    0    0  0.16189763550E+02 -0.57366523793E+01 -0.82519285909E+01  0.19055496577E+02  0.00000000000E+00 0. -1.
</event>
<event>
 8    1  0.3710605E-009  0.1970478E+03  0.7561462E-02  0.1152254E+00
          2   -1    0    0  501    0  0.00000000000E+00  0.00000000000E+00  0.17562580820E+03  0.17562580820E+03  0.00000000000E+00 0. -1.
         -2   -1    0    0    0  501 -0.00000000000E+00 -0.00000000000E+00 -0.26524122174E+03  0.26524122174E+03  0.00000000000E+00 0.  1.
         25    2    1    2    0    0  0.87136825425E+02 -0.16409375516E+03 -0.77051145684E+02  0.23686217760E+03  0.12508886960E+03 0.  0.
         23    2    1    2    0    0 -0.87136825425E+02  0.16409375516E+03 -0.12564267859E+02  0.20400485235E+03  0.83309856132E+02 0.  0.
          5    1    3    3  502    0  0.10390257787E+03 -0.12293265266E+03 -0.96990989297E+02  0.18797049551E+03  0.41800000000E+01 0.  1.
         -5    1    3    3    0  502 -0.16765752442E+02 -0.41161102501E+02  0.19939843613E+02  0.48891682088E+02  0.41800000000E+01 0.  1.
        -11    1    4    4    0    0 -0.88134446704E+01  0.45304776266E+02  0.30527524672E+02  0.55336509847E+02  0.00000000000E+00 0. -1.
         11    1    4    4    0    0 -0.78323380754E+02  0.11878897889E+03 -0.43091792532E+02  0.14866834250E+03  0.00000000000E+00 0.  1.
</event>
<event>
 8    1  0.3710605E-009  0.1081408E+03  0.7561462E-02  0.1264052E+00
          1   -1    0    0  501    0  0.00000000000E+00  0.00000000000E+00  0.18644951146E+03  0.18644951146E+03  0.00000000000E+00 0. -1.
         -1   -1    0    0    0  501 -0.00000000000E+00 -0.00000000000E+00 -0.70189151390E+02  0.70189151390E+02  0.00000000000E+00 0.  1.
         25    2    1    2    0    0  0.35431978961E+02  0.91133593409E+01  0.74726848841E+02  0.15023446116E+03  0.12509121844E+03 0.  0.
         23    2    1    2    0    0 -0.35431978961E+02 -0.91133593409E+01  0.41533511226E+02  0.10640420169E+03  0.90875426443E+02 0.  0.
          5    1    3    3  502    0 -0.27619036712E+02 -0.40258519593E+02  0.38129169687E+02  0.62087563728E+02  0.41800000000E+01 0. -1.
         -5    1    3    3    0  502  0.63051015673E+02  0.49371878934E+02  0.36597679155E+02  0.88146897429E+02  0.41800000000E+01 0. -1.
        -11    1    4    4    0    0 -0.50435390765E+02  0.20065942567E+02  0.10452509409E+01  0.54290544685E+02  0.00000000000E+00 0.  1.
         11    1    4    4    0    0  0.15003411804E+02 -0.29179301908E+02  0.40488260285E+02  0.52113657006E+02  0.00000000000E+00 0. -1.
</event>
<event>
 8    1  0.3710605E-009  0.1105316E+03  0.7561462E-02  0.1259589E+00
          1   -1    0    0  501    0  0.00000000000E+00  0.00000000000E+00  0.28948001652E+03  0.28948001652E+03  0.00000000000E+00 0. -1.
         -1   -1    0    0    0  501 -0.00000000000E+00 -0.00000000000E+00 -0.53981152768E+02  0.53981152768E+02  0.00000000000E+00 0.  1.
         25    2    1    2    0    0 -0.59403123220E+00 -0.57507826387E+02  0.15515770117E+03  0.20743369308E+03  0.12508925543E+03 0.  0.
         23    2    1    2    0    0  0.59403123220E+00  0.57507826387E+02  0.80341162574E+02  0.13602747620E+03  0.93494753376E+02 0.  0.
          5    1    3    3  502    0  0.23763378465E+01 -0.90424530672E+02  0.14777402883E+03  0.17331150777E+03  0.41800000000E+01 0. -1.
         -5    1    3    3    0  502 -0.29703690787E+01  0.32916704285E+02  0.73836723465E+01  0.34122185316E+02  0.41800000000E+01 0. -1.
        -11    1    4    4    0    0  0.39475537265E+02  0.29322090883E+02  0.72145406663E+02  0.87310152666E+02  0.00000000000E+00 0. -1.
         11    1    4    4    0    0 -0.38881506033E+02  0.28185735504E+02  0.81957559114E+01  0.48717323534E+02  0.00000000000E+00 0.  1.
</event>
<event>
 8    1  0.3710605E-009  0.3594249E+03  0.7561462E-02  0.1058812E+00
         -2   -1    0    0    0  501 -0.00000000000E+00  0.00000000000E+00  0.30460604931E+03  0.30460604931E+03  0.00000000000E+00 0. -1.
          2   -1    0    0  501    0  0.00000000000E+00 -0.00000000000E+00 -0.46705477423E+03  0.46705477423E+03  0.00000000000E+00 0.  1.
         25    2    1    2    0    0 -0.25875536065E+03 -0.24404200357E+03 -0.14405399999E+03  0.40362229115E+03  0.12509421578E+03 0.  0.
         23    2    1    2    0    0  0.25875536065E+03  0.24404200357E+03 -0.18394724920E+02  0.36803853239E+03  0.92753216906E+02 0.  0.
          5    1    3    3  502    0 -0.10746587795E+03 -0.68878423133E+02 -0.11210666096E+03  0.16993683511E+03  0.41800000000E+01 0.  1.
         -5    1    3    3    0  502 -0.15128948271E+03 -0.17516358044E+03 -0.31947339033E+02  0.23368545603E+03  0.41800000000E+01 0.  1.
        -11    1    4    4    0    0  0.12486303791E+03  0.81720478666E+02 -0.45194028333E+02  0.15592150290E+03  0.00000000000E+00 0.  1.
         11    1    4    4    0    0  0.13389232274E+03  0.16232152491E+03  0.26799303413E+02  0.21211702949E+03  0.00000000000E+00 0. -1.
</event>
<event>
 8    1  0.3710605E-009  0.1202835E+03  0.7561462E-02  0.1242630E+00
         -1   -1    0    0    0  501 -0.00000000000E+00  0.00000000000E+00  0.18154702032E+02  0.18154702032E+02  0.00000000000E+00 0.  1.
          1   -1    0    0  501    0  0.00000000000E+00 -0.00000000000E+00 -0.83687162868E+03  0.83687162868E+03  0.00000000000E+00 0. -1.
         25    2    1    2    0    0  0.38362800980E+01 -0.55358417028E+02 -0.51989955110E+03  0.53760844123E+03  0.12509205197E+03 0.  0.
         23    2    1    2    0    0 -0.38362800980E+01  0.55358417028E+02 -0.29881737555E+03  0.31741788948E+03  0.91558840389E+02 0.  0.
          5    1    3    3  502    0  0.44701664214E+02 -0.75580013130E+02 -0.28354437238E+03  0.29685932810E+03  0.41800000000E+01 0.  1.
         -5    1    3    3    0  502 -0.40865384116E+02  0.20221596102E+02 -0.23635517872E+03  0.24074911313E+03  0.41800000000E+01 0.  1.
        -11    1    4    4    0    0  0.11854210951E+02 -0.23578334821E+02 -0.82224703713E+02  0.86356019425E+02  0.00000000000E+00 0. -1.
         11    1    4    4    0    0 -0.15690491049E+02  0.78936751850E+02 -0.21659267183E+03  0.23106187006E+03  0.00000000000E+00 0.  1.
</event>
<event>
 8    1  0.3710605E-009  0.8237700E+02  0.7561462E-02  0.1322438E+00
         -1   -1    0    0    0  501 -0.00000000000E+00  0.00000000000E+00  0.50569676367E+02  0.50569676367E+02  0.00000000000E+00 0.  1.
          1   -1    0    0  501    0  0.00000000000E+00 -0.00000000000E+00 -0.33038561695E+03  0.33038561695E+03  0.00000000000E+00 0. -1.
         25    2    1    2    0    0 -0.51951492448E+02  0.19716477897E+01 -0.24475508807E+03  0.27974681271E+03  0.12510148328E+03 0.  0.
         23    2    1    2    0    0  0.51951492448E+02 -0.19716477897E+01 -0.35060852507E+02  0.10120848061E+03  0.79442106000E+02 0.  0.
          5    1    3    3  502    0  0.16827301053E+02 -0.11640559870E+02  0.40021564736E+01  0.21263827296E+02  0.41800000000E+01 0. -1.
         -5    1    3    3    0  502 -0.68778793501E+02  0.13612207660E+02 -0.24875724454E+03  0.25848298541E+03  0.41800000000E+01 0. -1.
        -11    1    4    4    0    0 -0.37947165175E+01 -0.15756951580E+02 -0.40405537955E+02  0.43534915803E+02  0.00000000000E+00 0. -1.
         11    1    4    4    0    0  0.55746208965E+02  0.13785303791E+02  0.53446854485E+01  0.57673564804E+02  0.00000000000E+00 0.  1.
</event>
<event>
 8    1  0.3710605E-009  0.1754934E+03  0.7561462E-02  0.1172237E+00
          2   -1    0    0  501    0  0.00000000000E+00  0.00000000000E+00  0.17456483573E+03  0.17456483573E+03  0.00000000000E+00 0. -1.
         -2   -1    0    0    0  501 -0.00000000000E+00 -0.00000000000E+00 -0.24689833969E+03  0.24689833969E+03  0.00000000000E+00 0.  1.
         25    2    1    2    0    0  0.15248429194E+03 -0.17450883932E+02 -0.12628614686E+03  0.23484350258E+03  0.12508911694E+03 0.  0.
         23    2    1    2    0    0 -0.15248429194E+03  0.17450883932E+02  0.53952642897E+02  0.18661967284E+03  0.91433155792E+02 0.  0.
          5    1    3    3  502    0 -0.17548658171E+02  0.16049640262E+02 -0.21163886608E+02  0.32108080797E+02  0.41800000000E+01 0. -1.
         -5    1    3    3    0  502  0.17003295011E+03 -0.33500524193E+02 -0.10512226025E+03  0.20273542178E+03  0.41800000000E+01 0. -1.
        -11    1    4    4    0    0 -0.89766534884E+02  0.11108466438E+02  0.77715033025E+02  0.11925206568E+03  0.00000000000E+00 0. -1.
         11    1    4    4    0    0 -0.62717757055E+02  0.63424174942E+01 -0.23762390128E+02  0.67367607159E+02  0.00000000000E+00 0.  1.
</event>
<event>
 8    1  0.3710605E-009  0.1389304E+03  0.7561462E-02  0.1214776E+00
          2   -1    0    0  501    0  0.00000000000E+00  0.00000000000E+00  0.13589978339E+04  0.13589978339E+04  0.00000000000E+00 0. -1.
         -2   -1    0    0    0  501 -0.00000000000E+00 -0.00000000000E+00 -0.19508662185E+02  0.19508662185E+02  0.00000000000E+00 0.  1.
         25    2    1    2    0    0 -0.83840774084E+02 -0.87313736667E+02  0.77361021940E+03  0.79295241013E+03  0.12509112345E+03 0.  0.
         23    2    1    2    0    0  0.83840774084E+02  0.87313736667E+02  0.56587895235E+03  0.58555408599E+03  0.89451857970E+02 0.  0.
          5    1    3    3  502    0 -0.70021978123E+01 -0.44925079663E+02  0.68081290456E+02  0.81974557438E+02  0.41800000000E+01 0. -1.
         -5    1    3    3    0  502 -0.76838576272E+02 -0.42388657004E+02  0.70552892894E+03  0.71097785269E+03  0.41800000000E+01 0. -1.
        -11    1    4    4    0    0 -0.48667599043E+01  0.46407401277E+02  0.11291565485E+03  0.12217723747E+03  0.00000000000E+00 0.  1.
         11    1    4    4    0    0  0.88707533988E+02  0.40906335390E+02  0.45296329750E+03  0.46337684852E+03  0.00000000000E+00 0. -1.
</event>
<event>
 8    1  0.3710605E-009  0.1377068E+03  0.7561462E-02  0.1216448E+00
         -1   -1    0    0    0  501 -0.00000000000E+00  0.00000000000E+00  0.13990398947E+03  0.13990398947E+03  0.00000000000E+00 0.  1.
          1   -1    0    0  501    0  0.00000000000E+00 -0.00000000000E+00 -0.47040941508E+03  0.47040941508E+03  0.00000000000E+00 0. -1.
         25    2    1    2    0    0 -0.57627352521E+02  0.95562087034E+02 -0.41113296719E+03  0.44399722896E+03  0.12510075288E+03 0.  0.
         23    2    1    2    0    0  0.57627352521E+02 -0.95562087034E+02  0.80627541580E+02  0.16631617559E+03  0.93312622748E+02 0.  0.
          5    1    3    3  502    0 -0.28440251257E+01 -0.27878024650E+02 -0.39868210580E+02  0.48910319485E+02  0.41800000000E+01 0.  1.
         -5    1    3    3    0  502 -0.54783327395E+02  0.12344011168E+03 -0.37126475661E+03  0.39508690947E+03  0.41800000000E+01 0.  1.
        -11    1    4    4    0    0  0.14162117861E+02 -0.16507506113E+02 -0.21131125591E+02  0.30324706249E+02  0.00000000000E+00 0. -1.
         11    1    4    4    0    0  0.43465234660E+02 -0.79054580921E+02  0.10175866717E+03  0.13599146934E+03  0.00000000000E+00 0.  1.
</event>
<event>
 8    1  0.3710605E-009  0.1098799E+03  0.7561462E-02  0.1260792E+00
          2   -1    0    0  501    0  0.00000000000E+00  0.00000000000E+00  0.28140995160E+02  0.28140995160E+02  0.00000000000E+00 0. -1.
         -2   -1    0    0    0  501 -0.00000000000E+00 -0.00000000000E+00 -0.64829919098E+03  0.64829919098E+03  0.00000000000E+00 0.  1.
         25    2    1    2    0    0  0.65084592839E+02 -0.47251895409E+02 -0.31896127489E+03  0.35192688116E+03  0.12508992350E+03 0.  0.
         23    2    1    2    0    0 -0.65084592839E+02  0.47251895409E+02 -0.30119692093E+03  0.32451330498E+03  0.90114117003E+02 0.  0.
          5    1    3    3  502    0  0.12098580799E+02 -0.45006645488E+02 -0.24729167826E+02  0.52924266049E+02  0.41800000000E+01 0. -1.
         -5    1    3    3    0  502  0.52986012040E+02 -0.22452499210E+01 -0.29423210706E+03  0.29900261511E+03  0.41800000000E+01 0. -1.
        -11    1    4    4    0    0 -0.73917151129E+02  0.22937383460E+01 -0.20580491457E+03  0.21868852126E+03  0.00000000000E+00 0.  1.
         11    1    4    4    0    0  0.88325582897E+01  0.44958157063E+02 -0.95392006360E+02  0.10582478372E+03  0.00000000000E+00 0. -1.
</event>
<event>
 8    1  0.3710605E-009  0.1855982E+03  0.7561462E-02  0.1162492E+00
          1   -1    0    0  501    0  0.00000000000E+00  0.00000000000E+00  0.30999839730E+03  0.30999839730E+03  0.00000000000E+00 0. -1.
         -1   -1    0    0    0  501 -0.00000000000E+00 -0.00000000000E+00 -0.12512027546E+03  0.12512027546E+03  0.00000000000E+00 0.  1.
         25    2    1    2    0    0 -0.75494510253E+02  0.14201583677E+03  0.61571670766E+02  0.21285377159E+03  0.12509092080E+03 0.  0.
         23    2    1    2    0    0  0.75494510253E+02 -0.14201583677E+03  0.12330645107E+03  0.22226490116E+03  0.91264924474E+02 0.  0.
          5    1    3    3  502    0 -0.51459122659E+01 -0.14393088424E+02  0.36094799601E+02  0.39420151771E+02  0.41800000000E+01 0. -1.
         -5    1    3    3    0  502 -0.70348597987E+02  0.15640892520E+03  0.25476871165E+02  0.17343361982E+03  0.41800000000E+01 0. -1.
        -11    1    4    4    0    0  0.11734057168E+02 -0.11323678316E+03  0.88098280878E+02  0.14394986714E+03  0.00000000000E+00 0. -1.
         11    1    4    4    0    0  0.63760453084E+02 -0.28779053617E+02  0.35208170196E+02  0.78315034017E+02  0.00000000000E+00 0.  1.
</event>
<event>
 8    1  0.3710605E-009  0.1103264E+03  0.7561462E-02  0.1259967E+00
          3   -1    0    0  501    0  0.00000000000E+00  0.00000000000E+00  0.40790184117E+02  0.40790184117E+02  0.00000000000E+00 0. -1.
         -3   -1    0    0    0  501 -0.00000000000E+00 -0.00000000000E+00 -0.42995031729E+03  0.42995031729E+03  0.00000000000E+00 0.  1.
         25    2    1    2    0    0  0.74107660548E+02  0.11637171852E+02 -0.21121652553E+03  0.25669430909E+03  0.12510866693E+03 0.  0.
         23    2    1    2    0    0 -0.74107660548E+02 -0.11637171852E+02 -0.17794360764E+03  0.21404619232E+03  0.92328087952E+02 0.  0.
          5    1    3    3  502    0  0.78723761610E+02 -0.17505766075E+02 -0.21202432045E+03  0.22688249679E+03  0.41800000000E+01 0.  1.
         -5    1    3    3    0  502 -0.46161010614E+01  0.29142937927E+02  0.80779491456E+00  0.29811812301E+02  0.41800000000E+01 0.  1.
        -11    1    4    4    0    0 -0.44296776673E+02  0.33823642980E+02 -0.13045643835E+03  0.14186305211E+03  0.00000000000E+00 0.  1.
         11    1    4    4    0    0 -0.29810883875E+02 -0.45460814832E+02 -0.47487169294E+02  0.72183140207E+02  0.00000000000E+00 0. -1.
</event>
<event>
 8    1  0.3710605E-009  0.1653362E+03  0.7561462E-02  0.1182801E+00
         -1   -1    0    0    0  501 -0.00000000000E+00  0.00000000000E+00  0.34268326141E+03  0.34268326141E+03  0.00000000000E+00 0.  1.
          1   -1    0    0  501    0  0.00000000000E+00 -0.00000000000E+00 -0.98058254367E+02  0.98058254367E+02  0.00000000000E+00 0. -1.
         25    2    1    2    0    0 -0.13463186249E+03  0.19808408491E+02  0.20006724947E+03  0.27238273907E+03  0.12508933122E+03 0.  0.
         23    2    1    2    0    0  0.13463186249E+03 -0.19808408491E+02  0.44557757570E+02  0.16835877671E+03  0.88550395202E+02 0.  0.
          5    1    3    3  502    0 -0.10866273815E+02 -0.38774509071E+02  0.82334449275E+02  0.91749508978E+02  0.41800000000E+01 0. -1.
         -5    1    3    3    0  502 -0.12376558867E+03  0.58582917562E+02  0.11773280019E+03  0.18063323009E+03  0.41800000000E+01 0. -1.
        -11    1    4    4    0    0  0.46530890383E+01 -0.22710795948E+02 -0.12545976801E+02  0.26359685584E+02  0.00000000000E+00 0. -1.
         11    1    4    4    0    0  0.12997877345E+03  0.29023874568E+01  0.57103734371E+02  0.14199909112E+03  0.00000000000E+00 0.  1.
</event>
<event>
 8    1  0.3710605E-009  0.9649946E+02  0.7561462E-02  0.1287834E+00
         -1   -1    0    0    0  501 -0.00000000000E+00  0.00000000000E+00  0.48419718823E+02  0.48419718823E+02  0.00000000000E+00 0.  1.
          1   -1    0    0  501    0  0.00000000000E+00 -0.00000000000E+00 -0.33210166585E+03  0.33210166585E+03  0.00000000000E+00 0. -1.
         25    2    1    2    0    0 -0.62101275324E+02 -0.13043810976E+02 -0.15603339930E+03  0.20980066765E+03  0.12507273502E+03 0.  0.
         23    2    1    2    0    0  0.62101275324E+02  0.13043810976E+02 -0.12764854772E+03  0.17072071703E+03  0.93939885481E+02 0.  0.
          5    1    3    3  502    0 -0.20448830746E+02 -0.37313145218E+02  0.36859074061E+01  0.42912513307E+02  0.41800000000E+01 0.  1.
         -5    1    3    3    0  502 -0.41652444578E+02  0.24269334242E+02 -0.15971930671E+03  0.16688815434E+03  0.41800000000E+01 0.  1.
        -11    1    4    4    0    0  0.81531167570E+02  0.11881522617E+02 -0.64487920369E+02  0.10462883799E+03  0.00000000000E+00 0.  1.
         11    1    4    4    0    0 -0.19429892247E+02  0.11622883592E+01 -0.63160627355E+02  0.66091879038E+02  0.00000000000E+00 0. -1.
</event>
<event>
 8    1  0.3710605E-009  0.1463924E+03  0.7561462E-02  0.1204977E+00
          1   -1    0    0  501    0  0.00000000000E+00  0.00000000000E+00  0.28155085955E+03  0.28155085955E+03  0.00000000000E+00 0. -1.
         -1   -1    0    0    0  501 -0.00000000000E+00 -0.00000000000E+00 -0.11787455466E+03  0.11787455466E+03  0.00000000000E+00 0.  1.
         25    2    1    2    0    0 -0.11148515684E+03  0.12373931569E+02 -0.14757640861E+02  0.16866025147E+03  0.12508572294E+03 0.  0.
         23    2    1    2    0    0  0.11148515684E+03 -0.12373931569E+02  0.17843394575E+03  0.23076516274E+03  0.93977832284E+02 0.  0.
          5    1    3    3  502    0  0.63819335343E+01  0.42557995953E+02  0.10113265978E+02  0.44403408022E+02  0.41800000000E+01 0.  1.
         -5    1    3    3    0  502 -0.11786709038E+03 -0.30184064384E+02 -0.24870906839E+02  0.12425684345E+03  0.41800000000E+01 0.  1.
        -11    1    4    4    0    0  0.44760391253E+02  0.25059861036E+02  0.20437717965E+02  0.55219467363E+02  0.00000000000E+00 0.  1.
         11    1    4    4    0    0  0.66724765590E+02 -0.37433792605E+02  0.15799622778E+03  0.17554569538E+03  0.00000000000E+00 0. -1.
</event>
<event>
 8    1  0.3710605E-009  0.9641225E+02  0.7561462E-02  0.1288027E+00
         -2   -1    0    0    0  501 -0.00000000000E+00  0.00000000000E+00  0.22146091711E+03  0.22146091711E+03  0.00000000000E+00 0.  1.
          2   -1    0    0  501    0  0.00000000000E+00 -0.00000000000E+00 -0.65686615778E+02  0.65686615778E+02  0.00000000000E+00 0. -1.
         25    2    1    2    0    0  0.92371002928E+01  0.45220260126E+02  0.11819993796E+03  0.17818370919E+03  0.12509201789E+03 0.  0.
         23    2    1    2    0    0 -0.92371002928E+01 -0.45220260126E+02  0.37574363378E+02  0.10896382371E+03  0.91274783733E+02 0.  0.
          5    1    3    3  502    0 -0.34054065214E+02 -0.27370387644E+02  0.64307723257E+02  0.77857389809E+02  0.41800000000E+01 0.  1.
         -5    1    3    3    0  502  0.43291165507E+02  0.72590647770E+02  0.53892214700E+02  0.10032631938E+03  0.41800000000E+01 0.  1.
        -11    1    4    4    0    0  0.10767105196E+02 -0.42833678147E+02 -0.19617797890E+02  0.48327140738E+02  0.00000000000E+00 0. -1.
         11    1    4    4    0    0 -0.20004205489E+02 -0.23865819793E+01  0.57192161268E+02  0.60636682967E+02  0.00000000000E+00 0.  1.
</event>
<event>
 8    1  0.3710605E-009  0.1111138E+03  0.7561462E-02  0.1258521E+00
         -4   -1    0    0    0  501 -0.00000000000E+00  0.00000000000E+00  0.67218628763E+03  0.67218628763E+03  0.00000000000E+00 0. -1.
          4   -1    0    0  501    0  0.00000000000E+00 -0.00000000000E+00 -0.36142896718E+02  0.36142896718E+02  0.00000000000E+00 0.  1.
         25    2    1    2    0    0  0.64388868714E+02  0.15985748388E+02  0.54270502134E+03  0.56087247374E+03  0.12509085115E+03 0.  0.
         23    2    1    2    0    0 -0.64388868714E+02 -0.15985748388E+02  0.93338369572E+02  0.14745671061E+03  0.92897576418E+02 0.  0.
          5    1    3    3  502    0  0.18703982125E+02  0.48918271864E+02  0.44445140046E+03  0.44754592618E+03  0.41800000000E+01 0. -1.
         -5    1    3    3    0  502  0.45684886589E+02 -0.32932523476E+02  0.98253620883E+02  0.11332654756E+03  0.41800000000E+01 0. -1.
        -11    1    4    4    0    0 -0.36678114481E+02 -0.54546757851E+02  0.63381389365E+02  0.91311737426E+02  0.00000000000E+00 0. -1.
         11    1    4    4    0    0 -0.27710754233E+02  0.38561009463E+02  0.29956980207E+02  0.56144973186E+02  0.00000000000E+00 0.  1.
</event>
<event>
 8    1  0.3710605E-009  0.1353784E+03  0.7561462E-02  0.1219686E+00
          1   -1    0    0  501    0  0.00000000000E+00  0.00000000000E+00  0.39660076648E+03  0.39660076648E+03  0.00000000000E+00 0. -1.
         -1   -1    0    0    0  501 -0.00000000000E+00 -0.00000000000E+00 -0.69588080295E+02  0.69588080295E+02  0.00000000000E+00 0.  1.
         25    2    1    2    0    0  0.90151722894E+02  0.15724584278E+02  0.29794025782E+03  0.33584507512E+03  0.12509564966E+03 0.  0.
         23    2    1    2    0    0 -0.90151722894E+02 -0.15724584278E+02  0.29072428361E+02  0.13034377165E+03  0.88145884902E+02 0.  0.
          5    1    3    3  502    0  0.11350927321E+03 -0.14620724228E+02  0.19795312249E+03  0.22869418835E+03  0.41800000000E+01 0.  1.
         -5    1    3    3    0  502 -0.23357550315E+02  0.30345308506E+02  0.99987135330E+02  0.10715088677E+03  0.41800000000E+01 0.  1.
        -11    1    4    4    0    0 -0.10340435737E+03 -0.14018575626E+02  0.41305236591E+02  0.11222791166E+03  0.00000000000E+00 0. -1.
         11    1    4    4    0    0  0.13252634474E+02 -0.17060086518E+01 -0.12232808230E+02  0.18115859991E+02  0.00000000000E+00 0.  1.
</event>
<event>
 8    1  0.3710605E-009  0.1366858E+03  0.7561462E-02  0.1217859E+00
         -2   -1    0    0    0  501 -0.00000000000E+00  0.00000000000E+00  0.37636682703E+02  0.37636682703E+02  0.00000000000E+00 0.  1.
          2   -1    0    0  501    0  0.00000000000E+00 -0.00000000000E+00 -0.99287331343E+03  0.99287331343E+03  0.00000000000E+00 0. -1.
         25    2    1    2    0    0  0.95779628340E+02  0.57550307221E+02 -0.79833740594E+03  0.81576818996E+03  0.12509736595E+03 0.  0.
         23    2    1    2    0    0 -0.95779628340E+02 -0.57550307221E+02 -0.15689922479E+03  0.21474180617E+03  0.94925768428E+02 0.  0.
          5    1    3    3  502    0  0.26731844928E+02  0.61025790435E+02 -0.63299335183E+03  0.63650356990E+03  0.41800000000E+01 0. -1.
         -5    1    3    3    0  502  0.69047783412E+02 -0.34754832146E+01 -0.16534405411E+03  0.17926462006E+03  0.41800000000E+01 0. -1.
        -11    1    4    4    0    0 -0.92281145070E+01  0.19438209593E+02 -0.59924609721E+02  0.63670722784E+02  0.00000000000E+00 0.  1.
         11    1    4    4    0    0 -0.86551513833E+02 -0.76988516814E+02 -0.96974615065E+02  0.15107108338E+03  0.00000000000E+00 0. -1.
</event>
<event>
 8    1  0.3710605E-009  0.9087050E+02  0.7561462E-02  0.1300757E+00
         -1   -1    0    0    0  501 -0.00000000000E+00  0.00000000000E+00  0.31706717244E+02  0.31706717244E+02  0.00000000000E+00 0.  1.
          1   -1    0    0  501    0  0.00000000000E+00 -0.00000000000E+00 -0.45046814459E+03  0.45046814459E+03  0.00000000000E+00 0. -1.
         25    2    1    2    0    0 -0.49263577931E+02  0.38305753944E+01 -0.22438629216E+03  0.26160718518E+03  0.12509011875E+03 0.  0.
         23    2    1    2    0    0  0.49263577931E+02 -0.38305753944E+01 -0.19437513519E+03  0.22056767666E+03  0.91797785312E+02 0.  0.
          5    1    3    3  502    0 -0.56643622750E+02  0.42417563742E+02 -0.61028739679E+02  0.93539987058E+02  0.41800000000E+01 0. -1.
         -5    1    3    3    0  502  0.73800448182E+01 -0.38586988348E+02 -0.16335755248E+03  0.16806719812E+03  0.41800000000E+01 0. -1.
        -11    1    4    4    0    0  0.33278253470E+02  0.22761019134E+02 -0.23020596209E+02  0.46426867177E+02  0.00000000000E+00 0.  1.
         11    1    4    4    0    0  0.15985324461E+02 -0.26591594528E+02 -0.17135453898E+03  0.17414080948E+03  0.00000000000E+00 0. -1.
</event>
<event>
 8    1  0.3710605E-009  0.8344855E+02  0.7561462E-02  0.1319540E+00
          1   -1    0    0  501    0  0.00000000000E+00  0.00000000000E+00  0.35681269600E+03  0.35681269600E+03  0.00000000000E+00 0. -1.
         -1   -1    0    0    0  501 -0.00000000000E+00 -0.00000000000E+00 -0.36229357905E+02  0.36229357905E+02  0.00000000000E+00 0.  1.
         25    2    1    2    0    0  0.28386026253E+02 -0.20347740417E+02  0.20332480964E+03  0.24126443983E+03  0.12509098562E+03 0.  0.
         23    2    1    2    0    0 -0.28386026253E+02  0.20347740417E+02  0.11725852846E+03  0.15177761408E+03  0.89816950594E+02 0.  0.
          5    1    3    3  502    0  0.40525243772E+02 -0.33510740191E+02  0.21372546969E+03  0.22013930564E+03  0.41800000000E+01 0. -1.
         -5    1    3    3    0  502 -0.12139217520E+02  0.13162999774E+02 -0.10400660050E+02  0.21125134190E+02  0.41800000000E+01 0. -1.
        -11    1    4    4    0    0 -0.34393902072E+02 -0.29644326224E+02  0.64156590859E+02  0.78598948642E+02  0.00000000000E+00 0.  1.
         11    1    4    4    0    0  0.60078758197E+01  0.49992066641E+02  0.53101937598E+02  0.73178665440E+02  0.00000000000E+00 0. -1.
</event>
<event>
 8    1  0.3710605E-009  0.1424367E+03  0.7561462E-02  0.1210087E+00
          2   -1    0    0  501    0  0.00000000000E+00  0.00000000000E+00  0.61700697084E+03  0.61700697084E+03  0.00000000000E+00 0. -1.
         -2   -1    0    0    0  501 -0.00000000000E+00 -0.00000000000E+00 -0.37264559756E+02  0.37264559756E+02  0.00000000000E+00 0.  1.
         25    2    1    2    0    0 -0.49989324636E+02  0.91547036103E+02  0.35243773937E+03  0.38825188903E+03  0.12508947521E+03 0.  0.
         23    2    1    2    0    0  0.49989324636E+02 -0.91547036103E+02  0.22730467171E+03  0.26601964156E+03  0.90660043668E+02 0.  0.
          5    1    3    3  502    0  0.40790139149E+02  0.39835767238E+02  0.14729136295E+03  0.15799665124E+03  0.41800000000E+01 0.  1.
         -5    1    3    3    0  502 -0.90779463785E+02  0.51711268864E+02  0.20514637643E+03  0.23025523780E+03  0.41800000000E+01 0.  1.
        -11    1    4    4    0    0  0.41498997815E+01 -0.73918106998E+02  0.72539760060E+02  0.10364904727E+03  0.00000000000E+00 0.  1.
         11    1    4    4    0    0  0.45839424854E+02 -0.17628929105E+02  0.15476491165E+03  0.16237059429E+03  0.00000000000E+00 0. -1.
</event>
<event>
 8    1  0.3710605E-009  0.1119448E+03  0.7561462E-02  0.1257010E+00
          1   -1    0    0  501    0  0.00000000000E+00  0.00000000000E+00  0.93441968018E+03  0.93441968018E+03  0.00000000000E+00 0. -1.
         -1   -1    0    0    0  501 -0.00000000000E+00 -0.00000000000E+00 -0.16609340262E+02  0.16609340262E+02  0.00000000000E+00 0.  1.
         25    2    1    2    0    0  0.32566068032E+02  0.48581563650E+02  0.43311262617E+03  0.45459284704E+03  0.12508953800E+03 0.  0.
         23    2    1    2    0    0 -0.32566068032E+02 -0.48581563650E+02  0.48469771375E+03  0.49643617341E+03  0.89979350059E+02 0.  0.
          5    1    3    3  502    0  0.74900930255E+02  0.23906358159E+02  0.34313644208E+03  0.35205362318E+03  0.41800000000E+01 0.  1.
         -5    1    3    3    0  502 -0.42334862222E+02  0.24675205491E+02  0.89976184089E+02  0.10253922385E+03  0.41800000000E+01 0.  1.
        -11    1    4    4    0    0 -0.42448953041E+02 -0.64514262719E+02  0.45357417613E+03  0.46010165938E+03  0.00000000000E+00 0. -1.
         11    1    4    4    0    0  0.98828850087E+01  0.15932699069E+02  0.31123537616E+02  0.36334514025E+02  0.00000000000E+00 0.  1.
</event>
<event>
 8    1  0.3710605E-009  0.1163518E+03  0.7561462E-02  0.1249240E+00
          1   -1    0    0  501    0  0.00000000000E+00  0.00000000000E+00  0.89941330575E+02  0.89941330575E+02  0.00000000000E+00 0. -1.
         -1   -1    0    0    0  501 -0.00000000000E+00 -0.00000000000E+00 -0.25044225233E+03  0.25044225233E+03  0.00000000000E+00 0.  1.
         25    2    1    2    0    0  0.26016370064E+02  0.64010244353E+02 -0.17037029171E+03  0.22237391327E+03  0.12509979261E+03 0.  0.
         23    2    1    2    0    0 -0.26016370064E+02 -0.64010244353E+02  0.98693699563E+01  0.11800966963E+03  0.95156265009E+02 0.  0.
          5    1    3    3  502    0  0.17149612699E+01  0.84978455102E+02 -0.16987944824E+03  0.19000204804E+03  0.41800000000E+01 0.  1.
         -5    1    3    3    0  502  0.24301408794E+02 -0.20968210749E+02 -0.49084347191E+00  0.32371865234E+02  0.41800000000E+01 0.  1.
        -11    1    4    4    0    0 -0.60380154804E+02 -0.32293933019E+02  0.17385265138E+02  0.70646363303E+02  0.00000000000E+00 0.  1.
         11    1    4    4    0    0  0.34363784740E+02 -0.31716311334E+02 -0.75158951816E+01  0.47363306332E+02  0.00000000000E+00 0. -1.
</event>
<event>
 8    1  0.3710605E-009  0.1287649E+03  0.7561462E-02  0.1229300E+00
         -2   -1    0    0    0  501 -0.00000000000E+00  0.00000000000E+00  0.17141122097E+02  0.17141122097E+02  0.00000000000E+00 0.  1.
          2   -1    0    0  501    0  0.00000000000E+00 -0.00000000000E+00 -0.11018389753E+04  0.11018389753E+04  0.00000000000E+00 0. -1.
         25    2    1    2    0    0  0.54236616347E+02 -0.59136561784E+02 -0.72101578060E+03  0.73617296324E+03  0.12509249552E+03 0.  0.
         23    2    1    2    0    0 -0.54236616347E+02  0.59136561784E+02 -0.36368207264E+03  0.38280713420E+03  0.88531963384E+02 0.  0.
          5    1    3    3  502    0 -0.33285803315E+02 -0.33196419256E+02 -0.13358510935E+03  0.14167710046E+03  0.41800000000E+01 0. -1.
         -5    1    3    3    0  502  0.87522419661E+02 -0.25940142529E+02 -0.58743067125E+03  0.59449586278E+03  0.41800000000E+01 0. -1.
        -11    1    4    4    0    0 -0.99983007112E+01 -0.23323222061E+02 -0.63695105845E+02  0.68563876881E+02  0.00000000000E+00 0. -1.
         11    1    4    4    0    0 -0.44238315636E+02  0.82459783845E+02 -0.29998696679E+03  0.31424325732E+03  0.00000000000E+00 0.  1.
</event>
<event>
 8    1  0.3710605E-009  0.1054803E+03  0.7561462E-02  0.1269176E+00
          1   -1    0    0  501    0  0.00000000000E+00  0.00000000000E+00  0.62688601676E+02  0.62688601676E+02  0.00000000000E+00 0. -1.
         -1   -1    0    0    0  501 -0.00000000000E+00 -0.00000000000E+00 -0.22896754053E+03  0.22896754053E+03  0.00000000000E+00 0.  1.
         25    2    1    2    0    0 -0.26884297883E+02  0.39940692579E+02 -0.84941877019E+02  0.15868525017E+03  0.12509141359E+03 0.  0.
         23    2    1    2    0    0  0.26884297883E+02 -0.39940692579E+02 -0.81337061837E+02  0.13297089204E+03  0.93528156750E+02 0.  0.
          5    1    3    3  502    0  0.42606500244E+01  0.65687677305E+02 -0.16096533981E+01  0.65977931707E+02  0.41800000000E+01 0. -1.
         -5    1    3    3    0  502 -0.31144947908E+02 -0.25746984726E+02 -0.83332223621E+02  0.92707318461E+02  0.41800000000E+01 0. -1.
        -11    1    4    4    0    0 -0.17842083082E+02  0.21779804270E+02 -0.14879901924E+02  0.31845113974E+02  0.00000000000E+00 0. -1.
         11    1    4    4    0    0  0.44726380965E+02 -0.61720496849E+02 -0.66457159913E+02  0.10112577807E+03  0.00000000000E+00 0.  1.
</event>
<event>
 8    1  0.3710605E-009  0.6414762E+02  0.7561462E-02  0.1381207E+00
         -1   -1    0    0    0  501 -0.00000000000E+00  0.00000000000E+00  0.23072249807E+02  0.23072249807E+02  0.00000000000E+00 0.  1.
          1   -1    0    0  501    0  0.00000000000E+00 -0.00000000000E+00 -0.53726628896E+03  0.53726628896E+03  0.00000000000E+00 0. -1.
         25    2    1    2    0    0 -0.25726295655E+01  0.11683514592E+02 -0.35706045040E+03  0.37852730227E+03  0.12509048880E+03 0.  0.
         23    2    1    2    0    0  0.25726295655E+01 -0.11683514592E+02 -0.15713358875E+03  0.18181123650E+03  0.90671043147E+02 0.  0.
          5    1    3    3  502    0  0.17283056534E+02  0.27697530005E+02 -0.16193875625E+02  0.36682028560E+02  0.41800000000E+01 0.  1.
         -5    1    3    3    0  502 -0.19855686099E+02 -0.16014015413E+02 -0.34086657477E+03  0.34184527371E+03  0.41800000000E+01 0.  1.
        -11    1    4    4    0    0  0.33390322623E+02 -0.18207077409E+02 -0.23930667062E+02  0.44934264639E+02  0.00000000000E+00 0.  1.
         11    1    4    4    0    0 -0.30817693058E+02  0.65235628172E+01 -0.13320292169E+03  0.13687697186E+03  0.00000000000E+00 0. -1.
</event>
<event>
 8    1  0.3710605E-009  0.6689248E+02  0.7561462E-02  0.1370991E+00
          1   -1    0    0  501    0  0.00000000000E+00  0.00000000000E+00  0.91563568476E+02  0.91563568476E+02  0.00000000000E+00 0. -1.
         -1   -1    0    0    0  501 -0.00000000000E+00 -0.00000000000E+00 -0.14022224800E+03  0.14022224800E+03  0.00000000000E+00 0.  1.
         25    2    1    2    0    0 -0.30362388010E+01  0.33883413950E+02 -0.25227579162E+02  0.13206589205E+03  0.12509062557E+03 0.  0.
         23    2    1    2    0    0  0.30362388010E+01 -0.33883413950E+02 -0.23431100358E+02  0.99719924425E+02  0.90762009543E+02 0.  0.
          5    1    3    3  502    0 -0.22567554405E+02  0.19151624444E+02 -0.72640154689E+02  0.78550262278E+02  0.41800000000E+01 0.  1.
         -5    1    3    3    0  502  0.19531315604E+02  0.14731789506E+02  0.47412575528E+02  0.53515629768E+02  0.41800000000E+01 0.  1.
        -11    1    4    4    0    0  0.44699317257E+01 -0.56367336275E+02  0.11932307396E+02  0.57789591175E+02  0.00000000000E+00 0. -1.
         11    1    4    4    0    0 -0.14336929247E+01  0.22483922325E+02 -0.35363407754E+02  0.41930333250E+02  0.00000000000E+00 0.  1.
</event>
<event>
 8    1  0.3710605E-009  0.1339615E+03  0.7561462E-02  0.1221693E+00
          1   -1    0    0  501    0  0.00000000000E+00  0.00000000000E+00  0.96376568902E+02  0.96376568902E+02  0.00000000000E+00 0. -1.
         -1   -1    0    0    0  501 -0.00000000000E+00 -0.00000000000E+00 -0.49573120810E+03  0.49573120810E+03  0.00000000000E+00 0.  1.
         25    2    1    2    0    0  0.49750538987E+02 -0.78956784423E+02  0.15825257850E+02  0.15686706925E+03  0.12509016226E+03 0.  0.
         23    2    1    2    0    0 -0.49750538987E+02  0.78956784423E+02 -0.41517989705E+03  0.43524070775E+03  0.91382913237E+02 0.  0.
          5    1    3    3  502    0 -0.33206580923E+02 -0.46519954907E+02 -0.20099983636E+02  0.60731087289E+02  0.41800000000E+01 0. -1.
         -5    1    3    3    0  502  0.82957119910E+02 -0.32436829516E+02  0.35925241485E+02  0.96135981966E+02  0.41800000000E+01 0. -1.
        -11    1    4    4    0    0 -0.23201276746E+02 -0.12400012007E+02 -0.37796700364E+02  0.46050516814E+02  0.00000000000E+00 0. -1.
         11    1    4    4    0    0 -0.26549262240E+02  0.91356796429E+02 -0.37738319668E+03  0.38919019093E+03  0.00000000000E+00 0.  1.
</event>
<event>
 8    1  0.3710605E-009  0.1260989E+03  0.7561462E-02  0.1233362E+00
          2   -1    0    0  501    0  0.00000000000E+00  0.00000000000E+00  0.18192673747E+03  0.18192673747E+03  0.00000000000E+00 0. -1.
         -2   -1    0    0    0  501 -0.00000000000E+00 -0.00000000000E+00 -0.13525065354E+03  0.13525065354E+03  0.00000000000E+00 0.  1.
         25    2    1    2    0    0 -0.45185496011E+02 -0.82219301288E+02 -0.37632049229E+02  0.16082864253E+03  0.12509172065E+03 0.  0.
         23    2    1    2    0    0  0.45185496011E+02  0.82219301288E+02  0.84308133159E+02  0.15634874847E+03  0.92386834974E+02 0.  0.
          5    1    3    3  502    0  0.38044611700E+02 -0.55950889411E+02 -0.66211731295E+01  0.68111723212E+02  0.41800000000E+01 0.  1.
         -5    1    3    3    0  502 -0.83230107711E+02 -0.26268411877E+02 -0.31010876099E+02  0.92716919322E+02  0.41800000000E+01 0.  1.
        -11    1    4    4    0    0 -0.25049845653E+01  0.11260587052E+02  0.68424451210E+02  0.69390066233E+02  0.00000000000E+00 0. -1.
         11    1    4    4    0    0  0.47690480576E+02  0.70958714236E+02  0.15883681949E+02  0.86958682234E+02  0.00000000000E+00 0.  1.
</event>
<event>
 8    1  0.3710605E-009  0.8212149E+02  0.7561462E-02  0.1323137E+00
         -2   -1    0    0    0  501 -0.00000000000E+00  0.00000000000E+00  0.58405446886E+02  0.58405446886E+02  0.00000000000E+00 0. -1.
          2   -1    0    0  501    0  0.00000000000E+00 -0.00000000000E+00 -0.26804136129E+03  0.26804136129E+03  0.00000000000E+00 0.  1.
         25    2    1    2    0    0 -0.45537643951E+02  0.43047703558E+02 -0.11202572237E+03  0.17923479384E+03  0.12509423268E+03 0.  0.
         23    2    1    2    0    0  0.45537643951E+02 -0.43047703558E+02 -0.97610192036E+02  0.14721201434E+03  0.90646818910E+02 0.  0.
          5    1    3    3  502    0  0.34937838444E+01  0.19671737927E+02 -0.12213205411E+03  0.12382606689E+03  0.41800000000E+01 0. -1.
         -5    1    3    3    0  502 -0.49031427795E+02  0.23375965631E+02  0.10106331745E+02  0.55408726949E+02  0.41800000000E+01 0. -1.
        -11    1    4    4    0    0 -0.13391957154E+02  0.39650170271E+01 -0.62518587862E+02  0.64059657388E+02  0.00000000000E+00 0.  1.
         11    1    4    4    0    0  0.58929601105E+02 -0.47012720585E+02 -0.35091604174E+02  0.83152356952E+02  0.00000000000E+00 0. -1.
</event>
<event>
 8    1  0.3710605E-009  0.1340826E+03  0.7561462E-02  0.1221521E+00
          1   -1    0    0  501    0  0.00000000000E+00  0.00000000000E+00  0.58254365656E+02  0.58254365656E+02  0.00000000000E+00 0. -1.
         -1   -1    0    0    0  501 -0.00000000000E+00 -0.00000000000E+00 -0.38364953100E+03  0.38364953100E+03  0.00000000000E+00 0.  1.
         25    2    1    2    0    0  0.52841887953E+02 -0.87254699990E+02 -0.20058244550E+03  0.25746101280E+03  0.12508879997E+03 0.  0.
         23    2    1    2    0    0 -0.52841887953E+02  0.87254699990E+02 -0.12481271985E+03  0.18444288385E+03  0.89639916202E+02 0.  0.
          5    1    3    3  502    0  0.54413037429E+02 -0.28037294660E+01 -0.14827184649E+03  0.15802105051E+03  0.41800000000E+01 0. -1.
         -5    1    3    3    0  502 -0.15711494754E+01 -0.84450970524E+02 -0.52310599009E+02  0.99439962297E+02  0.41800000000E+01 0. -1.
        -11    1    4    4    0    0  0.19228861049E+02  0.34984521950E+02 -0.67932035859E+02  0.78793574416E+02  0.00000000000E+00 0. -1.
         11    1    4    4    0    0 -0.72070749003E+02  0.52270178040E+02 -0.56880683986E+02  0.10564930944E+03  0.00000000000E+00 0.  1.
</event>
<event>
 8    1  0.3710605E-009  0.1376483E+03  0.7561462E-02  0.1216529E+00
         -1   -1    0    0    0  501 -0.00000000000E+00  0.00000000000E+00  0.12303101578E+03  0.12303101578E+03  0.00000000000E+00 0. -1.
          1   -1    0    0  501    0  0.00000000000E+00 -0.00000000000E+00 -0.18595851262E+03  0.18595851262E+03  0.00000000000E+00 0.  1.
         25    2    1    2    0    0  0.72150877458E+02  0.77186779723E+02 -0.33499876163E+02  0.16713343377E+03  0.12509114636E+03 0.  0.
         23    2    1    2    0    0 -0.72150877458E+02 -0.77186779723E+02 -0.29427620674E+02  0.14185609463E+03  0.89964541039E+02 0.  0.
          5    1    3    3  502    0 -0.18961097209E+02 -0.55470573694E+01  0.23885496266E+02  0.31277506049E+02  0.41800000000E+01 0. -1.
         -5    1    3    3    0  502  0.91111974666E+02  0.82733837093E+02 -0.57385372429E+02  0.13585592772E+03  0.41800000000E+01 0. -1.
        -11    1    4    4    0    0  0.16376523121E+02 -0.22769565856E+02 -0.25437691304E+02  0.37864492307E+02  0.00000000000E+00 0.  1.
         11    1    4    4    0    0 -0.88527400578E+02 -0.54417213867E+02 -0.39899293703E+01  0.10399160233E+03  0.00000000000E+00 0. -1.
</event>
<event>
 8    1  0.3710605E-009  0.8507479E+02  0.7561462E-02  0.1315237E+00
         -2   -1    0    0    0  501 -0.00000000000E+00  0.00000000000E+00  0.31299731371E+03  0.31299731371E+03  0.00000000000E+00 0. -1.
          2   -1    0    0  501    0  0.00000000000E+00 -0.00000000000E+00 -0.55725839218E+02  0.55725839218E+02  0.00000000000E+00 0.  1.
         25    2    1    2    0    0 -0.46538650731E+02 -0.30646208798E+02  0.21166995185E+03  0.25210758938E+03  0.12509609099E+03 0.  0.
         23    2    1    2    0    0  0.46538650731E+02  0.30646208798E+02  0.45601522648E+02  0.11661556355E+03  0.91731426836E+02 0.  0.
          5    1    3    3  502    0 -0.26664735027E+02 -0.77889288854E-01 -0.89656032627E+01  0.28440615370E+02  0.41800000000E+01 0.  1.
         -5    1    3    3    0  502 -0.19873915705E+02 -0.30568319509E+02  0.22063555511E+03  0.22366697401E+03  0.41800000000E+01 0.  1.
        -11    1    4    4    0    0 -0.26663597779E+02 -0.10622482461E+01  0.51733223900E+01  0.27181594553E+02  0.00000000000E+00 0.  1.
         11    1    4    4    0    0  0.73202248510E+02  0.31708457044E+02  0.40428200258E+02  0.89433969001E+02  0.00000000000E+00 0. -1.
</event>
<event>
 8    1  0.3710605E-009  0.1152868E+03  0.7561462E-02  0.1251081E+00
          2   -1    0    0  501    0  0.00000000000E+00  0.00000000000E+00  0.80772224863E+02  0.80772224863E+02  0.00000000000E+00 0. -1.
         -2   -1    0    0    0  501 -0.00000000000E+00 -0.00000000000E+00 -0.18117213311E+03  0.18117213311E+03  0.00000000000E+00 0.  1.
         25    2    1    2    0    0  0.46709785563E+02 -0.13084842806E+02 -0.84620999009E+02  0.15862308071E+03  0.12509017181E+03 0.  0.
         23    2    1    2    0    0 -0.46709785563E+02  0.13084842806E+02 -0.15778909238E+02  0.10332127726E+03  0.89851517399E+02 0.  0.
          5    1    3    3  502    0  0.13884597104E+02 -0.68085886280E+02 -0.38170797029E+02  0.79391133593E+02  0.41800000000E+01 0.  1.
         -5    1    3    3    0  502  0.32825188459E+02  0.55001043474E+02 -0.46450201981E+02  0.79231947121E+02  0.41800000000E+01 0.  1.
        -11    1    4    4    0    0 -0.52854985593E+02  0.41813390115E+02 -0.25970643010E+02  0.72225226848E+02  0.00000000000E+00 0.  1.
         11    1    4    4    0    0  0.61452000300E+01 -0.28728547308E+02  0.10191733772E+02  0.31096050410E+02  0.00000000000E+00 0. -1.
</event>
<event>
 8    1  0.3710605E-009  0.1431770E+03  0.7561462E-02  0.1209117E+00
          1   -1    0    0  501    0  0.00000000000E+00  0.00000000000E+00  0.98690752173E+03  0.98690752173E+03  0.00000000000E+00 0. -1.
         -1   -1    0    0    0  501 -0.00000000000E+00 -0.00000000000E+00 -0.25441446272E+02  0.25441446272E+02  0.00000000000E+00 0.  1.
         25    2    1    2    0    0 -0.39789704972E+01  0.10960019295E+03  0.60205774368E+03  0.62462111551E+03  0.12509986695E+03 0.  0.
         23    2    1    2    0    0  0.39789704972E+01 -0.10960019295E+03  0.35940833178E+03  0.38772785249E+03  0.95553671548E+02 0.  0.
          5    1    3    3  502    0  0.41819455861E+02  0.26922135702E+02  0.81750230640E+02  0.95782257694E+02  0.41800000000E+01 0.  1.
         -5    1    3    3    0  502 -0.45798426358E+02  0.82678057252E+02  0.52030751304E+03  0.52883885781E+03  0.41800000000E+01 0.  1.
        -11    1    4    4    0    0  0.43273410711E+02 -0.85258943618E+02  0.27965432075E+03  0.29554731374E+03  0.00000000000E+00 0. -1.
         11    1    4    4    0    0 -0.39294440213E+02 -0.24341249335E+02  0.79754011024E+02  0.92180538756E+02  0.00000000000E+00 0.  1.
</event>
<event>
 8    1  0.3710605E-009  0.1170199E+03  0.7561462E-02  0.1248096E+00
          1   -1    0    0  501    0  0.00000000000E+00  0.00000000000E+00  0.80235770370E+02  0.80235770370E+02  0.00000000000E+00 0. -1.
         -1   -1    0    0    0  501 -0.00000000000E+00 -0.00000000000E+00 -0.21516453089E+03  0.21516453089E+03  0.00000000000E+00 0.  1.
         25    2    1    2    0    0 -0.59473802587E+01 -0.44397433356E+02 -0.14095245869E+03  0.19370410957E+03  0.12508870066E+03 0.  0.
         23    2    1    2    0    0  0.59473802587E+01  0.44397433356E+02  0.60236981752E+01  0.10169619169E+03  0.91100642390E+02 0.  0.
          5    1    3    3  502    0  0.43177323114E+02  0.23052204249E+02 -0.47166051504E+02  0.68101352164E+02  0.41800000000E+01 0. -1.
         -5    1    3    3    0  502 -0.49124703373E+02 -0.67449637605E+02 -0.93786407189E+02  0.12560275741E+03  0.41800000000E+01 0. -1.
        -11    1    4    4    0    0  0.46900631109E+02  0.10158645233E+02  0.56028121975E+01  0.48314167445E+02  0.00000000000E+00 0.  1.
         11    1    4    4    0    0 -0.40953250851E+02  0.34238788123E+02  0.42088597769E+00  0.53382024244E+02  0.00000000000E+00 0. -1.
</event>
<event>
 8    1  0.3710605E-009  0.1040000E+03  0.7561462E-02  0.1272103E+00
         -2   -1    0    0    0  501 -0.00000000000E+00  0.00000000000E+00  0.54847168318E+02  0.54847168318E+02  0.00000000000E+00 0.  1.
          2   -1    0    0  501    0  0.00000000000E+00 -0.00000000000E+00 -0.27968161598E+03  0.27968161598E+03  0.00000000000E+00 0. -1.
         25    2    1    2    0    0  0.43470308732E+02 -0.26570927829E+02 -0.10465206926E+03  0.17086343732E+03  0.12508627690E+03 0.  0.
         23    2    1    2    0    0 -0.43470308732E+02  0.26570927829E+02 -0.12018237841E+03  0.16366534698E+03  0.98726185858E+02 0.  0.
          5    1    3    3  502    0  0.17394966703E+02 -0.60956990397E+02 -0.68677781718E+01  0.63898187156E+02  0.41800000000E+01 0.  1.
         -5    1    3    3    0  502  0.26075342029E+02  0.34386062568E+02 -0.97784291083E+02  0.10696525017E+03  0.41800000000E+01 0.  1.
        -11    1    4    4    0    0 -0.65192000028E+02 -0.20024991244E+01 -0.10722846857E+03  0.12550677808E+03  0.00000000000E+00 0. -1.
         11    1    4    4    0    0  0.21721691296E+02  0.28573426953E+02 -0.12953909838E+02  0.38158568903E+02  0.00000000000E+00 0.  1.
</event>
<event>
 8    1  0.3710605E-009  0.1138841E+03  0.7561462E-02  0.1253542E+00
         -1   -1    0    0    0  501 -0.00000000000E+00  0.00000000000E+00  0.78898130898E+02  0.78898130898E+02  0.00000000000E+00 0.  1.
          1   -1    0    0  501    0  0.00000000000E+00 -0.00000000000E+00 -0.21656588384E+03  0.21656588384E+03  0.00000000000E+00 0. -1.
         25    2    1    2    0    0  0.22971122578E+02  0.37000903567E+02 -0.12236963675E+02  0.13302268218E+03  0.12509416995E+03 0.  0.
         23    2    1    2    0    0 -0.22971122578E+02 -0.37000903567E+02 -0.12543078926E+03  0.16244133256E+03  0.93581858767E+02 0.  0.
          5    1    3    3  502    0  0.70749136348E+02  0.14444829786E+02 -0.28259037685E+02  0.77653969714E+02  0.41800000000E+01 0. -1.
         -5    1    3    3    0  502 -0.47778013770E+02  0.22556073781E+02  0.16022074010E+02  0.55368712463E+02  0.41800000000E+01 0. -1.
        -11    1    4    4    0    0 -0.55334276667E+02 -0.42292529123E+02 -0.75622559449E+02  0.10280715778E+03  0.00000000000E+00 0.  1.
         11    1    4    4    0    0  0.32363154089E+02  0.52916255556E+01 -0.49808229816E+02  0.59634174774E+02  0.00000000000E+00 0. -1.
</event>
<event>
 8    1  0.3710605E-009  0.1717949E+03  0.7561462E-02  0.1175989E+00
         -1   -1    0    0    0  501 -0.00000000000E+00  0.00000000000E+00  0.22774335536E+03  0.22774335536E+03  0.00000000000E+00 0.  1.
          1   -1    0    0  501    0  0.00000000000E+00 -0.00000000000E+00 -0.15704636405E+03  0.15704636405E+03  0.00000000000E+00 0. -1.
         25    2    1    2    0    0  0.10882625744E+03  0.92168368179E+02 -0.23974783295E+02  0.19120800709E+03  0.12509016485E+03 0.  0.
         23    2    1    2    0    0 -0.10882625744E+03 -0.92168368179E+02  0.94671774606E+02  0.19358171232E+03  0.90404491231E+02 0.  0.
          5    1    3    3  502    0  0.10232172855E+03  0.22267615006E+02 -0.50132741356E+02  0.11617377917E+03  0.41800000000E+01 0. -1.
         -5    1    3    3    0  502  0.65045288949E+01  0.69900753173E+02  0.26157958061E+02  0.75034227924E+02  0.41800000000E+01 0. -1.
        -11    1    4    4    0    0 -0.97629136983E+01 -0.65016805132E+02  0.43409117350E+02  0.78783570004E+02  0.00000000000E+00 0.  1.
         11    1    4    4    0    0 -0.99063343743E+02 -0.27151563047E+02  0.51262657256E+02  0.11479814231E+03  0.00000000000E+00 0. -1.
</event>
<event>
 8    1  0.3710605E-009  0.1269894E+03  0.7561462E-02  0.1231993E+00
         -1   -1    0    0    0  501 -0.00000000000E+00  0.00000000000E+00  0.41315663999E+02  0.41315663999E+02  0.00000000000E+00 0.  1.
          1   -1    0    0  501    0  0.00000000000E+00 -0.00000000000E+00 -0.66290673078E+03  0.66290673078E+03  0.00000000000E+00 0. -1.
         25    2    1    2    0    0 -0.11798458290E+03 -0.34399826472E+02 -0.36111370446E+03  0.40143858524E+03  0.12508445269E+03 0.  0.
         23    2    1    2    0    0  0.11798458290E+03  0.34399826472E+02 -0.26047736232E+03  0.30278380954E+03  0.93412360930E+02 0.  0.
          5    1    3    3  502    0 -0.11600416889E+03 -0.23994382160E+02 -0.15557978677E+03  0.19558946809E+03  0.41800000000E+01 0.  1.
         -5    1    3    3    0  502 -0.19804140110E+01 -0.10405444312E+02 -0.20553391768E+03  0.20584911715E+03  0.41800000000E+01 0.  1.
        -11    1    4    4    0    0  0.25120165554E+02  0.14774007438E+02 -0.41362783822E+01  0.29434721200E+02  0.00000000000E+00 0. -1.
         11    1    4    4    0    0  0.92864417348E+02  0.19625819034E+02 -0.25634108394E+03  0.27334908834E+03  0.00000000000E+00 0.  1.
</event>
<event>
 8    1  0.3710605E-009  0.1514952E+03  0.7561462E-02  0.1198648E+00
         -4   -1    0    0    0  501 -0.00000000000E+00  0.00000000000E+00  0.64754002228E+03  0.64754002228E+03  0.00000000000E+00 0.  1.
          4   -1    0    0  501    0  0.00000000000E+00 -0.00000000000E+00 -0.59138738614E+02  0.59138738614E+02  0.00000000000E+00 0. -1.
         25    2    1    2    0    0  0.10138037822E+03  0.49073088887E+02  0.51953947572E+03  0.54612733844E+03  0.12509058244E+03 0.  0.
         23    2    1    2    0    0 -0.10138037822E+03 -0.49073088887E+02  0.68861807941E+02  0.16055142245E+03  0.91371010270E+02 0.  0.
          5    1    3    3  502    0 -0.28485068655E+02 -0.25151519709E+00  0.73528256339E+02  0.78964164507E+02  0.41800000000E+01 0.  1.
         -5    1    3    3    0  502  0.12986544688E+03  0.49324604084E+02  0.44601121938E+03  0.46716317393E+03  0.41800000000E+01 0.  1.
        -11    1    4    4    0    0 -0.84195707449E+00 -0.33465982931E+02 -0.62906620434E+01  0.34062491603E+02  0.00000000000E+00 0. -1.
         11    1    4    4    0    0 -0.10053842115E+03 -0.15607105956E+02  0.75152469984E+02  0.12648893085E+03  0.00000000000E+00 0.  1.
</event>
<event>
 8    1  0.3710605E-009  0.2610694E+03  0.7561462E-02  0.1106502E+00
          2   -1    0    0  501    0  0.00000000000E+00  0.00000000000E+00  0.98813249485E+03  0.98813249485E+03  0.00000000000E+00 0. -1.
         -2   -1    0    0    0  501 -0.00000000000E+00 -0.00000000000E+00 -0.87575426093E+02  0.87575426093E+02  0.00000000000E+00 0.  1.
         25    2    1    2    0    0  0.53601177657E+02 -0.24860170106E+03  0.64431013753E+03  0.70388821348E+03  0.12508865551E+03 0.  0.
         23    2    1    2    0    0 -0.53601177657E+02  0.24860170106E+03  0.25624693123E+03  0.37181970746E+03  0.88946686729E+02 0.  0.
          5    1    3    3  502    0  0.30304629766E+02 -0.44253894902E+02  0.44614967547E+02  0.69890954554E+02  0.41800000000E+01 0. -1.
         -5    1    3    3    0  502  0.23296547891E+02 -0.20434780616E+03  0.59969516998E+03  0.63399725892E+03  0.41800000000E+01 0. -1.
        -11    1    4    4    0    0 -0.51075571767E+02  0.86129990372E+02  0.58857963128E+02  0.11615226686E+03  0.00000000000E+00 0.  1.
         11    1    4    4    0    0 -0.25256058896E+01  0.16247171068E+03  0.19738896810E+03  0.25566744061E+03  0.00000000000E+00 0. -1.
</event>
<event>
 8    1  0.3710605E-009  0.3715256E+03  0.7561462E-02  0.1054111E+00
         -2   -1    0    0    0  501 -0.00000000000E+00  0.00000000000E+00  0.19309001073E+03  0.19309001073E+03  0.00000000000E+00 0.  1.
          2   -1    0    0  501    0  0.00000000000E+00 -0.00000000000E+00 -0.77590920036E+03  0.77590920036E+03  0.00000000000E+00 0. -1.
         25    2    1    2    0    0  0.17882190835E+03  0.32415704103E+03 -0.25722129222E+03  0.46782998646E+03  0.12508813256E+03 0.  0.
         23    2    1    2    0    0 -0.17882190835E+03 -0.32415704103E+03 -0.32559789741E+03  0.50116922463E+03  0.90008548316E+02 0.  0.
          5    1    3    3  502    0  0.15544172002E+03  0.26046434531E+03 -0.26038857113E+03  0.39977929396E+03  0.41800000000E+01 0.  1.
         -5    1    3    3    0  502  0.23380188329E+02  0.63692695718E+02  0.31672789161E+01  0.68050692501E+02  0.41800000000E+01 0.  1.
        -11    1    4    4    0    0 -0.10663604527E+03 -0.15861513059E+03 -0.11227053903E+03  0.22166343798E+03  0.00000000000E+00 0. -1.
         11    1    4    4    0    0 -0.72185863079E+02 -0.16554191043E+03 -0.21332735838E+03  0.27950578665E+03  0.00000000000E+00 0.  1.
</event>
<event>
 8    1  0.3710605E-009  0.7441260E+02  0.7561462E-02  0.1345700E+00
          1   -1    0    0  501    0  0.00000000000E+00  0.00000000000E+00  0.62483139519E+02  0.62483139519E+02  0.00000000000E+00 0. -1.
         -1   -1    0    0    0  501 -0.00000000000E+00 -0.00000000000E+00 -0.25538276287E+03  0.25538276287E+03  0.00000000000E+00 0.  1.
         25    2    1    2    0    0 -0.11307873772E+02  0.53779893338E+01 -0.27571435004E+02  0.12870320706E+03  0.12509013031E+03 0.  0.
         23    2    1    2    0    0  0.11307873772E+02 -0.53779893338E+01 -0.16532818835E+03  0.18916269533E+03  0.91062202165E+02 0.  0.
          5    1    3    3  502    0  0.13744901903E+02 -0.18233933088E+02 -0.70090793337E+02  0.73834885757E+02  0.41800000000E+01 0.  1.
         -5    1    3    3    0  502 -0.25052775675E+02  0.23611922422E+02  0.42519358333E+02  0.54868321303E+02  0.41800000000E+01 0.  1.
        -11    1    4    4    0    0 -0.19607614822E+02 -0.39981276783E+02 -0.67182018103E+02  0.80600152658E+02  0.00000000000E+00 0.  1.
         11    1    4    4    0    0  0.30915488594E+02  0.34603287449E+02 -0.98146170246E+02  0.10856254267E+03  0.00000000000E+00 0. -1.
</event>
<event>
 8    1  0.3710605E-009  0.7384694E+02  0.7561462E-02  0.1347479E+00
         -2   -1    0    0    0  501 -0.00000000000E+00  0.00000000000E+00  0.14324249464E+03  0.14324249464E+03  0.00000000000E+00 0. -1.
          2   -1    0    0  501    0  0.00000000000E+00 -0.00000000000E+00 -0.83154970339E+02  0.83154970339E+02  0.00000000000E+00 0.  1.
         25    2    1    2    0    0 -0.10178238687E+02  0.79903467372E+01  0.46191092915E+02  0.13397361431E+03  0.12509144688E+03 0.  0.
         23    2    1    2    0    0  0.10178238687E+02 -0.79903467372E+01  0.13896431385E+02  0.92423850664E+02  0.90452281246E+02 0.  0.
          5    1    3    3  502    0 -0.26150976709E+02 -0.27018653769E+02 -0.30151976721E+02  0.48378666110E+02  0.41800000000E+01 0.  1.
         -5    1    3    3    0  502  0.15972738021E+02  0.35009000506E+02  0.76343069636E+02  0.85594948203E+02  0.41800000000E+01 0.  1.
        -11    1    4    4    0    0 -0.26742347004E+02 -0.18792788992E+02 -0.22328453874E+02  0.39583859006E+02  0.00000000000E+00 0.  1.
         11    1    4    4    0    0  0.36920585692E+02  0.10802442254E+02  0.36224885259E+02  0.52839991659E+02  0.00000000000E+00 0. -1.
</event>
<event>
 8    1  0.3710605E-009  0.2695367E+03  0.7561462E-02  0.1101545E+00
          1   -1    0    0  501    0  0.00000000000E+00  0.00000000000E+00  0.50874665108E+03  0.50874665108E+03  0.00000000000E+00 0. -1.
         -1   -1    0    0    0  501 -0.00000000000E+00 -0.00000000000E+00 -0.37560144155E+03  0.37560144155E+03  0.00000000000E+00 0.  1.
         25    2    1    2    0    0 -0.11591135048E+03  0.21814921606E+03  0.41360895790E+03  0.49773929057E+03  0.12509000635E+03 0.  0.
         23    2    1    2    0    0  0.11591135048E+03 -0.21814921606E+03 -0.28046374837E+03  0.38660880205E+03  0.98903640164E+02 0.  0.
          5    1    3    3  502    0 -0.92326624354E+02  0.53877443803E+02  0.20405445344E+03  0.23039678141E+03  0.41800000000E+01 0.  1.
         -5    1    3    3    0  502 -0.23584726123E+02  0.16427177226E+03  0.20955450446E+03  0.26734250916E+03  0.41800000000E+01 0.  1.
        -11    1    4    4    0    0 -0.66101283457E-01 -0.10182001296E+03 -0.10886811389E+03  0.14906235484E+03  0.00000000000E+00 0.  1.
         11    1    4    4    0    0  0.11597745176E+03 -0.11632920310E+03 -0.17159563448E+03  0.23754644722E+03  0.00000000000E+00 0. -1.
</event>
<event>
 8    1  0.3710605E-009  0.6821473E+02  0.7561462E-02  0.1366271E+00
          1   -1    0    0  501    0  0.00000000000E+00  0.00000000000E+00  0.49602453088E+03  0.49602453088E+03  0.00000000000E+00 0. -1.
         -1   -1    0    0    0  501 -0.00000000000E+00 -0.00000000000E+00 -0.26751033802E+02  0.26751033802E+02  0.00000000000E+00 0.  1.
         25    2    1    2    0    0  0.25370378339E+02  0.22000613764E+02  0.30620702347E+03  0.33247034250E+03  0.12508438878E+03 0.  0.
         23    2    1    2    0    0 -0.25370378339E+02 -0.22000613764E+02  0.16306647361E+03  0.19030522218E+03  0.92183076929E+02 0.  0.
          5    1    3    3  502    0  0.47013232721E+01 -0.49279863780E+01  0.29692216654E+03  0.29702968348E+03  0.41800000000E+01 0. -1.
         -5    1    3    3    0  502  0.20669055067E+02  0.26928600142E+02  0.92848569310E+01  0.35440659012E+02  0.41800000000E+01 0. -1.
        -11    1    4    4    0    0 -0.33841619465E+02  0.27752717774E+02  0.49770589054E+02  0.66276542507E+02  0.00000000000E+00 0.  1.
         11    1    4    4    0    0  0.84712411256E+01 -0.49753331538E+02  0.11329588455E+03  0.12402867968E+03  0.00000000000E+00 0. -1.
</event>
<event>
 8    1  0.3710605E-009  0.1049045E+03  0.7561462E-02  0.1270308E+00
         -2   -1    0    0    0  501 -0.00000000000E+00  0.00000000000E+00  0.22410354480E+03  0.22410354480E+03  0.00000000000E+00 0.  1.
          2   -1    0    0  501    0  0.00000000000E+00 -0.00000000000E+00 -0.89450594765E+02  0.89450594765E+02  0.00000000000E+00 0. -1.
         25    2    1    2    0    0 -0.89265002250E+02  0.18575625519E+02  0.73866311581E+02  0.17151374943E+03  0.12508972687E+03 0.  0.
         23    2    1    2    0    0  0.89265002250E+02 -0.18575625519E+02  0.60786638457E+02  0.14204039013E+03  0.90372354867E+02 0.  0.
          5    1    3    3  502    0 -0.12584243156E+02  0.23281378552E+02  0.89134948746E+02  0.93074686414E+02  0.41800000000E+01 0. -1.
         -5    1    3    3    0  502 -0.76680759093E+02 -0.47057530323E+01 -0.15268637165E+02  0.78439063021E+02  0.41800000000E+01 0. -1.
        -11    1    4    4    0    0  0.85253370241E+01 -0.23688650971E+02 -0.16543672520E+02  0.30125183097E+02  0.00000000000E+00 0. -1.
         11    1    4    4    0    0  0.80739665225E+02  0.51130254520E+01  0.77330310977E+02  0.11191520704E+03  0.00000000000E+00 0.  1.
</event>
<event>
 8    1  0.3710605E-009  0.9536037E+02  0.7561462E-02  0.1290367E+00
          2   -1    0    0  501    0  0.00000000000E+00  0.00000000000E+00  0.44487646526E+03  0.44487646526E+03  0.00000000000E+00 0. -1.
         -2   -1    0    0    0  501 -0.00000000000E+00 -0.00000000000E+00 -0.28490564474E+02  0.28490564474E+02  0.00000000000E+00 0.  1.
         25    2    1    2    0    0  0.38199287862E+01 -0.39508902481E+01  0.22570619587E+03  0.25811017773E+03  0.12508947040E+03 0.  0.
         23    2    1    2    0    0 -0.38199287862E+01  0.39508902481E+01  0.19067970492E+03  0.21525685200E+03  0.99732447470E+02 0.  0.
          5    1    3    3  502    0  0.48651715728E+02 -0.41070643245E+02  0.14592856324E+03  0.15926834321E+03  0.41800000000E+01 0.  1.
         -5    1    3    3    0  502 -0.44831786942E+02  0.37119752997E+02  0.79777632626E+02  0.98841834515E+02  0.41800000000E+01 0.  1.
        -11    1    4    4    0    0 -0.12544765965E+02  0.34541728463E+02  0.17674996335E+03  0.18052991913E+03  0.00000000000E+00 0. -1.
         11    1    4    4    0    0  0.87248371791E+01 -0.30590838215E+02  0.13929741566E+02  0.34726932870E+02  0.00000000000E+00 0.  1.
</event>
<event>
 8    1  0.3710605E-009  0.1443001E+03  0.7561462E-02  0.1207657E+00
         -1   -1    0    0    0  501 -0.00000000000E+00  0.00000000000E+00  0.63615807722E+02  0.63615807722E+02  0.00000000000E+00 0.  1.
          1   -1    0    0  501    0  0.00000000000E+00 -0.00000000000E+00 -0.42400451114E+03  0.42400451114E+03  0.00000000000E+00 0. -1.
         25    2    1    2    0    0 -0.10191617388E+03 -0.65339649509E+02 -0.22722575352E+03  0.28624881640E+03  0.12510262000E+03 0.  0.
         23    2    1    2    0    0  0.10191617388E+03  0.65339649509E+02 -0.13316294989E+03  0.20137150246E+03  0.90343425229E+02 0.  0.
          5    1    3    3  502    0 -0.10000547257E+03 -0.93861046542E+01 -0.79350600250E+02  0.12807491427E+03  0.41800000000E+01 0.  1.
         -5    1    3    3    0  502 -0.19107013086E+01 -0.55953544855E+02 -0.14787515327E+03  0.15817390213E+03  0.41800000000E+01 0.  1.
        -11    1    4    4    0    0  0.11541945851E+02  0.34588843829E+02  0.12769403573E+01  0.36486096093E+02  0.00000000000E+00 0.  1.
         11    1    4    4    0    0  0.90374228027E+02  0.30750805680E+02 -0.13443989025E+03  0.16488540637E+03  0.00000000000E+00 0. -1.
</event>
<event>
 8    1  0.3710605E-009  0.5666696E+02  0.7561462E-02  0.1412376E+00
          1   -1    0    0  501    0  0.00000000000E+00  0.00000000000E+00  0.99558643584E+02  0.99558643584E+02  0.00000000000E+00 0. -1.
         -1   -1    0    0    0  501 -0.00000000000E+00 -0.00000000000E+00 -0.13801223515E+03  0.13801223515E+03  0.00000000000E+00 0.  1.
         25    2    1    2    0    0  0.40179365627E+02 -0.11144053165E+02 -0.17707139737E+01  0.13186594765E+03  0.12508765478E+03 0.  0.
         23    2    1    2    0    0 -0.40179365627E+02  0.11144053165E+02 -0.36682877596E+02  0.10570493109E+03  0.89940689375E+02 0.  0.
          5    1    3    3  502    0  0.12846396493E+02 -0.27053505215E+02 -0.59027340484E+02  0.66322103193E+02  0.41800000000E+01 0. -1.
         -5    1    3    3    0  502  0.27332969134E+02  0.15909452050E+02  0.57256626511E+02  0.65543844453E+02  0.41800000000E+01 0. -1.
        -11    1    4    4    0    0 -0.33190496097E+02 -0.50347191843E+01  0.24805648170E+02  0.41740599056E+02  0.00000000000E+00 0. -1.
         11    1    4    4    0    0 -0.69888695302E+01  0.16178772349E+02 -0.61488525765E+02  0.63964332036E+02  0.00000000000E+00 0.  1.
</event>
<event>
 8    1  0.3710605E-009  0.9883553E+02  0.7561462E-02  0.1282764E+00
         -3   -1    0    0    0  501 -0.00000000000E+00  0.00000000000E+00  0.28630353744E+02  0.28630353744E+02  0.00000000000E+00 0.  1.
          3   -1    0    0  501    0  0.00000000000E+00 -0.00000000000E+00 -0.66960423348E+03  0.66960423348E+03  0.00000000000E+00 0. -1.
         25    2    1    2    0    0  0.44224432432E+02 -0.62040846063E+02 -0.45938115824E+03  0.48216820751E+03  0.12510101829E+03 0.  0.
         23    2    1    2    0    0 -0.44224432432E+02  0.62040846063E+02 -0.18159272150E+03  0.21606637972E+03  0.88903863475E+02 0.  0.
          5    1    3    3  502    0  0.27284841188E+02 -0.76612781225E+02 -0.13986639510E+03  0.16184579601E+03  0.41800000000E+01 0.  1.
         -5    1    3    3    0  502  0.16939591244E+02  0.14571935162E+02 -0.31951476314E+03  0.32032241150E+03  0.41800000000E+01 0.  1.
        -11    1    4    4    0    0 -0.96801458133E+01  0.57911165372E+02 -0.41965142985E+02  0.72169810333E+02  0.00000000000E+00 0.  1.
         11    1    4    4    0    0 -0.34544286619E+02  0.41296806916E+01 -0.13962757851E+03  0.14389656939E+03  0.00000000000E+00 0. -1.
</event>
<event>
 8    1  0.3710605E-009  0.1061851E+03  0.7561462E-02  0.1267802E+00
          1   -1    0    0  501    0  0.00000000000E+00  0.00000000000E+00  0.18712100380E+03  0.18712100380E+03  0.00000000000E+00 0. -1.
         -1   -1    0    0    0  501 -0.00000000000E+00 -0.00000000000E+00 -0.11614378043E+03  0.11614378043E+03  0.00000000000E+00 0.  1.
         25    2    1    2    0    0 -0.45635345151E+02 -0.63473653926E+02  0.10179871502E+03  0.17922594511E+03  0.12508985390E+03 0.  0.
         23    2    1    2    0    0  0.45635345151E+02  0.63473653926E+02 -0.30821491655E+02  0.12403883912E+03  0.91236943138E+02 0.  0.
          5    1    3    3  502    0  0.27598295304E+02 -0.50000710173E+02  0.56491536259E+01  0.57542351865E+02  0.41800000000E+01 0. -1.
         -5    1    3    3    0  502 -0.73233640455E+02 -0.13472943753E+02  0.96149561396E+02  0.12168359324E+03  0.41800000000E+01 0. -1.
        -11    1    4    4    0    0  0.17171792395E+02  0.97986693013E+01  0.31380306462E+02  0.37089189905E+02  0.00000000000E+00 0. -1.
         11    1    4    4    0    0  0.28463552756E+02  0.53674984625E+02 -0.62201798117E+02  0.86949649217E+02  0.00000000000E+00 0.  1.
</event>
<event>
 8    1  0.3710605E-009  0.1006175E+03  0.7561462E-02  0.1279003E+00
         -2   -1    0    0    0  501 -0.00000000000E+00  0.00000000000E+00  0.15463606862E+02  0.15463606862E+02  0.00000000000E+00 0.  1.
          2   -1    0    0  501    0  0.00000000000E+00 -0.00000000000E+00 -0.78201380364E+03  0.78201380364E+03  0.00000000000E+00 0. -1.
         25    2    1    2    0    0 -0.82000384974E+01 -0.10873091676E+02 -0.39636473382E+03  0.41586001171E+03  0.12509629239E+03 0.  0.
         23    2    1    2    0    0  0.82000384974E+01  0.10873091676E+02 -0.37018546297E+03  0.38161739880E+03  0.91701130417E+02 0.  0.
          5    1    3    3  502    0  0.18684651236E+02 -0.54155379362E+02 -0.10176048169E+03  0.11685285336E+03  0.41800000000E+01 0. -1.
         -5    1    3    3    0  502 -0.26884689733E+02  0.43282287686E+02 -0.29460425213E+03  0.29900715834E+03  0.41800000000E+01 0. -1.
        -11    1    4    4    0    0 -0.41475803845E+02  0.11321563400E+02 -0.17703561393E+03  0.18218130723E+03  0.00000000000E+00 0.  1.
         11    1    4    4    0    0  0.49675842343E+02 -0.44847172345E+00 -0.19314984903E+03  0.19943609157E+03  0.00000000000E+00 0. -1.
</event>
<event>
 8    1  0.3710605E-009  0.1118612E+03  0.7561462E-02  0.1257161E+00
          1   -1    0    0  501    0  0.00000000000E+00  0.00000000000E+00  0.53736881670E+03  0.53736881670E+03  0.00000000000E+00 0. -1.
         -1   -1    0    0    0  501 -0.00000000000E+00 -0.00000000000E+00 -0.25196342490E+02  0.25196342490E+02  0.00000000000E+00 0.  1.
         25    2    1    2    0    0  0.31272411439E+02 -0.41292188163E+01  0.36194650412E+03  0.38425103928E+03  0.12509426518E+03 0.  0.
         23    2    1    2    0    0 -0.31272411439E+02  0.41292188163E+01  0.15022597009E+03  0.17831411990E+03  0.90736261232E+02 0.  0.
          5    1    3    3  502    0 -0.36964225307E+02 -0.36991800668E+02  0.16793051509E+03  0.17593429901E+03  0.41800000000E+01 0.  1.
         -5    1    3    3    0  502  0.68236636746E+02  0.32862581852E+02  0.19401598903E+03  0.20831674027E+03  0.41800000000E+01 0.  1.
        -11    1    4    4    0    0 -0.49013349293E+02 -0.29628313388E+02  0.10015933523E+03  0.11537780461E+03  0.00000000000E+00 0. -1.
         11    1    4    4    0    0  0.17740937854E+02  0.33757532204E+02  0.50066634859E+02  0.62936315292E+02  0.00000000000E+00 0.  1.
</event>
<event>
 8    1  0.3710605E-009  0.1121607E+03  0.7561462E-02  0.1256620E+00
         -1   -1    0    0    0  501 -0.00000000000E+00  0.00000000000E+00  0.25576815949E+02  0.25576815949E+02  0.00000000000E+00 0. -1.
          1   -1    0    0  501    0  0.00000000000E+00 -0.00000000000E+00 -0.51644905290E+03  0.51644905290E+03  0.00000000000E+00 0.  1.
         25    2    1    2    0    0 -0.91552058249E+01 -0.36737358614E+02 -0.25508118170E+03  0.28661265859E+03  0.12508779113E+03 0.  0.
         23    2    1    2    0    0  0.91552058249E+01  0.36737358614E+02 -0.23579105525E+03  0.25541321027E+03  0.90581647869E+02 0.  0.
          5    1    3    3  502    0  0.36351915774E+02 -0.63545554226E+02 -0.11037890569E+03  0.13251594042E+03  0.41800000000E+01 0. -1.
         -5    1    3    3    0  502 -0.45507121599E+02  0.26808195612E+02 -0.14470227601E+03  0.15409671817E+03  0.41800000000E+01 0. -1.
        -11    1    4    4    0    0 -0.11096050214E+02  0.63493629123E+02 -0.14794083867E+03  0.16137241095E+03  0.00000000000E+00 0. -1.
         11    1    4    4    0    0  0.20251256039E+02 -0.26756270509E+02 -0.87850216577E+02  0.94040799312E+02  0.00000000000E+00 0.  1.
</event>
<event>
 8    1  0.3710605E-009  0.9430075E+02  0.7561462E-02  0.1292759E+00
          2   -1    0    0  501    0  0.00000000000E+00  0.00000000000E+00  0.10008315035E+03  0.10008315035E+03  0.00000000000E+00 0. -1.
         -2   -1    0    0    0  501 -0.00000000000E+00 -0.00000000000E+00 -0.13843667175E+03  0.13843667175E+03  0.00000000000E+00 0.  1.
         25    2    1    2    0    0 -0.44356614994E+02  0.46032393662E+01 -0.19411562704E+02  0.13421175849E+03  0.12508912121E+03 0.  0.
         23    2    1    2    0    0  0.44356614994E+02 -0.46032393662E+01 -0.18941958688E+02  0.10430806361E+03  0.92372480903E+02 0.  0.
          5    1    3    3  502    0 -0.10213986897E+02  0.49413984066E+02 -0.48984318785E+02  0.70448585767E+02  0.41800000000E+01 0. -1.
         -5    1    3    3    0  502 -0.34142628097E+02 -0.44810744700E+02  0.29572756081E+02  0.63763172727E+02  0.41800000000E+01 0. -1.
        -11    1    4    4    0    0  0.54893299661E+02  0.16981719756E+02 -0.41874272481E+02  0.71099281637E+02  0.00000000000E+00 0.  1.
         11    1    4    4    0    0 -0.10536684667E+02 -0.21584959122E+02  0.22932313793E+02  0.33208781970E+02  0.00000000000E+00 0. -1.
</event>
<event>
 8    1  0.3710605E-009  0.4028394E+03  0.7561462E-02  0.1042801E+00
          1   -1    0    0  501    0  0.00000000000E+00  0.00000000000E+00  0.93679756575E+02  0.93679756575E+02  0.00000000000E+00 0. -1.
         -1   -1    0    0    0  501 -0.00000000000E+00 -0.00000000000E+00 -0.22401422577E+04  0.22401422577E+04  0.00000000000E+00 0.  1.
         25    2    1    2    0    0  0.39331536911E+03 -0.10213862588E+02 -0.16115163029E+04  0.16635598217E+04  0.12508070649E+03 0.  0.
         23    2    1    2    0    0 -0.39331536911E+03  0.10213862588E+02 -0.53494619822E+03  0.67026219262E+03  0.91009171486E+02 0.  0.
          5    1    3    3  502    0  0.26812803884E+02 -0.25489829525E+02 -0.73406982081E+02  0.82308658594E+02  0.41800000000E+01 0.  1.
         -5    1    3    3    0  502  0.36650256523E+03  0.15275966937E+02 -0.15381093208E+04  0.15812511631E+04  0.41800000000E+01 0.  1.
        -11    1    4    4    0    0 -0.92470663829E+02 -0.31915099373E+02 -0.10154218997E+03  0.14099721125E+03  0.00000000000E+00 0.  1.
         11    1    4    4    0    0 -0.30084470529E+03  0.42128961961E+02 -0.43340400826E+03  0.52926498137E+03  0.00000000000E+00 0. -1.
</event>
<event>
 8    1  0.3710605E-009  0.5457471E+03  0.7561462E-02  0.1002483E+00
         -1   -1    0    0    0  501 -0.00000000000E+00  0.00000000000E+00  0.61845404587E+03  0.61845404587E+03  0.00000000000E+00 0.  1.
          1   -1    0    0  501    0  0.00000000000E+00 -0.00000000000E+00 -0.66407743413E+03  0.66407743413E+03  0.00000000000E+00 0. -1.
         25    2    1    2    0    0 -0.41669252272E+03  0.34148155018E+03  0.30649221732E+03  0.63231876280E+03  0.12508889199E+03 0.  0.
         23    2    1    2    0    0  0.41669252272E+03 -0.34148155018E+03 -0.35211560559E+03  0.65021271720E+03  0.92460101165E+02 0.  0.
          5    1    3    3  502    0 -0.38247658329E+03  0.25514532698E+03  0.26289677397E+03  0.52964106790E+03  0.41800000000E+01 0.  1.
         -5    1    3    3    0  502 -0.34215939433E+02  0.86336223200E+02  0.43595443357E+02  0.10267769490E+03  0.41800000000E+01 0.  1.
        -11    1    4    4    0    0  0.73920942369E+02 -0.59896256674E+02 -0.10780473294E+03  0.14378361426E+03  0.00000000000E+00 0.  1.
         11    1    4    4    0    0  0.34277158035E+03 -0.28158529351E+03 -0.24431087265E+03  0.50642910294E+03  0.00000000000E+00 0. -1.
</event>
<event>
 8    1  0.3710605E-009  0.1052140E+03  0.7561462E-02  0.1269699E+00
         -2   -1    0    0    0  501 -0.00000000000E+00  0.00000000000E+00  0.15518631710E+03  0.15518631710E+03  0.00000000000E+00 0. -1.
          2   -1    0    0  501    0  0.00000000000E+00 -0.00000000000E+00 -0.16323514876E+03  0.16323514876E+03  0.00000000000E+00 0.  1.
         25    2    1    2    0    0  0.31773471660E+02  0.47969126547E+02 -0.10517519070E+03  0.17326024352E+03  0.12508677245E+03 0.  0.
         23    2    1    2    0    0 -0.31773471660E+02 -0.47969126547E+02  0.97126359034E+02  0.14516122234E+03  0.91256014871E+02 0.  0.
          5    1    3    3  502    0  0.59289020469E+02 -0.98563014606E+01 -0.88314739589E+02  0.10690790549E+03  0.41800000000E+01 0.  1.
         -5    1    3    3    0  502 -0.27515548809E+02  0.57825428008E+02 -0.16860451109E+02  0.66352338031E+02  0.41800000000E+01 0.  1.
        -11    1    4    4    0    0  0.14065355054E+02  0.59178049434E+01  0.66225967016E+02  0.67961263491E+02  0.00000000000E+00 0. -1.
         11    1    4    4    0    0 -0.45838826714E+02 -0.53886931490E+02  0.30900392018E+02  0.77199958853E+02  0.00000000000E+00 0.  1.
</event>
<event>
 8    1  0.3710605E-009  0.1130148E+03  0.7561462E-02  0.1255087E+00
          4   -1    0    0  501    0  0.00000000000E+00  0.00000000000E+00  0.87018199374E+03  0.87018199374E+03  0.00000000000E+00 0. -1.
         -4   -1    0    0    0  501 -0.00000000000E+00 -0.00000000000E+00 -0.15422574689E+02  0.15422574689E+02  0.00000000000E+00 0.  1.
         25    2    1    2    0    0  0.27226856355E+02  0.17120695548E+02  0.41974324728E+03  0.43916513382E+03  0.12508877330E+03 0.  0.
         23    2    1    2    0    0 -0.27226856355E+02 -0.17120695548E+02  0.43501617176E+03  0.44643943460E+03  0.95050929221E+02 0.  0.
          5    1    3    3  502    0  0.73907508402E+02  0.30938157470E+02  0.26756723781E+03  0.27933705185E+03  0.41800000000E+01 0.  1.
         -5    1    3    3    0  502 -0.46680652047E+02 -0.13817461921E+02  0.15217600947E+03  0.15982808198E+03  0.41800000000E+01 0.  1.
        -11    1    4    4    0    0 -0.40004489509E+02 -0.48609679779E+02  0.33339706943E+03  0.33928876500E+03  0.00000000000E+00 0. -1.
         11    1    4    4    0    0  0.12777633153E+02  0.31488984230E+02  0.10161910233E+03  0.10715066960E+03  0.00000000000E+00 0.  1.
</event>
<event>
 8    1  0.3710605E-009  0.1038571E+03  0.7561462E-02  0.1272388E+00
         -2   -1    0    0    0  501 -0.00000000000E+00  0.00000000000E+00  0.94370762343E+02  0.94370762343E+02  0.00000000000E+00 0.  1.
          2   -1    0    0  501    0  0.00000000000E+00 -0.00000000000E+00 -0.15527231405E+03  0.15527231405E+03  0.00000000000E+00 0. -1.
         25    2    1    2    0    0 -0.26771257993E+02  0.16317554408E+02 -0.80222717920E+02  0.15187655982E+03  0.12509133509E+03 0.  0.
         23    2    1    2    0    0  0.26771257993E+02 -0.16317554408E+02  0.19321166216E+02  0.97766516571E+02  0.90565012350E+02 0.  0.
          5    1    3    3  502    0  0.40193275486E+02 -0.10408725866E+02  0.28167292391E+01  0.41824004256E+02  0.41800000000E+01 0.  1.
         -5    1    3    3    0  502 -0.66964533479E+02  0.26726280273E+02 -0.83039447159E+02  0.11005255556E+03  0.41800000000E+01 0.  1.
        -11    1    4    4    0    0  0.16173090177E+02  0.36484227481E+02  0.18294933320E+02  0.43901848321E+02  0.00000000000E+00 0.  1.
         11    1    4    4    0    0  0.10598167817E+02 -0.52801781889E+02  0.10262328954E+01  0.53864668250E+02  0.00000000000E+00 0. -1.
</event>
<event>
 8    1  0.3710605E-009  0.5947720E+02  0.7561462E-02  0.1400039E+00
          2   -1    0    0  501    0  0.00000000000E+00  0.00000000000E+00  0.26267011372E+03  0.26267011372E+03  0.00000000000E+00 0. -1.
         -2   -1    0    0    0  501 -0.00000000000E+00 -0.00000000000E+00 -0.50996017016E+02  0.50996017016E+02  0.00000000000E+00 0.  1.
         25    2    1    2    0    0 -0.98893731359E+01 -0.26889452796E+02  0.15724610781E+03  0.20296538324E+03  0.12509103086E+03 0.  0.
         23    2    1    2    0    0  0.98893731359E+01  0.26889452796E+02  0.54427988889E+02  0.11070074749E+03  0.92040247432E+02 0.  0.
          5    1    3    3  502    0 -0.22109611445E+02  0.10594764319E+02  0.16121337086E+03  0.16312052996E+03  0.41800000000E+01 0.  1.
         -5    1    3    3    0  502  0.12220238309E+02 -0.37484217115E+02 -0.39672630531E+01  0.39844853283E+02  0.41800000000E+01 0.  1.
        -11    1    4    4    0    0  0.12894414179E+02 -0.10682632805E+02 -0.20713790994E+02  0.26635421866E+02  0.00000000000E+00 0.  1.
         11    1    4    4    0    0 -0.30050410434E+01  0.37572085601E+02  0.75141779883E+02  0.84065325623E+02  0.00000000000E+00 0. -1.
</event>
<event>
 8    1  0.3710605E-009  0.9615527E+02  0.7561462E-02  0.1288595E+00
         -2   -1    0    0    0  501 -0.00000000000E+00  0.00000000000E+00  0.94749332508E+01  0.94749332508E+01  0.00000000000E+00 0.  1.
          2   -1    0    0  501    0  0.00000000000E+00 -0.00000000000E+00 -0.13654788541E+04  0.13654788541E+04  0.00000000000E+00 0. -1.
         25    2    1    2    0    0 -0.78191517897E+01 -0.63184595309E+00 -0.91299258738E+03  0.92155593532E+03  0.12509332096E+03 0.  0.
         23    2    1    2    0    0  0.78191517897E+01  0.63184595309E+00 -0.44301133349E+03  0.45339785205E+03  0.96171889241E+02 0.  0.
          5    1    3    3  502    0  0.24915892598E+02  0.37904811391E+02 -0.14726553649E+03  0.15414988508E+03  0.41800000000E+01 0. -1.
         -5    1    3    3    0  502 -0.32735044388E+02 -0.38536657344E+02 -0.76572705089E+03  0.76740605024E+03  0.41800000000E+01 0. -1.
        -11    1    4    4    0    0  0.28792352547E+02 -0.40593784502E+02 -0.25185087872E+03  0.25672109383E+03  0.00000000000E+00 0. -1.
         11    1    4    4    0    0 -0.20973200757E+02  0.41225630455E+02 -0.19116045477E+03  0.19667675822E+03  0.00000000000E+00 0.  1.
</event>
<event>
 8    1  0.3710605E-009  0.9506692E+02  0.7561462E-02  0.1291025E+00
          2   -1    0    0  501    0  0.00000000000E+00  0.00000000000E+00  0.16220158627E+03  0.16220158627E+03  0.00000000000E+00 0. -1.
         -2   -1    0    0    0  501 -0.00000000000E+00 -0.00000000000E+00 -0.73514105996E+02  0.73514105996E+02  0.00000000000E+00 0.  1.
         25    2    1    2    0    0  0.22054512133E+02 -0.83022237271E+01  0.46213061189E+02  0.13541788438E+03  0.12508808081E+03 0.  0.
         23    2    1    2    0    0 -0.22054512133E+02  0.83022237271E+01  0.42474419081E+02  0.10029780788E+03  0.87751043102E+02 0.  0.
          5    1    3    3  502    0 -0.44241419048E+02  0.24737369074E+02  0.65184847301E+01  0.51275760660E+02  0.41800000000E+01 0. -1.
         -5    1    3    3    0  502  0.66295931181E+02 -0.33039592802E+02  0.39694576459E+02  0.84142123719E+02  0.41800000000E+01 0. -1.
        -11    1    4    4    0    0 -0.65988194760E+01  0.34250857672E+02 -0.12926480995E+02  0.37198919079E+02  0.00000000000E+00 0.  1.
         11    1    4    4    0    0 -0.15455692657E+02 -0.25948633945E+02  0.55400900075E+02  0.63098888804E+02  0.00000000000E+00 0. -1.
</event>
<event>
 8    1  0.3710605E-009  0.1684921E+03  0.7561462E-02  0.1179429E+00
          1   -1    0    0  501    0  0.00000000000E+00  0.00000000000E+00  0.68348272889E+03  0.68348272889E+03  0.00000000000E+00 0. -1.
         -1   -1    0    0    0  501 -0.00000000000E+00 -0.00000000000E+00 -0.49852596784E+02  0.49852596784E+02  0.00000000000E+00 0.  1.
         25    2    1    2    0    0 -0.13704228485E+03  0.46122595434E+02  0.25880762999E+03  0.32177157725E+03  0.12509067487E+03 0.  0.
         23    2    1    2    0    0  0.13704228485E+03 -0.46122595434E+02  0.37482250212E+03  0.41156374843E+03  0.89358431498E+02 0.  0.
          5    1    3    3  502    0 -0.71725645969E+02 -0.31651323605E+02  0.61173942725E+02  0.99529383822E+02  0.41800000000E+01 0.  1.
         -5    1    3    3    0  502 -0.65316638880E+02  0.77773919038E+02  0.19763368727E+03  0.22224219343E+03  0.41800000000E+01 0.  1.
        -11    1    4    4    0    0  0.10328310025E+03 -0.47025737117E+01  0.16235816221E+03  0.19248294946E+03  0.00000000000E+00 0.  1.
         11    1    4    4    0    0  0.33759184603E+02 -0.41420021722E+02  0.21246433991E+03  0.21908079897E+03  0.00000000000E+00 0. -1.
</event>
<event>
 8    1  0.3710605E-009  0.1415634E+03  0.7561462E-02  0.1211241E+00
          2   -1    0    0  501    0  0.00000000000E+00  0.00000000000E+00  0.71597086789E+03  0.71597086789E+03  0.00000000000E+00 0.  1.
         -2   -1    0    0    0  501 -0.00000000000E+00 -0.00000000000E+00 -0.43884330698E+02  0.43884330698E+02  0.00000000000E+00 0. -1.
         25    2    1    2    0    0  0.12702766084E+03 -0.25481045726E+02  0.46964922166E+03  0.50299383834E+03  0.12508836755E+03 0.  0.
         23    2    1    2    0    0 -0.12702766084E+03  0.25481045726E+02  0.20243731553E+03  0.25686136024E+03  0.90617776171E+02 0.  0.
          5    1    3    3  502    0  0.12388746310E+03 -0.10980407271E+02  0.47133626543E+03  0.48748745662E+03  0.41800000000E+01 0. -1.
         -5    1    3    3    0  502  0.31401977363E+01 -0.14500638455E+02 -0.16870437657E+01  0.15506381721E+02  0.41800000000E+01 0. -1.
        -11    1    4    4    0    0 -0.47924792669E+02  0.40508823539E+02  0.14488292479E+03  0.15788860767E+03  0.00000000000E+00 0. -1.
         11    1    4    4    0    0 -0.79102868168E+02 -0.15027777813E+02  0.57554390743E+02  0.98972752575E+02  0.00000000000E+00 0.  1.
</event>
<event>
 8    1  0.3710605E-009  0.1092314E+03  0.7561462E-02  0.1262000E+00
          3   -1    0    0  501    0  0.00000000000E+00  0.00000000000E+00  0.40748881515E+02  0.40748881515E+02  0.00000000000E+00 0. -1.
         -3   -1    0    0    0  501 -0.00000000000E+00 -0.00000000000E+00 -0.31730017844E+03  0.31730017844E+03  0.00000000000E+00 0.  1.
         25    2    1    2    0    0  0.10195000776E+02  0.23758555979E+02 -0.19599737153E+03  0.23394635969E+03  0.12509005774E+03 0.  0.
         23    2    1    2    0    0 -0.10195000776E+02 -0.23758555979E+02 -0.80553925401E+02  0.12410270026E+03  0.90797237251E+02 0.  0.
          5    1    3    3  502    0  0.22887893143E+02 -0.46968074563E+02 -0.10964634229E+03  0.12153044252E+03  0.41800000000E+01 0.  1.
         -5    1    3    3    0  502 -0.12692892366E+02  0.70726630542E+02 -0.86351029235E+02  0.11241591718E+03  0.41800000000E+01 0.  1.
        -11    1    4    4    0    0 -0.41374936581E+02  0.15281392931E+02 -0.43011516239E+02  0.61606792452E+02  0.00000000000E+00 0.  1.
         11    1    4    4    0    0  0.31179935805E+02 -0.39039948910E+02 -0.37542409162E+02  0.62495907813E+02  0.00000000000E+00 0. -1.
</event>
<event>
 8    1  0.3710605E-009  0.1435848E+03  0.7561462E-02  0.1208585E+00
         -2   -1    0    0    0  501 -0.00000000000E+00  0.00000000000E+00  0.89308415968E+02  0.89308415968E+02  0.00000000000E+00 0.  1.
          2   -1    0    0  501    0  0.00000000000E+00 -0.00000000000E+00 -0.30390066577E+03  0.30390066577E+03  0.00000000000E+00 0. -1.
         25    2    1    2    0    0 -0.94299441921E+02  0.60446729331E+02 -0.52368728132E+02  0.17588623821E+03  0.12508914130E+03 0.  0.
         23    2    1    2    0    0  0.94299441921E+02 -0.60446729331E+02 -0.16222352167E+03  0.21732284353E+03  0.91468877242E+02 0.  0.
          5    1    3    3  502    0  0.83792094720E+01 -0.27362644187E+02  0.44484680765E+01  0.29260668423E+02  0.41800000000E+01 0. -1.
         -5    1    3    3    0  502 -0.10267865139E+03  0.87809373519E+02 -0.56817196209E+02  0.14662556978E+03  0.41800000000E+01 0. -1.
        -11    1    4    4    0    0  0.93215406085E+02 -0.38091773550E+02 -0.70540057579E+02  0.12294712224E+03  0.00000000000E+00 0.  1.
         11    1    4    4    0    0  0.10840358366E+01 -0.22354955781E+02 -0.91683464090E+02  0.94375721291E+02  0.00000000000E+00 0. -1.
</event>
<event>
 8    1  0.3710605E-009  0.7798342E+02  0.7561462E-02  0.1334874E+00
         -2   -1    0    0    0  501 -0.00000000000E+00  0.00000000000E+00  0.42534550037E+02  0.42534550037E+02  0.00000000000E+00 0.  1.
          2   -1    0    0  501    0  0.00000000000E+00 -0.00000000000E+00 -0.28740964548E+03  0.28740964548E+03  0.00000000000E+00 0. -1.
         25    2    1    2    0    0  0.42638721130E+01  0.64350264482E+01 -0.11474301203E+03  0.16991947957E+03  0.12508829104E+03 0.  0.
         23    2    1    2    0    0 -0.42638721130E+01 -0.64350264482E+01 -0.13013208341E+03  0.16002471595E+03  0.92811423923E+02 0.  0.
          5    1    3    3  502    0 -0.38799140288E+02 -0.89280751468E+01  0.62421945277E+01  0.40515690855E+02  0.41800000000E+01 0. -1.
         -5    1    3    3    0  502  0.43063012401E+02  0.15363101595E+02 -0.12098520656E+03  0.12940378872E+03  0.41800000000E+01 0. -1.
        -11    1    4    4    0    0  0.32404904037E+02  0.17481536683E+01 -0.11505081142E+03  0.11954004791E+03  0.00000000000E+00 0. -1.
         11    1    4    4    0    0 -0.36668776150E+02 -0.81831801165E+01 -0.15081271996E+02  0.40484668038E+02  0.00000000000E+00 0.  1.
</event>
<event>
 8    1  0.3710605E-009  0.9563319E+02  0.7561462E-02  0.1289756E+00
          2   -1    0    0  501    0  0.00000000000E+00  0.00000000000E+00  0.53180631238E+03  0.53180631238E+03  0.00000000000E+00 0. -1.
         -2   -1    0    0    0  501 -0.00000000000E+00 -0.00000000000E+00 -0.23011265299E+02  0.23011265299E+02  0.00000000000E+00 0.  1.
         25    2    1    2    0    0  0.11933245621E+02  0.10658145140E+02  0.25477398727E+03  0.28427657998E+03  0.12508953163E+03 0.  0.
         23    2    1    2    0    0 -0.11933245621E+02 -0.10658145140E+02  0.25402105981E+03  0.27054099770E+03  0.91704602955E+02 0.  0.
          5    1    3    3  502    0 -0.36216408242E+02  0.32108824657E+02  0.20826453296E+03  0.21385554222E+03  0.41800000000E+01 0.  1.
         -5    1    3    3    0  502  0.48149653864E+02 -0.21450679517E+02  0.46509454310E+02  0.70421037760E+02  0.41800000000E+01 0.  1.
        -11    1    4    4    0    0 -0.50458334707E+02 -0.31335147631E+01  0.10655290921E+03  0.11793805543E+03  0.00000000000E+00 0.  1.
         11    1    4    4    0    0  0.38525089085E+02 -0.75246303769E+01  0.14746815060E+03  0.15260294228E+03  0.00000000000E+00 0. -1.
</event>
<event>
 8    1  0.3710605E-009  0.1146840E+03  0.7561462E-02  0.1252134E+00
         -2   -1    0    0    0  501 -0.00000000000E+00  0.00000000000E+00  0.20494524358E+02  0.20494524358E+02  0.00000000000E+00 0.  1.
          2   -1    0    0  501    0  0.00000000000E+00 -0.00000000000E+00 -0.69869914638E+03  0.69869914638E+03  0.00000000000E+00 0. -1.
         25    2    1    2    0    0  0.21916485287E+02 -0.30564674886E+02 -0.47564562358E+03  0.49325209790E+03  0.12507734075E+03 0.  0.
         23    2    1    2    0    0 -0.21916485287E+02  0.30564674886E+02 -0.20255899844E+03  0.22594157284E+03  0.92762680054E+02 0.  0.
          5    1    3    3  502    0 -0.51746523125E+02 -0.17343686662E+02 -0.17243353033E+03  0.18091241225E+03  0.41800000000E+01 0.  1.
         -5    1    3    3    0  502  0.73663008412E+02 -0.13220988224E+02 -0.30321209325E+03  0.31233968565E+03  0.41800000000E+01 0.  1.
        -11    1    4    4    0    0  0.36352187847E+02  0.82217913400E+01 -0.85977515330E+02  0.93708124282E+02  0.00000000000E+00 0.  1.
         11    1    4    4    0    0 -0.58268673134E+02  0.22342883546E+02 -0.11658148311E+03  0.13223344856E+03  0.00000000000E+00 0. -1.
</event>
<event>
 8    1  0.3710605E-009  0.2074635E+03  0.7561462E-02  0.1143590E+00
          2   -1    0    0  501    0  0.00000000000E+00  0.00000000000E+00  0.13194621442E+04  0.13194621442E+04  0.00000000000E+00 0. -1.
         -2   -1    0    0    0  501 -0.00000000000E+00 -0.00000000000E+00 -0.34853213400E+02  0.34853213400E+02  0.00000000000E+00 0.  1.
         25    2    1    2    0    0  0.36427175036E+02  0.17602247590E+03  0.80696496528E+03  0.83615210140E+03  0.12508809056E+03 0.  0.
         23    2    1    2    0    0 -0.36427175036E+02 -0.17602247590E+03  0.47764396553E+03  0.51816325620E+03  0.89657967671E+02 0.  0.
          5    1    3    3  502    0  0.79905440170E+02  0.12479122071E+03  0.48175503002E+03  0.50404673343E+03  0.41800000000E+01 0.  1.
         -5    1    3    3    0  502 -0.43478265133E+02  0.51231255190E+02  0.32520993526E+03  0.33210536798E+03  0.41800000000E+01 0.  1.
        -11    1    4    4    0    0 -0.42545952788E+02 -0.27379889864E+02  0.15062587348E+03  0.15889609885E+03  0.00000000000E+00 0. -1.
         11    1    4    4    0    0  0.61187777519E+01 -0.14864258603E+03  0.32701809205E+03  0.35926715735E+03  0.00000000000E+00 0.  1.
</event>
<event>
 8    1  0.3710605E-009  0.1596133E+03  0.7561462E-02  0.1189134E+00
         -1   -1    0    0    0  501 -0.00000000000E+00  0.00000000000E+00  0.24231850476E+02  0.24231850476E+02  0.00000000000E+00 0.  1.
          1   -1    0    0  501    0  0.00000000000E+00 -0.00000000000E+00 -0.11302060254E+04  0.11302060254E+04  0.00000000000E+00 0. -1.
         25    2    1    2    0    0  0.32043992932E+02  0.11803073721E+03 -0.50791079162E+03  0.53719540053E+03  0.12508978258E+03 0.  0.
         23    2    1    2    0    0 -0.32043992932E+02 -0.11803073721E+03 -0.59806338335E+03  0.61724247538E+03  0.91380471142E+02 0.  0.
          5    1    3    3  502    0 -0.29765550353E+02  0.97844539026E+02 -0.38134140053E+03  0.39483955977E+03  0.41800000000E+01 0. -1.
         -5    1    3    3    0  502  0.61809543285E+02  0.20186198183E+02 -0.12656939109E+03  0.14235584076E+03  0.41800000000E+01 0. -1.
        -11    1    4    4    0    0 -0.61365010012E+02 -0.55891459963E+02 -0.29247828491E+03  0.30402806926E+03  0.00000000000E+00 0.  1.
         11    1    4    4    0    0  0.29321017080E+02 -0.62139277245E+02 -0.30558509844E+03  0.31321440613E+03  0.00000000000E+00 0. -1.
</event>
<event>
 8    1  0.3710605E-009  0.1196739E+03  0.7561462E-02  0.1243636E+00
          1   -1    0    0  501    0  0.00000000000E+00  0.00000000000E+00  0.23745675576E+03  0.23745675576E+03  0.00000000000E+00 0. -1.
         -1   -1    0    0    0  501 -0.00000000000E+00 -0.00000000000E+00 -0.66567546121E+02  0.66567546121E+02  0.00000000000E+00 0.  1.
         25    2    1    2    0    0  0.65392525079E+02  0.28035297934E+02  0.11412292213E+03  0.18367026913E+03  0.12509422904E+03 0.  0.
         23    2    1    2    0    0 -0.65392525079E+02 -0.28035297934E+02  0.56766287512E+02  0.12035403276E+03  0.78743390430E+02 0.  0.
          5    1    3    3  502    0  0.22378907109E+02  0.72514490133E+02  0.36496208853E+02  0.84312587573E+02  0.41800000000E+01 0. -1.
         -5    1    3    3    0  502  0.43013617970E+02 -0.44479192199E+02  0.77626713275E+02  0.99357681553E+02  0.41800000000E+01 0. -1.
        -11    1    4    4    0    0 -0.34303388271E+02  0.23189477196E+02  0.41271807992E+02  0.58462265047E+02  0.00000000000E+00 0.  1.
         11    1    4    4    0    0 -0.31089136808E+02 -0.51224775130E+02  0.15494479520E+02  0.61891767710E+02  0.00000000000E+00 0. -1.
</event>
<event>
 8    1  0.3710605E-009  0.1268847E+03  0.7561462E-02  0.1232153E+00
          3   -1    0    0  501    0  0.00000000000E+00  0.00000000000E+00  0.22614707008E+03  0.22614707008E+03  0.00000000000E+00 0. -1.
         -3   -1    0    0    0  501 -0.00000000000E+00 -0.00000000000E+00 -0.78774862780E+02  0.78774862780E+02  0.00000000000E+00 0.  1.
         25    2    1    2    0    0 -0.77825384852E+02  0.25394605327E+01  0.74034092592E+02  0.16489931401E+03  0.12508995766E+03 0.  0.
         23    2    1    2    0    0  0.77825384852E+02 -0.25394605327E+01  0.73338114708E+02  0.14002261885E+03  0.90358261018E+02 0.  0.
          5    1    3    3  502    0 -0.10489803311E+03 -0.25262385158E+02  0.59228359840E+02  0.12315541589E+03  0.41800000000E+01 0. -1.
         -5    1    3    3    0  502  0.27072648258E+02  0.27801845690E+02  0.14805732752E+02  0.41743898115E+02  0.41800000000E+01 0. -1.
        -11    1    4    4    0    0  0.91973592014E+02 -0.60878187705E+01  0.34302396037E+02  0.98350686522E+02  0.00000000000E+00 0.  1.
         11    1    4    4    0    0 -0.14148207162E+02  0.35483582378E+01  0.39035718671E+02  0.41671932331E+02  0.00000000000E+00 0. -1.
</event>
<event>
 8    1  0.3710605E-009  0.9151675E+02  0.7561462E-02  0.1299220E+00
         -3   -1    0    0    0  501 -0.00000000000E+00  0.00000000000E+00  0.25568632892E+03  0.25568632892E+03  0.00000000000E+00 0.  1.
          3   -1    0    0  501    0  0.00000000000E+00 -0.00000000000E+00 -0.51940811707E+02  0.51940811707E+02  0.00000000000E+00 0. -1.
         25    2    1    2    0    0  0.32927012685E+02 -0.13067698811E+02  0.13676885757E+03  0.18870083703E+03  0.12508929842E+03 0.  0.
         23    2    1    2    0    0 -0.32927012685E+02  0.13067698811E+02  0.66976659644E+02  0.11892630360E+03  0.91665914244E+02 0.  0.
          5    1    3    3  502    0  0.14502828918E+02  0.55690868648E+02  0.72910017329E+02  0.92979287610E+02  0.41800000000E+01 0.  1.
         -5    1    3    3    0  502  0.18424183767E+02 -0.68758567460E+02  0.63858840244E+02  0.95721549423E+02  0.41800000000E+01 0.  1.
        -11    1    4    4    0    0 -0.20626296795E+02 -0.13567437967E+02 -0.16997994865E+02  0.29974177585E+02  0.00000000000E+00 0. -1.
         11    1    4    4    0    0 -0.12300715890E+02  0.26635136778E+02  0.83974654509E+02  0.88952126015E+02  0.00000000000E+00 0.  1.
</event>
<event>
 8    1  0.3710605E-009  0.1153948E+03  0.7561462E-02  0.1250894E+00
         -1   -1    0    0    0  501 -0.00000000000E+00  0.00000000000E+00  0.25952962690E+03  0.25952962690E+03  0.00000000000E+00 0.  1.
          1   -1    0    0  501    0  0.00000000000E+00 -0.00000000000E+00 -0.14720021358E+03  0.14720021358E+03  0.00000000000E+00 0. -1.
         25    2    1    2    0    0  0.40803734527E+02  0.80716246553E+01 -0.10416508331E+03  0.16801376419E+03  0.12509262369E+03 0.  0.
         23    2    1    2    0    0 -0.40803734527E+02 -0.80716246553E+01  0.21649449664E+03  0.23871607628E+03  0.91571841330E+02 0.  0.
          5    1    3    3  502    0  0.71933455108E+02  0.43599869120E+02 -0.70886397013E+02  0.11008053521E+03  0.41800000000E+01 0.  1.
         -5    1    3    3    0  502 -0.31129720581E+02 -0.35528244465E+02 -0.33278686302E+02  0.57933228981E+02  0.41800000000E+01 0.  1.
        -11    1    4    4    0    0  0.10983766728E+02 -0.37849368392E+02  0.67060481326E+02  0.77783841348E+02  0.00000000000E+00 0. -1.
         11    1    4    4    0    0 -0.51787501255E+02  0.29777743737E+02  0.14943401531E+03  0.16093223493E+03  0.00000000000E+00 0.  1.
</event>
<event>
 8    1  0.3710605E-009  0.2699083E+03  0.7561462E-02  0.1101332E+00
         -2   -1    0    0    0  501 -0.00000000000E+00  0.00000000000E+00  0.96912757564E+02  0.96912757564E+02  0.00000000000E+00 0.  1.
          2   -1    0    0  501    0  0.00000000000E+00 -0.00000000000E+00 -0.94934744182E+03  0.94934744182E+03  0.00000000000E+00 0. -1.
         25    2    1    2    0    0  0.22574893480E+03 -0.13297412714E+03 -0.61900450850E+03  0.68370920901E+03  0.12508797261E+03 0.  0.
         23    2    1    2    0    0 -0.22574893480E+03  0.13297412714E+03 -0.23343017575E+03  0.36255099037E+03  0.91153023061E+02 0.  0.
          5    1    3    3  502    0  0.77288776284E+02 -0.96237812125E+02 -0.17583409230E+03  0.21487292020E+03  0.41800000000E+01 0. -1.
         -5    1    3    3    0  502  0.14846015851E+03 -0.36736315019E+02 -0.44317041620E+03  0.46883628881E+03  0.41800000000E+01 0. -1.
        -11    1    4    4    0    0 -0.10470736767E+03  0.76946375932E+02 -0.17236606314E+03  0.21585744679E+03  0.00000000000E+00 0.  1.
         11    1    4    4    0    0 -0.12104156712E+03  0.56027751212E+02 -0.61064112618E+02  0.14669354358E+03  0.00000000000E+00 0. -1.
</event>
<event>
 8    1  0.3710605E-009  0.2483966E+03  0.7561462E-02  0.1114322E+00
         -2   -1    0    0    0  501 -0.00000000000E+00  0.00000000000E+00  0.48612375264E+02  0.48612375264E+02  0.00000000000E+00 0.  1.
          2   -1    0    0  501    0  0.00000000000E+00 -0.00000000000E+00 -0.14753728577E+04  0.14753728577E+04  0.00000000000E+00 0. -1.
         25    2    1    2    0    0 -0.22834127446E+03  0.42809927780E+02 -0.51323939342E+03  0.57709312521E+03  0.12509745266E+03 0.  0.
         23    2    1    2    0    0  0.22834127446E+03 -0.42809927780E+02 -0.91352108904E+03  0.94689210778E+03  0.90063622603E+02 0.  0.
          5    1    3    3  502    0 -0.26294796968E+02  0.37738034972E+02 -0.19250016798E+03  0.19796303368E+03  0.41800000000E+01 0. -1.
         -5    1    3    3    0  502 -0.20204647750E+03  0.50718928082E+01 -0.32073922543E+03  0.37913009152E+03  0.41800000000E+01 0. -1.
        -11    1    4    4    0    0  0.71675646279E+02  0.27454818027E+02 -0.31625805628E+03  0.32543866314E+03  0.00000000000E+00 0. -1.
         11    1    4    4    0    0  0.15666562819E+03 -0.70264745807E+02 -0.59726303275E+03  0.62145344464E+03  0.00000000000E+00 0.  1.
</event>
<event>
 8    1  0.3710605E-009  0.1031768E+03  0.7561462E-02  0.1273754E+00
         -2   -1    0    0    0  501 -0.00000000000E+00  0.00000000000E+00  0.12775475069E+02  0.12775475069E+02  0.00000000000E+00 0.  1.
          2   -1    0    0  501    0  0.00000000000E+00 -0.00000000000E+00 -0.21821217905E+04  0.21821217905E+04  0.00000000000E+00 0. -1.
         25    2    1    2    0    0 -0.80060806350E+02 -0.31386626144E+02 -0.17638971830E+04  0.17704167655E+04  0.12508956075E+03 0.  0.
         23    2    1    2    0    0  0.80060806350E+02  0.31386626144E+02 -0.40544913238E+03  0.42448050005E+03  0.91650657218E+02 0.  0.
          5    1    3    3  502    0 -0.29557964702E+02  0.11521320512E+00 -0.14807427536E+04  0.14810436393E+04  0.41800000000E+01 0.  1.
         -5    1    3    3    0  502 -0.50502841648E+02 -0.31501839349E+02 -0.28315442939E+03  0.28937312622E+03  0.41800000000E+01 0.  1.
        -11    1    4    4    0    0  0.12214652530E+02  0.45860773138E+02 -0.92850732135E+02  0.10427687523E+03  0.00000000000E+00 0.  1.
         11    1    4    4    0    0  0.67846153820E+02 -0.14474146994E+02 -0.31259840024E+03  0.32020362483E+03  0.00000000000E+00 0. -1.
</event>
<event>
 8    1  0.3710605E-009  0.1632268E+03  0.7561462E-02  0.1185101E+00
         -3   -1    0    0    0  501 -0.00000000000E+00  0.00000000000E+00  0.39801995485E+03  0.39801995485E+03  0.00000000000E+00 0.  1.
          3   -1    0    0  501    0  0.00000000000E+00 -0.00000000000E+00 -0.11280890795E+03  0.11280890795E+03  0.00000000000E+00 0. -1.
         25    2    1    2    0    0  0.15155846510E+03  0.14430957418E+02  0.26998128762E+03  0.33424167471E+03  0.12509748427E+03 0.  0.
         23    2    1    2    0    0 -0.15155846510E+03 -0.14430957418E+02  0.15229759282E+02  0.17658718809E+03  0.88163873287E+02 0.  0.
          5    1    3    3  502    0  0.11105637093E+02  0.29958737205E+02  0.13495360690E+03  0.13874728655E+03  0.41800000000E+01 0.  1.
         -5    1    3    3    0  502  0.14045282801E+03 -0.15527779787E+02  0.13502768072E+03  0.19549438816E+03  0.41800000000E+01 0.  1.
        -11    1    4    4    0    0 -0.11406980933E+03 -0.16782503036E+02 -0.28671888468E+02  0.11880930518E+03  0.00000000000E+00 0. -1.
         11    1    4    4    0    0 -0.37488655775E+02  0.23515456180E+01  0.43901647750E+02  0.57777882912E+02  0.00000000000E+00 0.  1.
</event>
<event>
 8    1  0.3710605E-009  0.1637079E+03  0.7561462E-02  0.1184573E+00
         -2   -1    0    0    0  501 -0.00000000000E+00  0.00000000000E+00  0.30435822601E+02  0.30435822601E+02  0.00000000000E+00 0.  1.
          2   -1    0    0  501    0  0.00000000000E+00 -0.00000000000E+00 -0.10007332855E+04  0.10007332855E+04  0.00000000000E+00 0. -1.
         25    2    1    2    0    0  0.12068998889E+03 -0.46772040551E+02 -0.40239076846E+03  0.44081695784E+03  0.12509021777E+03 0.  0.
         23    2    1    2    0    0 -0.12068998889E+03  0.46772040551E+02 -0.56790669440E+03  0.59035215022E+03  0.96145465480E+02 0.  0.
          5    1    3    3  502    0  0.21858769654E+02 -0.66196885099E+02 -0.99285605826E+02  0.12138755015E+03  0.41800000000E+01 0.  1.
         -5    1    3    3    0  502  0.98831219232E+02  0.19424844547E+02 -0.30310516264E+03  0.31942940769E+03  0.41800000000E+01 0.  1.
        -11    1    4    4    0    0 -0.60363943741E+02  0.69724640414E+02 -0.39933414264E+03  0.40984520085E+03  0.00000000000E+00 0. -1.
         11    1    4    4    0    0 -0.60326045145E+02 -0.22952599862E+02 -0.16857255176E+03  0.18050694937E+03  0.00000000000E+00 0.  1.
</event>
<event>
 8    1  0.3710605E-009  0.1191923E+03  0.7561462E-02  0.1244435E+00
         -2   -1    0    0    0  501 -0.00000000000E+00  0.00000000000E+00  0.32844570725E+02  0.32844570725E+02  0.00000000000E+00 0.  1.
          2   -1    0    0  501    0  0.00000000000E+00 -0.00000000000E+00 -0.64859332488E+03  0.64859332488E+03  0.00000000000E+00 0. -1.
         25    2    1    2    0    0 -0.52584243785E+02  0.82134515541E+02 -0.35883960329E+03  0.39233112656E+03  0.12508665252E+03 0.  0.
         23    2    1    2    0    0  0.52584243785E+02 -0.82134515541E+02 -0.25690915087E+03  0.28910676905E+03  0.89828897204E+02 0.  0.
          5    1    3    3  502    0 -0.62336309180E+02  0.37806659617E+02 -0.74352399813E+02  0.10421569321E+03  0.41800000000E+01 0.  1.
         -5    1    3    3    0  502  0.97520653957E+01  0.44327855925E+02 -0.28448720347E+03  0.28811543334E+03  0.41800000000E+01 0.  1.
        -11    1    4    4    0    0  0.46959395897E+02 -0.94870750115E+02 -0.25358467922E+03  0.27479234637E+03  0.00000000000E+00 0. -1.
         11    1    4    4    0    0  0.56248478873E+01  0.12736234574E+02 -0.33244716517E+01  0.14314422679E+02  0.00000000000E+00 0.  1.
</event>
<event>
 8    1  0.3710605E-009  0.1036106E+03  0.7561462E-02  0.1272881E+00
          1   -1    0    0  501    0  0.00000000000E+00  0.00000000000E+00  0.28246279266E+03  0.28246279266E+03  0.00000000000E+00 0. -1.
         -1   -1    0    0    0  501 -0.00000000000E+00 -0.00000000000E+00 -0.50048116357E+02  0.50048116357E+02  0.00000000000E+00 0.  1.
         25    2    1    2    0    0  0.29861206803E+01 -0.45399774152E+02  0.15899675458E+03  0.20735277074E+03  0.12508056266E+03 0.  0.
         23    2    1    2    0    0 -0.29861206803E+01  0.45399774152E+02  0.73417921720E+02  0.12515813828E+03  0.90577656946E+02 0.  0.
          5    1    3    3  502    0 -0.38776431719E+02  0.26415753908E+02  0.37998340592E+02  0.60520657624E+02  0.41800000000E+01 0. -1.
         -5    1    3    3    0  502  0.41762552400E+02 -0.71815528060E+02  0.12099841399E+03  0.14683211311E+03  0.41800000000E+01 0. -1.
        -11    1    4    4    0    0  0.29452282519E+02  0.24854683074E+02 -0.39959850212E+01  0.38744807557E+02  0.00000000000E+00 0.  1.
         11    1    4    4    0    0 -0.32438403199E+02  0.20545091078E+02  0.77413906741E+02  0.86413330722E+02  0.00000000000E+00 0. -1.
</event>
<event>
 8    1  0.3710605E-009  0.1599444E+03  0.7561462E-02  0.1188760E+00
          1   -1    0    0  501    0  0.00000000000E+00  0.00000000000E+00  0.14872657075E+03  0.14872657075E+03  0.00000000000E+00 0. -1.
         -1   -1    0    0    0  501 -0.00000000000E+00 -0.00000000000E+00 -0.24371375517E+03  0.24371375517E+03  0.00000000000E+00 0.  1.
         25    2    1    2    0    0 -0.76333020289E+02  0.11964779554E+03 -0.11717439522E+03  0.22253024832E+03  0.12509015772E+03 0.  0.
         23    2    1    2    0    0  0.76333020289E+02 -0.11964779554E+03  0.22187210801E+02  0.16991007759E+03  0.90746003655E+02 0.  0.
          5    1    3    3  502    0 -0.22965711204E+02  0.12216177615E+03 -0.11421426303E+03  0.16885879818E+03  0.41800000000E+01 0.  1.
         -5    1    3    3    0  502 -0.53367309085E+02 -0.25139806064E+01 -0.29601321850E+01  0.53671450139E+02  0.41800000000E+01 0.  1.
        -11    1    4    4    0    0  0.51101885109E+02 -0.79232448069E+02 -0.30292109482E+02  0.99029265299E+02  0.00000000000E+00 0.  1.
         11    1    4    4    0    0  0.25231135179E+02 -0.40415347473E+02  0.52479320283E+02  0.70880812292E+02  0.00000000000E+00 0. -1.
</event>
<event>
 8    1  0.3710605E-009  0.1162134E+03  0.7561462E-02  0.1249478E+00
         -2   -1    0    0    0  501 -0.00000000000E+00  0.00000000000E+00  0.23077605774E+02  0.23077605774E+02  0.00000000000E+00 0. -1.
          2   -1    0    0  501    0  0.00000000000E+00 -0.00000000000E+00 -0.65718780424E+03  0.65718780424E+03  0.00000000000E+00 0.  1.
         25    2    1    2    0    0 -0.57035940126E+02 -0.10545670189E+02 -0.36205009900E+03  0.38741750332E+03  0.12509091921E+03 0.  0.
         23    2    1    2    0    0  0.57035940126E+02  0.10545670189E+02 -0.27206009947E+03  0.29284790670E+03  0.91536272085E+02 0.  0.
          5    1    3    3  502    0 -0.43590956398E+02  0.48696324198E+02 -0.26396815040E+03  0.27197088133E+03  0.41800000000E+01 0. -1.
         -5    1    3    3    0  502 -0.13444983728E+02 -0.59241994387E+02 -0.98081948604E+02  0.11544662199E+03  0.41800000000E+01 0. -1.
        -11    1    4    4    0    0 -0.13180101788E+02 -0.24309941635E+02 -0.47065305719E+02  0.54587831500E+02  0.00000000000E+00 0.  1.
         11    1    4    4    0    0  0.70216041914E+02  0.34855611824E+02 -0.22499479375E+03  0.23826007520E+03  0.00000000000E+00 0. -1.
</event>
<event>
 8    1  0.3710605E-009  0.2760470E+03  0.7561462E-02  0.1097868E+00
         -1   -1    0    0    0  501 -0.00000000000E+00  0.00000000000E+00  0.46242081017E+03  0.46242081017E+03  0.00000000000E+00 0.  1.
          1   -1    0    0  501    0  0.00000000000E+00 -0.00000000000E+00 -0.32517327328E+03  0.32517327328E+03  0.00000000000E+00 0. -1.
         25    2    1    2    0    0  0.18464375600E+03  0.19022256741E+03 -0.19448115063E+03  0.35178118154E+03  0.12509652256E+03 0.  0.
         23    2    1    2    0    0 -0.18464375600E+03 -0.19022256741E+03  0.33172868752E+03  0.43581290191E+03  0.98035817768E+02 0.  0.
          5    1    3    3  502    0  0.76986831547E+02  0.13045206350E+02 -0.19838026993E+02  0.80673225765E+02  0.41800000000E+01 0.  1.
         -5    1    3    3    0  502  0.10765692446E+03  0.17717736106E+03 -0.17464312363E+03  0.27110795578E+03  0.41800000000E+01 0.  1.
        -11    1    4    4    0    0 -0.38022309738E+02 -0.56434559821E+02  0.15801694664E+03  0.17204624670E+03  0.00000000000E+00 0.  1.
         11    1    4    4    0    0 -0.14662144626E+03 -0.13378800758E+03  0.17371174088E+03  0.26376665521E+03  0.00000000000E+00 0. -1.
</event>
<event>
 8    1  0.3710605E-009  0.1236215E+03  0.7561462E-02  0.1237240E+00
          1   -1    0    0  501    0  0.00000000000E+00  0.00000000000E+00  0.17857451333E+03  0.17857451333E+03  0.00000000000E+00 0. -1.
         -1   -1    0    0    0  501 -0.00000000000E+00 -0.00000000000E+00 -0.13006588050E+03  0.13006588050E+03  0.00000000000E+00 0.  1.
         25    2    1    2    0    0 -0.46381003076E+02  0.74363872458E+02  0.91140478322E+02  0.17786498436E+03  0.12509269723E+03 0.  0.
         23    2    1    2    0    0  0.46381003076E+02 -0.74363872458E+02 -0.42631845493E+02  0.13077540948E+03  0.87198340012E+02 0.  0.
          5    1    3    3  502    0 -0.21140815589E+02  0.93150407994E+02  0.10605887602E+03  0.14279317272E+03  0.41800000000E+01 0. -1.
         -5    1    3    3    0  502 -0.25240187487E+02 -0.18786535536E+02 -0.14918397696E+02  0.35071811639E+02  0.41800000000E+01 0. -1.
        -11    1    4    4    0    0  0.23839687349E+02  0.14707951108E+02 -0.24303731454E+02  0.37085386358E+02  0.00000000000E+00 0.  1.
         11    1    4    4    0    0  0.22541315727E+02 -0.89071823566E+02 -0.18328114038E+02  0.93690023120E+02  0.00000000000E+00 0. -1.
</event>
<event>
 8    1  0.3710605E-009  0.7143803E+02  0.7561462E-02  0.1355270E+00
          2   -1    0    0  501    0  0.00000000000E+00  0.00000000000E+00  0.61756457962E+02  0.61756457962E+02  0.00000000000E+00 0. -1.
         -2   -1    0    0    0  501 -0.00000000000E+00 -0.00000000000E+00 -0.25846983184E+03  0.25846983184E+03  0.00000000000E+00 0.  1.
         25    2    1    2    0    0  0.38259661668E+02 -0.48544182801E+02 -0.12193078764E+03  0.18529602442E+03  0.12508860978E+03 0.  0.
         23    2    1    2    0    0 -0.38259661668E+02  0.48544182801E+02 -0.74782586244E+02  0.13493026539E+03  0.93773140701E+02 0.  0.
          5    1    3    3  502    0  0.39132181921E+02 -0.86471841101E+01  0.14703042496E+02  0.42892345629E+02  0.41800000000E+01 0. -1.
         -5    1    3    3    0  502 -0.87252025230E+00 -0.39896998691E+02 -0.13663383013E+03  0.14240367879E+03  0.41800000000E+01 0. -1.
        -11    1    4    4    0    0 -0.15972915982E+02  0.13433603235E+02 -0.88664512836E+02  0.91087823430E+02  0.00000000000E+00 0.  1.
         11    1    4    4    0    0 -0.22286745686E+02  0.35110579566E+02  0.13881926592E+02  0.43842441956E+02  0.00000000000E+00 0. -1.
</event>
<event>
 8    1  0.3710605E-009  0.1374905E+03  0.7561462E-02  0.1216746E+00
         -1   -1    0    0    0  501 -0.00000000000E+00  0.00000000000E+00  0.91917117404E+03  0.91917117404E+03  0.00000000000E+00 0.  1.
          1   -1    0    0  501    0  0.00000000000E+00 -0.00000000000E+00 -0.21917045873E+02  0.21917045873E+02  0.00000000000E+00 0. -1.
         25    2    1    2    0    0 -0.51844716192E+02 -0.74739693772E+02  0.51791290857E+03  0.54051316004E+03  0.12508716516E+03 0.  0.
         23    2    1    2    0    0  0.51844716192E+02  0.74739693772E+02  0.37934121959E+03  0.40057505987E+03  0.91031430223E+02 0.  0.
          5    1    3    3  502    0 -0.28526197897E+02  0.28896954042E+02  0.23012683906E+03  0.23371908860E+03  0.41800000000E+01 0. -1.
         -5    1    3    3    0  502 -0.23318518295E+02 -0.10363664781E+03  0.28778606951E+03  0.30679407144E+03  0.41800000000E+01 0. -1.
        -11    1    4    4    0    0 -0.53277730617E+01  0.70305739113E+02  0.18626439719E+03  0.19916251599E+03  0.00000000000E+00 0. -1.
         11    1    4    4    0    0  0.57172489254E+02  0.44339546590E+01  0.19307682241E+03  0.20141254388E+03  0.00000000000E+00 0.  1.
</event>
<event>
 8    1  0.3710605E-009  0.1111356E+03  0.7561462E-02  0.1258481E+00
          4   -1    0    0  501    0  0.00000000000E+00  0.00000000000E+00  0.27846768124E+03  0.27846768124E+03  0.00000000000E+00 0. -1.
         -4   -1    0    0    0  501 -0.00000000000E+00 -0.00000000000E+00 -0.95260438803E+02  0.95260438803E+02  0.00000000000E+00 0.  1.
         25    2    1    2    0    0 -0.65951752880E+02  0.62595132409E+02  0.18851539927E+03  0.24382996260E+03  0.12508881080E+03 0.  0.
         23    2    1    2    0    0  0.65951752880E+02 -0.62595132409E+02 -0.53081568398E+01  0.12989815744E+03  0.92615174072E+02 0.  0.
          5    1    3    3  502    0 -0.30073010148E+02  0.18426631120E+02  0.18310316847E+03  0.18651586897E+03  0.41800000000E+01 0.  1.
         -5    1    3    3    0  502 -0.35878742732E+02  0.44168501288E+02  0.54122308027E+01  0.57314093628E+02  0.41800000000E+01 0.  1.
        -11    1    4    4    0    0  0.42622673546E+02 -0.86415744859E+02 -0.60853479197E+01  0.96547422126E+02  0.00000000000E+00 0. -1.
         11    1    4    4    0    0  0.23329079334E+02  0.23820612451E+02  0.77719107988E+00  0.33350735315E+02  0.00000000000E+00 0.  1.
</event>
<event>
 8    1  0.3710605E-009  0.8549109E+02  0.7561462E-02  0.1314153E+00
         -2   -1    0    0    0  501 -0.00000000000E+00  0.00000000000E+00  0.10702344439E+03  0.10702344439E+03  0.00000000000E+00 0. -1.
          2   -1    0    0  501    0  0.00000000000E+00 -0.00000000000E+00 -0.16164738091E+03  0.16164738091E+03  0.00000000000E+00 0.  1.
         25    2    1    2    0    0 -0.31857059742E+02 -0.12275228991E+02 -0.99608021018E+02  0.16350663330E+03  0.12508839986E+03 0.  0.
         23    2    1    2    0    0  0.31857059742E+02  0.12275228991E+02  0.44984084491E+02  0.10516419200E+03  0.88715195539E+02 0.  0.
          5    1    3    3  502    0 -0.93254745420E+01 -0.41431856289E+02  0.13272938715E+02  0.44690116280E+02  0.41800000000E+01 0.  1.
         -5    1    3    3    0  502 -0.22531585200E+02  0.29156627299E+02 -0.11288095973E+03  0.11881651702E+03  0.41800000000E+01 0.  1.
        -11    1    4    4    0    0  0.69731066018E+01  0.47548387121E+02  0.88401459777E+01  0.48863294142E+02  0.00000000000E+00 0. -1.
         11    1    4    4    0    0  0.24883953140E+02 -0.35273158131E+02  0.36143938513E+02  0.56300897858E+02  0.00000000000E+00 0.  1.
</event>
<event>
 8    1  0.3710605E-009  0.1038498E+03  0.7561462E-02  0.1272402E+00
          1   -1    0    0  501    0  0.00000000000E+00  0.00000000000E+00  0.12579650357E+03  0.12579650357E+03  0.00000000000E+00 0. -1.
         -1   -1    0    0    0  501 -0.00000000000E+00 -0.00000000000E+00 -0.12482531802E+03  0.12482531802E+03  0.00000000000E+00 0.  1.
         25    2    1    2    0    0  0.62531662436E+02  0.75351164438E+01  0.13767161691E+01  0.14005879961E+03  0.12509030823E+03 0.  0.
         23    2    1    2    0    0 -0.62531662436E+02 -0.75351164438E+01 -0.40553061775E+00  0.11056302197E+03  0.90868204483E+02 0.  0.
          5    1    3    3  502    0  0.65726316034E+02  0.42039743950E+02 -0.38467349880E+02  0.87089023979E+02  0.41800000000E+01 0. -1.
         -5    1    3    3    0  502 -0.31946535982E+01 -0.34504627506E+02  0.39844066049E+02  0.52969775630E+02  0.41800000000E+01 0. -1.
        -11    1    4    4    0    0  0.13539315069E+02  0.97109868245E+01 -0.23868829099E+02  0.29109059074E+02  0.00000000000E+00 0.  1.
         11    1    4    4    0    0 -0.76070977505E+02 -0.17246103268E+02  0.23463298481E+02  0.81453962900E+02  0.00000000000E+00 0. -1.
</event>
<event>
 8    1  0.3710605E-009  0.8296457E+02  0.7561462E-02  0.1320843E+00
          2   -1    0    0  501    0  0.00000000000E+00  0.00000000000E+00  0.54935840761E+03  0.54935840761E+03  0.00000000000E+00 0. -1.
         -2   -1    0    0    0  501 -0.00000000000E+00 -0.00000000000E+00 -0.26805270863E+02  0.26805270863E+02  0.00000000000E+00 0.  1.
         25    2    1    2    0    0 -0.49423327275E+02 -0.92732097176E+01  0.33403963461E+03  0.36021981263E+03  0.12508868143E+03 0.  0.
         23    2    1    2    0    0  0.49423327275E+02  0.92732097176E+01  0.18851350214E+03  0.21594386584E+03  0.92551364173E+02 0.  0.
          5    1    3    3  502    0 -0.54760627467E+02 -0.83733708919E+01  0.34382348335E+03  0.34828278706E+03  0.41800000000E+01 0. -1.
         -5    1    3    3    0  502  0.53373001911E+01 -0.89983882573E+00 -0.97838487398E+01  0.11937025568E+02  0.41800000000E+01 0. -1.
        -11    1    4    4    0    0 -0.20176542223E+02 -0.19651218429E+02  0.34993498003E+02  0.44920019416E+02  0.00000000000E+00 0.  1.
         11    1    4    4    0    0  0.69599869499E+02  0.28924428146E+02  0.15352000413E+03  0.17102384643E+03  0.00000000000E+00 0. -1.
</event>
<event>
 8    1  0.3710605E-009  0.1021764E+03  0.7561462E-02  0.1275785E+00
          1   -1    0    0  501    0  0.00000000000E+00  0.00000000000E+00  0.11253499720E+04  0.11253499720E+04  0.00000000000E+00 0. -1.
         -1   -1    0    0    0  501 -0.00000000000E+00 -0.00000000000E+00 -0.15847517981E+02  0.15847517981E+02  0.00000000000E+00 0.  1.
         25    2    1    2    0    0  0.31007305119E+02 -0.21488618773E+01  0.89892735225E+03  0.90812089764E+03  0.12508840691E+03 0.  0.
         23    2    1    2    0    0 -0.31007305119E+02  0.21488618773E+01  0.21057510174E+03  0.23307659230E+03  0.94956589182E+02 0.  0.
          5    1    3    3  502    0  0.34570495473E+02 -0.47980769791E+02  0.22713835302E+03  0.23474790146E+03  0.41800000000E+01 0. -1.
         -5    1    3    3    0  502 -0.35631903535E+01  0.45831907913E+02  0.67178899923E+03  0.67337299619E+03  0.41800000000E+01 0. -1.
        -11    1    4    4    0    0 -0.97220740571E+01  0.47672419969E+02  0.12011613603E+03  0.12959577340E+03  0.00000000000E+00 0.  1.
         11    1    4    4    0    0 -0.21285231062E+02 -0.45523558092E+02  0.90458965712E+02  0.10348081890E+03  0.00000000000E+00 0. -1.
</event>
<event>
 8    1  0.3710605E-009  0.1442014E+03  0.7561462E-02  0.1207785E+00
         -1   -1    0    0    0  501 -0.00000000000E+00  0.00000000000E+00  0.81215457016E+02  0.81215457016E+02  0.00000000000E+00 0.  1.
          1   -1    0    0  501    0  0.00000000000E+00 -0.00000000000E+00 -0.32443788604E+03  0.32443788604E+03  0.00000000000E+00 0. -1.
         25    2    1    2    0    0  0.10599659701E+03  0.50365541020E+02 -0.16320317410E+03  0.23675000001E+03  0.12507325921E+03 0.  0.
         23    2    1    2    0    0 -0.10599659701E+03 -0.50365541020E+02 -0.80019254929E+02  0.16890334305E+03  0.91396344762E+02 0.  0.
          5    1    3    3  502    0  0.11794880751E+03  0.41340603251E+02 -0.72141831329E+02  0.14437064417E+03  0.41800000000E+01 0.  1.
         -5    1    3    3    0  502 -0.11952210508E+02  0.90249377693E+01 -0.91061342768E+02  0.92379355835E+02  0.41800000000E+01 0.  1.
        -11    1    4    4    0    0  0.14894292770E+02 -0.16556919698E+02 -0.55675978022E+01  0.22955820445E+02  0.00000000000E+00 0.  1.
         11    1    4    4    0    0 -0.12089088978E+03 -0.33808621322E+02 -0.74451657127E+02  0.14594752261E+03  0.00000000000E+00 0. -1.
</event>
<event>
 8    1  0.3710605E-009  0.1075507E+03  0.7561462E-02  0.1265174E+00
         -1   -1    0    0    0  501 -0.00000000000E+00  0.00000000000E+00  0.34260735719E+02  0.34260735719E+02  0.00000000000E+00 0.  1.
          1   -1    0    0  501    0  0.00000000000E+00 -0.00000000000E+00 -0.55022912132E+03  0.55022912132E+03  0.00000000000E+00 0. -1.
         25    2    1    2    0    0 -0.14554406195E+02 -0.60155831522E+02 -0.16293042093E+03  0.21452907516E+03  0.12508336108E+03 0.  0.
         23    2    1    2    0    0  0.14554406195E+02  0.60155831522E+02 -0.35303796467E+03  0.36996078188E+03  0.91676719088E+02 0.  0.
          5    1    3    3  502    0 -0.22459630089E+02  0.16287676956E+02 -0.12614080400E+03  0.12922344307E+03  0.41800000000E+01 0.  1.
         -5    1    3    3    0  502  0.79052238940E+01 -0.76443508478E+02 -0.36789616930E+02  0.85305632094E+02  0.41800000000E+01 0.  1.
        -11    1    4    4    0    0  0.41905109128E+02  0.69517580428E+02 -0.27550708321E+03  0.28721574654E+03  0.00000000000E+00 0.  1.
         11    1    4    4    0    0 -0.27350702933E+02 -0.93617489057E+01 -0.77530881463E+02  0.82745035343E+02  0.00000000000E+00 0. -1.
</event>
<event>
 8    1  0.3710605E-009  0.7177848E+02  0.7561462E-02  0.1354148E+00
         -2   -1    0    0    0  501 -0.00000000000E+00  0.00000000000E+00  0.28933855779E+02  0.28933855779E+02  0.00000000000E+00 0.  1.
          2   -1    0    0  501    0  0.00000000000E+00 -0.00000000000E+00 -0.49280483978E+03  0.49280483978E+03  0.00000000000E+00 0. -1.
         25    2    1    2    0    0 -0.43827480914E+02 -0.27336205433E+02 -0.25162247420E+03  0.28570881763E+03  0.12509013846E+03 0.  0.
         23    2    1    2    0    0  0.43827480914E+02  0.27336205433E+02 -0.21224850981E+03  0.23602987793E+03  0.89401102629E+02 0.  0.
          5    1    3    3  502    0 -0.31619448522E+02 -0.22887739613E+02 -0.26422861012E+03  0.26712893695E+03  0.41800000000E+01 0.  1.
         -5    1    3    3    0  502 -0.12208032392E+02 -0.44484658201E+01  0.12606135925E+02  0.18579880678E+02  0.41800000000E+01 0.  1.
        -11    1    4    4    0    0  0.42780554053E+02 -0.17195381339E+02 -0.16402388179E+03  0.17038101638E+03  0.00000000000E+00 0. -1.
         11    1    4    4    0    0  0.10469268610E+01  0.44531586772E+02 -0.48224628019E+02  0.65648861558E+02  0.00000000000E+00 0.  1.
</event>
<event>
 8    1  0.3710605E-009  0.1287637E+03  0.7561462E-02  0.1229302E+00
         -1   -1    0    0    0  501 -0.00000000000E+00  0.00000000000E+00  0.29031284677E+02  0.29031284677E+02  0.00000000000E+00 0.  1.
          1   -1    0    0  501    0  0.00000000000E+00 -0.00000000000E+00 -0.71489043345E+03  0.71489043345E+03  0.00000000000E+00 0. -1.
         25    2    1    2    0    0  0.74992854106E+02  0.56037905286E+02 -0.34068299195E+03  0.37480187536E+03  0.12508944707E+03 0.  0.
         23    2    1    2    0    0 -0.74992854106E+02 -0.56037905286E+02 -0.34517615682E+03  0.36911984277E+03  0.91316505052E+02 0.  0.
          5    1    3    3  502    0  0.10309592497E+03  0.45730213817E+02 -0.31672969976E+03  0.33623681730E+03  0.41800000000E+01 0. -1.
         -5    1    3    3    0  502 -0.28103070867E+02  0.10307691469E+02 -0.23953292198E+02  0.38565058054E+02  0.41800000000E+01 0. -1.
        -11    1    4    4    0    0 -0.68403389836E+02 -0.11431203869E+02 -0.28837495154E+03  0.29659704793E+03  0.00000000000E+00 0. -1.
         11    1    4    4    0    0 -0.65894642697E+01 -0.44606701417E+02 -0.56801205272E+02  0.72522794838E+02  0.00000000000E+00 0.  1.
</event>
<event>
 8    1  0.3710605E-009  0.1008972E+03  0.7561462E-02  0.1278421E+00
          3   -1    0    0  501    0  0.00000000000E+00  0.00000000000E+00  0.48578564519E+03  0.48578564519E+03  0.00000000000E+00 0. -1.
         -3   -1    0    0    0  501 -0.00000000000E+00 -0.00000000000E+00 -0.35352233531E+02  0.35352233531E+02  0.00000000000E+00 0.  1.
         25    2    1    2    0    0  0.75900681399E+01 -0.72154575101E+02  0.26991867368E+03  0.30621431758E+03  0.12508887259E+03 0.  0.
         23    2    1    2    0    0 -0.75900681399E+01  0.72154575101E+02  0.18051473798E+03  0.21492356114E+03  0.91338243166E+02 0.  0.
          5    1    3    3  502    0  0.19014424824E+02 -0.76881916939E+02  0.69738755692E+02  0.10560939328E+03  0.41800000000E+01 0.  1.
         -5    1    3    3    0  502 -0.11424356684E+02  0.47273418375E+01  0.20017991799E+03  0.20060492430E+03  0.41800000000E+01 0.  1.
        -11    1    4    4    0    0  0.36362695640E+02  0.44656684240E+02  0.13158281534E+03  0.14363322169E+03  0.00000000000E+00 0. -1.
         11    1    4    4    0    0 -0.43952763780E+02  0.27497890861E+02  0.48931922641E+02  0.71290339451E+02  0.00000000000E+00 0.  1.
</event>
<event>
 8    1  0.3710605E-009  0.1073444E+03  0.7561462E-02  0.1265568E+00
          1   -1    0    0  501    0  0.00000000000E+00  0.00000000000E+00  0.66219609101E+02  0.66219609101E+02  0.00000000000E+00 0. -1.
         -1   -1    0    0    0  501 -0.00000000000E+00 -0.00000000000E+00 -0.19656335766E+03  0.19656335766E+03  0.00000000000E+00 0.  1.
         25    2    1    2    0    0  0.28115001552E+02  0.12904209969E+01 -0.10321464557E+03  0.16459760806E+03  0.12508793316E+03 0.  0.
         23    2    1    2    0    0 -0.28115001552E+02 -0.12904209969E+01 -0.27129102994E+02  0.98185358703E+02  0.90068073899E+02 0.  0.
          5    1    3    3  502    0  0.55843327707E+02 -0.46206500759E+02 -0.65478318034E+02  0.97767072649E+02  0.41800000000E+01 0.  1.
         -5    1    3    3    0  502 -0.27728326155E+02  0.47496921756E+02 -0.37736327535E+02  0.66830535413E+02  0.41800000000E+01 0.  1.
        -11    1    4    4    0    0 -0.57078236857E+02  0.49835112286E+01  0.10311613001E+01  0.57304657755E+02  0.00000000000E+00 0. -1.
         11    1    4    4    0    0  0.28963235305E+02 -0.62739322255E+01 -0.28160264294E+02  0.40880700948E+02  0.00000000000E+00 0.  1.
</event>
<event>
 8    1  0.3710605E-009  0.1346927E+03  0.7561462E-02  0.1220654E+00
          2   -1    0    0  501    0  0.00000000000E+00  0.00000000000E+00  0.90520484043E+03  0.90520484043E+03  0.00000000000E+00 0. -1.
         -2   -1    0    0    0  501 -0.00000000000E+00 -0.00000000000E+00 -0.25988343029E+02  0.25988343029E+02  0.00000000000E+00 0.  1.
         25    2    1    2    0    0  0.83447871726E+02  0.13243175543E+01  0.26089197327E+03  0.30112728890E+03  0.12509085215E+03 0.  0.
         23    2    1    2    0    0 -0.83447871726E+02 -0.13243175543E+01  0.61832452413E+03  0.63006589456E+03  0.87706973678E+02 0.  0.
          5    1    3    3  502    0  0.10703455643E+03 -0.28943404221E+02  0.20662798702E+03  0.23453510257E+03  0.41800000000E+01 0.  1.
         -5    1    3    3    0  502 -0.23586684700E+02  0.30267721775E+02  0.54263986249E+02  0.66592186330E+02  0.41800000000E+01 0.  1.
        -11    1    4    4    0    0 -0.64759019062E+02  0.38850622393E+02  0.43152015032E+03  0.43807846505E+03  0.00000000000E+00 0.  1.
         11    1    4    4    0    0 -0.18688852663E+02 -0.40174939947E+02  0.18680437381E+03  0.19198742951E+03  0.00000000000E+00 0. -1.
</event>
<event>
 8    1  0.3710605E-009  0.1130616E+03  0.7561462E-02  0.1255003E+00
          1   -1    0    0  501    0  0.00000000000E+00  0.00000000000E+00  0.21271187657E+03  0.21271187657E+03  0.00000000000E+00 0. -1.
         -1   -1    0    0    0  501 -0.00000000000E+00 -0.00000000000E+00 -0.10996554866E+03  0.10996554866E+03  0.00000000000E+00 0.  1.
         25    2    1    2    0    0  0.54819852806E+02  0.19101865959E+02  0.15153760473E+03  0.20489225846E+03  0.12508834632E+03 0.  0.
         23    2    1    2    0    0 -0.54819852806E+02 -0.19101865959E+02 -0.48791276824E+02  0.11778516677E+03  0.90125796934E+02 0.  0.
          5    1    3    3  502    0  0.80519240546E+02 -0.11934237041E+02  0.50120756705E+02  0.95683523997E+02  0.41800000000E+01 0. -1.
         -5    1    3    3    0  502 -0.25699387740E+02  0.31036103000E+02  0.10141684802E+03  0.10920873446E+03  0.41800000000E+01 0. -1.
        -11    1    4    4    0    0 -0.78578543896E+02 -0.14464003108E+02 -0.48713762653E+02  0.93577912023E+02  0.00000000000E+00 0.  1.
         11    1    4    4    0    0  0.23758691090E+02 -0.46378628508E+01 -0.77514171096E-01  0.24207254751E+02  0.00000000000E+00 0. -1.
</event>
<event>
 8    1  0.3710605E-009  0.3035087E+03  0.7561462E-02  0.1083500E+00
          3   -1    0    0  501    0  0.00000000000E+00  0.00000000000E+00  0.24057804281E+03  0.24057804281E+03  0.00000000000E+00 0. -1.
         -3   -1    0    0    0  501 -0.00000000000E+00 -0.00000000000E+00 -0.42856477078E+03  0.42856477078E+03  0.00000000000E+00 0.  1.
         25    2    1    2    0    0 -0.24283360418E+03  0.14842804561E+03  0.79632042842E+01  0.31098259682E+03  0.12509084242E+03 0.  0.
         23    2    1    2    0    0  0.24283360418E+03 -0.14842804561E+03 -0.19594993225E+03  0.35816021677E+03  0.94251370714E+02 0.  0.
          5    1    3    3  502    0 -0.18501356049E+03  0.16774851025E+03  0.66940006135E+01  0.24986368743E+03  0.41800000000E+01 0.  1.
         -5    1    3    3    0  502 -0.57820043697E+02 -0.19320464634E+02  0.12692036707E+01  0.61118909388E+02  0.41800000000E+01 0.  1.
        -11    1    4    4    0    0  0.81896755871E+02 -0.97507641739E+02 -0.11224236341E+03  0.16974441659E+03  0.00000000000E+00 0.  1.
         11    1    4    4    0    0  0.16093684831E+03 -0.50920403872E+02 -0.83707568840E+02  0.18841580018E+03  0.00000000000E+00 0. -1.
</event>
<event>
 8    1  0.3710605E-009  0.1191479E+03  0.7561462E-02  0.1244509E+00
          2   -1    0    0  501    0  0.00000000000E+00  0.00000000000E+00  0.63992733844E+03  0.63992733844E+03  0.00000000000E+00 0. -1.
         -2   -1    0    0    0  501 -0.00000000000E+00 -0.00000000000E+00 -0.61486283503E+02  0.61486283503E+02  0.00000000000E+00 0.  1.
         25    2    1    2    0    0 -0.82726036306E+01  0.87816284758E+02  0.55229884142E+03  0.57311416838E+03  0.12508278829E+03 0.  0.
         23    2    1    2    0    0  0.82726036306E+01 -0.87816284758E+02  0.26142213512E+02  0.12829945356E+03  0.89427057517E+02 0.  0.
          5    1    3    3  502    0 -0.26200945894E+02 -0.15973217412E+02  0.27012648828E+03  0.27189598252E+03  0.41800000000E+01 0. -1.
         -5    1    3    3    0  502  0.17928342263E+02  0.10378950217E+03  0.28217235314E+03  0.30121818586E+03  0.41800000000E+01 0. -1.
        -11    1    4    4    0    0  0.28766192343E+02 -0.65936719844E+02 -0.18727874104E+02  0.74336250337E+02  0.00000000000E+00 0.  1.
         11    1    4    4    0    0 -0.20493588712E+02 -0.21879564914E+02  0.44870087616E+02  0.53963203220E+02  0.00000000000E+00 0. -1.
</event>
<event>
 8    1  0.3710605E-009  0.1363632E+03  0.7561462E-02  0.1218308E+00
          2   -1    0    0  501    0  0.00000000000E+00  0.00000000000E+00  0.79218588149E+03  0.79218588149E+03  0.00000000000E+00 0. -1.
         -2   -1    0    0    0  501 -0.00000000000E+00 -0.00000000000E+00 -0.47745104343E+02  0.47745104343E+02  0.00000000000E+00 0.  1.
         25    2    1    2    0    0 -0.93213678602E+02  0.97120399445E+02  0.19952275293E+03  0.27125279063E+03  0.12509030986E+03 0.  0.
         23    2    1    2    0    0  0.93213678602E+02 -0.97120399445E+02  0.54491802422E+03  0.56867819521E+03  0.91313058849E+02 0.  0.
          5    1    3    3  502    0 -0.70323678897E+02  0.87511478679E+02  0.55978821205E+02  0.12551804467E+03  0.41800000000E+01 0. -1.
         -5    1    3    3    0  502 -0.22889999705E+02  0.96089207661E+01  0.14354393173E+03  0.14573474596E+03  0.41800000000E+01 0. -1.
        -11    1    4    4    0    0  0.75136515087E+02 -0.70520003545E+02  0.51342968337E+03  0.52366841280E+03  0.00000000000E+00 0. -1.
         11    1    4    4    0    0  0.18077163515E+02 -0.26600395900E+02  0.31488340851E+02  0.45009782408E+02  0.00000000000E+00 0.  1.
</event>
<event>
 8    1  0.3710605E-009  0.8240349E+02  0.7561462E-02  0.1322366E+00
          2   -1    0    0  501    0  0.00000000000E+00  0.00000000000E+00  0.80385081089E+03  0.80385081089E+03  0.00000000000E+00 0. -1.
         -2   -1    0    0    0  501 -0.00000000000E+00 -0.00000000000E+00 -0.18762071555E+02  0.18762071555E+02  0.00000000000E+00 0.  1.
         25    2    1    2    0    0 -0.45865735088E+02 -0.32942374240E+02  0.44214079371E+03  0.46295280374E+03  0.12509177173E+03 0.  0.
         23    2    1    2    0    0  0.45865735088E+02  0.32942374240E+02  0.34294794562E+03  0.35966007870E+03  0.92483583017E+02 0.  0.
          5    1    3    3  502    0 -0.48408557781E+02 -0.78428382085E+01  0.43301220026E+03  0.43580034023E+03  0.41800000000E+01 0. -1.
         -5    1    3    3    0  502  0.25428226924E+01 -0.25099536031E+02  0.91285934557E+01  0.27152463511E+02  0.41800000000E+01 0. -1.
        -11    1    4    4    0    0 -0.41180672560E+01  0.39403203770E+02  0.57687498735E+02  0.69981557967E+02  0.00000000000E+00 0.  1.
         11    1    4    4    0    0  0.49983802344E+02 -0.64608295297E+01  0.28526044689E+03  0.28967852073E+03  0.00000000000E+00 0. -1.
</event>
<event>
 8    1  0.3710605E-009  0.9839199E+02  0.7561462E-02  0.1283714E+00
          1   -1    0    0  501    0  0.00000000000E+00  0.00000000000E+00  0.63719970707E+03  0.63719970707E+03  0.00000000000E+00 0. -1.
         -1   -1    0    0    0  501 -0.00000000000E+00 -0.00000000000E+00 -0.28239270527E+02  0.28239270527E+02  0.00000000000E+00 0.  1.
         25    2    1    2    0    0  0.56967202230E+00 -0.25042843291E+01  0.53377853469E+03  0.54824697987E+03  0.12509448777E+03 0.  0.
         23    2    1    2    0    0 -0.56967202230E+00  0.25042843291E+01  0.75181901853E+02  0.11719199773E+03  0.89861281982E+02 0.  0.
          5    1    3    3  502    0 -0.54045219279E+02 -0.11432165915E+02  0.13976130831E+03  0.15034053295E+03  0.41800000000E+01 0.  1.
         -5    1    3    3    0  502  0.54614891301E+02  0.89278815859E+01  0.39401722638E+03  0.39790644693E+03  0.41800000000E+01 0.  1.
        -11    1    4    4    0    0  0.22005927535E+02 -0.35451031194E+02  0.53917786362E+02  0.68177446018E+02  0.00000000000E+00 0.  1.
         11    1    4    4    0    0 -0.22575599557E+02  0.37955315523E+02  0.21264115490E+02  0.49014551711E+02  0.00000000000E+00 0. -1.
</event>
<event>
 8    1  0.3710605E-009  0.1111214E+03  0.7561462E-02  0.1258507E+00
          2   -1    0    0  501    0  0.00000000000E+00  0.00000000000E+00  0.59244203767E+03  0.59244203767E+03  0.00000000000E+00 0. -1.
         -2   -1    0    0    0  501 -0.00000000000E+00 -0.00000000000E+00 -0.24833705897E+02  0.24833705897E+02  0.00000000000E+00 0.  1.
         25    2    1    2    0    0 -0.21213747339E+02  0.36387922222E+02  0.38672300380E+03  0.40862727388E+03  0.12508982106E+03 0.  0.
         23    2    1    2    0    0  0.21213747339E+02 -0.36387922222E+02  0.18088532797E+03  0.20864846968E+03  0.95081954471E+02 0.  0.
          5    1    3    3  502    0  0.46136140036E+02 -0.25761017878E+01  0.21652477955E+03  0.22143990670E+03  0.41800000000E+01 0.  1.
         -5    1    3    3    0  502 -0.67349887375E+02  0.38964024009E+02  0.17019822425E+03  0.18718736719E+03  0.41800000000E+01 0.  1.
        -11    1    4    4    0    0 -0.29460661379E+02 -0.36938184387E+02  0.52537225235E+02  0.70657767231E+02  0.00000000000E+00 0.  1.
         11    1    4    4    0    0  0.50674408718E+02  0.55026216488E+00  0.12834810273E+03  0.13799070245E+03  0.00000000000E+00 0. -1.
</event>
<event>
 8    1  0.3710605E-009  0.1228225E+03  0.7561462E-02  0.1238512E+00
         -2   -1    0    0    0  501 -0.00000000000E+00  0.00000000000E+00  0.70317391448E+02  0.70317391448E+02  0.00000000000E+00 0. -1.
          2   -1    0    0  501    0  0.00000000000E+00 -0.00000000000E+00 -0.23545453767E+03  0.23545453767E+03  0.00000000000E+00 0.  1.
         25    2    1    2    0    0 -0.23195634707E+02  0.66907510742E+02 -0.91466583331E+02  0.17037718179E+03  0.12509035032E+03 0.  0.
         23    2    1    2    0    0  0.23195634707E+02 -0.66907510742E+02 -0.73670562886E+02  0.13539474733E+03  0.88824170723E+02 0.  0.
          5    1    3    3  502    0  0.40490189165E+02  0.63927518048E+02 -0.69456101542E+02  0.10279983183E+03  0.41800000000E+01 0.  1.
         -5    1    3    3    0  502 -0.63685823873E+02  0.29799926945E+01 -0.22010481789E+02  0.67577349958E+02  0.41800000000E+01 0.  1.
        -11    1    4    4    0    0  0.52352906331E+02 -0.36387414439E+02 -0.67304743885E+02  0.92708140313E+02  0.00000000000E+00 0.  1.
         11    1    4    4    0    0 -0.29157271623E+02 -0.30520096303E+02 -0.63658190011E+01  0.42686607014E+02  0.00000000000E+00 0. -1.
</event>
<event>
 8    1  0.3710605E-009  0.7101935E+02  0.7561462E-02  0.1356661E+00
          4   -1    0    0  501    0  0.00000000000E+00  0.00000000000E+00  0.67507263927E+02  0.67507263927E+02  0.00000000000E+00 0. -1.
         -4   -1    0    0    0  501 -0.00000000000E+00 -0.00000000000E+00 -0.18576462251E+03  0.18576462251E+03  0.00000000000E+00 0.  1.
         25    2    1    2    0    0 -0.19908433602E+02 -0.51893077182E+01 -0.84999870593E+02  0.15263312286E+03  0.12509443453E+03 0.  0.
         23    2    1    2    0    0  0.19908433602E+02  0.51893077182E+01 -0.33257487986E+02  0.10063876358E+03  0.92729852711E+02 0.  0.
          5    1    3    3  502    0 -0.54333690546E+02 -0.14004374845E+02 -0.99274114182E+02  0.11411001091E+03  0.41800000000E+01 0.  1.
         -5    1    3    3    0  502  0.34425256944E+02  0.88150671271E+01  0.14274243589E+02  0.38523111948E+02  0.41800000000E+01 0.  1.
        -11    1    4    4    0    0  0.24408830823E+02  0.21834710950E+02 -0.60269305012E+02  0.68592526933E+02  0.00000000000E+00 0.  1.
         11    1    4    4    0    0 -0.45003972202E+01 -0.16645403232E+02  0.27011817026E+02  0.32046236643E+02  0.00000000000E+00 0. -1.
</event>
<event>
 8    1  0.3710605E-009  0.9416848E+02  0.7561462E-02  0.1293060E+00
          2   -1    0    0  501    0  0.00000000000E+00  0.00000000000E+00  0.50484927981E+02  0.50484927981E+02  0.00000000000E+00 0.  1.
         -2   -1    0    0    0  501 -0.00000000000E+00 -0.00000000000E+00 -0.33496860104E+03  0.33496860104E+03  0.00000000000E+00 0. -1.
         25    2    1    2    0    0 -0.46606881366E+02  0.53446015599E+01 -0.23628146480E+03  0.27143453332E+03  0.12508800547E+03 0.  0.
         23    2    1    2    0    0  0.46606881366E+02 -0.53446015599E+01 -0.48202208263E+02  0.11401899571E+03  0.92065804422E+02 0.  0.
          5    1    3    3  502    0 -0.31543964791E+02 -0.32334830229E+02 -0.22440901087E+03  0.22894855212E+03  0.41800000000E+01 0.  1.
         -5    1    3    3    0  502 -0.15062916574E+02  0.37679431789E+02 -0.11872453930E+02  0.42485981194E+02  0.41800000000E+01 0.  1.
        -11    1    4    4    0    0  0.95892647065E+01 -0.46119712510E+02 -0.30724080844E+02  0.56240119339E+02  0.00000000000E+00 0.  1.
         11    1    4    4    0    0  0.37017616659E+02  0.40775110950E+02 -0.17478127420E+02  0.57778876367E+02  0.00000000000E+00 0. -1.
</event>
<event>
 8    1  0.3710605E-009  0.1971350E+03  0.7561462E-02  0.1152179E+00
          1   -1    0    0  501    0  0.00000000000E+00  0.00000000000E+00  0.20690336781E+03  0.20690336781E+03  0.00000000000E+00 0. -1.
         -1   -1    0    0    0  501 -0.00000000000E+00 -0.00000000000E+00 -0.19911600439E+03  0.19911600439E+03  0.00000000000E+00 0.  1.
         25    2    1    2    0    0  0.68532727696E+02  0.15503686866E+03 -0.14113740108E+02  0.21113440904E+03  0.12508147589E+03 0.  0.
         23    2    1    2    0    0 -0.68532727696E+02 -0.15503686866E+03  0.21901103526E+02  0.19488496315E+03  0.93633995509E+02 0.  0.
          5    1    3    3  502    0  0.77286046044E+02  0.41930463904E+02  0.24248995093E+02  0.91305984904E+02  0.41800000000E+01 0.  1.
         -5    1    3    3    0  502 -0.87533183473E+01  0.11310640476E+03 -0.38362735201E+02  0.11982842414E+03  0.41800000000E+01 0.  1.
        -11    1    4    4    0    0 -0.64582931908E+02 -0.36628285565E+02 -0.82069484234E+00  0.74251329533E+02  0.00000000000E+00 0.  1.
         11    1    4    4    0    0 -0.39497957881E+01 -0.11840858310E+03  0.22721798369E+02  0.12063363362E+03  0.00000000000E+00 0. -1.
</event>
<event>
 8    1  0.3710605E-009  0.1012600E+03  0.7561462E-02  0.1277668E+00
          2   -1    0    0  501    0  0.00000000000E+00  0.00000000000E+00  0.47665479310E+03  0.47665479310E+03  0.00000000000E+00 0. -1.
         -2   -1    0    0    0  501 -0.00000000000E+00 -0.00000000000E+00 -0.33039255872E+02  0.33039255872E+02  0.00000000000E+00 0.  1.
         25    2    1    2    0    0 -0.12045926422E+02 -0.48942714810E+02  0.17582385937E+03  0.22159105969E+03  0.12509226409E+03 0.  0.
         23    2    1    2    0    0  0.12045926422E+02  0.48942714810E+02  0.26779167786E+03  0.28810298928E+03  0.93543872205E+02 0.  0.
          5    1    3    3  502    0  0.27986125815E+02  0.56112791049E+01  0.14370601203E+03  0.14657284873E+03  0.41800000000E+01 0.  1.
         -5    1    3    3    0  502 -0.40032052237E+02 -0.54553993914E+02  0.32117847345E+02  0.75018210965E+02  0.41800000000E+01 0.  1.
        -11    1    4    4    0    0 -0.40114211478E+02  0.31072232439E+02  0.11619106617E+03  0.12678721327E+03  0.00000000000E+00 0.  1.
         11    1    4    4    0    0  0.52160137900E+02  0.17870482371E+02  0.15160061169E+03  0.16131577601E+03  0.00000000000E+00 0. -1.
</event>
<event>
 8    1  0.3710605E-009  0.1653330E+03  0.7561462E-02  0.1182804E+00
          1   -1    0    0  501    0  0.00000000000E+00  0.00000000000E+00  0.11513582233E+04  0.11513582233E+04  0.00000000000E+00 0. -1.
         -1   -1    0    0    0  501 -0.00000000000E+00 -0.00000000000E+00 -0.48194093019E+02  0.48194093019E+02  0.00000000000E+00 0.  1.
         25    2    1    2    0    0  0.10604823294E+03  0.90065275793E+02  0.17437436706E+03  0.25575517962E+03  0.12508521256E+03 0.  0.
         23    2    1    2    0    0 -0.10604823294E+03 -0.90065275793E+02  0.92878976323E+03  0.94379713671E+03  0.93512723025E+02 0.  0.
          5    1    3    3  502    0  0.98351727751E+02  0.29452510599E+02  0.44123882943E+02  0.11182531993E+03  0.41800000000E+01 0.  1.
         -5    1    3    3    0  502  0.76965051864E+01  0.60612765194E+02  0.13025048412E+03  0.14392985969E+03  0.41800000000E+01 0.  1.
        -11    1    4    4    0    0 -0.11632541185E+03 -0.52315829819E+02  0.75093138700E+03  0.76168661237E+03  0.00000000000E+00 0.  1.
         11    1    4    4    0    0  0.10277178913E+02 -0.37749445974E+02  0.17785837623E+03  0.18211052434E+03  0.00000000000E+00 0. -1.
</event>
<event>
 8    1  0.3710605E-009  0.8142289E+02  0.7561462E-02  0.1325061E+00
         -2   -1    0    0    0  501 -0.00000000000E+00  0.00000000000E+00  0.13217698962E+03  0.13217698962E+03  0.00000000000E+00 0.  1.
          2   -1    0    0  501    0  0.00000000000E+00 -0.00000000000E+00 -0.10846396952E+03  0.10846396952E+03  0.00000000000E+00 0. -1.
         25    2    1    2    0    0 -0.21648897682E+02 -0.69718999276E+01  0.59131111874E+02  0.14021964255E+03  0.12509107725E+03 0.  0.
         23    2    1    2    0    0  0.21648897682E+02  0.69718999276E+01 -0.35418091775E+02  0.10042131660E+03  0.91174105109E+02 0.  0.
          5    1    3    3  502    0 -0.24876947228E+02  0.29798280651E+02  0.85950694114E+02  0.94402300035E+02  0.41800000000E+01 0.  1.
         -5    1    3    3    0  502  0.32280495467E+01 -0.36770180579E+02 -0.26819582241E+02  0.45817342516E+02  0.41800000000E+01 0.  1.
        -11    1    4    4    0    0  0.51266975945E+02 -0.10411832540E+02 -0.17722225690E+01  0.52343575081E+02  0.00000000000E+00 0.  1.
         11    1    4    4    0    0 -0.29618078264E+02  0.17383732468E+02 -0.33645869206E+02  0.48077741515E+02  0.00000000000E+00 0. -1.
</event>
<event>
 8    1  0.3710605E-009  0.9696063E+02  0.7561462E-02  0.1286820E+00
          1   -1    0    0  501    0  0.00000000000E+00  0.00000000000E+00  0.49669866924E+03  0.49669866924E+03  0.00000000000E+00 0. -1.
         -1   -1    0    0    0  501 -0.00000000000E+00 -0.00000000000E+00 -0.28882927979E+02  0.28882927979E+02  0.00000000000E+00 0.  1.
         25    2    1    2    0    0 -0.13102717998E+02  0.14293748441E+02  0.16211179632E+03  0.20568252030E+03  0.12509625170E+03 0.  0.
         23    2    1    2    0    0  0.13102717998E+02 -0.14293748441E+02  0.30570394495E+03  0.31989907692E+03  0.92219981542E+02 0.  0.
          5    1    3    3  502    0  0.10108199297E+01 -0.45210858946E+02  0.17597145548E+02  0.48704983883E+02  0.41800000000E+01 0.  1.
         -5    1    3    3    0  502 -0.14113537928E+02  0.59504607387E+02  0.14451465077E+03  0.15697753642E+03  0.41800000000E+01 0.  1.
        -11    1    4    4    0    0 -0.24283972326E+02  0.23680242338E+02  0.64457191213E+02  0.72836767420E+02  0.00000000000E+00 0.  1.
         11    1    4    4    0    0  0.37386690324E+02 -0.37973990779E+02  0.24124675373E+03  0.24706230950E+03  0.00000000000E+00 0. -1.
</event>
<event>
 8    1  0.3710605E-009  0.1051436E+03  0.7561462E-02  0.1269837E+00
         -3   -1    0    0    0  501 -0.00000000000E+00  0.00000000000E+00  0.45838691311E+02  0.45838691311E+02  0.00000000000E+00 0.  1.
          3   -1    0    0  501    0  0.00000000000E+00 -0.00000000000E+00 -0.31992745288E+03  0.31992745288E+03  0.00000000000E+00 0. -1.
         25    2    1    2    0    0  0.26880851449E+02 -0.39971387461E+02 -0.19410319954E+03  0.23588720023E+03  0.12508567932E+03 0.  0.
         23    2    1    2    0    0 -0.26880851449E+02  0.39971387461E+02 -0.79985562038E+02  0.12987894397E+03  0.90280440639E+02 0.  0.
          5    1    3    3  502    0 -0.49760229134E+01 -0.67220095080E+02 -0.17869274116E+03  0.19102845372E+03  0.41800000000E+01 0. -1.
         -5    1    3    3    0  502  0.31856874362E+02  0.27248707619E+02 -0.15410458379E+02  0.44858746510E+02  0.41800000000E+01 0. -1.
        -11    1    4    4    0    0 -0.54654200699E+02  0.34773685191E+01 -0.55165519250E+02  0.77732929058E+02  0.00000000000E+00 0. -1.
         11    1    4    4    0    0  0.27773349251E+02  0.36494018942E+02 -0.24820042788E+02  0.52146014911E+02  0.00000000000E+00 0.  1.
</event>
<event>
 8    1  0.3710605E-009  0.6800739E+02  0.7561462E-02  0.1367003E+00
         -2   -1    0    0    0  501 -0.00000000000E+00  0.00000000000E+00  0.27497891228E+02  0.27497891228E+02  0.00000000000E+00 0.  1.
          2   -1    0    0  501    0  0.00000000000E+00 -0.00000000000E+00 -0.50441789539E+03  0.50441789539E+03  0.00000000000E+00 0. -1.
         25    2    1    2    0    0 -0.34412003658E+02 -0.23464078195E+02 -0.28475329838E+03  0.31379290730E+03  0.12508716470E+03 0.  0.
         23    2    1    2    0    0  0.34412003658E+02  0.23464078195E+02 -0.19216670578E+03  0.21812287931E+03  0.94418211747E+02 0.  0.
          5    1    3    3  502    0 -0.40764071906E+02 -0.25903691097E+02 -0.29603093023E+03  0.29997415692E+03  0.41800000000E+01 0. -1.
         -5    1    3    3    0  502  0.63520682482E+01  0.24396129022E+01  0.11277631841E+02  0.13818750381E+02  0.41800000000E+01 0. -1.
        -11    1    4    4    0    0  0.17603002052E+02  0.47251139650E+02 -0.43391661152E+02  0.66523470572E+02  0.00000000000E+00 0. -1.
         11    1    4    4    0    0  0.16809001606E+02 -0.23787061454E+02 -0.14877504462E+03  0.15159940874E+03  0.00000000000E+00 0.  1.
</event>
<event>
 8    1  0.3710605E-009  0.1561755E+03  0.7561462E-02  0.1193083E+00
          1   -1    0    0  501    0  0.00000000000E+00  0.00000000000E+00  0.68645369665E+02  0.68645369665E+02  0.00000000000E+00 0. -1.
         -1   -1    0    0    0  501 -0.00000000000E+00 -0.00000000000E+00 -0.51871507670E+03  0.51871507670E+03  0.00000000000E+00 0.  1.
         25    2    1    2    0    0  0.22497534626E+02  0.11332652647E+03 -0.40061495379E+03  0.43530333614E+03  0.12509041766E+03 0.  0.
         23    2    1    2    0    0 -0.22497534626E+02 -0.11332652647E+03 -0.49454753247E+02  0.15205711022E+03  0.85595277238E+02 0.  0.
          5    1    3    3  502    0 -0.11752728240E+02  0.13076697693E+03 -0.29906229067E+03  0.32664025315E+03  0.41800000000E+01 0.  1.
         -5    1    3    3    0  502  0.34250262866E+02 -0.17440450461E+02 -0.10155266312E+03  0.10866308299E+03  0.41800000000E+01 0.  1.
        -11    1    4    4    0    0 -0.49784517577E+02 -0.39280390514E+02 -0.11340569793E+02  0.64420926666E+02  0.00000000000E+00 0. -1.
         11    1    4    4    0    0  0.27286982951E+02 -0.74046135955E+02 -0.38114183453E+02  0.87636183559E+02  0.00000000000E+00 0.  1.
</event>
<event>
 8    1  0.3710605E-009  0.1165781E+03  0.7561462E-02  0.1248851E+00
          2   -1    0    0  501    0  0.00000000000E+00  0.00000000000E+00  0.35935746586E+03  0.35935746586E+03  0.00000000000E+00 0. -1.
         -2   -1    0    0    0  501 -0.00000000000E+00 -0.00000000000E+00 -0.43776751232E+02  0.43776751232E+02  0.00000000000E+00 0.  1.
         25    2    1    2    0    0  0.62577045565E+02  0.19139987533E+02  0.18964357206E+03  0.23641937866E+03  0.12508881815E+03 0.  0.
         23    2    1    2    0    0 -0.62577045565E+02 -0.19139987533E+02  0.12593714257E+03  0.16671483844E+03  0.87472554104E+02 0.  0.
          5    1    3    3  502    0 -0.32272543717E+02 -0.18264861101E+02  0.68671402607E+02  0.78155973316E+02  0.41800000000E+01 0. -1.
         -5    1    3    3    0  502  0.94849589282E+02  0.37404848634E+02  0.12097216945E+03  0.15826340534E+03  0.41800000000E+01 0. -1.
        -11    1    4    4    0    0 -0.62796392572E+02 -0.39007663071E+02  0.52587297544E+02  0.90721599199E+02  0.00000000000E+00 0.  1.
         11    1    4    4    0    0  0.21934700702E+00  0.19867675537E+02  0.73349845025E+02  0.75993239236E+02  0.00000000000E+00 0. -1.
</event>
<event>
 8    1  0.3710605E-009  0.1182758E+03  0.7561462E-02  0.1245969E+00
          1   -1    0    0  501    0  0.00000000000E+00  0.00000000000E+00  0.26749893999E+03  0.26749893999E+03  0.00000000000E+00 0. -1.
         -1   -1    0    0    0  501 -0.00000000000E+00 -0.00000000000E+00 -0.86723495495E+02  0.86723495495E+02  0.00000000000E+00 0.  1.
         25    2    1    2    0    0  0.99091744146E+02  0.12799488178E+02  0.55903323222E+02  0.16957379024E+03  0.12508832134E+03 0.  0.
         23    2    1    2    0    0 -0.99091744146E+02 -0.12799488178E+02  0.12487212127E+03  0.18464864524E+03  0.92298834568E+02 0.  0.
          5    1    3    3  502    0  0.44176082209E+02  0.46551817467E+02 -0.22367617008E+02  0.68090973260E+02  0.41800000000E+01 0.  1.
         -5    1    3    3    0  502  0.54915661937E+02 -0.33752329289E+02  0.78270940229E+02  0.10148281698E+03  0.41800000000E+01 0.  1.
        -11    1    4    4    0    0 -0.37706634384E+02 -0.24754900617E+02  0.12879130853E+00  0.45106673213E+02  0.00000000000E+00 0.  1.
         11    1    4    4    0    0 -0.61385109762E+02  0.11955412439E+02  0.12474332996E+03  0.13954197203E+03  0.00000000000E+00 0. -1.
</event>
<event>
 8    1  0.3710605E-009  0.1472181E+03  0.7561462E-02  0.1203934E+00
          1   -1    0    0  501    0  0.00000000000E+00  0.00000000000E+00  0.36950468746E+03  0.36950468746E+03  0.00000000000E+00 0. -1.
         -1   -1    0    0    0  501 -0.00000000000E+00 -0.00000000000E+00 -0.75682077704E+02  0.75682077704E+02  0.00000000000E+00 0.  1.
         25    2    1    2    0    0  0.12139433607E+03 -0.19666763693E+02  0.10992762245E+03  0.20701772929E+03  0.12509553004E+03 0.  0.
         23    2    1    2    0    0 -0.12139433607E+03  0.19666763693E+02  0.18389498730E+03  0.23816903587E+03  0.88225602125E+02 0.  0.
          5    1    3    3  502    0  0.43776060616E+02  0.30069012357E+02 -0.11504497520E+02  0.54500594954E+02  0.41800000000E+01 0. -1.
         -5    1    3    3    0  502  0.77618275456E+02 -0.49735776050E+02  0.12143211997E+03  0.15251713433E+03  0.41800000000E+01 0. -1.
        -11    1    4    4    0    0 -0.11351000768E+03 -0.13940863737E+02  0.15785715784E+03  0.19493012032E+03  0.00000000000E+00 0. -1.
         11    1    4    4    0    0 -0.78843283956E+01  0.33607627430E+02  0.26037829457E+02  0.43238915557E+02  0.00000000000E+00 0.  1.
</event>
<event>
 8    1  0.3710605E-009  0.1042960E+03  0.7561462E-02  0.1271513E+00
          2   -1    0    0  501    0  0.00000000000E+00  0.00000000000E+00  0.10245274237E+04  0.10245274237E+04  0.00000000000E+00 0. -1.
         -2   -1    0    0    0  501 -0.00000000000E+00 -0.00000000000E+00 -0.15769293920E+02  0.15769293920E+02  0.00000000000E+00 0.  1.
         25    2    1    2    0    0  0.18268234305E+02 -0.60237694312E+01  0.82269720581E+03  0.83237469772E+03  0.12508769235E+03 0.  0.
         23    2    1    2    0    0 -0.18268234305E+02  0.60237694312E+01  0.18606092402E+03  0.20792201995E+03  0.90790334007E+02 0.  0.
          5    1    3    3  502    0  0.35151152501E+02 -0.54311105445E+02  0.61594960917E+03  0.61935183307E+03  0.41800000000E+01 0.  1.
         -5    1    3    3    0  502 -0.16882918196E+02  0.48287336014E+02  0.20674759665E+03  0.21302286465E+03  0.41800000000E+01 0.  1.
        -11    1    4    4    0    0 -0.52389611854E+02 -0.12149399135E+02  0.11723601099E+03  0.12898279576E+03  0.00000000000E+00 0. -1.
         11    1    4    4    0    0  0.34121377549E+02  0.18173168566E+02  0.68824913027E+02  0.78939224184E+02  0.00000000000E+00 0.  1.
</event>
<event>
 8    1  0.3710605E-009  0.1277432E+03  0.7561462E-02  0.1230843E+00
         -2   -1    0    0    0  501 -0.00000000000E+00  0.00000000000E+00  0.12164048902E+03  0.12164048902E+03  0.00000000000E+00 0.  1.
          2   -1    0    0  501    0  0.00000000000E+00 -0.00000000000E+00 -0.16872826373E+03  0.16872826373E+03  0.00000000000E+00 0. -1.
         25    2    1    2    0    0  0.56294363444E+02  0.73644092468E+02 -0.11116608565E+02  0.15609303377E+03  0.12509575731E+03 0.  0.
         23    2    1    2    0    0 -0.56294363444E+02 -0.73644092468E+02 -0.35971166142E+02  0.13427571898E+03  0.90241543664E+02 0.  0.
          5    1    3    3  502    0  0.73419085797E+02  0.83357487433E+02 -0.42336222170E+02  0.11894814407E+03  0.41800000000E+01 0. -1.
         -5    1    3    3    0  502 -0.17124722352E+02 -0.97133949650E+01  0.31219613605E+02  0.37144889703E+02  0.41800000000E+01 0. -1.
        -11    1    4    4    0    0 -0.47670474096E+02  0.23410414910E+01  0.41663962102E+01  0.47909429481E+02  0.00000000000E+00 0.  1.
         11    1    4    4    0    0 -0.86238893487E+01 -0.75985133959E+02 -0.40137562352E+02  0.86366289499E+02  0.00000000000E+00 0. -1.
</event>
<event>
 8    1  0.3710605E-009  0.1221707E+03  0.7561462E-02  0.1239558E+00
          1   -1    0    0  501    0  0.00000000000E+00  0.00000000000E+00  0.67053694486E+03  0.67053694486E+03  0.00000000000E+00 0. -1.
         -1   -1    0    0    0  501 -0.00000000000E+00 -0.00000000000E+00 -0.25694891626E+02  0.25694891626E+02  0.00000000000E+00 0.  1.
         25    2    1    2    0    0 -0.24111407672E+02 -0.57220940766E+02  0.25479763115E+03  0.29055971682E+03  0.12509004821E+03 0.  0.
         23    2    1    2    0    0  0.24111407672E+02  0.57220940766E+02  0.39004442209E+03  0.40567211966E+03  0.92626245884E+02 0.  0.
          5    1    3    3  502    0 -0.58756637148E+01  0.37716792135E+02  0.10906710582E+03  0.11562951961E+03  0.41800000000E+01 0. -1.
         -5    1    3    3    0  502 -0.18235743958E+02 -0.94937732901E+02  0.14573052532E+03  0.17493019721E+03  0.41800000000E+01 0. -1.
        -11    1    4    4    0    0  0.16705491066E+02  0.81809837999E+02  0.25871146599E+03  0.27185206577E+03  0.00000000000E+00 0.  1.
         11    1    4    4    0    0  0.74059166069E+01 -0.24588897232E+02  0.13133295610E+03  0.13382005390E+03  0.00000000000E+00 0. -1.
</event>
<event>
 8    1  0.3710605E-009  0.2714772E+03  0.7561462E-02  0.1100437E+00
          2   -1    0    0  501    0  0.00000000000E+00  0.00000000000E+00  0.75733349930E+03  0.75733349930E+03  0.00000000000E+00 0. -1.
         -2   -1    0    0    0  501 -0.00000000000E+00 -0.00000000000E+00 -0.10107333885E+03  0.10107333885E+03  0.00000000000E+00 0.  1.
         25    2    1    2    0    0 -0.25375084700E+03  0.16179590460E+02  0.32335315919E+03  0.42994785929E+03  0.12508646871E+03 0.  0.
         23    2    1    2    0    0  0.25375084700E+03 -0.16179590460E+02  0.33290700127E+03  0.42845897885E+03  0.89993075112E+02 0.  0.
          5    1    3    3  502    0 -0.10692188881E+00  0.27225798583E+02  0.18418039094E+02  0.33135360340E+02  0.41800000000E+01 0.  1.
         -5    1    3    3    0  502 -0.25364392511E+03 -0.11046208123E+02  0.30493512009E+03  0.39681249895E+03  0.41800000000E+01 0.  1.
        -11    1    4    4    0    0  0.11381103454E+02  0.13106151163E+02  0.23406554744E+01  0.17515118675E+02  0.00000000000E+00 0.  1.
         11    1    4    4    0    0  0.24236974354E+03 -0.29285741623E+02  0.33056634579E+03  0.41094386018E+03  0.00000000000E+00 0. -1.
</event>
<event>
 8    1  0.3710605E-009  0.2026360E+03  0.7561462E-02  0.1147534E+00
          2   -1    0    0  501    0  0.00000000000E+00  0.00000000000E+00  0.39146338602E+03  0.39146338602E+03  0.00000000000E+00 0. -1.
         -2   -1    0    0    0  501 -0.00000000000E+00 -0.00000000000E+00 -0.12776912433E+03  0.12776912433E+03  0.00000000000E+00 0.  1.
         25    2    1    2    0    0 -0.16237414631E+03  0.65818499256E+02  0.23806853249E+03  0.32097468953E+03  0.12510270548E+03 0.  0.
         23    2    1    2    0    0  0.16237414631E+03 -0.65818499256E+02  0.25625729196E+02  0.19825782083E+03  0.89174252392E+02 0.  0.
          5    1    3    3  502    0  0.20650729301E+02  0.10675068797E+01  0.23870660855E+02  0.31857072076E+02  0.41800000000E+01 0. -1.
         -5    1    3    3    0  502 -0.18302487561E+03  0.64750992376E+02  0.21419787164E+03  0.28911761745E+03  0.41800000000E+01 0. -1.
        -11    1    4    4    0    0  0.66761010712E+02 -0.66701272411E+02 -0.12745115759E+02  0.95228831077E+02  0.00000000000E+00 0. -1.
         11    1    4    4    0    0  0.95613135596E+02  0.88277315460E+00  0.38370844955E+02  0.10302898975E+03  0.00000000000E+00 0.  1.
</event>
<event>
 8    1  0.3710605E-009  0.8022023E+02  0.7561462E-02  0.1328428E+00
          1   -1    0    0  501    0  0.00000000000E+00  0.00000000000E+00  0.49178519397E+02  0.49178519397E+02  0.00000000000E+00 0. -1.
         -1   -1    0    0    0  501 -0.00000000000E+00 -0.00000000000E+00 -0.26391564255E+03  0.26391564255E+03  0.00000000000E+00 0.  1.
         25    2    1    2    0    0  0.24530910642E+02 -0.24346044098E+02 -0.10797109594E+03  0.16881702960E+03  0.12508771517E+03 0.  0.
         23    2    1    2    0    0 -0.24530910642E+02  0.24346044098E+02 -0.10676602721E+03  0.14427713234E+03  0.90677510497E+02 0.  0.
          5    1    3    3  502    0  0.64385368364E+02 -0.14067653514E+02 -0.15966981701E+02  0.67939616126E+02  0.41800000000E+01 0. -1.
         -5    1    3    3    0  502 -0.39854457722E+02 -0.10278390584E+02 -0.92004114238E+02  0.10087741348E+03  0.41800000000E+01 0. -1.
        -11    1    4    4    0    0  0.10755265140E+02  0.10784749511E+02  0.12158618854E+02  0.19488934365E+02  0.00000000000E+00 0. -1.
         11    1    4    4    0    0 -0.35286175782E+02  0.13561294587E+02 -0.11892464607E+03  0.12478819798E+03  0.00000000000E+00 0.  1.
</event>
<event>
 8    1  0.3710605E-009  0.9453499E+02  0.7561462E-02  0.1292227E+00
         -3   -1    0    0    0  501 -0.00000000000E+00  0.00000000000E+00  0.10642303215E+03  0.10642303215E+03  0.00000000000E+00 0.  1.
          3   -1    0    0  501    0  0.00000000000E+00 -0.00000000000E+00 -0.17772653326E+03  0.17772653326E+03  0.00000000000E+00 0. -1.
         25    2    1    2    0    0  0.18767646552E+02  0.82207543378E+02 -0.29473903729E+02  0.15371232976E+03  0.12509382308E+03 0.  0.
         23    2    1    2    0    0 -0.18767646552E+02 -0.82207543378E+02 -0.41829597376E+02  0.13043723565E+03  0.90298684834E+02 0.  0.
          5    1    3    3  502    0  0.20168031700E+02  0.67300980418E+02  0.41061530140E+02  0.81484312142E+02  0.41800000000E+01 0. -1.
         -5    1    3    3    0  502 -0.14003851486E+01  0.14906562960E+02 -0.70535433869E+02  0.72228017618E+02  0.41800000000E+01 0. -1.
        -11    1    4    4    0    0  0.14868202183E+02 -0.62317104875E+02  0.10713762685E+02  0.64955905867E+02  0.00000000000E+00 0.  1.
         11    1    4    4    0    0 -0.33635848734E+02 -0.19890438502E+02 -0.52543360061E+02  0.65481329785E+02  0.00000000000E+00 0. -1.
</event>
<event>
 8    1  0.3710605E-009  0.1006772E+03  0.7561462E-02  0.1278878E+00
          2   -1    0    0  501    0  0.00000000000E+00  0.00000000000E+00  0.19398412477E+03  0.19398412477E+03  0.00000000000E+00 0. -1.
         -2   -1    0    0    0  501 -0.00000000000E+00 -0.00000000000E+00 -0.68988634431E+02  0.68988634431E+02  0.00000000000E+00 0.  1.
         25    2    1    2    0    0 -0.17612028825E+02  0.29245039715E+02  0.49853482017E+02  0.13891738022E+03  0.12508882024E+03 0.  0.
         23    2    1    2    0    0  0.17612028825E+02 -0.29245039715E+02  0.75142008321E+02  0.12405537898E+03  0.92617275563E+02 0.  0.
          5    1    3    3  502    0 -0.52265642999E+02 -0.29091909014E+02  0.34657138437E+02  0.69257680100E+02  0.41800000000E+01 0. -1.
         -5    1    3    3    0  502  0.34653614174E+02  0.58336948729E+02  0.15196343580E+02  0.69659700118E+02  0.41800000000E+01 0. -1.
        -11    1    4    4    0    0 -0.14937057458E+02  0.13191404107E+02  0.67069978354E+02  0.69967927111E+02  0.00000000000E+00 0. -1.
         11    1    4    4    0    0  0.32549086283E+02 -0.42436443822E+02  0.80720299668E+01  0.54087451871E+02  0.00000000000E+00 0.  1.
</event>
<event>
 8    1  0.3710605E-009  0.1127239E+03  0.7561462E-02  0.1255607E+00
          1   -1    0    0  501    0  0.00000000000E+00  0.00000000000E+00  0.45188868306E+02  0.45188868306E+02  0.00000000000E+00 0. -1.
         -1   -1    0    0    0  501 -0.00000000000E+00 -0.00000000000E+00 -0.40725556289E+03  0.40725556289E+03  0.00000000000E+00 0.  1.
         25    2    1    2    0    0 -0.30702325166E+02 -0.73125825853E+02 -0.22983471512E+03  0.27342650963E+03  0.12509212892E+03 0.  0.
         23    2    1    2    0    0  0.30702325166E+02  0.73125825853E+02 -0.13223197946E+03  0.17901792156E+03  0.90951089443E+02 0.  0.
          5    1    3    3  502    0 -0.75496082524E+02 -0.36661092524E+02 -0.17278576778E+03  0.19213559828E+03  0.41800000000E+01 0. -1.
         -5    1    3    3    0  502  0.44793757357E+02 -0.36464733328E+02 -0.57048947344E+02  0.81290911349E+02  0.41800000000E+01 0. -1.
        -11    1    4    4    0    0  0.34067856980E+02  0.52345140405E+02 -0.21120160605E+02  0.65929460692E+02  0.00000000000E+00 0. -1.
         11    1    4    4    0    0 -0.33655318140E+01  0.20780685448E+02 -0.11111181886E+03  0.11308846087E+03  0.00000000000E+00 0.  1.
</event>
<event>
 8    1  0.3710605E-009  0.1191750E+03  0.7561462E-02  0.1244464E+00
         -1   -1    0    0    0  501 -0.00000000000E+00  0.00000000000E+00  0.13431621295E+02  0.13431621295E+02  0.00000000000E+00 0. -1.
          1   -1    0    0  501    0  0.00000000000E+00 -0.00000000000E+00 -0.16832869886E+04  0.16832869886E+04  0.00000000000E+00 0.  1.
         25    2    1    2    0    0  0.32473663560E+02  0.79473503760E+02 -0.12531675605E+04  0.12623182744E+04  0.12509162508E+03 0.  0.
         23    2    1    2    0    0 -0.32473663560E+02 -0.79473503760E+02 -0.41668780682E+03  0.43440033547E+03  0.87774406754E+02 0.  0.
          5    1    3    3  502    0  0.49274951311E+02 -0.17392868133E+02 -0.50306743716E+03  0.50579131213E+03  0.41800000000E+01 0. -1.
         -5    1    3    3    0  502 -0.16801287751E+02  0.96866371893E+02 -0.75010012334E+03  0.75652696231E+03  0.41800000000E+01 0. -1.
        -11    1    4    4    0    0  0.45615018312E+00 -0.16120653469E+02 -0.54693516642E+01  0.17029308526E+02  0.00000000000E+00 0. -1.
         11    1    4    4    0    0 -0.32929813743E+02 -0.63352850290E+02 -0.41121845515E+03  0.41737102694E+03  0.00000000000E+00 0.  1.
</event>
<event>
 8    1  0.3710605E-009  0.1404905E+03  0.7561462E-02  0.1212670E+00
         -1   -1    0    0    0  501 -0.00000000000E+00  0.00000000000E+00  0.57748850811E+02  0.57748850811E+02  0.00000000000E+00 0.  1.
          1   -1    0    0  501    0  0.00000000000E+00 -0.00000000000E+00 -0.45559027818E+03  0.45559027818E+03  0.00000000000E+00 0. -1.
         25    2    1    2    0    0  0.64337001141E+02  0.80716389466E+02 -0.29595471734E+03  0.33747846291E+03  0.12509249764E+03 0.  0.
         23    2    1    2    0    0 -0.64337001141E+02 -0.80716389466E+02 -0.10188671003E+03  0.17586066608E+03  0.99456960293E+02 0.  0.
          5    1    3    3  502    0  0.91345564208E+02  0.57349762303E+02 -0.13649768343E+03  0.17401752014E+03  0.41800000000E+01 0.  1.
         -5    1    3    3    0  502 -0.27008563067E+02  0.23366627163E+02 -0.15945703391E+03  0.16346094276E+03  0.41800000000E+01 0.  1.
        -11    1    4    4    0    0 -0.75939971930E+02 -0.24662839354E+02 -0.33260135393E+02  0.86494922326E+02  0.00000000000E+00 0.  1.
         11    1    4    4    0    0  0.11602970789E+02 -0.56053550112E+02 -0.68626574635E+02  0.89365743758E+02  0.00000000000E+00 0. -1.
</event>
<event>
 8    1  0.3710605E-009  0.7774448E+02  0.7561462E-02  0.1335577E+00
         -3   -1    0    0    0  501 -0.00000000000E+00  0.00000000000E+00  0.13858559155E+04  0.13858559155E+04  0.00000000000E+00 0.  1.
          3   -1    0    0  501    0  0.00000000000E+00 -0.00000000000E+00 -0.10538824677E+02  0.10538824677E+02  0.00000000000E+00 0. -1.
         25    2    1    2    0    0  0.46517074191E+02  0.12618554594E+02  0.97005874423E+03  0.97927768073E+03  0.12509093734E+03 0.  0.
         23    2    1    2    0    0 -0.46517074191E+02 -0.12618554594E+02  0.40525834657E+03  0.41711705943E+03  0.86193083760E+02 0.  0.
          5    1    3    3  502    0 -0.58266220439E+00  0.11863317291E+02  0.58056810670E+01  0.13865645497E+02  0.41800000000E+01 0.  1.
         -5    1    3    3    0  502  0.47099736396E+02  0.75523730247E+00  0.96425306316E+03  0.96541203523E+03  0.41800000000E+01 0.  1.
        -11    1    4    4    0    0 -0.50079058389E+02  0.26272722142E+02  0.18598139992E+03  0.19438942650E+03  0.00000000000E+00 0.  1.
         11    1    4    4    0    0  0.35619841978E+01 -0.38891276736E+02  0.21927694665E+03  0.22272763293E+03  0.00000000000E+00 0. -1.
</event>
<event>
 8    1  0.3710605E-009  0.1139641E+03  0.7561462E-02  0.1253400E+00
          1   -1    0    0  501    0  0.00000000000E+00  0.00000000000E+00  0.11950870026E+03  0.11950870026E+03  0.00000000000E+00 0. -1.
         -1   -1    0    0    0  501 -0.00000000000E+00 -0.00000000000E+00 -0.17432976004E+03  0.17432976004E+03  0.00000000000E+00 0.  1.
         25    2    1    2    0    0  0.72408590000E+02  0.63534054818E+02 -0.40887250545E+02  0.16309336561E+03  0.12509236037E+03 0.  0.
         23    2    1    2    0    0 -0.72408590000E+02 -0.63534054818E+02 -0.13933809233E+02  0.13074509469E+03  0.87295754297E+02 0.  0.
          5    1    3    3  502    0  0.67892616263E+02  0.62753697547E+02  0.25833634778E+02  0.96084769785E+02  0.41800000000E+01 0.  1.
         -5    1    3    3    0  502  0.45159737370E+01  0.78035727111E+00 -0.66720885323E+02  0.67008595825E+02  0.41800000000E+01 0.  1.
        -11    1    4    4    0    0 -0.33396843580E+02 -0.80109049481E+02 -0.16229403383E+02  0.88296106959E+02  0.00000000000E+00 0. -1.
         11    1    4    4    0    0 -0.39011746421E+02  0.16574994663E+02  0.22955941496E+01  0.42448987731E+02  0.00000000000E+00 0.  1.
</event>
<event>
 8    1  0.3710605E-009  0.1601811E+03  0.7561462E-02  0.1188492E+00
         -2   -1    0    0    0  501 -0.00000000000E+00  0.00000000000E+00  0.32248054638E+03  0.32248054638E+03  0.00000000000E+00 0.  1.
          2   -1    0    0  501    0  0.00000000000E+00 -0.00000000000E+00 -0.11035904295E+03  0.11035904295E+03  0.00000000000E+00 0. -1.
         25    2    1    2    0    0 -0.14383685706E+03  0.25020680919E+02  0.16723862557E+03  0.25481576246E+03  0.12508892434E+03 0.  0.
         23    2    1    2    0    0  0.14383685706E+03 -0.25020680919E+02  0.44882877865E+02  0.17802382687E+03  0.91449080290E+02 0.  0.
          5    1    3    3  502    0 -0.12364291741E+03 -0.19146770456E+02  0.16350835222E+03  0.20592868544E+03  0.41800000000E+01 0.  1.
         -5    1    3    3    0  502 -0.20193939650E+02  0.44167451375E+02  0.37302733495E+01  0.48887077012E+02  0.41800000000E+01 0.  1.
        -11    1    4    4    0    0  0.99053034398E+02 -0.22501075964E+02  0.72998111152E+02  0.12508607546E+03  0.00000000000E+00 0.  1.
         11    1    4    4    0    0  0.44783822658E+02 -0.25196049546E+01 -0.28115233287E+02  0.52937751404E+02  0.00000000000E+00 0. -1.
</event>
<event>
 8    1  0.3710605E-009  0.1024026E+03  0.7561462E-02  0.1275323E+00
         -1   -1    0    0    0  501 -0.00000000000E+00  0.00000000000E+00  0.16599772145E+03  0.16599772145E+03  0.00000000000E+00 0.  1.
          1   -1    0    0  501    0  0.00000000000E+00 -0.00000000000E+00 -0.75732551548E+02  0.75732551548E+02  0.00000000000E+00 0. -1.
         25    2    1    2    0    0  0.26605028236E+01  0.21800024867E+02  0.30840503337E+02  0.13069636390E+03  0.12509230005E+03 0.  0.
         23    2    1    2    0    0 -0.26605028236E+01 -0.21800024867E+02  0.59424666563E+02  0.11103390909E+03  0.91186175558E+02 0.  0.
          5    1    3    3  502    0  0.52748982122E+02  0.43927502568E+02  0.23116381482E+01  0.68810585433E+02  0.41800000000E+01 0. -1.
         -5    1    3    3    0  502 -0.50088479299E+02 -0.22127477701E+02  0.28528865189E+02  0.61885778470E+02  0.41800000000E+01 0. -1.
        -11    1    4    4    0    0  0.26925762914E+02  0.17359018981E+02  0.52452067719E+02  0.61461790216E+02  0.00000000000E+00 0.  1.
         11    1    4    4    0    0 -0.29586265738E+02 -0.39159043848E+02  0.69725988438E+01  0.49572118878E+02  0.00000000000E+00 0. -1.
</event>
<event>
 8    1  0.3710605E-009  0.1038840E+03  0.7561462E-02  0.1272334E+00
         -3   -1    0    0    0  501 -0.00000000000E+00  0.00000000000E+00  0.12348803249E+03  0.12348803249E+03  0.00000000000E+00 0.  1.
          3   -1    0    0  501    0  0.00000000000E+00 -0.00000000000E+00 -0.25756843573E+03  0.25756843573E+03  0.00000000000E+00 0. -1.
         25    2    1    2    0    0 -0.54495969691E+01  0.34678289411E+01  0.79638591736E+02  0.14842741288E+03  0.12508664060E+03 0.  0.
         23    2    1    2    0    0  0.54495969691E+01 -0.34678289411E+01 -0.21371899497E+03  0.23262905534E+03  0.91644665062E+02 0.  0.
          5    1    3    3  502    0 -0.55005138697E+02  0.27621359688E+02  0.15230119201E+02  0.63544737980E+02  0.41800000000E+01 0.  1.
         -5    1    3    3    0  502  0.49555541728E+02 -0.24153530747E+02  0.64408472535E+02  0.84882674898E+02  0.41800000000E+01 0.  1.
        -11    1    4    4    0    0  0.44555245467E+02 -0.19356978632E+02 -0.96413198934E+02  0.10796002709E+03  0.00000000000E+00 0.  1.
         11    1    4    4    0    0 -0.39105648498E+02  0.15889149691E+02 -0.11730579604E+03  0.12466902825E+03  0.00000000000E+00 0. -1.
</event>
<event>
 8    1  0.3710605E-009  0.7487886E+02  0.7561462E-02  0.1344247E+00
         -1   -1    0    0    0  501 -0.00000000000E+00  0.00000000000E+00  0.11233009473E+03  0.11233009473E+03  0.00000000000E+00 0.  1.
          1   -1    0    0  501    0  0.00000000000E+00 -0.00000000000E+00 -0.16009869866E+03  0.16009869866E+03  0.00000000000E+00 0. -1.
         25    2    1    2    0    0  0.34589155925E+02  0.59559313626E+02 -0.62887026755E+02  0.15602958656E+03  0.12508689860E+03 0.  0.
         23    2    1    2    0    0 -0.34589155925E+02 -0.59559313626E+02  0.15118422826E+02  0.11639920683E+03  0.92609325096E+02 0.  0.
          5    1    3    3  502    0 -0.58185523795E+01  0.13190842118E+02  0.36280244186E+02  0.39262990026E+02  0.41800000000E+01 0. -1.
         -5    1    3    3    0  502  0.40407708305E+02  0.46368471508E+02 -0.99167270942E+02  0.11676659654E+03  0.41800000000E+01 0. -1.
        -11    1    4    4    0    0  0.35163938635E+01 -0.98988801960E+01 -0.34790833953E+02  0.36342192863E+02  0.00000000000E+00 0. -1.
         11    1    4    4    0    0 -0.38105549789E+02 -0.49660433430E+02  0.49909256778E+02  0.80057013967E+02  0.00000000000E+00 0.  1.
</event>
<event>
 8    1  0.3710605E-009  0.7889437E+02  0.7561462E-02  0.1332219E+00
         -2   -1    0    0    0  501 -0.00000000000E+00  0.00000000000E+00  0.47578886426E+02  0.47578886426E+02  0.00000000000E+00 0. -1.
          2   -1    0    0  501    0  0.00000000000E+00 -0.00000000000E+00 -0.29319525377E+03  0.29319525377E+03  0.00000000000E+00 0.  1.
         25    2    1    2    0    0 -0.13930821265E+02 -0.42611483493E+02 -0.16147542215E+03  0.20912632394E+03  0.12509876537E+03 0.  0.
         23    2    1    2    0    0  0.13930821265E+02  0.42611483493E+02 -0.84140945194E+02  0.13164781626E+03  0.90783492784E+02 0.  0.
          5    1    3    3  502    0  0.55990298100E+01  0.62717124685E+01 -0.15572559891E+03  0.15600839102E+03  0.41800000000E+01 0.  1.
         -5    1    3    3    0  502 -0.19529851075E+02 -0.48883195962E+02 -0.57498232453E+01  0.53117932921E+02  0.41800000000E+01 0.  1.
        -11    1    4    4    0    0  0.38899820152E+02 -0.74907231872E+01 -0.14244045917E+02  0.42097503320E+02  0.00000000000E+00 0. -1.
         11    1    4    4    0    0 -0.24968998886E+02  0.50102206680E+02 -0.69896899277E+02  0.89550312943E+02  0.00000000000E+00 0.  1.
</event>
<event>
 8    1  0.3710605E-009  0.2584754E+03  0.7561462E-02  0.1108063E+00
          2   -1    0    0  501    0  0.00000000000E+00  0.00000000000E+00  0.44065739073E+03  0.44065739073E+03  0.00000000000E+00 0. -1.
         -2   -1    0    0    0  501 -0.00000000000E+00 -0.00000000000E+00 -0.18201375093E+03  0.18201375093E+03  0.00000000000E+00 0.  1.
         25    2    1    2    0    0  0.24853936421E+03  0.39897935800E+02  0.53180753310E+02  0.28607636176E+03  0.12509129223E+03 0.  0.
         23    2    1    2    0    0 -0.24853936421E+03 -0.39897935800E+02  0.20546288649E+03  0.33659477991E+03  0.87848661305E+02 0.  0.
          5    1    3    3  502    0  0.12562685367E+03  0.17818948747E+01  0.87092133467E+02  0.15293068242E+03  0.41800000000E+01 0.  1.
         -5    1    3    3    0  502  0.12291251054E+03  0.38116040925E+02 -0.33911380157E+02  0.13314567934E+03  0.41800000000E+01 0.  1.
        -11    1    4    4    0    0 -0.19405704224E+03  0.14969546746E+01  0.17639975958E+03  0.26225417384E+03  0.00000000000E+00 0. -1.
         11    1    4    4    0    0 -0.54482321970E+02 -0.41394890474E+02  0.29063126906E+02  0.74340606065E+02  0.00000000000E+00 0.  1.
</event>
<event>
 8    1  0.3710605E-009  0.2580960E+03  0.7561462E-02  0.1108293E+00
         -2   -1    0    0    0  501 -0.00000000000E+00  0.00000000000E+00  0.38476782863E+03  0.38476782863E+03  0.00000000000E+00 0.  1.
          2   -1    0    0  501    0  0.00000000000E+00 -0.00000000000E+00 -0.18614505087E+03  0.18614505087E+03  0.00000000000E+00 0. -1.
         25    2    1    2    0    0  0.22513487239E+03  0.78194153413E+02  0.15593757504E+03  0.31107084343E+03  0.12509398836E+03 0.  0.
         23    2    1    2    0    0 -0.22513487239E+03 -0.78194153413E+02  0.42685202711E+02  0.25984203607E+03  0.94317658926E+02 0.  0.
          5    1    3    3  502    0  0.12734918730E+03  0.10084113825E+03  0.63205688855E+02  0.17435361245E+03  0.41800000000E+01 0. -1.
         -5    1    3    3    0  502  0.97785685092E+02 -0.22646984836E+02  0.92731886185E+02  0.13671723098E+03  0.41800000000E+01 0. -1.
        -11    1    4    4    0    0 -0.19853744150E+03 -0.33667718236E+02  0.49939015351E+02  0.20747177202E+03  0.00000000000E+00 0.  1.
         11    1    4    4    0    0 -0.26597430889E+02 -0.44526435177E+02 -0.72538126403E+01  0.52370264055E+02  0.00000000000E+00 0. -1.
</event>
<event>
 8    1  0.3710605E-009  0.1272841E+03  0.7561462E-02  0.1231542E+00
          3   -1    0    0  501    0  0.00000000000E+00  0.00000000000E+00  0.71091419007E+02  0.71091419007E+02  0.00000000000E+00 0. -1.
         -3   -1    0    0    0  501 -0.00000000000E+00 -0.00000000000E+00 -0.27132139458E+03  0.27132139458E+03  0.00000000000E+00 0.  1.
         25    2    1    2    0    0  0.80197409357E+02 -0.18003287591E+02 -0.14343949016E+03  0.20731307995E+03  0.12509229771E+03 0.  0.
         23    2    1    2    0    0 -0.80197409357E+02  0.18003287591E+02 -0.56790485414E+02  0.13509973364E+03  0.90945236080E+02 0.  0.
          5    1    3    3  502    0  0.60672354396E+02 -0.62971596721E+02 -0.47762123976E+02  0.99725871609E+02  0.41800000000E+01 0. -1.
         -5    1    3    3    0  502  0.19525054961E+02  0.44968309130E+02 -0.95677366187E+02  0.10758720834E+03  0.41800000000E+01 0. -1.
        -11    1    4    4    0    0 -0.11333270526E+02  0.43070758176E+02 -0.38695922346E+01  0.44704663904E+02  0.00000000000E+00 0. -1.
         11    1    4    4    0    0 -0.68864138831E+02 -0.25067470586E+02 -0.52920893180E+02  0.90395069741E+02  0.00000000000E+00 0.  1.
</event>
<event>
 8    1  0.3710605E-009  0.7778317E+02  0.7561462E-02  0.1335463E+00
          2   -1    0    0  501    0  0.00000000000E+00  0.00000000000E+00  0.27700934676E+03  0.27700934676E+03  0.00000000000E+00 0. -1.
         -2   -1    0    0    0  501 -0.00000000000E+00 -0.00000000000E+00 -0.59250391230E+02  0.59250391230E+02  0.00000000000E+00 0.  1.
         25    2    1    2    0    0  0.41562040719E+02  0.15930766288E+02  0.57988467976E+02  0.14488424273E+03  0.12509032268E+03 0.  0.
         23    2    1    2    0    0 -0.41562040719E+02 -0.15930766288E+02  0.15977048755E+03  0.19137549526E+03  0.95481825239E+02 0.  0.
          5    1    3    3  502    0  0.12639685876E+01 -0.52531340422E+01  0.89242729095E+02  0.89503799530E+02  0.41800000000E+01 0. -1.
         -5    1    3    3    0  502  0.40298072131E+02  0.21183900330E+02 -0.31254261119E+02  0.55380443198E+02  0.41800000000E+01 0. -1.
        -11    1    4    4    0    0 -0.32917555191E+02  0.36920056850E+02  0.56853893909E+02  0.75359281380E+02  0.00000000000E+00 0. -1.
         11    1    4    4    0    0 -0.86444855278E+01 -0.52850823138E+02  0.10291659364E+03  0.11601621388E+03  0.00000000000E+00 0.  1.
</event>
<event>
 8    1  0.3710605E-009  0.3189518E+03  0.7561462E-02  0.1076133E+00
         -2   -1    0    0    0  501 -0.00000000000E+00  0.00000000000E+00  0.15673523256E+04  0.15673523256E+04  0.00000000000E+00 0.  1.
          2   -1    0    0  501    0  0.00000000000E+00 -0.00000000000E+00 -0.75695966554E+02  0.75695966554E+02  0.00000000000E+00 0. -1.
         25    2    1    2    0    0  0.30470234659E+03 -0.72781291415E+02  0.97504476209E+03  0.10317460168E+04  0.12508764417E+03 0.  0.
         23    2    1    2    0    0 -0.30470234659E+03  0.72781291415E+02  0.51661159691E+03  0.61130227530E+03  0.93071442070E+02 0.  0.
          5    1    3    3  502    0  0.59371699544E+02  0.18377560306E+02  0.32617940382E+03  0.33207410213E+03  0.41800000000E+01 0.  1.
         -5    1    3    3    0  502  0.24533064704E+03 -0.91158851720E+02  0.64886535827E+03  0.69967191468E+03  0.41800000000E+01 0.  1.
        -11    1    4    4    0    0 -0.11371883482E+03  0.17671708676E+02  0.11243562030E+03  0.16089136519E+03  0.00000000000E+00 0. -1.
         11    1    4    4    0    0 -0.19098351177E+03  0.55109582739E+02  0.40417597661E+03  0.45041091011E+03  0.00000000000E+00 0.  1.
</event>
<event>
 8    1  0.3710605E-009  0.8944293E+02  0.7561462E-02  0.1304206E+00
         -1   -1    0    0    0  501 -0.00000000000E+00  0.00000000000E+00  0.14773624309E+03  0.14773624309E+03  0.00000000000E+00 0.  1.
          1   -1    0    0  501    0  0.00000000000E+00 -0.00000000000E+00 -0.13065207523E+03  0.13065207523E+03  0.00000000000E+00 0. -1.
         25    2    1    2    0    0  0.40136974520E+02  0.52500201747E+02 -0.43599338322E+02  0.14803768673E+03  0.12508799497E+03 0.  0.
         23    2    1    2    0    0 -0.40136974520E+02 -0.52500201747E+02  0.60683506175E+02  0.13035063158E+03  0.94559776468E+02 0.  0.
          5    1    3    3  502    0  0.44038880382E+02 -0.93615817942E+01  0.28045996793E+02  0.53208199886E+02  0.41800000000E+01 0.  1.
         -5    1    3    3    0  502 -0.39019058626E+01  0.61861783541E+02 -0.71645335115E+02  0.94829486849E+02  0.41800000000E+01 0.  1.
        -11    1    4    4    0    0 -0.36016822723E+01 -0.26397194590E+02  0.77847319297E+02  0.82279943602E+02  0.00000000000E+00 0.  1.
         11    1    4    4    0    0 -0.36535292248E+02 -0.26103007157E+02 -0.17163813122E+02  0.48070687983E+02  0.00000000000E+00 0. -1.
</event>
<event>
 8    1  0.3710605E-009  0.9468794E+02  0.7561462E-02  0.1291880E+00
         -1   -1    0    0    0  501 -0.00000000000E+00  0.00000000000E+00  0.23420461047E+02  0.23420461047E+02  0.00000000000E+00 0.  1.
          1   -1    0    0  501    0  0.00000000000E+00 -0.00000000000E+00 -0.59482148791E+03  0.59482148791E+03  0.00000000000E+00 0. -1.
         25    2    1    2    0    0 -0.14873903290E+02 -0.33615363599E+02 -0.39335579853E+03  0.41440074728E+03  0.12509184402E+03 0.  0.
         23    2    1    2    0    0  0.14873903290E+02  0.33615363599E+02 -0.17804522834E+03  0.20384120168E+03  0.92194937498E+02 0.  0.
          5    1    3    3  502    0  0.35012526258E+02 -0.15771351117E+02 -0.32752251222E+03  0.32979248161E+03  0.41800000000E+01 0.  1.
         -5    1    3    3    0  502 -0.49886429547E+02 -0.17844012482E+02 -0.65833286302E+02  0.84608265671E+02  0.41800000000E+01 0.  1.
        -11    1    4    4    0    0 -0.32489453399E+02 -0.91873286186E+01 -0.80137638159E+02  0.86959833481E+02  0.00000000000E+00 0.  1.
         11    1    4    4    0    0  0.47363356689E+02  0.42802692217E+02 -0.97907590181E+02  0.11688136820E+03  0.00000000000E+00 0. -1.
</event>
<event>
 8    1  0.3710605E-009  0.8273209E+02  0.7561462E-02  0.1321472E+00
         -1   -1    0    0    0  501 -0.00000000000E+00  0.00000000000E+00  0.20257840189E+03  0.20257840189E+03  0.00000000000E+00 0.  1.
          1   -1    0    0  501    0  0.00000000000E+00 -0.00000000000E+00 -0.81519007865E+02  0.81519007865E+02  0.00000000000E+00 0. -1.
         25    2    1    2    0    0  0.46691314880E+02  0.48963901419E+02  0.62105129445E+02  0.15518465672E+03  0.12509071928E+03 0.  0.
         23    2    1    2    0    0 -0.46691314880E+02 -0.48963901419E+02  0.58954264584E+02  0.12891275304E+03  0.92549176424E+02 0.  0.
          5    1    3    3  502    0  0.45944809229E+02  0.24043096907E+02  0.98193093688E+02  0.11112313914E+03  0.41800000000E+01 0. -1.
         -5    1    3    3    0  502  0.74650565151E+00  0.24920804512E+02 -0.36087964243E+02  0.44061517579E+02  0.41800000000E+01 0. -1.
        -11    1    4    4    0    0 -0.59971934267E+02 -0.38680117532E+02  0.40299169191E+01  0.71477441353E+02  0.00000000000E+00 0. -1.
         11    1    4    4    0    0  0.13280619387E+02 -0.10283783886E+02  0.54924347665E+02  0.57435311688E+02  0.00000000000E+00 0.  1.
</event>
<event>
 8    1  0.3710605E-009  0.1091484E+03  0.7561462E-02  0.1262155E+00
          2   -1    0    0  501    0  0.00000000000E+00  0.00000000000E+00  0.21553515368E+03  0.21553515368E+03  0.00000000000E+00 0.  1.
         -2   -1    0    0    0  501 -0.00000000000E+00 -0.00000000000E+00 -0.65627726205E+02  0.65627726205E+02  0.00000000000E+00 0. -1.
         25    2    1    2    0    0  0.93683869060E+01  0.34765236914E+02  0.42291064347E+02  0.13686860311E+03  0.12509233399E+03 0.  0.
         23    2    1    2    0    0 -0.93683869060E+01 -0.34765236914E+02  0.10761636312E+03  0.14429427677E+03  0.89124454143E+02 0.  0.
          5    1    3    3  502    0 -0.45210213623E+02 -0.21573151204E+02  0.69961708998E+01  0.50752173115E+02  0.41800000000E+01 0.  1.
         -5    1    3    3    0  502  0.54578600529E+02  0.56338388117E+02  0.35294893447E+02  0.86116429993E+02  0.41800000000E+01 0.  1.
        -11    1    4    4    0    0 -0.20918691321E+02  0.22696815043E+02  0.14113815829E+02  0.33940195299E+02  0.00000000000E+00 0.  1.
         11    1    4    4    0    0  0.11550304415E+02 -0.57462051957E+02  0.93502547294E+02  0.11035408147E+03  0.00000000000E+00 0. -1.
</event>
<event>
 8    1  0.3710605E-009  0.2985219E+03  0.7561462E-02  0.1085982E+00
          1   -1    0    0  501    0  0.00000000000E+00  0.00000000000E+00  0.59217357119E+03  0.59217357119E+03  0.00000000000E+00 0. -1.
         -1   -1    0    0    0  501 -0.00000000000E+00 -0.00000000000E+00 -0.26667658076E+03  0.26667658076E+03  0.00000000000E+00 0.  1.
         25    2    1    2    0    0  0.24661916190E+03 -0.14801777585E+03  0.43679029293E+03  0.53773773293E+03  0.12508331798E+03 0.  0.
         23    2    1    2    0    0 -0.24661916190E+03  0.14801777585E+03 -0.11129330250E+03  0.32111241902E+03  0.89424345027E+02 0.  0.
          5    1    3    3  502    0  0.17408555894E+03 -0.15517002027E+03  0.37725887594E+03  0.44353720126E+03  0.41800000000E+01 0.  1.
         -5    1    3    3    0  502  0.72533602965E+02  0.71522444233E+01  0.59531416984E+02  0.94200531673E+02  0.41800000000E+01 0.  1.
        -11    1    4    4    0    0 -0.16661828968E+03  0.75905850862E+02 -0.28577862996E+02  0.18531067671E+03  0.00000000000E+00 0. -1.
         11    1    4    4    0    0 -0.80000872227E+02  0.72111924989E+02 -0.82715439503E+02  0.13580174231E+03  0.00000000000E+00 0.  1.
</event>
<event>
 8    1  0.3710605E-009  0.1074573E+03  0.7561462E-02  0.1265352E+00
         -1   -1    0    0    0  501 -0.00000000000E+00  0.00000000000E+00  0.21008804788E+02  0.21008804788E+02  0.00000000000E+00 0.  1.
          1   -1    0    0  501    0  0.00000000000E+00 -0.00000000000E+00 -0.65348993121E+03  0.65348993121E+03  0.00000000000E+00 0. -1.
         25    2    1    2    0    0 -0.60903847113E+01 -0.44252700212E+02 -0.36379517527E+03  0.38728477202E+03  0.12508865187E+03 0.  0.
         23    2    1    2    0    0  0.60903847113E+01  0.44252700212E+02 -0.26868595115E+03  0.28721396398E+03  0.91128077429E+02 0.  0.
          5    1    3    3  502    0 -0.46343481249E+02 -0.70242020829E+02 -0.24695061364E+03  0.26092860656E+03  0.41800000000E+01 0. -1.
         -5    1    3    3    0  502  0.40253096538E+02  0.25989320617E+02 -0.11684456163E+03  0.12635616546E+03  0.41800000000E+01 0. -1.
        -11    1    4    4    0    0 -0.15220779027E+02  0.56135307788E+02 -0.24945693991E+03  0.25614763275E+03  0.00000000000E+00 0. -1.
         11    1    4    4    0    0  0.21311163738E+02 -0.11882607576E+02 -0.19229011245E+02  0.31066331231E+02  0.00000000000E+00 0.  1.
</event>
<event>
 8    1  0.3710605E-009  0.1124277E+03  0.7561462E-02  0.1256139E+00
          2   -1    0    0  501    0  0.00000000000E+00  0.00000000000E+00  0.13851394573E+03  0.13851394573E+03  0.00000000000E+00 0. -1.
         -2   -1    0    0    0  501 -0.00000000000E+00 -0.00000000000E+00 -0.14561075929E+03  0.14561075929E+03  0.00000000000E+00 0.  1.
         25    2    1    2    0    0 -0.32216540498E+01  0.89909722292E+02 -0.19782031007E+02  0.15534747494E+03  0.12508945600E+03 0.  0.
         23    2    1    2    0    0  0.32216540498E+01 -0.89909722292E+02  0.12685217448E+02  0.12877723007E+03  0.91260741976E+02 0.  0.
          5    1    3    3  502    0  0.36256119144E+02  0.86705805101E+02  0.23053361420E+02  0.96857279986E+02  0.41800000000E+01 0. -1.
         -5    1    3    3    0  502 -0.39477773194E+02  0.32039171918E+01 -0.42835392427E+02  0.58490194957E+02  0.41800000000E+01 0. -1.
        -11    1    4    4    0    0 -0.47685188319E+01 -0.51602235975E+02 -0.38348032196E+02  0.64467829983E+02  0.00000000000E+00 0.  1.
         11    1    4    4    0    0  0.79901728817E+01 -0.38307486317E+02  0.51033249644E+02  0.64309400089E+02  0.00000000000E+00 0. -1.
</event>
<event>
 8    1  0.3710605E-009  0.1010037E+03  0.7561462E-02  0.1278199E+00
         -2   -1    0    0    0  501 -0.00000000000E+00  0.00000000000E+00  0.18886400043E+03  0.18886400043E+03  0.00000000000E+00 0. -1.
          2   -1    0    0  501    0  0.00000000000E+00 -0.00000000000E+00 -0.73532173013E+02  0.73532173013E+02  0.00000000000E+00 0.  1.
         25    2    1    2    0    0  0.23566838847E+02  0.38901139160E+02  0.63092653981E+02  0.14729856597E+03  0.12508992777E+03 0.  0.
         23    2    1    2    0    0 -0.23566838847E+02 -0.38901139160E+02  0.52239173434E+02  0.11509760747E+03  0.91922975813E+02 0.  0.
          5    1    3    3  502    0  0.16908293907E+02 -0.41579039225E+02  0.46473064620E+02  0.64745077349E+02  0.41800000000E+01 0. -1.
         -5    1    3    3    0  502  0.66585449402E+01  0.80480178385E+02  0.16619589362E+02  0.82553488625E+02  0.41800000000E+01 0. -1.
        -11    1    4    4    0    0  0.13020716526E+02 -0.37227119013E+02 -0.11937102791E+02  0.41205483518E+02  0.00000000000E+00 0.  1.
         11    1    4    4    0    0 -0.36587555373E+02 -0.16740201469E+01  0.64176276225E+02  0.73892123949E+02  0.00000000000E+00 0. -1.
</event>
<event>
 8    1  0.3710605E-009  0.8560833E+02  0.7561462E-02  0.1313849E+00
         -1   -1    0    0    0  501 -0.00000000000E+00  0.00000000000E+00  0.12899124649E+03  0.12899124649E+03  0.00000000000E+00 0. -1.
          1   -1    0    0  501    0  0.00000000000E+00 -0.00000000000E+00 -0.91340719620E+02  0.91340719620E+02  0.00000000000E+00 0.  1.
         25    2    1    2    0    0  0.12760995700E+02  0.59084061584E+01  0.28071518706E+02  0.12896451907E+03  0.12508431054E+03 0.  0.
         23    2    1    2    0    0 -0.12760995700E+02 -0.59084061584E+01  0.95790081630E+01  0.91367447035E+02  0.89769152305E+02 0.  0.
          5    1    3    3  502    0 -0.51554578270E+02  0.19868716985E+02 -0.41577459353E+01  0.55564374437E+02  0.41800000000E+01 0. -1.
         -5    1    3    3    0  502  0.64315573970E+02 -0.13960310826E+02  0.32229264641E+02  0.73400144638E+02  0.41800000000E+01 0. -1.
        -11    1    4    4    0    0 -0.16901668738E+02  0.18527143469E+02 -0.33392551693E+02  0.41761033989E+02  0.00000000000E+00 0.  1.
         11    1    4    4    0    0  0.41406730383E+01 -0.24435549628E+02  0.42971559856E+02  0.49606413046E+02  0.00000000000E+00 0. -1.
</event>
<event>
 8    1  0.3710605E-009  0.6973385E+02  0.7561462E-02  0.1361000E+00
         -1   -1    0    0    0  501 -0.00000000000E+00  0.00000000000E+00  0.91470087122E+02  0.91470087122E+02  0.00000000000E+00 0.  1.
          1   -1    0    0  501    0  0.00000000000E+00 -0.00000000000E+00 -0.15350817095E+03  0.15350817095E+03  0.00000000000E+00 0. -1.
         25    2    1    2    0    0  0.27120234445E+01 -0.49624127147E+02 -0.42832892177E+02  0.14125032961E+03  0.12508832838E+03 0.  0.
         23    2    1    2    0    0 -0.27120234445E+01  0.49624127147E+02 -0.19205191651E+02  0.10372792846E+03  0.88998509484E+02 0.  0.
          5    1    3    3  502    0  0.20257438681E+02 -0.40047210490E+02  0.37331519523E+02  0.58525700678E+02  0.41800000000E+01 0. -1.
         -5    1    3    3    0  502 -0.17545415237E+02 -0.95769166567E+01 -0.80164411700E+02  0.82724628931E+02  0.41800000000E+01 0. -1.
        -11    1    4    4    0    0 -0.75628061672E+01 -0.10893388611E+02 -0.37940417364E+02  0.40191258034E+02  0.00000000000E+00 0. -1.
         11    1    4    4    0    0  0.48507827227E+01  0.60517515758E+02  0.18735225714E+02  0.63536670428E+02  0.00000000000E+00 0.  1.
</event>
<event>
 8    1  0.3710605E-009  0.1471956E+03  0.7561462E-02  0.1203962E+00
         -1   -1    0    0    0  501 -0.00000000000E+00  0.00000000000E+00  0.11729939396E+03  0.11729939396E+03  0.00000000000E+00 0.  1.
          1   -1    0    0  501    0  0.00000000000E+00 -0.00000000000E+00 -0.21296267422E+03  0.21296267422E+03  0.00000000000E+00 0. -1.
         25    2    1    2    0    0 -0.10689468144E+03 -0.33697854825E+02 -0.72916039339E+02  0.18310190644E+03  0.12509013155E+03 0.  0.
         23    2    1    2    0    0  0.10689468144E+03  0.33697854825E+02 -0.22747240922E+02  0.14716016174E+03  0.92610247241E+02 0.  0.
          5    1    3    3  502    0 -0.12283346908E+03  0.46572864599E+01 -0.69369219861E+02  0.14120663054E+03  0.41800000000E+01 0.  1.
         -5    1    3    3    0  502  0.15938787648E+02 -0.38355141285E+02 -0.35468194783E+01  0.41895275904E+02  0.41800000000E+01 0.  1.
        -11    1    4    4    0    0  0.91893217809E+02 -0.94935281902E+00  0.15750919539E+02  0.93238169311E+02  0.00000000000E+00 0.  1.
         11    1    4    4    0    0  0.15001463627E+02  0.34647207644E+02 -0.38498160460E+02  0.53921992427E+02  0.00000000000E+00 0. -1.
</event>
<event>
 8    1  0.3710605E-009  0.2290779E+03  0.7561462E-02  0.1127290E+00
          2   -1    0    0  501    0  0.00000000000E+00  0.00000000000E+00  0.48483694139E+03  0.48483694139E+03  0.00000000000E+00 0. -1.
         -2   -1    0    0    0  501 -0.00000000000E+00 -0.00000000000E+00 -0.21092192699E+03  0.21092192699E+03  0.00000000000E+00 0.  1.
         25    2    1    2    0    0 -0.20608230295E+03 -0.41229315877E+02  0.37336882809E+03  0.44634300114E+03  0.12509204932E+03 0.  0.
         23    2    1    2    0    0  0.20608230295E+03  0.41229315877E+02 -0.99453813696E+02  0.24941586723E+03  0.90263180152E+02 0.  0.
          5    1    3    3  502    0 -0.19238543753E+03  0.78114161952E+01  0.27870486714E+03  0.33877285925E+03  0.41800000000E+01 0.  1.
         -5    1    3    3    0  502 -0.13696865425E+02 -0.49040732072E+02  0.94663960944E+02  0.10757014189E+03  0.41800000000E+01 0.  1.
        -11    1    4    4    0    0  0.25501972286E+02 -0.89970410499E+01  0.13863483909E+02  0.30389036250E+02  0.00000000000E+00 0. -1.
         11    1    4    4    0    0  0.18058033067E+03  0.50226356927E+02 -0.11331729760E+03  0.21902683098E+03  0.00000000000E+00 0.  1.
</event>
<event>
 8    1  0.3710605E-009  0.1154525E+03  0.7561462E-02  0.1250793E+00
          2   -1    0    0  501    0  0.00000000000E+00  0.00000000000E+00  0.71844314399E+03  0.71844314399E+03  0.00000000000E+00 0. -1.
         -2   -1    0    0    0  501 -0.00000000000E+00 -0.00000000000E+00 -0.19082147714E+02  0.19082147714E+02  0.00000000000E+00 0.  1.
         25    2    1    2    0    0 -0.13867812938E+02 -0.40092089402E+02  0.40422416974E+03  0.42525809135E+03  0.12509025936E+03 0.  0.
         23    2    1    2    0    0  0.13867812938E+02  0.40092089402E+02  0.29513682653E+03  0.31226720035E+03  0.92765112910E+02 0.  0.
          5    1    3    3  502    0  0.52485407027E+02 -0.34964147469E+02  0.23553096798E+03  0.24386373006E+03  0.41800000000E+01 0.  1.
         -5    1    3    3    0  502 -0.66353219965E+02 -0.51279419334E+01  0.16869320176E+03  0.18139436129E+03  0.41800000000E+01 0.  1.
        -11    1    4    4    0    0 -0.33982324398E+02 -0.60834331328E+01  0.81195180238E+02  0.88229608545E+02  0.00000000000E+00 0.  1.
         11    1    4    4    0    0  0.47850137336E+02  0.46175522535E+02  0.21394164629E+03  0.22403759181E+03  0.00000000000E+00 0. -1.
</event>
<event>
 8    1  0.3710605E-009  0.1269554E+03  0.7561462E-02  0.1232045E+00
          2   -1    0    0  501    0  0.00000000000E+00  0.00000000000E+00  0.61158930617E+03  0.61158930617E+03  0.00000000000E+00 0. -1.
         -2   -1    0    0    0  501 -0.00000000000E+00 -0.00000000000E+00 -0.26684964927E+02  0.26684964927E+02  0.00000000000E+00 0.  1.
         25    2    1    2    0    0  0.56392985386E+02  0.35299352246E+02  0.30601017006E+03  0.33721718357E+03  0.12508793566E+03 0.  0.
         23    2    1    2    0    0 -0.56392985386E+02 -0.35299352246E+02  0.27889417119E+03  0.30105708753E+03  0.91799772107E+02 0.  0.
          5    1    3    3  502    0  0.82336750519E+01 -0.45927812252E+02  0.91135863284E+02  0.10247133902E+03  0.41800000000E+01 0. -1.
         -5    1    3    3    0  502  0.48159310334E+02  0.81227164498E+02  0.21487430677E+03  0.23474584455E+03  0.41800000000E+01 0. -1.
        -11    1    4    4    0    0  0.24903536197E+02 -0.13702228603E+02  0.55591228107E+02  0.62436542395E+02  0.00000000000E+00 0.  1.
         11    1    4    4    0    0 -0.81296521583E+02 -0.21597123643E+02  0.22330294308E+03  0.23862054513E+03  0.00000000000E+00 0. -1.
</event>
<event>
 8    1  0.3710605E-009  0.1215949E+03  0.7561462E-02  0.1240489E+00
          1   -1    0    0  501    0  0.00000000000E+00  0.00000000000E+00  0.67481801720E+03  0.67481801720E+03  0.00000000000E+00 0. -1.
         -1   -1    0    0    0  501 -0.00000000000E+00 -0.00000000000E+00 -0.29047651536E+02  0.29047651536E+02  0.00000000000E+00 0.  1.
         25    2    1    2    0    0  0.75356094774E+02  0.39112819242E+02  0.29546881941E+03  0.33190039264E+03  0.12509074205E+03 0.  0.
         23    2    1    2    0    0 -0.75356094774E+02 -0.39112819242E+02  0.35030154625E+03  0.37196527609E+03  0.91862068677E+02 0.  0.
          5    1    3    3  502    0  0.38548923617E+02  0.67038070662E+02  0.79424955036E+02  0.11093204367E+03  0.41800000000E+01 0.  1.
         -5    1    3    3    0  502  0.36807171157E+02 -0.27925251420E+02  0.21604386437E+03  0.22096834897E+03  0.41800000000E+01 0.  1.
        -11    1    4    4    0    0  0.18519420016E+02 -0.29375023408E+01  0.23703824276E+02  0.30223651716E+02  0.00000000000E+00 0.  1.
         11    1    4    4    0    0 -0.93875514790E+02 -0.36175316901E+02  0.32659772198E+03  0.34174162438E+03  0.00000000000E+00 0. -1.
</event>
<event>
 8    1  0.3710605E-009  0.1181329E+03  0.7561462E-02  0.1246209E+00
         -2   -1    0    0    0  501 -0.00000000000E+00  0.00000000000E+00  0.75489090918E+03  0.75489090918E+03  0.00000000000E+00 0.  1.
          2   -1    0    0  501    0  0.00000000000E+00 -0.00000000000E+00 -0.22186788001E+02  0.22186788001E+02  0.00000000000E+00 0. -1.
         25    2    1    2    0    0  0.30262798201E+02 -0.55814758023E+02  0.50961397435E+03  0.52856831443E+03  0.12508771323E+03 0.  0.
         23    2    1    2    0    0 -0.30262798201E+02  0.55814758023E+02  0.22309014683E+03  0.24850938275E+03  0.89199638642E+02 0.  0.
          5    1    3    3  502    0  0.17292038623E+02  0.39551068580E+02  0.13683678937E+03  0.14354470018E+03  0.41800000000E+01 0. -1.
         -5    1    3    3    0  502  0.12970759578E+02 -0.95365826604E+02  0.37277718498E+03  0.38502361425E+03  0.41800000000E+01 0. -1.
        -11    1    4    4    0    0 -0.32023282708E+02  0.72776537497E+02  0.21576679450E+03  0.22995048305E+03  0.00000000000E+00 0.  1.
         11    1    4    4    0    0  0.17604845065E+01 -0.16961779474E+02  0.73233523232E+01  0.18558899695E+02  0.00000000000E+00 0. -1.
</event>
<event>
 8    1  0.3710605E-009  0.1259074E+03  0.7561462E-02  0.1233658E+00
         -1   -1    0    0    0  501 -0.00000000000E+00  0.00000000000E+00  0.19357745891E+03  0.19357745891E+03  0.00000000000E+00 0.  1.
          1   -1    0    0  501    0  0.00000000000E+00 -0.00000000000E+00 -0.10929038756E+03  0.10929038756E+03  0.00000000000E+00 0. -1.
         25    2    1    2    0    0  0.84495071583E+02 -0.45080052376E+02  0.45975820146E+02  0.16411542578E+03  0.12509383957E+03 0.  0.
         23    2    1    2    0    0 -0.84495071583E+02  0.45080052376E+02  0.38311251199E+02  0.13875242068E+03  0.92805463380E+02 0.  0.
          5    1    3    3  502    0  0.74578938557E+02  0.19163313375E+02  0.59728740690E+02  0.97540994050E+02  0.41800000000E+01 0. -1.
         -5    1    3    3    0  502  0.99161330259E+01 -0.64243365751E+02 -0.13752920544E+02  0.66574431734E+02  0.41800000000E+01 0. -1.
        -11    1    4    4    0    0 -0.53609534267E+01 -0.11225673787E+02  0.39718353004E+02  0.41620945916E+02  0.00000000000E+00 0.  1.
         11    1    4    4    0    0 -0.79134118156E+02  0.56305726164E+02 -0.14071018043E+01  0.97131474768E+02  0.00000000000E+00 0. -1.
</event>
<event>
 8    1  0.3710605E-009  0.1265438E+03  0.7561462E-02  0.1232676E+00
         -1   -1    0    0    0  501 -0.00000000000E+00  0.00000000000E+00  0.82556082969E+02  0.82556082969E+02  0.00000000000E+00 0.  1.
          1   -1    0    0  501    0  0.00000000000E+00 -0.00000000000E+00 -0.37727785532E+03  0.37727785532E+03  0.00000000000E+00 0. -1.
         25    2    1    2    0    0  0.95707516485E+02 -0.21365804945E+02 -0.28447062201E+03  0.32586218143E+03  0.12508477192E+03 0.  0.
         23    2    1    2    0    0 -0.95707516485E+02  0.21365804945E+02 -0.10251150340E+02  0.13397175686E+03  0.90702366121E+02 0.  0.
          5    1    3    3  502    0  0.66448870643E+00  0.33086503859E+02 -0.18396219234E+02  0.38092670751E+02  0.41800000000E+01 0. -1.
         -5    1    3    3    0  502  0.95043027778E+02 -0.54452308804E+02 -0.26607440278E+03  0.28776951068E+03  0.41800000000E+01 0. -1.
        -11    1    4    4    0    0 -0.80207217065E+02 -0.40903139283E+01  0.28381427307E+02  0.85178833951E+02  0.00000000000E+00 0.  1.
         11    1    4    4    0    0 -0.15500299420E+02  0.25456118873E+02 -0.38632577647E+02  0.48792922908E+02  0.00000000000E+00 0. -1.
</event>
<event>
 8    1  0.3710605E-009  0.9139314E+02  0.7561462E-02  0.1299513E+00
         -3   -1    0    0    0  501 -0.00000000000E+00  0.00000000000E+00  0.21700683165E+03  0.21700683165E+03  0.00000000000E+00 0.  1.
          3   -1    0    0  501    0  0.00000000000E+00 -0.00000000000E+00 -0.10652144710E+03  0.10652144710E+03  0.00000000000E+00 0. -1.
         25    2    1    2    0    0  0.24649046973E+02  0.71296528078E+02  0.13968438378E+03  0.20211395597E+03  0.12509018224E+03 0.  0.
         23    2    1    2    0    0 -0.24649046973E+02 -0.71296528078E+02 -0.29198999240E+02  0.12141432278E+03  0.90543281289E+02 0.  0.
          5    1    3    3  502    0 -0.93526549273E-01  0.66365953432E+02  0.15748968158E+03  0.17095297812E+03  0.41800000000E+01 0.  1.
         -5    1    3    3    0  502  0.24742573522E+02  0.49305746463E+01 -0.17805297803E+02  0.31160977852E+02  0.41800000000E+01 0.  1.
        -11    1    4    4    0    0 -0.13488856983E+02 -0.77006992417E+02  0.11325071471E+02  0.78995464349E+02  0.00000000000E+00 0.  1.
         11    1    4    4    0    0 -0.11160189990E+02  0.57104643389E+01 -0.40524070711E+02  0.42418858430E+02  0.00000000000E+00 0. -1.
</event>
<event>
 8    1  0.3710605E-009  0.1420343E+03  0.7561462E-02  0.1210618E+00
          2   -1    0    0  501    0  0.00000000000E+00  0.00000000000E+00  0.79377896759E+02  0.79377896759E+02  0.00000000000E+00 0. -1.
         -2   -1    0    0    0  501 -0.00000000000E+00 -0.00000000000E+00 -0.35500851421E+03  0.35500851421E+03  0.00000000000E+00 0.  1.
         25    2    1    2    0    0 -0.97815312870E+02 -0.34103600450E+01 -0.25344178107E+03  0.29909810775E+03  0.12508987042E+03 0.  0.
         23    2    1    2    0    0  0.97815312870E+02  0.34103600450E+01 -0.22188836380E+02  0.13528830322E+03  0.90725490024E+02 0.  0.
          5    1    3    3  502    0 -0.84081604464E+02 -0.53716566781E+02 -0.12220508332E+03  0.15781869517E+03  0.41800000000E+01 0.  1.
         -5    1    3    3    0  502 -0.13733708406E+02  0.50306206736E+02 -0.13123669775E+03  0.14127941258E+03  0.41800000000E+01 0.  1.
        -11    1    4    4    0    0  0.40582523153E+02 -0.42318728017E+02 -0.20160734025E+02  0.62002186436E+02  0.00000000000E+00 0.  1.
         11    1    4    4    0    0  0.57232789717E+02  0.45729088062E+02 -0.20281023559E+01  0.73286116782E+02  0.00000000000E+00 0. -1.
</event>
<event>
 8    1  0.3710605E-009  0.1201893E+03  0.7561462E-02  0.1242785E+00
         -1   -1    0    0    0  501 -0.00000000000E+00  0.00000000000E+00  0.23845589648E+03  0.23845589648E+03  0.00000000000E+00 0.  1.
          1   -1    0    0  501    0  0.00000000000E+00 -0.00000000000E+00 -0.11137795157E+03  0.11137795157E+03  0.00000000000E+00 0. -1.
         25    2    1    2    0    0 -0.31212097974E+02 -0.89161153814E+02  0.15065504254E+03  0.21741199981E+03  0.12508848632E+03 0.  0.
         23    2    1    2    0    0  0.31212097974E+02  0.89161153814E+02 -0.23577097628E+02  0.13242184824E+03  0.89753885432E+02 0.  0.
          5    1    3    3  502    0  0.19242574718E+02 -0.91004615478E+02  0.52343434262E+02  0.10681490641E+03  0.41800000000E+01 0. -1.
         -5    1    3    3    0  502 -0.50454672692E+02  0.18434616637E+01  0.98311608274E+02  0.11059709340E+03  0.41800000000E+01 0. -1.
        -11    1    4    4    0    0  0.29552545123E+01  0.38378902485E+02  0.33453703018E+02  0.50998273802E+02  0.00000000000E+00 0. -1.
         11    1    4    4    0    0  0.28256843462E+02  0.50782251330E+02 -0.57030800646E+02  0.81423574441E+02  0.00000000000E+00 0.  1.
</event>
<event>
 8    1  0.3710605E-009  0.1260409E+03  0.7561462E-02  0.1233451E+00
          2   -1    0    0  501    0  0.00000000000E+00  0.00000000000E+00  0.11512260868E+04  0.11512260868E+04  0.00000000000E+00 0. -1.
         -2   -1    0    0    0  501 -0.00000000000E+00 -0.00000000000E+00 -0.24434075120E+02  0.24434075120E+02  0.00000000000E+00 0.  1.
         25    2    1    2    0    0  0.97052556910E+02 -0.40790644875E+02  0.84643185256E+03  0.86207753777E+03  0.12509086530E+03 0.  0.
         23    2    1    2    0    0 -0.97052556910E+02  0.40790644875E+02  0.28036015908E+03  0.31358262412E+03  0.93000902328E+02 0.  0.
          5    1    3    3  502    0 -0.20589454970E+02  0.22292758958E+01  0.32921858250E+03  0.32989580596E+03  0.41800000000E+01 0.  1.
         -5    1    3    3    0  502  0.11764201188E+03 -0.43019920771E+02  0.51721327006E+03  0.53218173180E+03  0.41800000000E+01 0.  1.
        -11    1    4    4    0    0 -0.45486268968E+02  0.14497234035E+02  0.29474416229E+02  0.56106253407E+02  0.00000000000E+00 0.  1.
         11    1    4    4    0    0 -0.51566287942E+02  0.26293410840E+02  0.25088574285E+03  0.25747637071E+03  0.00000000000E+00 0. -1.
</event>
<event>
 8    1  0.3710605E-009  0.1094330E+03  0.7561462E-02  0.1261624E+00
         -3   -1    0    0    0  501 -0.00000000000E+00  0.00000000000E+00  0.25069435255E+02  0.25069435255E+02  0.00000000000E+00 0.  1.
          3   -1    0    0  501    0  0.00000000000E+00 -0.00000000000E+00 -0.52194894150E+03  0.52194894150E+03  0.00000000000E+00 0. -1.
         25    2    1    2    0    0 -0.23881805392E+01  0.22281196347E+02 -0.21656043209E+03  0.25109203485E+03  0.12508650648E+03 0.  0.
         23    2    1    2    0    0  0.23881805392E+01 -0.22281196347E+02 -0.28031907416E+03  0.29592634191E+03  0.92149125766E+02 0.  0.
          5    1    3    3  502    0  0.44322695662E+02 -0.30178273975E+02 -0.67910504425E+02  0.86628739932E+02  0.41800000000E+01 0. -1.
         -5    1    3    3    0  502 -0.46710876201E+02  0.52459470322E+02 -0.14864992766E+03  0.16446329492E+03  0.41800000000E+01 0. -1.
        -11    1    4    4    0    0  0.46800620074E+02 -0.50270563985E+01 -0.13191292839E+03  0.14005923751E+03  0.00000000000E+00 0. -1.
         11    1    4    4    0    0 -0.44412439535E+02 -0.17254139948E+02 -0.14840614577E+03  0.15586710440E+03  0.00000000000E+00 0.  1.
</event>
<event>
 8    1  0.3710605E-009  0.1506897E+03  0.7561462E-02  0.1199628E+00
         -1   -1    0    0    0  501 -0.00000000000E+00  0.00000000000E+00  0.50801288462E+03  0.50801288462E+03  0.00000000000E+00 0.  1.
          1   -1    0    0  501    0  0.00000000000E+00 -0.00000000000E+00 -0.53601743234E+02  0.53601743234E+02  0.00000000000E+00 0. -1.
         25    2    1    2    0    0 -0.11231280389E+03 -0.28989470702E+02  0.16805873062E+03  0.23946290974E+03  0.12507674793E+03 0.  0.
         23    2    1    2    0    0  0.11231280389E+03  0.28989470702E+02  0.28635241076E+03  0.32215171811E+03  0.91265935622E+02 0.  0.
          5    1    3    3  502    0 -0.54782232316E+02  0.39673897111E+02  0.28371902583E+02  0.73468008995E+02  0.41800000000E+01 0.  1.
         -5    1    3    3    0  502 -0.57530571575E+02 -0.68663367813E+02  0.13968682804E+03  0.16599490075E+03  0.41800000000E+01 0.  1.
        -11    1    4    4    0    0  0.73673021426E+01 -0.24895869240E+02  0.28261637963E+02  0.38377097681E+02  0.00000000000E+00 0. -1.
         11    1    4    4    0    0  0.10494550175E+03  0.53885339941E+02  0.25809077280E+03  0.28377462043E+03  0.00000000000E+00 0.  1.
</event>
<event>
 8    1  0.3710605E-009  0.1445075E+03  0.7561462E-02  0.1207389E+00
          2   -1    0    0  501    0  0.00000000000E+00  0.00000000000E+00  0.80123655294E+02  0.80123655294E+02  0.00000000000E+00 0.  1.
         -2   -1    0    0    0  501 -0.00000000000E+00 -0.00000000000E+00 -0.29682274282E+03  0.29682274282E+03  0.00000000000E+00 0. -1.
         25    2    1    2    0    0 -0.57889458875E+02  0.93492866852E+02 -0.10853336722E+03  0.19879395715E+03  0.12508972779E+03 0.  0.
         23    2    1    2    0    0  0.57889458875E+02 -0.93492866852E+02 -0.10816572030E+03  0.17815244096E+03  0.89142378087E+02 0.  0.
          5    1    3    3  502    0 -0.52997231710E+02 -0.64055033315E+00 -0.87088864380E+02  0.10203459988E+03  0.41800000000E+01 0.  1.
         -5    1    3    3    0  502 -0.48922271648E+01  0.94133417185E+02 -0.21444502843E+02  0.96759357272E+02  0.41800000000E+01 0.  1.
        -11    1    4    4    0    0 -0.23891257798E+02 -0.15440109851E+02 -0.19677374657E+02  0.34588845959E+02  0.00000000000E+00 0.  1.
         11    1    4    4    0    0  0.81780716673E+02 -0.78052757001E+02 -0.88488345645E+02  0.14356359500E+03  0.00000000000E+00 0. -1.
</event>
<event>
 8    1  0.3710605E-009  0.9452788E+02  0.7561462E-02  0.1292243E+00
         -1   -1    0    0    0  501 -0.00000000000E+00  0.00000000000E+00  0.12170677326E+03  0.12170677326E+03  0.00000000000E+00 0.  1.
          1   -1    0    0  501    0  0.00000000000E+00 -0.00000000000E+00 -0.20365815187E+03  0.20365815187E+03  0.00000000000E+00 0. -1.
         25    2    1    2    0    0 -0.54676203504E+02 -0.71593138029E+02  0.22768414701E+02  0.15583382362E+03  0.12510281865E+03 0.  0.
         23    2    1    2    0    0  0.54676203504E+02  0.71593138029E+02 -0.10471979332E+03  0.16953110150E+03  0.98282727994E+02 0.  0.
          5    1    3    3  502    0 -0.29546296908E+02 -0.41489514909E+02 -0.50991077456E+02  0.72193669310E+02  0.41800000000E+01 0. -1.
         -5    1    3    3    0  502 -0.25129906597E+02 -0.30103623120E+02  0.73759492157E+02  0.83640154315E+02  0.41800000000E+01 0. -1.
        -11    1    4    4    0    0  0.38849779426E+02  0.18345341932E+02  0.81522729158E+01  0.43730040999E+02  0.00000000000E+00 0.  1.
         11    1    4    4    0    0  0.15826424078E+02  0.53247796097E+02 -0.11287206623E+03  0.12580106051E+03  0.00000000000E+00 0. -1.
</event>
<event>
 8    1  0.3710605E-009  0.8966027E+02  0.7561462E-02  0.1303676E+00
         -3   -1    0    0    0  501 -0.00000000000E+00  0.00000000000E+00  0.12982263194E+03  0.12982263194E+03  0.00000000000E+00 0.  1.
          3   -1    0    0  501    0  0.00000000000E+00 -0.00000000000E+00 -0.14925889907E+03  0.14925889907E+03  0.00000000000E+00 0. -1.
         25    2    1    2    0    0 -0.77125589146E+02  0.37926108855E+02  0.43409268303E+01  0.15183233299E+03  0.12508983756E+03 0.  0.
         23    2    1    2    0    0  0.77125589146E+02 -0.37926108855E+02 -0.23777193962E+02  0.12724919802E+03  0.90775862488E+02 0.  0.
          5    1    3    3  502    0 -0.29994489913E+02  0.19341760255E+02  0.64033464919E+02  0.73427039600E+02  0.41800000000E+01 0.  1.
         -5    1    3    3    0  502 -0.47131099233E+02  0.18584348600E+02 -0.59692538089E+02  0.78405293388E+02  0.41800000000E+01 0.  1.
        -11    1    4    4    0    0  0.23420342095E+00 -0.11118782734E+02  0.28424792659E+02  0.30522958874E+02  0.00000000000E+00 0.  1.
         11    1    4    4    0    0  0.76891385725E+02 -0.26807326121E+02 -0.52201986620E+02  0.96726239148E+02  0.00000000000E+00 0. -1.
</event>
<event>
 8    1  0.3710605E-009  0.8558445E+02  0.7561462E-02  0.1313911E+00
         -2   -1    0    0    0  501 -0.00000000000E+00  0.00000000000E+00  0.14125806561E+03  0.14125806561E+03  0.00000000000E+00 0.  1.
          2   -1    0    0  501    0  0.00000000000E+00 -0.00000000000E+00 -0.10463496011E+03  0.10463496011E+03  0.00000000000E+00 0. -1.
         25    2    1    2    0    0 -0.61781207909E+01 -0.33055965425E+02  0.60754012897E+02  0.14307194208E+03  0.12509062515E+03 0.  0.
         23    2    1    2    0    0  0.61781207909E+01  0.33055965425E+02 -0.24130907389E+02  0.10282108364E+03  0.94122306191E+02 0.  0.
          5    1    3    3  502    0  0.19541050663E+02 -0.55360179953E+02  0.83322938709E+02  0.10201365938E+03  0.41800000000E+01 0. -1.
         -5    1    3    3    0  502 -0.25719171454E+02  0.22304214528E+02 -0.22568925812E+02  0.41058282700E+02  0.41800000000E+01 0. -1.
        -11    1    4    4    0    0  0.13014659489E+02 -0.20358642390E+02 -0.39955591077E+02  0.46693735553E+02  0.00000000000E+00 0. -1.
         11    1    4    4    0    0 -0.68365386981E+01  0.53414607815E+02  0.15824683688E+02  0.56127348086E+02  0.00000000000E+00 0.  1.
</event>
<event>
 8    1  0.3710605E-009  0.1248478E+03  0.7561462E-02  0.1235307E+00
         -2   -1    0    0    0  501 -0.00000000000E+00  0.00000000000E+00  0.36516804998E+02  0.36516804998E+02  0.00000000000E+00 0.  1.
          2   -1    0    0  501    0  0.00000000000E+00 -0.00000000000E+00 -0.54287580916E+03  0.54287580916E+03  0.00000000000E+00 0. -1.
         25    2    1    2    0    0 -0.16176667314E+02 -0.73926541595E+02 -0.17646246658E+03  0.22916236706E+03  0.12509824238E+03 0.  0.
         23    2    1    2    0    0  0.16176667314E+02  0.73926541595E+02 -0.32989653759E+03  0.35023024710E+03  0.90014900747E+02 0.  0.
          5    1    3    3  502    0  0.45286332771E+02  0.48942809698E+01 -0.47446334319E+02  0.65904726404E+02  0.41800000000E+01 0. -1.
         -5    1    3    3    0  502 -0.61463000085E+02 -0.78820822564E+02 -0.12901613226E+03  0.16325764065E+03  0.41800000000E+01 0. -1.
        -11    1    4    4    0    0 -0.15412482806E+02  0.70471453313E+02 -0.13796600665E+03  0.15568683101E+03  0.00000000000E+00 0.  1.
         11    1    4    4    0    0  0.31589150120E+02  0.34550882821E+01 -0.19193053094E+03  0.19454341610E+03  0.00000000000E+00 0. -1.
</event>
<event>
 8    1  0.3710605E-009  0.1100707E+03  0.7561462E-02  0.1260439E+00
          1   -1    0    0  501    0  0.00000000000E+00  0.00000000000E+00  0.77449666543E+03  0.77449666543E+03  0.00000000000E+00 0. -1.
         -1   -1    0    0    0  501 -0.00000000000E+00 -0.00000000000E+00 -0.21028506626E+02  0.21028506626E+02  0.00000000000E+00 0.  1.
         25    2    1    2    0    0  0.60846743178E+02  0.27925581204E+02  0.40555633212E+03  0.42965736358E+03  0.12508935732E+03 0.  0.
         23    2    1    2    0    0 -0.60846743178E+02 -0.27925581204E+02  0.34791182669E+03  0.36586780848E+03  0.91293208357E+02 0.  0.
          5    1    3    3  502    0 -0.17885524695E+02 -0.15301614462E+02  0.13566839626E+02  0.27487505092E+02  0.41800000000E+01 0.  1.
         -5    1    3    3    0  502  0.78732267872E+02  0.43227195666E+02  0.39198949249E+03  0.40216985848E+03  0.41800000000E+01 0.  1.
        -11    1    4    4    0    0 -0.81716250457E+02 -0.22411673907E+02  0.31724438483E+03  0.32836538858E+03  0.00000000000E+00 0.  1.
         11    1    4    4    0    0  0.20869507280E+02 -0.55139072966E+01  0.30667441863E+02  0.37502419898E+02  0.00000000000E+00 0. -1.
</event>
<event>
 8    1  0.3710605E-009  0.9642825E+02  0.7561462E-02  0.1287991E+00
          2   -1    0    0  501    0  0.00000000000E+00  0.00000000000E+00  0.31001754535E+03  0.31001754535E+03  0.00000000000E+00 0. -1.
         -2   -1    0    0    0  501 -0.00000000000E+00 -0.00000000000E+00 -0.53287924369E+02  0.53287924369E+02  0.00000000000E+00 0.  1.
         25    2    1    2    0    0  0.44132030448E+02 -0.42811958273E+02  0.13115660027E+03  0.19139171651E+03  0.12509290737E+03 0.  0.
         23    2    1    2    0    0 -0.44132030448E+02  0.42811958273E+02  0.12557302071E+03  0.17191375320E+03  0.10002627219E+03 0.  0.
          5    1    3    3  502    0  0.46885298357E+01 -0.34341119942E+02  0.14452878622E+03  0.14868536336E+03  0.41800000000E+01 0.  1.
         -5    1    3    3    0  502  0.39443500612E+02 -0.84708383303E+01 -0.13372185953E+02  0.42706353154E+02  0.41800000000E+01 0.  1.
        -11    1    4    4    0    0 -0.16764668683E+02 -0.32875634687E+02  0.37810596332E+02  0.52834672963E+02  0.00000000000E+00 0.  1.
         11    1    4    4    0    0 -0.27367361764E+02  0.75687592960E+02  0.87762424380E+02  0.11907908024E+03  0.00000000000E+00 0. -1.
</event>
<event>
 8    1  0.3710605E-009  0.1025579E+03  0.7561462E-02  0.1275007E+00
         -1   -1    0    0    0  501 -0.00000000000E+00  0.00000000000E+00  0.58042425717E+02  0.58042425717E+02  0.00000000000E+00 0.  1.
          1   -1    0    0  501    0  0.00000000000E+00 -0.00000000000E+00 -0.27575794884E+03  0.27575794884E+03  0.00000000000E+00 0. -1.
         25    2    1    2    0    0 -0.29962565792E+01  0.32921830668E+00 -0.36582475406E+02  0.13036335858E+03  0.12508893562E+03 0.  0.
         23    2    1    2    0    0  0.29962565792E+01 -0.32921830668E+00 -0.18113304772E+03  0.20343701599E+03  0.92565396117E+02 0.  0.
          5    1    3    3  502    0 -0.19499499680E+02 -0.56570109627E+02 -0.37907921312E+02  0.70956963642E+02  0.41800000000E+01 0. -1.
         -5    1    3    3    0  502  0.16503243101E+02  0.56899327934E+02  0.13254459065E+01  0.59406394934E+02  0.41800000000E+01 0. -1.
        -11    1    4    4    0    0 -0.34405811028E+01 -0.42723469451E+02 -0.52097427471E+02  0.67463133557E+02  0.00000000000E+00 0.  1.
         11    1    4    4    0    0  0.64368376820E+01  0.42394251144E+02 -0.12903562025E+03  0.13597388243E+03  0.00000000000E+00 0. -1.
</event>
<event>
 8    1  0.3710605E-009  0.8744563E+02  0.7561462E-02  0.1309158E+00
          2   -1    0    0  501    0  0.00000000000E+00  0.00000000000E+00  0.11533927191E+03  0.11533927191E+03  0.00000000000E+00 0. -1.
         -2   -1    0    0    0  501 -0.00000000000E+00 -0.00000000000E+00 -0.11001139050E+03  0.11001139050E+03  0.00000000000E+00 0.  1.
         25    2    1    2    0    0  0.16861793885E+02  0.20269372449E+02  0.24521568609E+02  0.13016760356E+03  0.12508848923E+03 0.  0.
         23    2    1    2    0    0 -0.16861793885E+02 -0.20269372449E+02 -0.19193687201E+02  0.95183058847E+02  0.89421750769E+02 0.  0.
          5    1    3    3  502    0 -0.11895140878E+02 -0.49751384318E+02  0.16608644323E+02  0.53944546381E+02  0.41800000000E+01 0.  1.
         -5    1    3    3    0  502  0.28756934763E+02  0.70020756766E+02  0.79129242860E+01  0.76223057180E+02  0.41800000000E+01 0.  1.
        -11    1    4    4    0    0 -0.29785418551E+02 -0.10599978587E+02 -0.50719174663E+02  0.59765921584E+02  0.00000000000E+00 0.  1.
         11    1    4    4    0    0  0.12923624666E+02 -0.96693938615E+01  0.31525487462E+02  0.35417137263E+02  0.00000000000E+00 0. -1.
</event>
<event>
 8    1  0.3710605E-009  0.1028577E+03  0.7561462E-02  0.1274399E+00
         -1   -1    0    0    0  501 -0.00000000000E+00  0.00000000000E+00  0.64791841387E+02  0.64791841387E+02  0.00000000000E+00 0.  1.
          1   -1    0    0  501    0  0.00000000000E+00 -0.00000000000E+00 -0.23721267983E+03  0.23721267983E+03  0.00000000000E+00 0. -1.
         25    2    1    2    0    0 -0.17905868675E+02 -0.65628124043E+01 -0.28759958082E+02  0.12975052149E+03  0.12507746399E+03 0.  0.
         23    2    1    2    0    0  0.17905868675E+02  0.65628124043E+01 -0.14366088036E+03  0.17225399973E+03  0.93109082461E+02 0.  0.
          5    1    3    3  502    0  0.30722913512E+02 -0.40670792909E+02 -0.44902128529E+02  0.68056479169E+02  0.41800000000E+01 0. -1.
         -5    1    3    3    0  502 -0.48628782187E+02  0.34107980504E+02  0.16142170447E+02  0.61694042320E+02  0.41800000000E+01 0. -1.
        -11    1    4    4    0    0 -0.35619150723E+02  0.18576205537E+02 -0.59309921010E+02  0.71634251868E+02  0.00000000000E+00 0.  1.
         11    1    4    4    0    0  0.53525019398E+02 -0.12013393133E+02 -0.84350959354E+02  0.10061974786E+03  0.00000000000E+00 0. -1.
</event>
<event>
 8    1  0.3710605E-009  0.1021934E+03  0.7561462E-02  0.1275750E+00
         -1   -1    0    0    0  501 -0.00000000000E+00  0.00000000000E+00  0.35924731808E+03  0.35924731808E+03  0.00000000000E+00 0.  1.
          1   -1    0    0  501    0  0.00000000000E+00 -0.00000000000E+00 -0.33535821114E+02  0.33535821114E+02  0.00000000000E+00 0. -1.
         25    2    1    2    0    0 -0.93432149305E+01 -0.19220794171E+02  0.18121412927E+03  0.22122765370E+03  0.12508548885E+03 0.  0.
         23    2    1    2    0    0  0.93432149305E+01  0.19220794171E+02  0.14449736770E+03  0.17155548550E+03  0.89972555470E+02 0.  0.
          5    1    3    3  502    0 -0.55786725931E+02  0.24759628290E+02  0.70927425611E+02  0.93666269740E+02  0.41800000000E+01 0.  1.
         -5    1    3    3    0  502  0.46443511001E+02 -0.43980422462E+02  0.11028670365E+03  0.12756138396E+03  0.41800000000E+01 0.  1.
        -11    1    4    4    0    0 -0.30713604672E+02  0.23712247939E+02  0.26827150860E+02  0.47173003270E+02  0.00000000000E+00 0. -1.
         11    1    4    4    0    0  0.40056819603E+02 -0.44914537671E+01  0.11767021684E+03  0.12438248223E+03  0.00000000000E+00 0.  1.
</event>
<event>
 8    1  0.3710605E-009  0.1431086E+03  0.7561462E-02  0.1209206E+00
         -2   -1    0    0    0  501 -0.00000000000E+00  0.00000000000E+00  0.65347118932E+02  0.65347118932E+02  0.00000000000E+00 0.  1.
          2   -1    0    0  501    0  0.00000000000E+00 -0.00000000000E+00 -0.49752644688E+03  0.49752644688E+03  0.00000000000E+00 0. -1.
         25    2    1    2    0    0  0.57801006740E+02  0.80561714562E+02 -0.39125728469E+03  0.42256504959E+03  0.12509121503E+03 0.  0.
         23    2    1    2    0    0 -0.57801006740E+02 -0.80561714562E+02 -0.40922043255E+02  0.14030851622E+03  0.90447332001E+02 0.  0.
          5    1    3    3  502    0 -0.36154317377E+02  0.18671385818E+02 -0.16296977613E+03  0.16802492567E+03  0.41800000000E+01 0. -1.
         -5    1    3    3    0  502  0.93955324118E+02  0.61890328744E+02 -0.22828750856E+03  0.25454012392E+03  0.41800000000E+01 0. -1.
        -11    1    4    4    0    0 -0.49690193109E+02 -0.99999386691E+02 -0.41790735326E+02  0.11922859635E+03  0.00000000000E+00 0.  1.
         11    1    4    4    0    0 -0.81108136318E+01  0.19437672129E+02  0.86869207075E+00  0.21079919864E+02  0.00000000000E+00 0. -1.
</event>
<event>
 8    1  0.3710605E-009  0.1075535E+03  0.7561462E-02  0.1265169E+00
          2   -1    0    0  501    0  0.00000000000E+00  0.00000000000E+00  0.51505297653E+03  0.51505297653E+03  0.00000000000E+00 0. -1.
         -2   -1    0    0    0  501 -0.00000000000E+00 -0.00000000000E+00 -0.43101538218E+02  0.43101538218E+02  0.00000000000E+00 0.  1.
         25    2    1    2    0    0  0.20065353206E+02  0.88659281275E+02  0.17069688862E+03  0.23031574287E+03  0.12507928316E+03 0.  0.
         23    2    1    2    0    0 -0.20065353206E+02 -0.88659281275E+02  0.30125454969E+03  0.32783877187E+03  0.91982987977E+02 0.  0.
          5    1    3    3  502    0 -0.25486430293E+02  0.69827414209E+02  0.16436981660E+03  0.18044482512E+03  0.41800000000E+01 0.  1.
         -5    1    3    3    0  502  0.45551783499E+02  0.18831867066E+02  0.63270720198E+01  0.49870917753E+02  0.41800000000E+01 0.  1.
        -11    1    4    4    0    0 -0.33764642244E+01 -0.30369992896E+02  0.12882499280E+02  0.33161661099E+02  0.00000000000E+00 0.  1.
         11    1    4    4    0    0 -0.16688888982E+02 -0.58289288379E+02  0.28837205041E+03  0.29467711077E+03  0.00000000000E+00 0. -1.
</event>
<event>
 8    1  0.3710605E-009  0.1832035E+03  0.7561462E-02  0.1164738E+00
          2   -1    0    0  501    0  0.00000000000E+00  0.00000000000E+00  0.20638905571E+03  0.20638905571E+03  0.00000000000E+00 0. -1.
         -2   -1    0    0    0  501 -0.00000000000E+00 -0.00000000000E+00 -0.20068677306E+03  0.20068677306E+03  0.00000000000E+00 0.  1.
         25    2    1    2    0    0  0.93032650457E+02 -0.13483230698E+03  0.54796341341E+02  0.21327209425E+03  0.12509005598E+03 0.  0.
         23    2    1    2    0    0 -0.93032650457E+02  0.13483230698E+03 -0.49094058695E+02  0.19380373452E+03  0.91185721793E+02 0.  0.
          5    1    3    3  502    0  0.21244787613E+02  0.54788686946E+01  0.50871481537E+02  0.55558429033E+02  0.41800000000E+01 0.  1.
         -5    1    3    3    0  502  0.71787862844E+02 -0.14031117567E+03  0.39248598037E+01  0.15771366521E+03  0.41800000000E+01 0.  1.
        -11    1    4    4    0    0 -0.10098999071E+03  0.74357042759E+02 -0.42662778222E+02  0.13246909329E+03  0.00000000000E+00 0. -1.
         11    1    4    4    0    0  0.79573402533E+01  0.60475264220E+02 -0.64312804731E+01  0.61334641231E+02  0.00000000000E+00 0.  1.
</event>
<event>
 8    1  0.3710605E-009  0.3456981E+03  0.7561462E-02  0.1064395E+00
         -1   -1    0    0    0  501 -0.00000000000E+00  0.00000000000E+00  0.69063828875E+03  0.69063828875E+03  0.00000000000E+00 0.  1.
          1   -1    0    0  501    0  0.00000000000E+00 -0.00000000000E+00 -0.18219379913E+03  0.18219379913E+03  0.00000000000E+00 0. -1.
         25    2    1    2    0    0  0.18777058383E+03  0.27220636195E+03  0.33974664818E+03  0.49033603153E+03  0.12509014041E+03 0.  0.
         23    2    1    2    0    0 -0.18777058383E+03 -0.27220636195E+03  0.16869784144E+03  0.38249605635E+03  0.92142149845E+02 0.  0.
          5    1    3    3  502    0 -0.12919683571E+02 -0.19062330849E+01  0.15411927364E+02  0.20628908193E+02  0.41800000000E+01 0. -1.
         -5    1    3    3    0  502  0.20069026740E+03  0.27411259503E+03  0.32433472081E+03  0.46970712333E+03  0.41800000000E+01 0. -1.
        -11    1    4    4    0    0 -0.11171376039E+03 -0.21661100490E+03  0.90229130864E+02  0.25988764450E+03  0.00000000000E+00 0.  1.
         11    1    4    4    0    0 -0.76056823441E+02 -0.55595357042E+02  0.78468710578E+02  0.12260841185E+03  0.00000000000E+00 0. -1.
</event>
<event>
 8    1  0.3710605E-009  0.1577136E+03  0.7561462E-02  0.1191302E+00
         -1   -1    0    0    0  501 -0.00000000000E+00  0.00000000000E+00  0.26123022365E+02  0.26123022365E+02  0.00000000000E+00 0.  1.
          1   -1    0    0  501    0  0.00000000000E+00 -0.00000000000E+00 -0.99225952855E+03  0.99225952855E+03  0.00000000000E+00 0. -1.
         25    2    1    2    0    0 -0.59819832233E+02 -0.99078273712E+02 -0.60200262683E+03  0.62565911168E+03  0.12508894703E+03 0.  0.
         23    2    1    2    0    0  0.59819832233E+02  0.99078273712E+02 -0.36413387935E+03  0.39272343923E+03  0.90792626237E+02 0.  0.
          5    1    3    3  502    0  0.31131805699E+02  0.52074137650E+01 -0.12274373723E+03  0.12680616670E+03  0.41800000000E+01 0. -1.
         -5    1    3    3    0  502 -0.90951637932E+02 -0.10428568748E+03 -0.47925888960E+03  0.49885294498E+03  0.41800000000E+01 0. -1.
        -11    1    4    4    0    0 -0.81510345830E+01  0.71229448142E+02 -0.14804973910E+03  0.16449558929E+03  0.00000000000E+00 0. -1.
         11    1    4    4    0    0  0.67970866816E+02  0.27848825570E+02 -0.21608414025E+03  0.22822784995E+03  0.00000000000E+00 0.  1.
</event>
<event>
 8    1  0.3710605E-009  0.1299177E+03  0.7561462E-02  0.1227578E+00
         -2   -1    0    0    0  501 -0.00000000000E+00  0.00000000000E+00  0.83803484054E+02  0.83803484054E+02  0.00000000000E+00 0.  1.
          2   -1    0    0  501    0  0.00000000000E+00 -0.00000000000E+00 -0.23690426276E+03  0.23690426276E+03  0.00000000000E+00 0. -1.
         25    2    1    2    0    0 -0.68160642242E+02  0.29859913809E+02 -0.13914600799E+03  0.20135687067E+03  0.12508193404E+03 0.  0.
         23    2    1    2    0    0  0.68160642242E+02 -0.29859913809E+02 -0.13954770719E+02  0.11935087615E+03  0.92262714071E+02 0.  0.
          5    1    3    3  502    0 -0.58899903123E+02 -0.41303583478E+02 -0.84535992368E+02  0.11108101099E+03  0.41800000000E+01 0.  1.
         -5    1    3    3    0  502 -0.92607391185E+01  0.71163497287E+02 -0.54610015621E+02  0.90275859681E+02  0.41800000000E+01 0.  1.
        -11    1    4    4    0    0 -0.35825293487E+01  0.25200409810E+02  0.72414877469E+01  0.26463830334E+02  0.00000000000E+00 0.  1.
         11    1    4    4    0    0  0.71743171591E+02 -0.55060323620E+02 -0.21196258466E+02  0.92887045813E+02  0.00000000000E+00 0. -1.
</event>
<event>
 8    1  0.3710605E-009  0.1117266E+03  0.7561462E-02  0.1257406E+00
          2   -1    0    0  501    0  0.00000000000E+00  0.00000000000E+00  0.16131753581E+03  0.16131753581E+03  0.00000000000E+00 0.  1.
         -2   -1    0    0    0  501 -0.00000000000E+00 -0.00000000000E+00 -0.79455828964E+02  0.79455828964E+02  0.00000000000E+00 0. -1.
         25    2    1    2    0    0  0.29796185311E+02  0.10388410524E+02  0.46678922304E+02  0.13719321206E+03  0.12508926379E+03 0.  0.
         23    2    1    2    0    0 -0.29796185311E+02 -0.10388410524E+02  0.35182784538E+02  0.10358015271E+03  0.92169886493E+02 0.  0.
          5    1    3    3  502    0  0.75611677685E+02  0.23096340677E+02  0.16956335180E+02  0.80966390915E+02  0.41800000000E+01 0.  1.
         -5    1    3    3    0  502 -0.45815492374E+02 -0.12707930153E+02  0.29722587124E+02  0.56226821141E+02  0.41800000000E+01 0.  1.
        -11    1    4    4    0    0  0.30440458315E+02 -0.18731249914E+02  0.64378696111E+01  0.36317039952E+02  0.00000000000E+00 0. -1.
         11    1    4    4    0    0 -0.60236643625E+02  0.83428393897E+01  0.28744914927E+02  0.67263112762E+02  0.00000000000E+00 0.  1.
</event>
<event>
 8    1  0.3710605E-009  0.3428637E+03  0.7561462E-02  0.1065583E+00
         -2   -1    0    0    0  501 -0.00000000000E+00  0.00000000000E+00  0.43352905227E+02  0.43352905227E+02  0.00000000000E+00 0. -1.
          2   -1    0    0  501    0  0.00000000000E+00 -0.00000000000E+00 -0.29169495617E+04  0.29169495617E+04  0.00000000000E+00 0.  1.
         25    2    1    2    0    0 -0.16207278249E+03  0.29611360300E+03 -0.13498465154E+04  0.13970266508E+04  0.12508794924E+03 0.  0.
         23    2    1    2    0    0  0.16207278249E+03 -0.29611360300E+03 -0.15237501411E+04  0.15632758162E+04  0.89810535800E+02 0.  0.
          5    1    3    3  502    0 -0.66075021995E+02  0.76508580330E+02 -0.22171787280E+03  0.24371245130E+03  0.41800000000E+01 0. -1.
         -5    1    3    3    0  502 -0.95997760490E+02  0.21960502267E+03 -0.11281286426E+04  0.11533141995E+04  0.41800000000E+01 0. -1.
        -11    1    4    4    0    0  0.27716837403E+02 -0.12095095319E+03 -0.67345180920E+03  0.68478806609E+03  0.00000000000E+00 0.  1.
         11    1    4    4    0    0  0.13435594508E+03 -0.17516264981E+03 -0.85029833188E+03  0.87848775009E+03  0.00000000000E+00 0. -1.
</event>
<event>
 8    1  0.3710605E-009  0.2696634E+03  0.7561462E-02  0.1101472E+00
         -2   -1    0    0    0  501 -0.00000000000E+00  0.00000000000E+00  0.13242861813E+03  0.13242861813E+03  0.00000000000E+00 0.  1.
          2   -1    0    0  501    0  0.00000000000E+00 -0.00000000000E+00 -0.60548617822E+03  0.60548617822E+03  0.00000000000E+00 0. -1.
         25    2    1    2    0    0 -0.24683163652E+03 -0.15026643585E+02 -0.13265678051E+03  0.30724183353E+03  0.12509223017E+03 0.  0.
         23    2    1    2    0    0  0.24683163652E+03  0.15026643585E+02 -0.34040077959E+03  0.43067296283E+03  0.91950276562E+02 0.  0.
          5    1    3    3  502    0 -0.10319752231E+03 -0.66527971845E+02 -0.42709560684E+02  0.13006643926E+03  0.41800000000E+01 0. -1.
         -5    1    3    3    0  502 -0.14363411421E+03  0.51501328260E+02 -0.89947219823E+02  0.17717539426E+03  0.41800000000E+01 0. -1.
        -11    1    4    4    0    0  0.16595961971E+03  0.53364252704E+02 -0.22390524605E+03  0.28376733084E+03  0.00000000000E+00 0.  1.
         11    1    4    4    0    0  0.80872016815E+02 -0.38337609119E+02 -0.11649553354E+03  0.14690563199E+03  0.00000000000E+00 0. -1.
</event>
<event>
 8    1  0.3710605E-009  0.6819475E+02  0.7561462E-02  0.1366342E+00
          2   -1    0    0  501    0  0.00000000000E+00  0.00000000000E+00  0.72806082388E+03  0.72806082388E+03  0.00000000000E+00 0. -1.
         -2   -1    0    0    0  501 -0.00000000000E+00 -0.00000000000E+00 -0.18870408368E+02  0.18870408368E+02  0.00000000000E+00 0.  1.
         25    2    1    2    0    0  0.16599818895E+02  0.79949092050E+01  0.50991130843E+03  0.52535357815E+03  0.12508943621E+03 0.  0.
         23    2    1    2    0    0 -0.16599818895E+02 -0.79949092050E+01  0.19927910708E+03  0.22157765410E+03  0.95105319069E+02 0.  0.
          5    1    3    3  502    0 -0.19802325658E+02 -0.10638926881E+01  0.76288253634E+01  0.21654915044E+02  0.41800000000E+01 0. -1.
         -5    1    3    3    0  502  0.36402144553E+02  0.90588018931E+01  0.50228248306E+03  0.50369866310E+03  0.41800000000E+01 0. -1.
        -11    1    4    4    0    0 -0.42061981898E+02  0.14410362942E+02  0.43691694122E+02  0.62336450144E+02  0.00000000000E+00 0.  1.
         11    1    4    4    0    0  0.25462163003E+02 -0.22405272147E+02  0.15558741296E+03  0.15924120395E+03  0.00000000000E+00 0. -1.
</event>
<event>
 8    1  0.3710605E-009  0.1092682E+03  0.7561462E-02  0.1261931E+00
          1   -1    0    0  501    0  0.00000000000E+00  0.00000000000E+00  0.26469827234E+02  0.26469827234E+02  0.00000000000E+00 0. -1.
         -1   -1    0    0    0  501 -0.00000000000E+00 -0.00000000000E+00 -0.57320332566E+03  0.57320332566E+03  0.00000000000E+00 0.  1.
         25    2    1    2    0    0  0.14586196785E+02 -0.56884982868E+02 -0.29837083017E+03  0.32881833847E+03  0.12509072310E+03 0.  0.
         23    2    1    2    0    0 -0.14586196785E+02  0.56884982868E+02 -0.24836266825E+03  0.27085481442E+03  0.90717457533E+02 0.  0.
          5    1    3    3  502    0 -0.46847898673E+02 -0.42122570609E+02 -0.82718193966E+02  0.10406156148E+03  0.41800000000E+01 0. -1.
         -5    1    3    3    0  502  0.61434095458E+02 -0.14762412259E+02 -0.21565263621E+03  0.22475677699E+03  0.41800000000E+01 0. -1.
        -11    1    4    4    0    0 -0.43142223508E+02  0.27840300576E+02 -0.64022624376E+02  0.82068448368E+02  0.00000000000E+00 0. -1.
         11    1    4    4    0    0  0.28556026724E+02  0.29044682292E+02 -0.18434004387E+03  0.18878636605E+03  0.00000000000E+00 0.  1.
</event>
<event>
 8    1  0.3710605E-009  0.1724441E+03  0.7561462E-02  0.1175323E+00
         -1   -1    0    0    0  501 -0.00000000000E+00  0.00000000000E+00  0.34954253032E+03  0.34954253032E+03  0.00000000000E+00 0.  1.
          1   -1    0    0  501    0  0.00000000000E+00 -0.00000000000E+00 -0.11006162157E+03  0.11006162157E+03  0.00000000000E+00 0. -1.
         25    2    1    2    0    0  0.11724845035E+03  0.88525001139E+02  0.42686879736E+02  0.19761997060E+03  0.12509039988E+03 0.  0.
         23    2    1    2    0    0 -0.11724845035E+03 -0.88525001139E+02  0.19679402901E+03  0.26198418129E+03  0.91235664390E+02 0.  0.
          5    1    3    3  502    0  0.13977901646E+02  0.81658805222E+02 -0.59937004398E+01  0.83168137226E+02  0.41800000000E+01 0. -1.
         -5    1    3    3    0  502  0.10327054870E+03  0.68661959177E+01  0.48680580176E+02  0.11445183337E+03  0.41800000000E+01 0. -1.
        -11    1    4    4    0    0 -0.18978956605E+02 -0.48795563275E+02  0.20395669943E+02  0.56188888061E+02  0.00000000000E+00 0. -1.
         11    1    4    4    0    0 -0.98269493745E+02 -0.39729437864E+02  0.17639835907E+03  0.20579529323E+03  0.00000000000E+00 0.  1.
</event>
<event>
 8    1  0.3710605E-009  0.9748961E+02  0.7561462E-02  0.1285665E+00
         -1   -1    0    0    0  501 -0.00000000000E+00  0.00000000000E+00  0.12629129090E+03  0.12629129090E+03  0.00000000000E+00 0.  1.
          1   -1    0    0  501    0  0.00000000000E+00 -0.00000000000E+00 -0.16425591431E+03  0.16425591431E+03  0.00000000000E+00 0. -1.
         25    2    1    2    0    0  0.11216454520E+02 -0.72032664929E+02  0.44919055283E+02  0.15159063744E+03  0.12508991231E+03 0.  0.
         23    2    1    2    0    0 -0.11216454520E+02  0.72032664929E+02 -0.82883678694E+02  0.13895656778E+03  0.84407996458E+02 0.  0.
          5    1    3    3  502    0 -0.26058684785E+02 -0.68420295370E+02 -0.20455543189E+02  0.76133392926E+02  0.41800000000E+01 0. -1.
         -5    1    3    3    0  502  0.37275139305E+02 -0.36123695589E+01  0.65374598472E+02  0.75457244512E+02  0.41800000000E+01 0. -1.
        -11    1    4    4    0    0  0.15891693889E+02  0.23415399270E+02  0.10547438362E+02  0.30200584657E+02  0.00000000000E+00 0.  1.
         11    1    4    4    0    0 -0.27108148409E+02  0.48617265659E+02 -0.93431117056E+02  0.10875598312E+03  0.00000000000E+00 0. -1.
</event>
<event>
 8    1  0.3710605E-009  0.2293757E+03  0.7561462E-02  0.1127080E+00
          1   -1    0    0  501    0  0.00000000000E+00  0.00000000000E+00  0.13559085855E+04  0.13559085855E+04  0.00000000000E+00 0. -1.
         -1   -1    0    0    0  501 -0.00000000000E+00 -0.00000000000E+00 -0.41048442614E+02  0.41048442614E+02  0.00000000000E+00 0.  1.
         25    2    1    2    0    0 -0.43790960590E+02  0.19957407510E+03  0.55238904057E+03  0.60210434626E+03  0.12509409241E+03 0.  0.
         23    2    1    2    0    0  0.43790960590E+02 -0.19957407510E+03  0.76247110236E+03  0.79485268190E+03  0.93172658622E+02 0.  0.
          5    1    3    3  502    0 -0.69320890138E+02  0.45431167980E+02  0.17770869091E+03  0.19613064029E+03  0.41800000000E+01 0. -1.
         -5    1    3    3    0  502  0.25529929548E+02  0.15414290712E+03  0.37468034966E+03  0.40597370597E+03  0.41800000000E+01 0. -1.
        -11    1    4    4    0    0 -0.97127345947E+01 -0.13611682290E+03  0.55171001360E+03  0.56833622601E+03  0.00000000000E+00 0. -1.
         11    1    4    4    0    0  0.53503695185E+02 -0.63457252201E+02  0.21076108876E+03  0.22651645590E+03  0.00000000000E+00 0.  1.
</event>
<event>
 8    1  0.3710605E-009  0.1978296E+03  0.7561462E-02  0.1151583E+00
         -2   -1    0    0    0  501 -0.00000000000E+00  0.00000000000E+00  0.39264159323E+02  0.39264159323E+02  0.00000000000E+00 0.  1.
          2   -1    0    0  501    0  0.00000000000E+00 -0.00000000000E+00 -0.11316520265E+04  0.11316520265E+04  0.00000000000E+00 0. -1.
         25    2    1    2    0    0 -0.15504498902E+03  0.81491825203E+02 -0.43579157977E+03  0.48604637541E+03  0.12508761672E+03 0.  0.
         23    2    1    2    0    0  0.15504498902E+03 -0.81491825203E+02 -0.65659628740E+03  0.68486981041E+03  0.85135811417E+02 0.  0.
          5    1    3    3  502    0 -0.58179109155E+02 -0.20241858194E+02 -0.22022027232E+03  0.22871157012E+03  0.41800000000E+01 0.  1.
         -5    1    3    3    0  502 -0.96865879861E+02  0.10173368340E+03 -0.21557130746E+03  0.25733480530E+03  0.41800000000E+01 0.  1.
        -11    1    4    4    0    0  0.34794925580E+02 -0.62651542123E+02 -0.28368444251E+03  0.29259659174E+03  0.00000000000E+00 0. -1.
         11    1    4    4    0    0  0.12025006344E+03 -0.18840283080E+02 -0.37291184489E+03  0.39227321866E+03  0.00000000000E+00 0.  1.
</event>
<event>
 8    1  0.3710605E-009  0.9817301E+02  0.7561462E-02  0.1284185E+00
         -1   -1    0    0    0  501 -0.00000000000E+00  0.00000000000E+00  0.27119624433E+02  0.27119624433E+02  0.00000000000E+00 0.  1.
          1   -1    0    0  501    0  0.00000000000E+00 -0.00000000000E+00 -0.78709815174E+03  0.78709815174E+03  0.00000000000E+00 0. -1.
         25    2    1    2    0    0  0.71061804615E+02 -0.64678777776E+02 -0.45207656808E+03  0.47879970249E+03  0.12507120902E+03 0.  0.
         23    2    1    2    0    0 -0.71061804615E+02  0.64678777776E+02 -0.30790195923E+03  0.33541807369E+03  0.92024688481E+02 0.  0.
          5    1    3    3  502    0  0.41160474381E+02 -0.44027082630E+02 -0.43365552934E+03  0.43784376115E+03  0.41800000000E+01 0. -1.
         -5    1    3    3    0  502  0.29901330234E+02 -0.20651695146E+02 -0.18421038741E+02  0.40955941333E+02  0.41800000000E+01 0. -1.
        -11    1    4    4    0    0 -0.27629294481E+02  0.42215873139E+02 -0.43755768349E+02  0.66784168200E+02  0.00000000000E+00 0.  1.
         11    1    4    4    0    0 -0.43432510134E+02  0.22462904637E+02 -0.26414619088E+03  0.26863390549E+03  0.00000000000E+00 0. -1.
</event>
<event>
 8    1  0.3710605E-009  0.9838575E+02  0.7561462E-02  0.1283728E+00
          1   -1    0    0  501    0  0.00000000000E+00  0.00000000000E+00  0.11094007940E+03  0.11094007940E+03  0.00000000000E+00 0.  1.
         -1   -1    0    0    0  501 -0.00000000000E+00 -0.00000000000E+00 -0.11662367362E+03  0.11662367362E+03  0.00000000000E+00 0. -1.
         25    2    1    2    0    0 -0.20686460874E+02  0.21336379701E+02 -0.40662172914E+02  0.13485694811E+03  0.12509921417E+03 0.  0.
         23    2    1    2    0    0  0.20686460874E+02 -0.21336379701E+02  0.34978578694E+02  0.92706804898E+02  0.80547377020E+02 0.  0.
          5    1    3    3  502    0 -0.57228923680E+02 -0.27033560212E+02 -0.38192122777E+02  0.74041027313E+02  0.41800000000E+01 0.  1.
         -5    1    3    3    0  502  0.36542462806E+02  0.48369939913E+02 -0.24700501363E+01  0.60815920800E+02  0.41800000000E+01 0.  1.
        -11    1    4    4    0    0  0.27446520589E+02 -0.42369442156E+02  0.45749321616E+02  0.68128419543E+02  0.00000000000E+00 0. -1.
         11    1    4    4    0    0 -0.67600597150E+01  0.21033062455E+02 -0.10770742923E+02  0.24578385356E+02  0.00000000000E+00 0.  1.
</event>
<event>
 8    1  0.3710605E-009  0.7490593E+02  0.7561462E-02  0.1344163E+00
          2   -1    0    0  501    0  0.00000000000E+00  0.00000000000E+00  0.94732241816E+02  0.94732241816E+02  0.00000000000E+00 0. -1.
         -2   -1    0    0    0  501 -0.00000000000E+00 -0.00000000000E+00 -0.49949534960E+03  0.49949534960E+03  0.00000000000E+00 0.  1.
         25    2    1    2    0    0 -0.29067841742E+02  0.28243908508E+02  0.40707349174E+02  0.13764995429E+03  0.12509102225E+03 0.  0.
         23    2    1    2    0    0  0.29067841742E+02 -0.28243908508E+02 -0.44547045695E+03  0.45657763712E+03  0.91523510151E+02 0.  0.
          5    1    3    3  502    0  0.57915940685E+01  0.10931103534E+02 -0.43162477272E+02  0.45094383582E+02  0.41800000000E+01 0. -1.
         -5    1    3    3    0  502 -0.34859435810E+02  0.17312804974E+02  0.83869826446E+02  0.92555570708E+02  0.41800000000E+01 0. -1.
        -11    1    4    4    0    0 -0.31876890744E+02 -0.15053798636E+02 -0.11523519916E+03  0.12050686347E+03  0.00000000000E+00 0.  1.
         11    1    4    4    0    0  0.60944732486E+02 -0.13190109872E+02 -0.33023525779E+03  0.33607077365E+03  0.00000000000E+00 0. -1.
</event>
<event>
 8    1  0.3710605E-009  0.1274623E+03  0.7561462E-02  0.1231271E+00
          1   -1    0    0  501    0  0.00000000000E+00  0.00000000000E+00  0.10956334098E+04  0.10956334098E+04  0.00000000000E+00 0. -1.
         -1   -1    0    0    0  501 -0.00000000000E+00 -0.00000000000E+00 -0.15605887307E+02  0.15605887307E+02  0.00000000000E+00 0.  1.
         25    2    1    2    0    0  0.27256430849E+02 -0.60302661509E+02  0.47339449904E+03  0.49409508342E+03  0.12509306826E+03 0.  0.
         23    2    1    2    0    0 -0.27256430849E+02  0.60302661509E+02  0.60663302348E+03  0.61714421372E+03  0.92108801649E+02 0.  0.
          5    1    3    3  502    0  0.69294535244E+02 -0.19201937706E+01  0.22968059958E+03  0.23995014061E+03  0.41800000000E+01 0.  1.
         -5    1    3    3    0  502 -0.42038104395E+02 -0.58382467738E+02  0.24371389946E+03  0.25414494280E+03  0.41800000000E+01 0.  1.
        -11    1    4    4    0    0  0.34391266675E+02  0.22544082121E+02  0.21783015154E+03  0.22167762581E+03  0.00000000000E+00 0. -1.
         11    1    4    4    0    0 -0.61647697524E+02  0.37758579388E+02  0.38880287194E+03  0.39546658791E+03  0.00000000000E+00 0.  1.
</event>
<event>
 8    1  0.3710605E-009  0.1098959E+03  0.7561462E-02  0.1260763E+00
          1   -1    0    0  501    0  0.00000000000E+00  0.00000000000E+00  0.44137618671E+03  0.44137618671E+03  0.00000000000E+00 0. -1.
         -1   -1    0    0    0  501 -0.00000000000E+00 -0.00000000000E+00 -0.64515274512E+02  0.64515274512E+02  0.00000000000E+00 0.  1.
         25    2    1    2    0    0 -0.17942530771E+02  0.86832129094E+02  0.62991252734E+02  0.16576028512E+03  0.12508725414E+03 0.  0.
         23    2    1    2    0    0  0.17942530771E+02 -0.86832129094E+02  0.31386965946E+03  0.34013117610E+03  0.96505444258E+02 0.  0.
          5    1    3    3  502    0 -0.16203928707E+01  0.79533737219E+02 -0.18870460143E+02  0.81864569230E+02  0.41800000000E+01 0. -1.
         -5    1    3    3    0  502 -0.16322137900E+02  0.72983918749E+01  0.81861712877E+02  0.83895715891E+02  0.41800000000E+01 0. -1.
        -11    1    4    4    0    0  0.46784480775E+02 -0.23882536028E+02  0.20069205415E+03  0.20745231685E+03  0.00000000000E+00 0. -1.
         11    1    4    4    0    0 -0.28841950004E+02 -0.62949593067E+02  0.11317760531E+03  0.13267885925E+03  0.00000000000E+00 0.  1.
</event>
<event>
 8    1  0.3710605E-009  0.4292003E+02  0.7561462E-02  0.1487760E+00
          2   -1    0    0  501    0  0.00000000000E+00  0.00000000000E+00  0.13753710970E+03  0.13753710970E+03  0.00000000000E+00 0. -1.
         -2   -1    0    0    0  501 -0.00000000000E+00 -0.00000000000E+00 -0.12105997972E+03  0.12105997972E+03  0.00000000000E+00 0.  1.
         25    2    1    2    0    0  0.20897373734E+02 -0.21895651608E+02 -0.54015483247E+02  0.13957460063E+03  0.12508907595E+03 0.  0.
         23    2    1    2    0    0 -0.20897373734E+02  0.21895651608E+02  0.70492613230E+02  0.11902248879E+03  0.91000134780E+02 0.  0.
          5    1    3    3  502    0 -0.10922556553E+01 -0.37470053593E+01 -0.91843268982E+02  0.92021147183E+02  0.41800000000E+01 0.  1.
         -5    1    3    3    0  502  0.21989629390E+02 -0.18148646249E+02  0.37827785735E+02  0.47553453449E+02  0.41800000000E+01 0.  1.
        -11    1    4    4    0    0 -0.14516209808E+02 -0.10736013379E+02 -0.17385379599E+02  0.25064591644E+02  0.00000000000E+00 0.  1.
         11    1    4    4    0    0 -0.63811639263E+01  0.32631664988E+02  0.87877992829E+02  0.93957897148E+02  0.00000000000E+00 0. -1.
</event>
<event>
 8    1  0.3710605E-009  0.1018067E+03  0.7561462E-02  0.1276542E+00
          1   -1    0    0  501    0  0.00000000000E+00  0.00000000000E+00  0.14472914497E+03  0.14472914497E+03  0.00000000000E+00 0. -1.
         -1   -1    0    0    0  501 -0.00000000000E+00 -0.00000000000E+00 -0.12086954499E+03  0.12086954499E+03  0.00000000000E+00 0.  1.
         25    2    1    2    0    0 -0.52234047990E+02  0.47298974173E+02  0.78200050059E+01  0.14378111386E+03  0.12508504107E+03 0.  0.
         23    2    1    2    0    0  0.52234047990E+02 -0.47298974173E+02  0.16039594978E+02  0.12181757609E+03  0.98064593566E+02 0.  0.
          5    1    3    3  502    0 -0.25484087652E+02  0.50298753595E+02  0.61526920892E+02  0.83560982110E+02  0.41800000000E+01 0. -1.
         -5    1    3    3    0  502 -0.26749960338E+02 -0.29997794226E+01 -0.53706915886E+02  0.60220131755E+02  0.41800000000E+01 0. -1.
        -11    1    4    4    0    0  0.35905155549E+02  0.26259585956E+02  0.13259150826E+02  0.46417142633E+02  0.00000000000E+00 0.  1.
         11    1    4    4    0    0  0.16328892441E+02 -0.73558560129E+02  0.27804441525E+01  0.75400433462E+02  0.00000000000E+00 0. -1.
</event>
<event>
 8    1  0.3710605E-009  0.1560687E+03  0.7561462E-02  0.1193208E+00
          1   -1    0    0  501    0  0.00000000000E+00  0.00000000000E+00  0.11402025942E+04  0.11402025942E+04  0.00000000000E+00 0. -1.
         -1   -1    0    0    0  501 -0.00000000000E+00 -0.00000000000E+00 -0.21612399209E+02  0.21612399209E+02  0.00000000000E+00 0.  1.
         25    2    1    2    0    0 -0.40871317254E+02 -0.10523831642E+03  0.56394944872E+03  0.58858446136E+03  0.12508844721E+03 0.  0.
         23    2    1    2    0    0  0.40871317254E+02  0.10523831642E+03  0.55464074629E+03  0.57323053207E+03  0.90671481916E+02 0.  0.
          5    1    3    3  502    0 -0.78875588085E+02 -0.10327713323E+03  0.44728118789E+03  0.46579551102E+03  0.41800000000E+01 0. -1.
         -5    1    3    3    0  502  0.38004270831E+02 -0.19611831931E+01  0.11666826083E+03  0.12278895034E+03  0.41800000000E+01 0. -1.
        -11    1    4    4    0    0 -0.12490833310E+02  0.86318537164E+02  0.30324899929E+03  0.31554217840E+03  0.00000000000E+00 0. -1.
         11    1    4    4    0    0  0.53362150564E+02  0.18919779259E+02  0.25139174700E+03  0.25768835367E+03  0.00000000000E+00 0.  1.
</event>
<event>
 8    1  0.3710605E-009  0.1289272E+03  0.7561462E-02  0.1229056E+00
          1   -1    0    0  501    0  0.00000000000E+00  0.00000000000E+00  0.11809034314E+03  0.11809034314E+03  0.00000000000E+00 0. -1.
         -1   -1    0    0    0  501 -0.00000000000E+00 -0.00000000000E+00 -0.17541950593E+03  0.17541950593E+03  0.00000000000E+00 0.  1.
         25    2    1    2    0    0 -0.38253372280E+02 -0.85109813478E+02 -0.10075896690E+02  0.15638148262E+03  0.12508654432E+03 0.  0.
         23    2    1    2    0    0  0.38253372280E+02  0.85109813478E+02 -0.47253266108E+02  0.13712836645E+03  0.88680983793E+02 0.  0.
          5    1    3    3  502    0  0.35074691692E+02 -0.23304325433E+00 -0.24823316628E+02  0.43173577046E+02  0.41800000000E+01 0.  1.
         -5    1    3    3    0  502 -0.73328063972E+02 -0.84876770224E+02  0.14747419938E+02  0.11320790557E+03  0.41800000000E+01 0.  1.
        -11    1    4    4    0    0  0.13357359069E+02 -0.68541859956E+01 -0.38653492529E+02  0.41466750436E+02  0.00000000000E+00 0.  1.
         11    1    4    4    0    0  0.24896013210E+02  0.91963999474E+02 -0.85997735785E+01  0.95661616015E+02  0.00000000000E+00 0. -1.
</event>
<event>
 8    1  0.3710605E-009  0.2073325E+03  0.7561462E-02  0.1143696E+00
         -2   -1    0    0    0  501 -0.00000000000E+00  0.00000000000E+00  0.55032759715E+02  0.55032759715E+02  0.00000000000E+00 0.  1.
          2   -1    0    0  501    0  0.00000000000E+00 -0.00000000000E+00 -0.89224884619E+03  0.89224884619E+03  0.00000000000E+00 0. -1.
         25    2    1    2    0    0  0.22538583167E+01  0.17754291243E+03 -0.27348607712E+03  0.34923801434E+03  0.12508393442E+03 0.  0.
         23    2    1    2    0    0 -0.22538583167E+01 -0.17754291243E+03 -0.56373000936E+03  0.59804359156E+03  0.91312914366E+02 0.  0.
          5    1    3    3  502    0  0.54765510974E+02  0.35120907030E+02 -0.76330922463E+02  0.10038237608E+03  0.41800000000E+01 0.  1.
         -5    1    3    3    0  502 -0.52511652657E+02  0.14242200540E+03 -0.19715515466E+03  0.24885563827E+03  0.41800000000E+01 0.  1.
        -11    1    4    4    0    0  0.39062073352E+02 -0.49382638860E+02 -0.14188338400E+03  0.15522688315E+03  0.00000000000E+00 0.  1.
         11    1    4    4    0    0 -0.41315931668E+02 -0.12816027357E+03 -0.42184662535E+03  0.44281670842E+03  0.00000000000E+00 0. -1.
</event>
<event>
 8    1  0.3710605E-009  0.1254590E+03  0.7561462E-02  0.1234354E+00
          2   -1    0    0  501    0  0.00000000000E+00  0.00000000000E+00  0.73094438327E+02  0.73094438327E+02  0.00000000000E+00 0.  1.
         -2   -1    0    0    0  501 -0.00000000000E+00 -0.00000000000E+00 -0.29094395216E+03  0.29094395216E+03  0.00000000000E+00 0. -1.
         25    2    1    2    0    0  0.11476761721E+02 -0.78045611260E+02 -0.18692881615E+03  0.23834672694E+03  0.12507576279E+03 0.  0.
         23    2    1    2    0    0 -0.11476761721E+02  0.78045611260E+02 -0.30920697686E+02  0.12569166355E+03  0.92841107513E+02 0.  0.
          5    1    3    3  502    0 -0.50509025976E+02 -0.28165692458E+02 -0.37639667532E+02  0.69128032726E+02  0.41800000000E+01 0. -1.
         -5    1    3    3    0  502  0.61985787697E+02 -0.49879918802E+02 -0.14928914862E+03  0.16921869421E+03  0.41800000000E+01 0. -1.
        -11    1    4    4    0    0 -0.45095460509E+02  0.60152854247E+02  0.22126272468E+01  0.75212114396E+02  0.00000000000E+00 0. -1.
         11    1    4    4    0    0  0.33618698788E+02  0.17892757013E+02 -0.33133324933E+02  0.50479549154E+02  0.00000000000E+00 0.  1.
</event>
<event>
 8    1  0.3710605E-009  0.1817442E+03  0.7561462E-02  0.1166126E+00
          1   -1    0    0  501    0  0.00000000000E+00  0.00000000000E+00  0.84280188918E+02  0.84280188918E+02  0.00000000000E+00 0. -1.
         -1   -1    0    0    0  501 -0.00000000000E+00 -0.00000000000E+00 -0.50121005755E+03  0.50121005755E+03  0.00000000000E+00 0.  1.
         25    2    1    2    0    0  0.94962346216E+02  0.12327738993E+03 -0.32838834091E+03  0.38432084125E+03  0.12509374287E+03 0.  0.
         23    2    1    2    0    0 -0.94962346216E+02 -0.12327738993E+03 -0.88541527718E+02  0.20116940522E+03  0.91729850092E+02 0.  0.
          5    1    3    3  502    0  0.83329039871E+02  0.28482535538E+02 -0.23366008843E+03  0.24973884969E+03  0.41800000000E+01 0. -1.
         -5    1    3    3    0  502  0.11633306345E+02  0.94794854390E+02 -0.94728252481E+02  0.13458199156E+03  0.41800000000E+01 0. -1.
        -11    1    4    4    0    0 -0.87832554694E+02 -0.13787997691E+03 -0.86005567941E+02  0.18472250381E+03  0.00000000000E+00 0. -1.
         11    1    4    4    0    0 -0.71297915221E+01  0.14602586985E+02 -0.25359597762E+01  0.16446901404E+02  0.00000000000E+00 0.  1.
</event>
<event>
 8    1  0.3710605E-009  0.1147078E+03  0.7561462E-02  0.1252092E+00
          2   -1    0    0  501    0  0.00000000000E+00  0.00000000000E+00  0.31196768826E+02  0.31196768826E+02  0.00000000000E+00 0. -1.
         -2   -1    0    0    0  501 -0.00000000000E+00 -0.00000000000E+00 -0.63248754502E+03  0.63248754502E+03  0.00000000000E+00 0.  1.
         25    2    1    2    0    0  0.44094137390E+02  0.40683672726E+02 -0.48036895890E+03  0.50000006164E+03  0.12508505419E+03 0.  0.
         23    2    1    2    0    0 -0.44094137390E+02 -0.40683672726E+02 -0.12092181729E+03  0.16368425221E+03  0.92579664858E+02 0.  0.
          5    1    3    3  502    0  0.42219988659E+02  0.74145611246E+02 -0.19831905501E+03  0.21593521966E+03  0.41800000000E+01 0.  1.
         -5    1    3    3    0  502  0.18741487315E+01 -0.33461938520E+02 -0.28204990389E+03  0.28406484198E+03  0.41800000000E+01 0.  1.
        -11    1    4    4    0    0 -0.37477505096E+02 -0.70409407996E+02 -0.90638831114E+02  0.12073709384E+03  0.00000000000E+00 0.  1.
         11    1    4    4    0    0 -0.66166322938E+01  0.29725735270E+02 -0.30282986177E+02  0.42947158370E+02  0.00000000000E+00 0. -1.
</event>
<event>
 8    1  0.3710605E-009  0.1004934E+03  0.7561462E-02  0.1279262E+00
          2   -1    0    0  501    0  0.00000000000E+00  0.00000000000E+00  0.46059881477E+02  0.46059881477E+02  0.00000000000E+00 0. -1.
         -2   -1    0    0    0  501 -0.00000000000E+00 -0.00000000000E+00 -0.28708653111E+03  0.28708653111E+03  0.00000000000E+00 0.  1.
         25    2    1    2    0    0  0.28594361951E+02  0.25559221333E+02 -0.13197709464E+03  0.18583938866E+03  0.12508962203E+03 0.  0.
         23    2    1    2    0    0 -0.28594361951E+02 -0.25559221333E+02 -0.10904955500E+03  0.14730702392E+03  0.91305216290E+02 0.  0.
          5    1    3    3  502    0 -0.87832649979E+01 -0.46241644621E+02 -0.66831591746E+02  0.81849676215E+02  0.41800000000E+01 0.  1.
         -5    1    3    3    0  502  0.37377626949E+02  0.71800865953E+02 -0.65145502889E+02  0.10398971245E+03  0.41800000000E+01 0.  1.
        -11    1    4    4    0    0 -0.18418905938E+02  0.19300362176E+02 -0.95788681002E+02  0.99434558802E+02  0.00000000000E+00 0.  1.
         11    1    4    4    0    0 -0.10175456013E+02 -0.44859583509E+02 -0.13260873994E+02  0.47872465121E+02  0.00000000000E+00 0. -1.
</event>
<event>
 8    1  0.3710605E-009  0.1029296E+03  0.7561462E-02  0.1274253E+00
         -2   -1    0    0    0  501 -0.00000000000E+00  0.00000000000E+00  0.15861892510E+02  0.15861892510E+02  0.00000000000E+00 0.  1.
          2   -1    0    0  501    0  0.00000000000E+00 -0.00000000000E+00 -0.11734982765E+04  0.11734982765E+04  0.00000000000E+00 0. -1.
         25    2    1    2    0    0  0.27401987570E+02 -0.87861133148E+01 -0.97137208177E+03  0.97981574993E+03  0.12508844012E+03 0.  0.
         23    2    1    2    0    0 -0.27401987570E+02  0.87861133148E+01 -0.18626430222E+03  0.20954441909E+03  0.91577336598E+02 0.  0.
          5    1    3    3  502    0 -0.39307607590E+02  0.31253639771E+02 -0.39469455255E+03  0.39789840440E+03  0.41800000000E+01 0.  1.
         -5    1    3    3    0  502  0.66709595161E+02 -0.40039753086E+02 -0.57667752922E+03  0.58191734553E+03  0.41800000000E+01 0.  1.
        -11    1    4    4    0    0  0.15853877992E+02  0.26442537759E+02 -0.19784493814E+02  0.36633037630E+02  0.00000000000E+00 0.  1.
         11    1    4    4    0    0 -0.43255865563E+02 -0.17656424444E+02 -0.16647980841E+03  0.17291138146E+03  0.00000000000E+00 0. -1.
</event>
<event>
 8    1  0.3710605E-009  0.1015212E+03  0.7561462E-02  0.1277129E+00
         -2   -1    0    0    0  501 -0.00000000000E+00  0.00000000000E+00  0.30463263727E+02  0.30463263727E+02  0.00000000000E+00 0.  1.
          2   -1    0    0  501    0  0.00000000000E+00 -0.00000000000E+00 -0.42956733301E+03  0.42956733301E+03  0.00000000000E+00 0. -1.
         25    2    1    2    0    0 -0.16423626706E+01  0.19925680430E+01 -0.30377605923E+03  0.32853281028E+03  0.12508895071E+03 0.  0.
         23    2    1    2    0    0  0.16423626706E+01 -0.19925680430E+01 -0.95328010053E+02  0.13149778645E+03  0.90540436594E+02 0.  0.
          5    1    3    3  502    0  0.59507431994E+02  0.97465035593E+01 -0.11520604410E+03  0.13010009143E+03  0.41800000000E+01 0.  1.
         -5    1    3    3    0  502 -0.61149794665E+02 -0.77539355163E+01 -0.18857001513E+03  0.19843271885E+03  0.41800000000E+01 0.  1.
        -11    1    4    4    0    0  0.27892125756E+02  0.28976282761E+02 -0.77176453412E+02  0.87027585299E+02  0.00000000000E+00 0. -1.
         11    1    4    4    0    0 -0.26249763085E+02 -0.30968850803E+02 -0.18151556641E+02  0.44470201153E+02  0.00000000000E+00 0.  1.
</event>
<event>
 8    1  0.3710605E-009  0.2601405E+03  0.7561462E-02  0.1107059E+00
          1   -1    0    0  501    0  0.00000000000E+00  0.00000000000E+00  0.97623619731E+03  0.97623619731E+03  0.00000000000E+00 0. -1.
         -1   -1    0    0    0  501 -0.00000000000E+00 -0.00000000000E+00 -0.79656321759E+02  0.79656321759E+02  0.00000000000E+00 0.  1.
         25    2    1    2    0    0  0.24662429299E+03  0.60438227688E+02  0.40357328219E+03  0.49294501723E+03  0.12508826747E+03 0.  0.
         23    2    1    2    0    0 -0.24662429299E+03 -0.60438227688E+02  0.49300659337E+03  0.56294750184E+03  0.96840422712E+02 0.  0.
          5    1    3    3  502    0  0.18105200847E+03  0.79713309517E+02  0.21435622685E+03  0.29171922438E+03  0.41800000000E+01 0. -1.
         -5    1    3    3    0  502  0.65572284522E+02 -0.19275081829E+02  0.18921705534E+03  0.20122579285E+03  0.41800000000E+01 0. -1.
        -11    1    4    4    0    0 -0.67148287792E+02 -0.17820844960E+02  0.23987441256E+03  0.24973227439E+03  0.00000000000E+00 0.  1.
         11    1    4    4    0    0 -0.17947600520E+03 -0.42617382728E+02  0.25313218080E+03  0.31321522745E+03  0.00000000000E+00 0. -1.
</event>
<event>
 8    1  0.3710605E-009  0.1586192E+03  0.7561462E-02  0.1190265E+00
         -2   -1    0    0    0  501 -0.00000000000E+00  0.00000000000E+00  0.15361195101E+03  0.15361195101E+03  0.00000000000E+00 0.  1.
          2   -1    0    0  501    0  0.00000000000E+00 -0.00000000000E+00 -0.23110157843E+03  0.23110157843E+03  0.00000000000E+00 0. -1.
         25    2    1    2    0    0 -0.11534867389E+03  0.90259655130E+02 -0.88036019668E+02  0.21177636543E+03  0.12508703483E+03 0.  0.
         23    2    1    2    0    0  0.11534867389E+03 -0.90259655130E+02  0.10546392249E+02  0.17293716402E+03  0.91345029394E+02 0.  0.
          5    1    3    3  502    0 -0.39393676023E+02  0.38419573630E+02  0.29426142641E+02  0.62540351928E+02  0.41800000000E+01 0.  1.
         -5    1    3    3    0  502 -0.75954997872E+02  0.51840081500E+02 -0.11746216231E+03  0.14923601350E+03  0.41800000000E+01 0.  1.
        -11    1    4    4    0    0 -0.12448921745E+02 -0.21586042757E+02  0.12425565567E+02  0.27844704598E+02  0.00000000000E+00 0.  1.
         11    1    4    4    0    0  0.12779759564E+03 -0.68673612373E+02 -0.18791733185E+01  0.14509245942E+03  0.00000000000E+00 0. -1.
</event>
<event>
 8    1  0.3710605E-009  0.1598624E+03  0.7561462E-02  0.1188852E+00
          2   -1    0    0  501    0  0.00000000000E+00  0.00000000000E+00  0.37304400660E+03  0.37304400660E+03  0.00000000000E+00 0.  1.
         -2   -1    0    0    0  501 -0.00000000000E+00 -0.00000000000E+00 -0.12771346459E+03  0.12771346459E+03  0.00000000000E+00 0. -1.
         25    2    1    2    0    0 -0.10435130810E+03  0.59850421841E+02  0.29822961555E+03  0.34505071438E+03  0.12509126030E+03 0.  0.
         23    2    1    2    0    0  0.10435130810E+03 -0.59850421841E+02 -0.52899073538E+02  0.15570675682E+03  0.83516547108E+02 0.  0.
          5    1    3    3  502    0 -0.10724757926E+03 -0.59756602539E+01  0.18791274657E+03  0.21648654576E+03  0.41800000000E+01 0.  1.
         -5    1    3    3    0  502  0.28962711543E+01  0.65826082095E+02  0.11031686898E+03  0.12856416862E+03  0.41800000000E+01 0.  1.
        -11    1    4    4    0    0  0.61358161673E+02  0.11957815120E+02 -0.18238949523E+02  0.65118911431E+02  0.00000000000E+00 0. -1.
         11    1    4    4    0    0  0.42993146431E+02 -0.71808236962E+02 -0.34660124015E+02  0.90587845390E+02  0.00000000000E+00 0.  1.
</event>
<event>
 8    1  0.3710605E-009  0.1196476E+03  0.7561462E-02  0.1243680E+00
         -1   -1    0    0    0  501 -0.00000000000E+00  0.00000000000E+00  0.11816962895E+03  0.11816962895E+03  0.00000000000E+00 0.  1.
          1   -1    0    0  501    0  0.00000000000E+00 -0.00000000000E+00 -0.13300416431E+03  0.13300416431E+03  0.00000000000E+00 0. -1.
         25    2    1    2    0    0  0.55969783150E+02 -0.33739597558E+02 -0.35265711299E+02  0.14547287451E+03  0.12509080604E+03 0.  0.
         23    2    1    2    0    0 -0.55969783150E+02  0.33739597558E+02  0.20431175944E+02  0.10570091876E+03  0.80524991189E+02 0.  0.
          5    1    3    3  502    0  0.80691685369E+02 -0.62924362632E+02 -0.29435872796E+02  0.10655780829E+03  0.41800000000E+01 0.  1.
         -5    1    3    3    0  502 -0.24721902219E+02  0.29184765073E+02 -0.58298385031E+01  0.38915066217E+02  0.41800000000E+01 0.  1.
        -11    1    4    4    0    0 -0.73932543700E+02  0.22766046972E+02  0.14726020548E+01  0.77372362440E+02  0.00000000000E+00 0. -1.
         11    1    4    4    0    0  0.17962760550E+02  0.10973550587E+02  0.18958573889E+02  0.28328556316E+02  0.00000000000E+00 0.  1.
</event>
<event>
 8    1  0.3710605E-009  0.9953981E+02  0.7561462E-02  0.1281267E+00
         -2   -1    0    0    0  501 -0.00000000000E+00  0.00000000000E+00  0.12032520391E+02  0.12032520391E+02  0.00000000000E+00 0.  1.
          2   -1    0    0  501    0  0.00000000000E+00 -0.00000000000E+00 -0.12208094587E+04  0.12208094587E+04  0.00000000000E+00 0. -1.
         25    2    1    2    0    0 -0.21515818078E+02 -0.34444304967E+00 -0.93676419811E+03  0.94532417797E+03  0.12509032544E+03 0.  0.
         23    2    1    2    0    0  0.21515818078E+02  0.34444304967E+00 -0.27201274018E+03  0.28751780111E+03  0.90622878255E+02 0.  0.
          5    1    3    3  502    0 -0.55582335529E+02  0.27352970647E+02 -0.78019774143E+03  0.78266440391E+03  0.41800000000E+01 0.  1.
         -5    1    3    3    0  502  0.34066517451E+02 -0.27697413697E+02 -0.15656645669E+03  0.16265977406E+03  0.41800000000E+01 0.  1.
        -11    1    4    4    0    0  0.31984177295E+02 -0.39994946402E+02 -0.16048565929E+03  0.16845839300E+03  0.00000000000E+00 0.  1.
         11    1    4    4    0    0 -0.10468359217E+02  0.40339389451E+02 -0.11152708089E+03  0.11905940810E+03  0.00000000000E+00 0. -1.
</event>
<event>
 8    1  0.3710605E-009  0.1981640E+03  0.7561462E-02  0.1151297E+00
          1   -1    0    0  501    0  0.00000000000E+00  0.00000000000E+00  0.11408440106E+04  0.11408440106E+04  0.00000000000E+00 0. -1.
         -1   -1    0    0    0  501 -0.00000000000E+00 -0.00000000000E+00 -0.36208685618E+02  0.36208685618E+02  0.00000000000E+00 0.  1.
         25    2    1    2    0    0  0.10636444276E+03  0.13148336672E+03  0.48369254424E+03  0.52744923192E+03  0.12507175734E+03 0.  0.
         23    2    1    2    0    0 -0.10636444276E+03 -0.13148336672E+03  0.62094278069E+03  0.64960346426E+03  0.88393741115E+02 0.  0.
          5    1    3    3  502    0  0.12651848599E+03  0.78683777612E+02  0.39513496609E+03  0.42231170714E+03  0.41800000000E+01 0.  1.
         -5    1    3    3    0  502 -0.20154043230E+02  0.52799589111E+02  0.88557578153E+02  0.10513752478E+03  0.41800000000E+01 0.  1.
        -11    1    4    4    0    0 -0.11466888877E+03 -0.83339629034E+02  0.47496746631E+03  0.49566979116E+03  0.00000000000E+00 0.  1.
         11    1    4    4    0    0  0.83044460076E+01 -0.48143737690E+02  0.14597531439E+03  0.15393367309E+03  0.00000000000E+00 0. -1.
</event>
<event>
 8    1  0.3710605E-009  0.7460827E+02  0.7561462E-02  0.1345088E+00
          2   -1    0    0  501    0  0.00000000000E+00  0.00000000000E+00  0.74885941524E+03  0.74885941524E+03  0.00000000000E+00 0. -1.
         -2   -1    0    0    0  501 -0.00000000000E+00 -0.00000000000E+00 -0.17233292941E+02  0.17233292941E+02  0.00000000000E+00 0.  1.
         25    2    1    2    0    0 -0.57859948560E+01  0.77288431690E+01  0.53878024035E+03  0.55319544692E+03  0.12509133604E+03 0.  0.
         23    2    1    2    0    0  0.57859948560E+01 -0.77288431690E+01  0.19284588195E+03  0.21289726126E+03  0.89679969409E+02 0.  0.
          5    1    3    3  502    0  0.27338086713E+02  0.13590744008E+02  0.50287064173E+03  0.50381388828E+03  0.41800000000E+01 0. -1.
         -5    1    3    3    0  502 -0.33124081569E+02 -0.58619008391E+01  0.35909598624E+02  0.49381558649E+02  0.41800000000E+01 0. -1.
        -11    1    4    4    0    0  0.38789285714E+02  0.17898256922E+02  0.60139344967E+02  0.73767859533E+02  0.00000000000E+00 0.  1.
         11    1    4    4    0    0 -0.33003290858E+02 -0.25627100091E+02  0.13270653698E+03  0.13912940172E+03  0.00000000000E+00 0. -1.
</event>
<event>
 8    1  0.3710605E-009  0.1690992E+03  0.7561462E-02  0.1178790E+00
          2   -1    0    0  501    0  0.00000000000E+00  0.00000000000E+00  0.51596008696E+03  0.51596008696E+03  0.00000000000E+00 0. -1.
         -2   -1    0    0    0  501 -0.00000000000E+00 -0.00000000000E+00 -0.99222513317E+02  0.99222513317E+02  0.00000000000E+00 0.  1.
         25    2    1    2    0    0 -0.12213787379E+03  0.77209138447E+02  0.40075324324E+03  0.44399332994E+03  0.12509198132E+03 0.  0.
         23    2    1    2    0    0  0.12213787379E+03 -0.77209138447E+02  0.15984330403E+02  0.17118927034E+03  0.90395554016E+02 0.  0.
          5    1    3    3  502    0 -0.10474764999E+03  0.16335160099E+02  0.14015940562E+03  0.17578691367E+03  0.41800000000E+01 0. -1.
         -5    1    3    3    0  502 -0.17390223801E+02  0.60873978348E+02  0.26059383763E+03  0.26820641628E+03  0.41800000000E+01 0. -1.
        -11    1    4    4    0    0  0.52558067195E+02 -0.83636048346E+02  0.21513517083E+02  0.10109485856E+03  0.00000000000E+00 0. -1.
         11    1    4    4    0    0  0.69579806594E+02  0.64269098991E+01 -0.55291866799E+01  0.70094411774E+02  0.00000000000E+00 0.  1.
</event>
<event>
 8    1  0.3710605E-009  0.1744060E+03  0.7561462E-02  0.1173329E+00
         -2   -1    0    0    0  501 -0.00000000000E+00  0.00000000000E+00  0.37806137325E+02  0.37806137325E+02  0.00000000000E+00 0. -1.
          2   -1    0    0  501    0  0.00000000000E+00 -0.00000000000E+00 -0.10565476476E+04  0.10565476476E+04  0.00000000000E+00 0.  1.
         25    2    1    2    0    0  0.14267555851E+03 -0.36507707737E+01 -0.77491963665E+03  0.79782060348E+03  0.12509048300E+03 0.  0.
         23    2    1    2    0    0 -0.14267555851E+03  0.36507707737E+01 -0.24382187361E+03  0.29653318144E+03  0.90073184243E+02 0.  0.
          5    1    3    3  502    0  0.16069829336E+03  0.45485616719E+01 -0.74160528004E+03  0.75884154781E+03  0.41800000000E+01 0. -1.
         -5    1    3    3    0  502 -0.18022734847E+02 -0.81993324455E+01 -0.33314356609E+02  0.38979055660E+02  0.41800000000E+01 0. -1.
        -11    1    4    4    0    0 -0.65323071083E+01 -0.27359202902E+02 -0.54007585183E+02  0.60893483041E+02  0.00000000000E+00 0.  1.
         11    1    4    4    0    0 -0.13614325140E+03  0.31009973676E+02 -0.18981428842E+03  0.23563969839E+03  0.00000000000E+00 0. -1.
</event>
<event>
 8    1  0.3710605E-009  0.6834074E+02  0.7561462E-02  0.1365828E+00
          2   -1    0    0  501    0  0.00000000000E+00  0.00000000000E+00  0.24993806710E+03  0.24993806710E+03  0.00000000000E+00 0. -1.
         -2   -1    0    0    0  501 -0.00000000000E+00 -0.00000000000E+00 -0.58691421026E+02  0.58691421026E+02  0.00000000000E+00 0.  1.
         25    2    1    2    0    0 -0.93081874055E+01 -0.43573382567E+02  0.14885568148E+03  0.19946749578E+03  0.12507592072E+03 0.  0.
         23    2    1    2    0    0  0.93081874055E+01  0.43573382567E+02  0.42390964594E+02  0.10916199234E+03  0.90189049622E+02 0.  0.
          5    1    3    3  502    0  0.34228856466E+01 -0.32891274097E+02 -0.13680623767E+02  0.36030319518E+02  0.41800000000E+01 0.  1.
         -5    1    3    3    0  502 -0.12731073052E+02 -0.10682108470E+02  0.16253630525E+03  0.16343717626E+03  0.41800000000E+01 0.  1.
        -11    1    4    4    0    0  0.35792147302E+02  0.67568858802E+00 -0.92691125649E+01  0.36979059092E+02  0.00000000000E+00 0.  1.
         11    1    4    4    0    0 -0.26483959897E+02  0.42897693979E+02  0.51660077159E+02  0.72182933250E+02  0.00000000000E+00 0. -1.
</event>
<event>
 8    1  0.3710605E-009  0.1306128E+03  0.7561462E-02  0.1226549E+00
          1   -1    0    0  501    0  0.00000000000E+00  0.00000000000E+00  0.95753146556E+02  0.95753146556E+02  0.00000000000E+00 0. -1.
         -1   -1    0    0    0  501 -0.00000000000E+00 -0.00000000000E+00 -0.24278575669E+03  0.24278575669E+03  0.00000000000E+00 0.  1.
         25    2    1    2    0    0  0.45129011590E+02 -0.74929837503E+02 -0.14800453462E+03  0.21261242175E+03  0.12509033288E+03 0.  0.
         23    2    1    2    0    0 -0.45129011590E+02  0.74929837503E+02  0.97192448715E+00  0.12592648149E+03  0.90583805774E+02 0.  0.
          5    1    3    3  502    0 -0.26693785130E+02  0.64366855028E+01  0.15054425615E+01  0.27815963800E+02  0.41800000000E+01 0.  1.
         -5    1    3    3    0  502  0.71822796720E+02 -0.81366523006E+02 -0.14950997718E+03  0.18479645795E+03  0.41800000000E+01 0.  1.
        -11    1    4    4    0    0  0.23200243915E+02  0.44196671133E+02 -0.76897249596E+01  0.50504741628E+02  0.00000000000E+00 0. -1.
         11    1    4    4    0    0 -0.68329255506E+02  0.30733166370E+02  0.86616494467E+01  0.75421739865E+02  0.00000000000E+00 0.  1.
</event>
<event>
 8    1  0.3710605E-009  0.9607223E+02  0.7561462E-02  0.1288779E+00
         -1   -1    0    0    0  501 -0.00000000000E+00  0.00000000000E+00  0.11724694909E+03  0.11724694909E+03  0.00000000000E+00 0.  1.
          1   -1    0    0  501    0  0.00000000000E+00 -0.00000000000E+00 -0.23313555580E+03  0.23313555580E+03  0.00000000000E+00 0. -1.
         25    2    1    2    0    0 -0.29603229291E+02  0.58014836970E+02 -0.17372577886E+03  0.22376203571E+03  0.12508688938E+03 0.  0.
         23    2    1    2    0    0  0.29603229291E+02 -0.58014836970E+02  0.57837172145E+02  0.12662046918E+03  0.91899576931E+02 0.  0.
          5    1    3    3  502    0  0.15866086251E+02 -0.18379933263E+02  0.40345729551E+01  0.24966073352E+02  0.41800000000E+01 0.  1.
         -5    1    3    3    0  502 -0.45469315542E+02  0.76394770233E+02 -0.17776035181E+03  0.19879596236E+03  0.41800000000E+01 0.  1.
        -11    1    4    4    0    0  0.40754846454E+02 -0.38693012617E+02  0.78278912040E+02  0.96362310086E+02  0.00000000000E+00 0.  1.
         11    1    4    4    0    0 -0.11151617163E+02 -0.19321824353E+02 -0.20441739896E+02  0.30258159092E+02  0.00000000000E+00 0. -1.
</event>
<event>
 8    1  0.3710605E-009  0.1009785E+03  0.7561462E-02  0.1278252E+00
          2   -1    0    0  501    0  0.00000000000E+00  0.00000000000E+00  0.37156757078E+02  0.37156757078E+02  0.00000000000E+00 0. -1.
         -2   -1    0    0    0  501 -0.00000000000E+00 -0.00000000000E+00 -0.67333880871E+03  0.67333880871E+03  0.00000000000E+00 0.  1.
         25    2    1    2    0    0 -0.38907020414E+02  0.14213587236E+02 -0.58946153221E+03  0.60400989058E+03  0.12508903895E+03 0.  0.
         23    2    1    2    0    0  0.38907020414E+02 -0.14213587236E+02 -0.46720519421E+02  0.10648567521E+03  0.86258969327E+02 0.  0.
          5    1    3    3  502    0 -0.69985284066E+02 -0.30907441510E+02 -0.32668726222E+03  0.33555215634E+03  0.41800000000E+01 0.  1.
         -5    1    3    3    0  502  0.31078263651E+02  0.45121028745E+02 -0.26277426999E+03  0.26845773425E+03  0.41800000000E+01 0.  1.
        -11    1    4    4    0    0  0.52300557918E+02 -0.21200457904E+01  0.41514906457E+01  0.52507883478E+02  0.00000000000E+00 0. -1.
         11    1    4    4    0    0 -0.13393537504E+02 -0.12093541445E+02 -0.50872010067E+02  0.53977791728E+02  0.00000000000E+00 0.  1.
</event>
<event>
 8    1  0.3710605E-009  0.1274928E+03  0.7561462E-02  0.1231224E+00
          2   -1    0    0  501    0  0.00000000000E+00  0.00000000000E+00  0.14595549474E+04  0.14595549474E+04  0.00000000000E+00 0. -1.
         -2   -1    0    0    0  501 -0.00000000000E+00 -0.00000000000E+00 -0.17482018834E+02  0.17482018834E+02  0.00000000000E+00 0.  1.
         25    2    1    2    0    0  0.38263807291E+02  0.79314439451E+02  0.11281120100E+04  0.11384373392E+04  0.12509184235E+03 0.  0.
         23    2    1    2    0    0 -0.38263807291E+02 -0.79314439451E+02  0.31396091857E+03  0.33859962699E+03  0.91232394232E+02 0.  0.
          5    1    3    3  502    0 -0.29176487292E+02  0.41738601795E+02  0.78771064618E+03  0.78936614621E+03  0.41800000000E+01 0. -1.
         -5    1    3    3    0  502  0.67440294583E+02  0.37575837656E+02  0.34040136381E+03  0.34907119302E+03  0.41800000000E+01 0. -1.
        -11    1    4    4    0    0 -0.62926639284E+02 -0.80145514678E+02  0.24439869388E+03  0.26479008106E+03  0.00000000000E+00 0. -1.
         11    1    4    4    0    0  0.24662831993E+02  0.83107522751E+00  0.69562224688E+02  0.73809545938E+02  0.00000000000E+00 0.  1.
</event>
<event>
 8    1  0.3710605E-009  0.1290046E+03  0.7561462E-02  0.1228940E+00
         -2   -1    0    0    0  501 -0.00000000000E+00  0.00000000000E+00  0.18116956898E+03  0.18116956898E+03  0.00000000000E+00 0.  1.
          2   -1    0    0  501    0  0.00000000000E+00 -0.00000000000E+00 -0.24848367255E+03  0.24848367255E+03  0.00000000000E+00 0. -1.
         25    2    1    2    0    0 -0.11998414932E+03  0.77665288746E+00 -0.17337340588E+03  0.24516081792E+03  0.12509472212E+03 0.  0.
         23    2    1    2    0    0  0.11998414932E+03 -0.77665288746E+00  0.10605930231E+03  0.18449242361E+03  0.91608293759E+02 0.  0.
          5    1    3    3  502    0 -0.12408309881E+03 -0.80804095651E+01 -0.73048415464E+02  0.14427561066E+03  0.41800000000E+01 0.  1.
         -5    1    3    3    0  502  0.40989494988E+01  0.88570624526E+01 -0.10032499041E+03  0.10088520726E+03  0.41800000000E+01 0.  1.
        -11    1    4    4    0    0  0.19296389453E+02  0.99639982705E+01  0.75739526967E+02  0.78791546835E+02  0.00000000000E+00 0.  1.
         11    1    4    4    0    0  0.10068775986E+03 -0.10740651158E+02  0.30319775340E+02  0.10570087677E+03  0.00000000000E+00 0. -1.
</event>
<event>
 8    1  0.3710605E-009  0.9132596E+02  0.7561462E-02  0.1299672E+00
         -2   -1    0    0    0  501 -0.00000000000E+00  0.00000000000E+00  0.59882804380E+02  0.59882804380E+02  0.00000000000E+00 0.  1.
          2   -1    0    0  501    0  0.00000000000E+00 -0.00000000000E+00 -0.27943514651E+03  0.27943514651E+03  0.00000000000E+00 0. -1.
         25    2    1    2    0    0 -0.27428821114E+01 -0.64049782409E+02 -0.73274928945E+02  0.15851417668E+03  0.12509049111E+03 0.  0.
         23    2    1    2    0    0  0.27428821114E+01  0.64049782409E+02 -0.14627741318E+03  0.18080377421E+03  0.84752729349E+02 0.  0.
          5    1    3    3  502    0 -0.38700880006E+02 -0.71625290935E+02 -0.86852246578E+02  0.11911643694E+03  0.41800000000E+01 0.  1.
         -5    1    3    3    0  502  0.35957997894E+02  0.75755085257E+01  0.13577317633E+02  0.39397739733E+02  0.41800000000E+01 0.  1.
        -11    1    4    4    0    0  0.20628954554E+01  0.22877211935E+02  0.54333626960E+01  0.23603893615E+02  0.00000000000E+00 0.  1.
         11    1    4    4    0    0  0.67998665602E+00  0.41172570474E+02 -0.15171077588E+03  0.15719988060E+03  0.00000000000E+00 0. -1.
</event>
<event>
 8    1  0.3710605E-009  0.1969997E+03  0.7561462E-02  0.1152295E+00
         -1   -1    0    0    0  501 -0.00000000000E+00  0.00000000000E+00  0.11098501537E+04  0.11098501537E+04  0.00000000000E+00 0.  1.
          1   -1    0    0  501    0  0.00000000000E+00 -0.00000000000E+00 -0.41189661554E+02  0.41189661554E+02  0.00000000000E+00 0. -1.
         25    2    1    2    0    0  0.15795500384E+03  0.90782655624E+02  0.62928640446E+03  0.66696374077E+03  0.12509188169E+03 0.  0.
         23    2    1    2    0    0 -0.15795500384E+03 -0.90782655624E+02  0.43937408774E+03  0.48407607453E+03  0.89937662635E+02 0.  0.
          5    1    3    3  502    0  0.12498628914E+03  0.19862998245E+02  0.25666144753E+03  0.28619692909E+03  0.41800000000E+01 0.  1.
         -5    1    3    3    0  502  0.32968714702E+02  0.70919657379E+02  0.37262495692E+03  0.38076681167E+03  0.41800000000E+01 0.  1.
        -11    1    4    4    0    0 -0.11458647882E+03 -0.37959821027E+02  0.18671604016E+03  0.22233733108E+03  0.00000000000E+00 0.  1.
         11    1    4    4    0    0 -0.43368525025E+02 -0.52822834597E+02  0.25265804758E+03  0.26173874345E+03  0.00000000000E+00 0. -1.
</event>
<event>
 8    1  0.3710605E-009  0.5480307E+03  0.7561462E-02  0.1001951E+00
         -1   -1    0    0    0  501 -0.00000000000E+00  0.00000000000E+00  0.17990484018E+03  0.17990484018E+03  0.00000000000E+00 0.  1.
          1   -1    0    0  501    0  0.00000000000E+00 -0.00000000000E+00 -0.20946467561E+04  0.20946467561E+04  0.00000000000E+00 0. -1.
         25    2    1    2    0    0  0.53407377019E+03  0.68125759926E+02 -0.14686767204E+04  0.15692462406E+04  0.12508614398E+03 0.  0.
         23    2    1    2    0    0 -0.53407377019E+03 -0.68125759926E+02 -0.44606519555E+03  0.70530535571E+03  0.92766238159E+02 0.  0.
          5    1    3    3  502    0  0.21556073436E+03 -0.32380671313E+02 -0.54179099604E+03  0.58401189531E+03  0.41800000000E+01 0.  1.
         -5    1    3    3    0  502  0.31851303583E+03  0.10050643124E+03 -0.92688572437E+03  0.98523434530E+03  0.41800000000E+01 0.  1.
        -11    1    4    4    0    0 -0.46220816653E+03 -0.31291038871E+02 -0.40167020076E+03  0.61315126070E+03  0.00000000000E+00 0. -1.
         11    1    4    4    0    0 -0.71865603656E+02 -0.36834721054E+02 -0.44394994790E+02  0.92154095006E+02  0.00000000000E+00 0.  1.
</event>
<event>
 8    1  0.3710605E-009  0.2070840E+03  0.7561462E-02  0.1143896E+00
          1   -1    0    0  501    0  0.00000000000E+00  0.00000000000E+00  0.34486980005E+03  0.34486980005E+03  0.00000000000E+00 0. -1.
         -1   -1    0    0    0  501 -0.00000000000E+00 -0.00000000000E+00 -0.24823665963E+03  0.24823665963E+03  0.00000000000E+00 0.  1.
         25    2    1    2    0    0 -0.98402257626E+02 -0.16248671085E+03  0.24556301431E+03  0.33471559734E+03  0.12509357137E+03 0.  0.
         23    2    1    2    0    0  0.98402257626E+02  0.16248671085E+03 -0.14892987389E+03  0.25839086233E+03  0.92199755376E+02 0.  0.
          5    1    3    3  502    0 -0.11699209556E+03 -0.85739347874E+02  0.18495580849E+03  0.23508404814E+03  0.41800000000E+01 0. -1.
         -5    1    3    3    0  502  0.18589837938E+02 -0.76747362973E+02  0.60607205829E+02  0.99631549201E+02  0.41800000000E+01 0. -1.
        -11    1    4    4    0    0  0.66940279457E+02  0.11322445525E+03 -0.15055168929E+03  0.19991645612E+03  0.00000000000E+00 0.  1.
         11    1    4    4    0    0  0.31461978169E+02  0.49262255596E+02  0.16218153935E+01  0.58474406212E+02  0.00000000000E+00 0. -1.
</event>
<event>
 8    1  0.3710605E-009  0.6704209E+02  0.7561462E-02  0.1370451E+00
         -2   -1    0    0    0  501 -0.00000000000E+00  0.00000000000E+00  0.48755320897E+02  0.48755320897E+02  0.00000000000E+00 0.  1.
          2   -1    0    0  501    0  0.00000000000E+00 -0.00000000000E+00 -0.30224514839E+03  0.30224514839E+03  0.00000000000E+00 0. -1.
         25    2    1    2    0    0  0.56922496032E+01 -0.10344526547E+02 -0.66394064298E+02  0.14210687030E+03  0.12508708918E+03 0.  0.
         23    2    1    2    0    0 -0.56922496032E+01  0.10344526547E+02 -0.18709576320E+03  0.20889359899E+03  0.92153676844E+02 0.  0.
          5    1    3    3  502    0  0.20963267136E+02  0.15116591327E+02  0.30782305326E+02  0.40410303433E+02  0.41800000000E+01 0.  1.
         -5    1    3    3    0  502 -0.15271017533E+02 -0.25461117874E+02 -0.97176369625E+02  0.10169656687E+03  0.41800000000E+01 0.  1.
        -11    1    4    4    0    0 -0.39297134032E+02  0.18357926744E+02 -0.44377499439E+02  0.62053530713E+02  0.00000000000E+00 0.  1.
         11    1    4    4    0    0  0.33604884429E+02 -0.80134001965E+01 -0.14271826376E+03  0.14684006827E+03  0.00000000000E+00 0. -1.
</event>
<event>
 8    1  0.3710605E-009  0.1348346E+03  0.7561462E-02  0.1220453E+00
          4   -1    0    0  501    0  0.00000000000E+00  0.00000000000E+00  0.26242852784E+03  0.26242852784E+03  0.00000000000E+00 0. -1.
         -4   -1    0    0    0  501 -0.00000000000E+00 -0.00000000000E+00 -0.11936352899E+03  0.11936352899E+03  0.00000000000E+00 0.  1.
         25    2    1    2    0    0  0.10125807027E+03  0.83974340980E+02  0.26418222335E+02  0.18344136882E+03  0.12509167273E+03 0.  0.
         23    2    1    2    0    0 -0.10125807027E+03 -0.83974340980E+02  0.11664677652E+03  0.19835068801E+03  0.91823952351E+02 0.  0.
          5    1    3    3  502    0  0.99894456872E+02  0.79509262851E+02 -0.26241759840E+02  0.13040984530E+03  0.41800000000E+01 0.  1.
         -5    1    3    3    0  502  0.13636133963E+01  0.44650781293E+01  0.52659982175E+02  0.53031523520E+02  0.41800000000E+01 0.  1.
        -11    1    4    4    0    0 -0.77078295286E+02 -0.80117529162E+02  0.40431377873E+02  0.11829868300E+03  0.00000000000E+00 0.  1.
         11    1    4    4    0    0 -0.24179774982E+02 -0.38568118174E+01  0.76215398643E+02  0.80052005009E+02  0.00000000000E+00 0. -1.
</event>
<event>
 8    1  0.3710605E-009  0.1081929E+03  0.7561462E-02  0.1263953E+00
         -3   -1    0    0    0  501 -0.00000000000E+00  0.00000000000E+00  0.54424621690E+02  0.54424621690E+02  0.00000000000E+00 0.  1.
          3   -1    0    0  501    0  0.00000000000E+00 -0.00000000000E+00 -0.33779627355E+03  0.33779627355E+03  0.00000000000E+00 0. -1.
         25    2    1    2    0    0 -0.78221570566E+02  0.48490011112E+01 -0.17165269784E+03  0.22639381260E+03  0.12508949914E+03 0.  0.
         23    2    1    2    0    0  0.78221570566E+02 -0.48490011112E+01 -0.11171895402E+03  0.16582708264E+03  0.94209180740E+02 0.  0.
          5    1    3    3  502    0 -0.10612288427E+03  0.12226981057E+02 -0.90189595798E+02  0.13986851405E+03  0.41800000000E+01 0. -1.
         -5    1    3    3    0  502  0.27901313708E+02 -0.73779799458E+01 -0.81463102046E+02  0.86525298553E+02  0.41800000000E+01 0. -1.
        -11    1    4    4    0    0  0.34577210899E+02 -0.10902749841E+02 -0.11602248294E+03  0.12155521385E+03  0.00000000000E+00 0. -1.
         11    1    4    4    0    0  0.43644359667E+02  0.60537487300E+01  0.43035289219E+01  0.44271868784E+02  0.00000000000E+00 0.  1.
</event>
<event>
 8    1  0.3710605E-009  0.9443555E+02  0.7561462E-02  0.1292452E+00
          1   -1    0    0  501    0  0.00000000000E+00  0.00000000000E+00  0.16824892979E+03  0.16824892979E+03  0.00000000000E+00 0. -1.
         -1   -1    0    0    0  501 -0.00000000000E+00 -0.00000000000E+00 -0.72633529677E+02  0.72633529677E+02  0.00000000000E+00 0.  1.
         25    2    1    2    0    0 -0.19734483082E+01 -0.17514046142E+02  0.65221977793E+02  0.14216926323E+03  0.12509019430E+03 0.  0.
         23    2    1    2    0    0  0.19734483082E+01  0.17514046142E+02  0.30393422322E+02  0.98713196241E+02  0.92249112089E+02 0.  0.
          5    1    3    3  502    0 -0.20715397492E+02 -0.66391828661E+02  0.54771588175E+02  0.88625063483E+02  0.41800000000E+01 0.  1.
         -5    1    3    3    0  502  0.18741949184E+02  0.48877782518E+02  0.10450389617E+02  0.53544199744E+02  0.41800000000E+01 0.  1.
        -11    1    4    4    0    0  0.16169469207E+02 -0.20497034391E+02  0.47876060477E+02  0.54531617618E+02  0.00000000000E+00 0. -1.
         11    1    4    4    0    0 -0.14196020899E+02  0.38011080534E+02 -0.17482638155E+02  0.44181578622E+02  0.00000000000E+00 0.  1.
</event>
<event>
 8    1  0.3710605E-009  0.1198951E+03  0.7561462E-02  0.1243270E+00
         -2   -1    0    0    0  501 -0.00000000000E+00  0.00000000000E+00  0.17156726702E+02  0.17156726702E+02  0.00000000000E+00 0.  1.
          2   -1    0    0  501    0  0.00000000000E+00 -0.00000000000E+00 -0.91411586637E+03  0.91411586637E+03  0.00000000000E+00 0. -1.
         25    2    1    2    0    0  0.32689753841E+02 -0.50329347650E+02 -0.56548774029E+03  0.58225837801E+03  0.12508705408E+03 0.  0.
         23    2    1    2    0    0 -0.32689753841E+02  0.50329347650E+02 -0.33147139938E+03  0.34901421506E+03  0.91301535981E+02 0.  0.
          5    1    3    3  502    0  0.60146397907E+02 -0.74318437316E+02 -0.31874073954E+03  0.33279716157E+03  0.41800000000E+01 0. -1.
         -5    1    3    3    0  502 -0.27456644067E+02  0.23989089666E+02 -0.24674700076E+03  0.24946121644E+03  0.41800000000E+01 0. -1.
        -11    1    4    4    0    0 -0.52516301244E+02  0.64386591938E+02 -0.22630125862E+03  0.24107230195E+03  0.00000000000E+00 0.  1.
         11    1    4    4    0    0  0.19826547403E+02 -0.14057244288E+02 -0.10517014076E+03  0.10794191311E+03  0.00000000000E+00 0. -1.
</event>
<event>
 8    1  0.3710605E-009  0.2196300E+03  0.7561462E-02  0.1134159E+00
          2   -1    0    0  501    0  0.00000000000E+00  0.00000000000E+00  0.12802450044E+04  0.12802450044E+04  0.00000000000E+00 0. -1.
         -2   -1    0    0    0  501 -0.00000000000E+00 -0.00000000000E+00 -0.64815456549E+02  0.64815456549E+02  0.00000000000E+00 0.  1.
         25    2    1    2    0    0 -0.33793844305E+02 -0.20245040016E+03  0.22442658577E+03  0.32885185092E+03  0.12509220206E+03 0.  0.
         23    2    1    2    0    0  0.33793844305E+02  0.20245040016E+03  0.99100296207E+03  0.10162086100E+04  0.92004781390E+02 0.  0.
          5    1    3    3  502    0  0.22374926231E+02 -0.12238319508E+03  0.18572988112E+03  0.22358744353E+03  0.41800000000E+01 0.  1.
         -5    1    3    3    0  502 -0.56168770537E+02 -0.80067205080E+02  0.38696704646E+02  0.10526440739E+03  0.41800000000E+01 0.  1.
        -11    1    4    4    0    0  0.49935323086E+02  0.87009508958E+02  0.32667665202E+03  0.34173356012E+03  0.00000000000E+00 0.  1.
         11    1    4    4    0    0 -0.16141478781E+02  0.11544089120E+03  0.66432631005E+03  0.67447504989E+03  0.00000000000E+00 0. -1.
</event>
<event>
 8    1  0.3710605E-009  0.7484033E+02  0.7561462E-02  0.1344366E+00
          1   -1    0    0  501    0  0.00000000000E+00  0.00000000000E+00  0.16186381349E+03  0.16186381349E+03  0.00000000000E+00 0. -1.
         -1   -1    0    0    0  501 -0.00000000000E+00 -0.00000000000E+00 -0.91173648766E+02  0.91173648766E+02  0.00000000000E+00 0.  1.
         25    2    1    2    0    0 -0.10248432196E+02 -0.48265556128E+02  0.65314507677E+02  0.14949644733E+03  0.12509439868E+03 0.  0.
         23    2    1    2    0    0  0.10248432196E+02  0.48265556128E+02  0.53756570426E+01  0.10354101492E+03  0.90869410755E+02 0.  0.
          5    1    3    3  502    0 -0.35808492553E+02 -0.15862768093E+02  0.92065616828E+02  0.10013703487E+03  0.41800000000E+01 0.  1.
         -5    1    3    3    0  502  0.25560060357E+02 -0.32402788035E+02 -0.26751109151E+02  0.49359412463E+02  0.41800000000E+01 0.  1.
        -11    1    4    4    0    0 -0.19372356188E+02  0.20656317692E+02 -0.35896209358E+02  0.45722089750E+02  0.00000000000E+00 0.  1.
         11    1    4    4    0    0  0.29620788384E+02  0.27609238436E+02  0.41271866400E+02  0.57818925169E+02  0.00000000000E+00 0. -1.
</event>
<event>
 8    1  0.3710605E-009  0.9924596E+02  0.7561462E-02  0.1281890E+00
         -2   -1    0    0    0  501 -0.00000000000E+00  0.00000000000E+00  0.15602341830E+02  0.15602341830E+02  0.00000000000E+00 0.  1.
          2   -1    0    0  501    0  0.00000000000E+00 -0.00000000000E+00 -0.10277685006E+04  0.10277685006E+04  0.00000000000E+00 0. -1.
         25    2    1    2    0    0  0.76552803671E+00 -0.52556853743E+02 -0.72446737984E+03  0.73706368847E+03  0.12508831880E+03 0.  0.
         23    2    1    2    0    0 -0.76552803671E+00  0.52556853743E+02 -0.28769877890E+03  0.30630715393E+03  0.91053150738E+02 0.  0.
          5    1    3    3  502    0  0.12667681082E+02 -0.80927047933E+02 -0.66442905573E+03  0.66947225464E+03  0.41800000000E+01 0. -1.
         -5    1    3    3    0  502 -0.11902153046E+02  0.28370194190E+02 -0.60038324108E+02  0.67591433830E+02  0.41800000000E+01 0. -1.
        -11    1    4    4    0    0 -0.29086132997E+02  0.48861988569E+02 -0.26129726532E+03  0.26741308480E+03  0.00000000000E+00 0. -1.
         11    1    4    4    0    0  0.28320604960E+02  0.36948651743E+01 -0.26401513580E+02  0.38894069127E+02  0.00000000000E+00 0.  1.
</event>
<event>
 8    1  0.3710605E-009  0.1261081E+03  0.7561462E-02  0.1233348E+00
          1   -1    0    0  501    0  0.00000000000E+00  0.00000000000E+00  0.11071392513E+03  0.11071392513E+03  0.00000000000E+00 0. -1.
         -1   -1    0    0    0  501 -0.00000000000E+00 -0.00000000000E+00 -0.18940631913E+03  0.18940631913E+03  0.00000000000E+00 0.  1.
         25    2    1    2    0    0 -0.55050562773E+02  0.58151320701E+02  0.11335986917E+02  0.14895182025E+03  0.12508397017E+03 0.  0.
         23    2    1    2    0    0  0.55050562773E+02 -0.58151320701E+02 -0.90028380915E+02  0.15116842401E+03  0.91294263164E+02 0.  0.
          5    1    3    3  502    0 -0.69159849958E+02 -0.11657159854E+02 -0.16835079057E+02  0.72248643648E+02  0.41800000000E+01 0.  1.
         -5    1    3    3    0  502  0.14109287185E+02  0.69808480555E+02  0.28171065974E+02  0.76703176599E+02  0.41800000000E+01 0.  1.
        -11    1    4    4    0    0  0.31891681362E+02  0.14005496795E+02 -0.60552115719E+02  0.69855508005E+02  0.00000000000E+00 0.  1.
         11    1    4    4    0    0  0.23158881411E+02 -0.72156817496E+02 -0.29476265196E+02  0.81312916005E+02  0.00000000000E+00 0. -1.
</event>
<event>
 8    1  0.3710605E-009  0.2516375E+03  0.7561462E-02  0.1112274E+00
         -2   -1    0    0    0  501 -0.00000000000E+00  0.00000000000E+00  0.26956373865E+03  0.26956373865E+03  0.00000000000E+00 0.  1.
          2   -1    0    0  501    0  0.00000000000E+00 -0.00000000000E+00 -0.40600188965E+03  0.40600188965E+03  0.00000000000E+00 0. -1.
         25    2    1    2    0    0 -0.15486105058E+02  0.23860222875E+03 -0.27446165002E+03  0.38490051016E+03  0.12509341458E+03 0.  0.
         23    2    1    2    0    0  0.15486105058E+02 -0.23860222875E+03  0.13802349903E+03  0.29066511814E+03  0.90911394253E+02 0.  0.
          5    1    3    3  502    0  0.21858809576E+01 -0.10568717482E+02 -0.42285810990E+02  0.43841054685E+02  0.41800000000E+01 0.  1.
         -5    1    3    3    0  502 -0.17671986016E+02  0.24917094623E+03 -0.23217583903E+03  0.34105945547E+03  0.41800000000E+01 0.  1.
        -11    1    4    4    0    0 -0.10205546928E+02 -0.29939347436E+02  0.57321231717E+02  0.65469392227E+02  0.00000000000E+00 0.  1.
         11    1    4    4    0    0  0.25691651987E+02 -0.20866288132E+03  0.80702267309E+02  0.22519572591E+03  0.00000000000E+00 0. -1.
</event>
<event>
 8    1  0.3710605E-009  0.8640019E+02  0.7561462E-02  0.1311811E+00
         -2   -1    0    0    0  501 -0.00000000000E+00  0.00000000000E+00  0.15237602243E+03  0.15237602243E+03  0.00000000000E+00 0.  1.
          2   -1    0    0  501    0  0.00000000000E+00 -0.00000000000E+00 -0.10009046716E+03  0.10009046716E+03  0.00000000000E+00 0. -1.
         25    2    1    2    0    0 -0.34004499212E+02  0.37380386340E+02 -0.21658905104E+01  0.13492966849E+03  0.12509086740E+03 0.  0.
         23    2    1    2    0    0  0.34004499212E+02 -0.37380386340E+02  0.54451445779E+02  0.11753682111E+03  0.91084274819E+02 0.  0.
          5    1    3    3  502    0  0.10163370622E+02 -0.13425568275E+02 -0.49549733980E+02  0.52499414505E+02  0.41800000000E+01 0.  1.
         -5    1    3    3    0  502 -0.44167869834E+02  0.50805954615E+02  0.47383843469E+02  0.82430253984E+02  0.41800000000E+01 0.  1.
        -11    1    4    4    0    0  0.18014417984E+01 -0.52425416380E+02  0.61985777739E+02  0.81202870129E+02  0.00000000000E+00 0.  1.
         11    1    4    4    0    0  0.32203057414E+02  0.15045030041E+02 -0.75343319604E+01  0.36333950980E+02  0.00000000000E+00 0. -1.
</event>
<event>
 8    1  0.3710605E-009  0.6132988E+02  0.7561462E-02  0.1392334E+00
         -2   -1    0    0    0  501 -0.00000000000E+00  0.00000000000E+00  0.62943364159E+02  0.62943364159E+02  0.00000000000E+00 0.  1.
          2   -1    0    0  501    0  0.00000000000E+00 -0.00000000000E+00 -0.24228137498E+03  0.24228137498E+03  0.00000000000E+00 0. -1.
         25    2    1    2    0    0 -0.41271323927E+02  0.84611642236E+01 -0.55748337971E+02  0.14327637748E+03  0.12508129228E+03 0.  0.
         23    2    1    2    0    0  0.41271323927E+02 -0.84611642236E+01 -0.12358967285E+03  0.16194836167E+03  0.95801623845E+02 0.  0.
          5    1    3    3  502    0 -0.52730019674E+01 -0.15902677631E+01 -0.91277800461E+02  0.91539296252E+02  0.41800000000E+01 0.  1.
         -5    1    3    3    0  502 -0.35998321960E+02  0.10051431987E+02  0.35529462489E+02  0.51737081225E+02  0.41800000000E+01 0.  1.
        -11    1    4    4    0    0  0.27863838404E+02 -0.37168653129E+02 -0.14975871052E+02  0.48807570927E+02  0.00000000000E+00 0.  1.
         11    1    4    4    0    0  0.13407485524E+02  0.28707488905E+02 -0.10861380180E+03  0.11314079074E+03  0.00000000000E+00 0. -1.
</event>
<event>
 8    1  0.3710605E-009  0.2728213E+03  0.7561462E-02  0.1099676E+00
         -2   -1    0    0    0  501 -0.00000000000E+00  0.00000000000E+00  0.40498112650E+03  0.40498112650E+03  0.00000000000E+00 0.  1.
          2   -1    0    0  501    0  0.00000000000E+00 -0.00000000000E+00 -0.37656675749E+03  0.37656675749E+03  0.00000000000E+00 0. -1.
         25    2    1    2    0    0 -0.92793401365E+02 -0.24169373689E+03 -0.25730316129E+03  0.38584769616E+03  0.12508816901E+03 0.  0.
         23    2    1    2    0    0  0.92793401365E+02  0.24169373689E+03  0.28571753030E+03  0.39570018783E+03  0.88981198804E+02 0.  0.
          5    1    3    3  502    0 -0.10927435019E+03 -0.21341388824E+03 -0.17408618684E+03  0.29632725854E+03  0.41800000000E+01 0.  1.
         -5    1    3    3    0  502  0.16480948828E+02 -0.28279848652E+02 -0.83216974454E+02  0.89520437618E+02  0.41800000000E+01 0.  1.
        -11    1    4    4    0    0  0.46924242842E+02  0.28780399832E+02  0.71200031171E+02  0.89998002309E+02  0.00000000000E+00 0.  1.
         11    1    4    4    0    0  0.45869158523E+02  0.21291333706E+03  0.21451749912E+03  0.30570218552E+03  0.00000000000E+00 0. -1.
</event>
<event>
 8    1  0.3710605E-009  0.3072511E+03  0.7561462E-02  0.1081671E+00
         -1   -1    0    0    0  501 -0.00000000000E+00  0.00000000000E+00  0.15957555937E+03  0.15957555937E+03  0.00000000000E+00 0.  1.
          1   -1    0    0  501    0  0.00000000000E+00 -0.00000000000E+00 -0.80575422877E+03  0.80575422877E+03  0.00000000000E+00 0. -1.
         25    2    1    2    0    0  0.59632109136E+02  0.29258492610E+03 -0.10451664488E+03  0.34019548931E+03  0.12508922602E+03 0.  0.
         23    2    1    2    0    0 -0.59632109136E+02 -0.29258492610E+03 -0.54166202452E+03  0.62513429882E+03  0.90737067005E+02 0.  0.
          5    1    3    3  502    0  0.31210312287E+02  0.24671481739E+03 -0.12969689647E+03  0.28050141188E+03  0.41800000000E+01 0. -1.
         -5    1    3    3    0  502  0.28421796849E+02  0.45870108716E+02  0.25180251596E+02  0.59694077430E+02  0.41800000000E+01 0. -1.
        -11    1    4    4    0    0  0.21621065476E+02 -0.10553545639E+03 -0.20285973702E+03  0.22968952073E+03  0.00000000000E+00 0. -1.
         11    1    4    4    0    0 -0.81253174612E+02 -0.18704946972E+03 -0.33880228750E+03  0.39544477810E+03  0.00000000000E+00 0.  1.
</event>
<event>
 8    1  0.3710605E-009  0.7086100E+02  0.7561462E-02  0.1357189E+00
          1   -1    0    0  501    0  0.00000000000E+00  0.00000000000E+00  0.92770723235E+02  0.92770723235E+02  0.00000000000E+00 0. -1.
         -1   -1    0    0    0  501 -0.00000000000E+00 -0.00000000000E+00 -0.14172321886E+03  0.14172321886E+03  0.00000000000E+00 0.  1.
         25    2    1    2    0    0 -0.15196388176E+02  0.32124318609E+02 -0.12344740389E+02  0.13062873616E+03  0.12509425261E+03 0.  0.
         23    2    1    2    0    0  0.15196388176E+02 -0.32124318609E+02 -0.36607755234E+02  0.10386520593E+03  0.90470720128E+02 0.  0.
          5    1    3    3  502    0 -0.12973211412E+02  0.40244230701E+02 -0.64717515312E+02  0.77419193403E+02  0.41800000000E+01 0. -1.
         -5    1    3    3    0  502 -0.22231767640E+01 -0.81199120917E+01  0.52372774923E+02  0.53209542757E+02  0.41800000000E+01 0. -1.
        -11    1    4    4    0    0 -0.57300799798E+01 -0.57021855756E+02 -0.41794539070E+02  0.70930313311E+02  0.00000000000E+00 0.  1.
         11    1    4    4    0    0  0.20926468156E+02  0.24897537146E+02  0.51867838354E+01  0.32934892621E+02  0.00000000000E+00 0. -1.
</event>
<event>
 8    1  0.3710605E-009  0.1407680E+03  0.7561462E-02  0.1212299E+00
          2   -1    0    0  501    0  0.00000000000E+00  0.00000000000E+00  0.85968067146E+02  0.85968067146E+02  0.00000000000E+00 0. -1.
         -2   -1    0    0    0  501 -0.00000000000E+00 -0.00000000000E+00 -0.55586330391E+03  0.55586330391E+03  0.00000000000E+00 0.  1.
         25    2    1    2    0    0 -0.97280299160E+02 -0.10470039742E+02 -0.59017829761E+01  0.15891925818E+03  0.12508965281E+03 0.  0.
         23    2    1    2    0    0  0.97280299160E+02  0.10470039742E+02 -0.46399345378E+03  0.48291211287E+03  0.91329651645E+02 0.  0.
          5    1    3    3  502    0 -0.79107178538E+02  0.43975371892E+02  0.24463451763E+02  0.93849410767E+02  0.41800000000E+01 0.  1.
         -5    1    3    3    0  502 -0.18173120622E+02 -0.54445411634E+02 -0.30365234739E+02  0.65069847410E+02  0.41800000000E+01 0.  1.
        -11    1    4    4    0    0  0.20022876516E+01 -0.29853965234E+02 -0.88202849540E+02  0.93139739440E+02  0.00000000000E+00 0.  1.
         11    1    4    4    0    0  0.95278011508E+02  0.40324004977E+02 -0.37579060424E+03  0.38977237343E+03  0.00000000000E+00 0. -1.
</event>
<event>
 8    1  0.3710605E-009  0.1130533E+03  0.7561462E-02  0.1255018E+00
         -1   -1    0    0    0  501 -0.00000000000E+00  0.00000000000E+00  0.48709971977E+03  0.48709971977E+03  0.00000000000E+00 0.  1.
          1   -1    0    0  501    0  0.00000000000E+00 -0.00000000000E+00 -0.31829715260E+02  0.31829715260E+02  0.00000000000E+00 0. -1.
         25    2    1    2    0    0  0.61444803639E+01  0.43287507740E+02  0.16709372681E+03  0.21325929237E+03  0.12509056430E+03 0.  0.
         23    2    1    2    0    0 -0.61444803639E+01 -0.43287507740E+02  0.28817627770E+03  0.30567014266E+03  0.92071201358E+02 0.  0.
          5    1    3    3  502    0 -0.58493967605E+02  0.20815744338E+02  0.62488763841E+02  0.88188193455E+02  0.41800000000E+01 0.  1.
         -5    1    3    3    0  502  0.64638447968E+02  0.22471763402E+02  0.10460496297E+03  0.12507109892E+03  0.41800000000E+01 0.  1.
        -11    1    4    4    0    0  0.71345349204E+01 -0.67407549073E+02  0.14756906658E+03  0.16239245263E+03  0.00000000000E+00 0. -1.
         11    1    4    4    0    0 -0.13279015284E+02  0.24120041333E+02  0.14060721112E+03  0.14327769003E+03  0.00000000000E+00 0.  1.
</event>
<event>
 8    1  0.3710605E-009  0.1318672E+03  0.7561462E-02  0.1224711E+00
          1   -1    0    0  501    0  0.00000000000E+00  0.00000000000E+00  0.77038647369E+03  0.77038647369E+03  0.00000000000E+00 0. -1.
         -1   -1    0    0    0  501 -0.00000000000E+00 -0.00000000000E+00 -0.29151424177E+02  0.29151424177E+02  0.00000000000E+00 0.  1.
         25    2    1    2    0    0  0.13301383762E+02  0.10152462618E+03  0.43837239601E+03  0.46722893210E+03  0.12509332865E+03 0.  0.
         23    2    1    2    0    0 -0.13301383762E+02 -0.10152462618E+03  0.30286265349E+03  0.33230896576E+03  0.90660274183E+02 0.  0.
          5    1    3    3  502    0 -0.51513392800E+02  0.25644777747E+02  0.11308763772E+03  0.12695499387E+03  0.41800000000E+01 0.  1.
         -5    1    3    3    0  502  0.64814776562E+02  0.75879848431E+02  0.32528475829E+03  0.34027393823E+03  0.41800000000E+01 0.  1.
        -11    1    4    4    0    0 -0.15153342176E+02 -0.22589149147E+02  0.99863671047E+01  0.28976213801E+02  0.00000000000E+00 0.  1.
         11    1    4    4    0    0  0.18519584140E+01 -0.78935477031E+02  0.29287628639E+03  0.30333275196E+03  0.00000000000E+00 0. -1.
</event>
<event>
 8    1  0.3710605E-009  0.7990636E+02  0.7561462E-02  0.1329317E+00
          2   -1    0    0  501    0  0.00000000000E+00  0.00000000000E+00  0.31086854772E+02  0.31086854772E+02  0.00000000000E+00 0. -1.
         -2   -1    0    0    0  501 -0.00000000000E+00 -0.00000000000E+00 -0.39702955907E+03  0.39702955907E+03  0.00000000000E+00 0.  1.
         25    2    1    2    0    0 -0.16369005402E+02 -0.65908990004E+01 -0.24188985285E+03  0.27289301880E+03  0.12509402269E+03 0.  0.
         23    2    1    2    0    0  0.16369005402E+02  0.65908990004E+01 -0.12405285145E+03  0.15522339504E+03  0.91617728235E+02 0.  0.
          5    1    3    3  502    0  0.21116392590E+02 -0.20337947021E+02 -0.22874041178E+03  0.23064947974E+03  0.41800000000E+01 0.  1.
         -5    1    3    3    0  502 -0.37485397993E+02  0.13747048021E+02 -0.13149441070E+02  0.42243539061E+02  0.41800000000E+01 0.  1.
        -11    1    4    4    0    0  0.44224103147E+01 -0.40871848958E+02 -0.77228841763E+02  0.87489197907E+02  0.00000000000E+00 0.  1.
         11    1    4    4    0    0  0.11946595088E+02  0.47462747959E+02 -0.46824009688E+02  0.67734197132E+02  0.00000000000E+00 0. -1.
</event>
<event>
 8    1  0.3710605E-009  0.1090532E+03  0.7561462E-02  0.1262333E+00
          1   -1    0    0  501    0  0.00000000000E+00  0.00000000000E+00  0.23095423557E+03  0.23095423557E+03  0.00000000000E+00 0. -1.
         -1   -1    0    0    0  501 -0.00000000000E+00 -0.00000000000E+00 -0.84856830681E+02  0.84856830681E+02  0.00000000000E+00 0.  1.
         25    2    1    2    0    0  0.38743885991E+02 -0.74578666645E+02  0.51094367593E+02  0.15912398685E+03  0.12508694005E+03 0.  0.
         23    2    1    2    0    0 -0.38743885991E+02  0.74578666645E+02  0.95003037294E+02  0.15668707940E+03  0.91990203480E+02 0.  0.
          5    1    3    3  502    0 -0.13682465672E+02 -0.14575942624E+01  0.66245206095E+02  0.67788156624E+02  0.41800000000E+01 0.  1.
         -5    1    3    3    0  502  0.52426351663E+02 -0.73121072382E+02 -0.15150838502E+02  0.91335830222E+02  0.41800000000E+01 0.  1.
        -11    1    4    4    0    0  0.23379710602E+02  0.24447936319E+02  0.16652931879E+01  0.33868653051E+02  0.00000000000E+00 0. -1.
         11    1    4    4    0    0 -0.62123596593E+02  0.50130730326E+02  0.93337744106E+02  0.12281842635E+03  0.00000000000E+00 0.  1.
</event>
<event>
 8    1  0.3710605E-009  0.1056453E+03  0.7561462E-02  0.1268853E+00
          1   -1    0    0  501    0  0.00000000000E+00  0.00000000000E+00  0.45056991218E+03  0.45056991218E+03  0.00000000000E+00 0. -1.
         -1   -1    0    0    0  501 -0.00000000000E+00 -0.00000000000E+00 -0.45645531899E+02  0.45645531899E+02  0.00000000000E+00 0.  1.
         25    2    1    2    0    0  0.46143690175E+02 -0.25058937480E+02  0.35653839094E+03  0.38147850833E+03  0.12509611349E+03 0.  0.
         23    2    1    2    0    0 -0.46143690175E+02  0.25058937480E+02  0.48385989341E+02  0.11473693575E+03  0.89811858744E+02 0.  0.
          5    1    3    3  502    0  0.36403295621E+02  0.36995903509E+02  0.65327557705E+02  0.83540762531E+02  0.41800000000E+01 0.  1.
         -5    1    3    3    0  502  0.97403945540E+01 -0.62054840989E+02  0.29121083323E+03  0.29793774579E+03  0.41800000000E+01 0.  1.
        -11    1    4    4    0    0 -0.52832179414E+02 -0.15579206395E+02  0.48741439352E+02  0.73550518446E+02  0.00000000000E+00 0. -1.
         11    1    4    4    0    0  0.66884892389E+01  0.40638143875E+02 -0.35545001068E+00  0.41186417308E+02  0.00000000000E+00 0.  1.
</event>
<event>
 8    1  0.3710605E-009  0.1122975E+03  0.7561462E-02  0.1256373E+00
         -2   -1    0    0    0  501 -0.00000000000E+00  0.00000000000E+00  0.38572876910E+03  0.38572876910E+03  0.00000000000E+00 0.  1.
          2   -1    0    0  501    0  0.00000000000E+00 -0.00000000000E+00 -0.44802880549E+02  0.44802880549E+02  0.00000000000E+00 0. -1.
         25    2    1    2    0    0 -0.60004519679E+02  0.43491010536E+02  0.18315147344E+03  0.23384814053E+03  0.12509388564E+03 0.  0.
         23    2    1    2    0    0  0.60004519679E+02 -0.43491010536E+02  0.15777441511E+03  0.19668350912E+03  0.91102284916E+02 0.  0.
          5    1    3    3  502    0 -0.46127303082E+02  0.68130195414E+02  0.18762481078E+03  0.20491460084E+03  0.41800000000E+01 0.  1.
         -5    1    3    3    0  502 -0.13877216597E+02 -0.24639184878E+02 -0.44733373400E+01  0.28933539688E+02  0.41800000000E+01 0.  1.
        -11    1    4    4    0    0  0.26592514594E+02 -0.67456145309E+02  0.75343113237E+02  0.10456614215E+03  0.00000000000E+00 0.  1.
         11    1    4    4    0    0  0.33412005086E+02  0.23965134773E+02  0.82431301871E+02  0.92117366966E+02  0.00000000000E+00 0. -1.
</event>
<event>
 8    1  0.3710605E-009  0.2227018E+03  0.7561462E-02  0.1131885E+00
          1   -1    0    0  501    0  0.00000000000E+00  0.00000000000E+00  0.15759000424E+04  0.15759000424E+04  0.00000000000E+00 0. -1.
         -1   -1    0    0    0  501 -0.00000000000E+00 -0.00000000000E+00 -0.38547913305E+02  0.38547913305E+02  0.00000000000E+00 0.  1.
         25    2    1    2    0    0 -0.20247731223E+03  0.75480401713E+02  0.63731401092E+03  0.68447851449E+03  0.12508930920E+03 0.  0.
         23    2    1    2    0    0  0.20247731223E+03 -0.75480401713E+02  0.90003811820E+03  0.92996944123E+03  0.89889901596E+02 0.  0.
          5    1    3    3  502    0 -0.15277282920E+03  0.19137272491E+02  0.53957318888E+03  0.56112607416E+03  0.41800000000E+01 0.  1.
         -5    1    3    3    0  502 -0.49704483031E+02  0.56343129222E+02  0.97740822036E+02  0.12335244033E+03  0.41800000000E+01 0.  1.
        -11    1    4    4    0    0  0.88417847711E+02 -0.35200572810E+02  0.22690711845E+03  0.24605616538E+03  0.00000000000E+00 0. -1.
         11    1    4    4    0    0  0.11405946452E+03 -0.40279828903E+02  0.67313099975E+03  0.68391327585E+03  0.00000000000E+00 0.  1.
</event>
<event>
 8    1  0.3710605E-009  0.6110108E+02  0.7561462E-02  0.1393268E+00
          2   -1    0    0  501    0  0.00000000000E+00  0.00000000000E+00  0.35145340384E+03  0.35145340384E+03  0.00000000000E+00 0. -1.
         -2   -1    0    0    0  501 -0.00000000000E+00 -0.00000000000E+00 -0.39580809556E+02  0.39580809556E+02  0.00000000000E+00 0.  1.
         25    2    1    2    0    0  0.35780501316E+02 -0.51731176230E+01  0.22299868105E+03  0.25823099975E+03  0.12509129490E+03 0.  0.
         23    2    1    2    0    0 -0.35780501316E+02  0.51731176230E+01  0.88873913234E+02  0.13280321365E+03  0.91821106956E+02 0.  0.
          5    1    3    3  502    0  0.13607525873E+01  0.43502722892E+01  0.22217886447E+03  0.22226492466E+03  0.41800000000E+01 0. -1.
         -5    1    3    3    0  502  0.34419748729E+02 -0.95233899122E+01  0.81981658312E+00  0.35966075088E+02  0.41800000000E+01 0. -1.
        -11    1    4    4    0    0  0.15677245951E+00  0.33993942707E+02  0.14979727372E+01  0.34027292586E+02  0.00000000000E+00 0.  1.
         11    1    4    4    0    0 -0.35937273776E+02 -0.28820825084E+02  0.87375940497E+02  0.98775921068E+02  0.00000000000E+00 0. -1.
</event>
<event>
 8    1  0.3710605E-009  0.1393207E+03  0.7561462E-02  0.1214246E+00
          1   -1    0    0  501    0  0.00000000000E+00  0.00000000000E+00  0.35209028453E+03  0.35209028453E+03  0.00000000000E+00 0. -1.
         -1   -1    0    0    0  501 -0.00000000000E+00 -0.00000000000E+00 -0.85218267664E+02  0.85218267664E+02  0.00000000000E+00 0.  1.
         25    2    1    2    0    0 -0.95704959347E+02  0.89164410123E+02  0.10721160224E+03  0.21036421625E+03  0.12509614123E+03 0.  0.
         23    2    1    2    0    0  0.95704959347E+02 -0.89164410123E+02  0.15966041462E+03  0.22694433594E+03  0.94353337725E+02 0.  0.
          5    1    3    3  502    0 -0.46919312975E+02  0.49099968611E+02 -0.17733109933E+02  0.70314752616E+02  0.41800000000E+01 0. -1.
         -5    1    3    3    0  502 -0.48785646372E+02  0.40064441512E+02  0.12494471217E+03  0.14004946364E+03  0.41800000000E+01 0. -1.
        -11    1    4    4    0    0  0.37785323923E+02 -0.80290728048E+02  0.13880960026E+03  0.16474961863E+03  0.00000000000E+00 0. -1.
         11    1    4    4    0    0  0.57919635423E+02 -0.88736820747E+01  0.20850814362E+02  0.62194717305E+02  0.00000000000E+00 0.  1.
</event>
<event>
 8    1  0.3710605E-009  0.1260912E+03  0.7561462E-02  0.1233374E+00
         -2   -1    0    0    0  501 -0.00000000000E+00  0.00000000000E+00  0.37421207733E+03  0.37421207733E+03  0.00000000000E+00 0.  1.
          2   -1    0    0  501    0  0.00000000000E+00 -0.00000000000E+00 -0.53414423502E+02  0.53414423502E+02  0.00000000000E+00 0. -1.
         25    2    1    2    0    0  0.85827467017E+02  0.20257427547E+02  0.14767367272E+03  0.21267676064E+03  0.12508866231E+03 0.  0.
         23    2    1    2    0    0 -0.85827467017E+02 -0.20257427547E+02  0.17312398110E+03  0.21494974019E+03  0.91949771654E+02 0.  0.
          5    1    3    3  502    0  0.50060425435E+02 -0.45150121610E+02  0.10990980254E+03  0.12900471608E+03  0.41800000000E+01 0. -1.
         -5    1    3    3    0  502  0.35767041582E+02  0.65407549158E+02  0.37763870178E+02  0.83672044562E+02  0.41800000000E+01 0. -1.
        -11    1    4    4    0    0 -0.53742832876E+02 -0.44488466031E+02  0.15667835487E+03  0.17150983231E+03  0.00000000000E+00 0.  1.
         11    1    4    4    0    0 -0.32084634141E+02  0.24231038483E+02  0.16445626238E+02  0.43439907876E+02  0.00000000000E+00 0. -1.
</event>
<event>
 8    1  0.3710605E-009  0.1079710E+03  0.7561462E-02  0.1264374E+00
          1   -1    0    0  501    0  0.00000000000E+00  0.00000000000E+00  0.52671855173E+02  0.52671855173E+02  0.00000000000E+00 0. -1.
         -1   -1    0    0    0  501 -0.00000000000E+00 -0.00000000000E+00 -0.26390792278E+03  0.26390792278E+03  0.00000000000E+00 0.  1.
         25    2    1    2    0    0  0.23338730082E+02  0.20608131784E+02 -0.16786598330E+03  0.21164800286E+03  0.12508595984E+03 0.  0.
         23    2    1    2    0    0 -0.23338730082E+02 -0.20608131784E+02 -0.43370084303E+02  0.10493177509E+03  0.90334499462E+02 0.  0.
          5    1    3    3  502    0  0.74053067946E+02  0.41662597737E+01 -0.11121160633E+03  0.13374119924E+03  0.41800000000E+01 0. -1.
         -5    1    3    3    0  502 -0.50714337864E+02  0.16441872010E+02 -0.56654376978E+02  0.77906803624E+02  0.41800000000E+01 0. -1.
        -11    1    4    4    0    0  0.42851248979E+01  0.30115923048E+02  0.34043155759E+01  0.30609156816E+02  0.00000000000E+00 0. -1.
         11    1    4    4    0    0 -0.27623854980E+02 -0.50724054833E+02 -0.46774399879E+02  0.74322618271E+02  0.00000000000E+00 0.  1.
</event>
<event>
 8    1  0.3710605E-009  0.2048088E+03  0.7561462E-02  0.1145744E+00
          2   -1    0    0  501    0  0.00000000000E+00  0.00000000000E+00  0.59782166236E+03  0.59782166236E+03  0.00000000000E+00 0.  1.
         -2   -1    0    0    0  501 -0.00000000000E+00 -0.00000000000E+00 -0.99464145247E+02  0.99464145247E+02  0.00000000000E+00 0. -1.
         25    2    1    2    0    0 -0.18844260637E+02  0.19237444791E+03  0.11280335961E+03  0.25638605410E+03  0.12508467704E+03 0.  0.
         23    2    1    2    0    0  0.18844260637E+02 -0.19237444791E+03  0.38555415750E+03  0.44089975350E+03  0.91528956651E+02 0.  0.
          5    1    3    3  502    0  0.14994920733E+02 -0.15621726989E+01  0.45782508771E+02  0.48381799684E+02  0.41800000000E+01 0. -1.
         -5    1    3    3    0  502 -0.33839181370E+02  0.19393662061E+03  0.67020850842E+02  0.20800425442E+03  0.41800000000E+01 0. -1.
        -11    1    4    4    0    0 -0.11012454749E+02 -0.81382990473E+02  0.25017777668E+03  0.26331233401E+03  0.00000000000E+00 0.  1.
         11    1    4    4    0    0  0.29856715385E+02 -0.11099145744E+03  0.13537638082E+03  0.17758741949E+03  0.00000000000E+00 0. -1.
</event>
<event>
 8    1  0.3710605E-009  0.9576089E+02  0.7561462E-02  0.1289472E+00
         -1   -1    0    0    0  501 -0.00000000000E+00  0.00000000000E+00  0.11212803541E+03  0.11212803541E+03  0.00000000000E+00 0.  1.
          1   -1    0    0  501    0  0.00000000000E+00 -0.00000000000E+00 -0.17072353413E+03  0.17072353413E+03  0.00000000000E+00 0. -1.
         25    2    1    2    0    0  0.67443390084E+02 -0.19200009672E+02 -0.80934439710E+02  0.16465502132E+03  0.12507454289E+03 0.  0.
         23    2    1    2    0    0 -0.67443390084E+02  0.19200009672E+02  0.22338940986E+02  0.11819654821E+03  0.92488618152E+02 0.  0.
          5    1    3    3  502    0  0.53021565050E+02  0.29370596785E+02  0.89273296382E+01  0.61409184414E+02  0.41800000000E+01 0. -1.
         -5    1    3    3    0  502  0.14421825033E+02 -0.48570606457E+02 -0.89861769348E+02  0.10324583691E+03  0.41800000000E+01 0. -1.
        -11    1    4    4    0    0 -0.55247126672E+02 -0.22043525102E+01  0.54532366320E+02  0.77658760948E+02  0.00000000000E+00 0.  1.
         11    1    4    4    0    0 -0.12196263412E+02  0.21404362182E+02 -0.32193425334E+02  0.40537787265E+02  0.00000000000E+00 0. -1.
</event>
<event>
 8    1  0.3710605E-009  0.1329439E+03  0.7561462E-02  0.1223152E+00
          2   -1    0    0  501    0  0.00000000000E+00  0.00000000000E+00  0.12155629280E+04  0.12155629280E+04  0.00000000000E+00 0.  1.
         -2   -1    0    0    0  501 -0.00000000000E+00 -0.00000000000E+00 -0.23838693506E+02  0.23838693506E+02  0.00000000000E+00 0. -1.
         25    2    1    2    0    0  0.11764120443E+01  0.10491572287E+03  0.91681830010E+03  0.93124299566E+03  0.12509607795E+03 0.  0.
         23    2    1    2    0    0 -0.11764120443E+01 -0.10491572287E+03  0.27490593436E+03  0.30815862581E+03  0.91541100410E+02 0.  0.
          5    1    3    3  502    0 -0.25422635678E+02 -0.16103949640E+02  0.33427858130E+03  0.33565650584E+03  0.41800000000E+01 0.  1.
         -5    1    3    3    0  502  0.26599047723E+02  0.12101967251E+03  0.58253971880E+03  0.59558648982E+03  0.41800000000E+01 0.  1.
        -11    1    4    4    0    0 -0.18888300222E+02 -0.39964381897E+02  0.28201458594E+02  0.52433214402E+02  0.00000000000E+00 0. -1.
         11    1    4    4    0    0  0.17711888178E+02 -0.64951340976E+02  0.24670447577E+03  0.25572541141E+03  0.00000000000E+00 0.  1.
</event>
<event>
 8    1  0.3710605E-009  0.1523466E+03  0.7561462E-02  0.1197619E+00
         -1   -1    0    0    0  501 -0.00000000000E+00  0.00000000000E+00  0.66844437364E+02  0.66844437364E+02  0.00000000000E+00 0.  1.
          1   -1    0    0  501    0  0.00000000000E+00 -0.00000000000E+00 -0.53921214028E+03  0.53921214028E+03  0.00000000000E+00 0. -1.
         25    2    1    2    0    0  0.93490803843E+02  0.81571563478E+02 -0.98687960354E+02  0.20194013670E+03  0.12508419132E+03 0.  0.
         23    2    1    2    0    0 -0.93490803843E+02 -0.81571563478E+02 -0.37367974256E+03  0.40411644095E+03  0.90989545943E+02 0.  0.
          5    1    3    3  502    0  0.81617806240E+02  0.12171559424E+02 -0.25006806570E+01  0.82664012472E+02  0.41800000000E+01 0.  1.
         -5    1    3    3    0  502  0.11872997603E+02  0.69400004054E+02 -0.96187279697E+02  0.11927612423E+03  0.41800000000E+01 0.  1.
        -11    1    4    4    0    0 -0.31035713253E+02  0.16588032115E+02 -0.60037454175E+02  0.69590762393E+02  0.00000000000E+00 0.  1.
         11    1    4    4    0    0 -0.62455090590E+02 -0.98159595593E+02 -0.31364228839E+03  0.33452567855E+03  0.00000000000E+00 0. -1.
</event>
<event>
 8    1  0.3710605E-009  0.7820141E+02  0.7561462E-02  0.1334234E+00
          2   -1    0    0  501    0  0.00000000000E+00  0.00000000000E+00  0.30702163874E+03  0.30702163874E+03  0.00000000000E+00 0. -1.
         -2   -1    0    0    0  501 -0.00000000000E+00 -0.00000000000E+00 -0.54106237059E+02  0.54106237059E+02  0.00000000000E+00 0.  1.
         25    2    1    2    0    0 -0.60175886758E+02  0.11771136524E+02  0.18643829851E+03  0.23273704315E+03  0.12509034774E+03 0.  0.
         23    2    1    2    0    0  0.60175886758E+02 -0.11771136524E+02  0.66477103167E+02  0.12839083265E+03  0.91133438770E+02 0.  0.
          5    1    3    3  502    0 -0.28883998820E+02  0.26451296508E+02 -0.35846000358E+01  0.39550957412E+02  0.41800000000E+01 0.  1.
         -5    1    3    3    0  502 -0.31291887938E+02 -0.14680159983E+02  0.19002289855E+03  0.19318608573E+03  0.41800000000E+01 0.  1.
        -11    1    4    4    0    0  0.15512065851E+02  0.21494824446E+02 -0.14421331702E+02  0.30176588160E+02  0.00000000000E+00 0.  1.
         11    1    4    4    0    0  0.44663820907E+02 -0.33265960970E+02  0.80898434870E+02  0.98214244495E+02  0.00000000000E+00 0. -1.
</event>
<event>
 8    1  0.3710605E-009  0.7438557E+02  0.7561462E-02  0.1345784E+00
          2   -1    0    0  501    0  0.00000000000E+00  0.00000000000E+00  0.15423986497E+04  0.15423986497E+04  0.00000000000E+00 0. -1.
         -2   -1    0    0    0  501 -0.00000000000E+00 -0.00000000000E+00 -0.10430883875E+02  0.10430883875E+02  0.00000000000E+00 0.  1.
         25    2    1    2    0    0 -0.11995739343E+02 -0.40599501591E+02  0.11475285332E+04  0.11551030955E+04  0.12509679987E+03 0.  0.
         23    2    1    2    0    0  0.11995739343E+02  0.40599501591E+02  0.38443923261E+03  0.39772643811E+03  0.92739305062E+02 0.  0.
          5    1    3    3  502    0 -0.30380062927E+01 -0.74479163969E-01 -0.14501048454E+01  0.53675165060E+01  0.41800000000E+01 0. -1.
         -5    1    3    3    0  502 -0.89577330506E+01 -0.40525022427E+02  0.11489786381E+04  0.11497355790E+04  0.41800000000E+01 0. -1.
        -11    1    4    4    0    0  0.44180087525E+02  0.51551912450E+02  0.24993531915E+03  0.25899255504E+03  0.00000000000E+00 0.  1.
         11    1    4    4    0    0 -0.32184348181E+02 -0.10952410859E+02  0.13450391347E+03  0.13873388306E+03  0.00000000000E+00 0. -1.
</event>
<event>
 8    1  0.3710605E-009  0.1344601E+03  0.7561462E-02  0.1220984E+00
         -2   -1    0    0    0  501 -0.00000000000E+00  0.00000000000E+00  0.32588712725E+02  0.32588712725E+02  0.00000000000E+00 0.  1.
          2   -1    0    0  501    0  0.00000000000E+00 -0.00000000000E+00 -0.68634212623E+03  0.68634212623E+03  0.00000000000E+00 0. -1.
         25    2    1    2    0    0  0.90632697169E+02  0.95060143103E+01 -0.46440534959E+03  0.48951458624E+03  0.12509017268E+03 0.  0.
         23    2    1    2    0    0 -0.90632697169E+02 -0.95060143103E+01 -0.18934806391E+03  0.22941625272E+03  0.92056925870E+02 0.  0.
          5    1    3    3  502    0 -0.24500233280E+02  0.25343197860E+02 -0.72569185404E+02  0.80785507232E+02  0.41800000000E+01 0. -1.
         -5    1    3    3    0  502  0.11513293045E+03 -0.15837183550E+02 -0.39183616419E+03  0.40872907900E+03  0.41800000000E+01 0. -1.
        -11    1    4    4    0    0  0.19012769106E+01  0.19936022619E+02 -0.83098429581E+02  0.85477534186E+02  0.00000000000E+00 0. -1.
         11    1    4    4    0    0 -0.92533974079E+02 -0.29442036929E+02 -0.10624963433E+03  0.14393871853E+03  0.00000000000E+00 0.  1.
</event>
<event>
 8    1  0.3710605E-009  0.2443956E+03  0.7561462E-02  0.1116899E+00
          2   -1    0    0  501    0  0.00000000000E+00  0.00000000000E+00  0.17349230321E+04  0.17349230321E+04  0.00000000000E+00 0. -1.
         -2   -1    0    0    0  501 -0.00000000000E+00 -0.00000000000E+00 -0.36744093490E+02  0.36744093490E+02  0.00000000000E+00 0.  1.
         25    2    1    2    0    0 -0.21904713558E+03  0.63411981807E+02  0.87110597189E+03  0.90910807313E+03  0.12509655201E+03 0.  0.
         23    2    1    2    0    0  0.21904713558E+03 -0.63411981807E+02  0.82707296672E+03  0.86255905246E+03  0.89194728887E+02 0.  0.
          5    1    3    3  502    0 -0.80097060919E+02 -0.36267024715E+02  0.25897459202E+03  0.27352540642E+03  0.41800000000E+01 0.  1.
         -5    1    3    3    0  502 -0.13895007466E+03  0.99679006522E+02  0.61213137988E+03  0.63558266671E+03  0.41800000000E+01 0.  1.
        -11    1    4    4    0    0  0.17733431347E+03 -0.62374051981E+02  0.76505097981E+03  0.78780770674E+03  0.00000000000E+00 0. -1.
         11    1    4    4    0    0  0.41712822108E+02 -0.10379298254E+01  0.62021986915E+02  0.74751345723E+02  0.00000000000E+00 0.  1.
</event>
<event>
 8    1  0.3710605E-009  0.1011362E+03  0.7561462E-02  0.1277925E+00
         -2   -1    0    0    0  501 -0.00000000000E+00  0.00000000000E+00  0.52687619420E+02  0.52687619420E+02  0.00000000000E+00 0.  1.
          2   -1    0    0  501    0  0.00000000000E+00 -0.00000000000E+00 -0.32436563803E+03  0.32436563803E+03  0.00000000000E+00 0. -1.
         25    2    1    2    0    0  0.17875605020E+02  0.54798267340E+02 -0.85691708870E+02  0.16221271666E+03  0.12509000408E+03 0.  0.
         23    2    1    2    0    0 -0.17875605020E+02 -0.54798267340E+02 -0.18598630974E+03  0.21484054079E+03  0.90791867460E+02 0.  0.
          5    1    3    3  502    0 -0.31251393298E+02  0.47357768824E+01  0.18259238647E+02  0.36741657035E+02  0.41800000000E+01 0. -1.
         -5    1    3    3    0  502  0.49126998318E+02  0.50062490457E+02 -0.10395094752E+03  0.12547105963E+03  0.41800000000E+01 0. -1.
        -11    1    4    4    0    0 -0.41074490217E+02 -0.50020081352E+00 -0.39870887587E+02  0.57245538031E+02  0.00000000000E+00 0.  1.
         11    1    4    4    0    0  0.23198885198E+02 -0.54298066526E+02 -0.14611542215E+03  0.15759500276E+03  0.00000000000E+00 0. -1.
</event>
<event>
 8    1  0.3710605E-009  0.1859781E+03  0.7561462E-02  0.1162140E+00
         -2   -1    0    0    0  501 -0.00000000000E+00  0.00000000000E+00  0.13260176329E+03  0.13260176329E+03  0.00000000000E+00 0.  1.
          2   -1    0    0  501    0  0.00000000000E+00 -0.00000000000E+00 -0.30880794761E+03  0.30880794761E+03  0.00000000000E+00 0. -1.
         25    2    1    2    0    0  0.47530305144E+02  0.16023123713E+03 -0.12900433515E+03  0.24540632551E+03  0.12509583069E+03 0.  0.
         23    2    1    2    0    0 -0.47530305144E+02 -0.16023123713E+03 -0.47201849175E+02  0.19600338538E+03  0.90863266813E+02 0.  0.
          5    1    3    3  502    0 -0.20820304053E+02 -0.39155463879E+01 -0.42403896550E+02  0.47585495763E+02  0.41800000000E+01 0.  1.
         -5    1    3    3    0  502  0.68350609197E+02  0.16414678352E+03 -0.86600438596E+02  0.19782082975E+03  0.41800000000E+01 0.  1.
        -11    1    4    4    0    0 -0.20202938648E+02 -0.13076659293E+03  0.21802043530E+01  0.13233598848E+03  0.00000000000E+00 0.  1.
         11    1    4    4    0    0 -0.27327366496E+02 -0.29464644204E+02 -0.49382053528E+02  0.63667396902E+02  0.00000000000E+00 0. -1.
</event>
<event>
 8    1  0.3710605E-009  0.6383819E+02  0.7561462E-02  0.1382396E+00
          1   -1    0    0  501    0  0.00000000000E+00  0.00000000000E+00  0.19677379183E+03  0.19677379183E+03  0.00000000000E+00 0. -1.
         -1   -1    0    0    0  501 -0.00000000000E+00 -0.00000000000E+00 -0.81931894180E+02  0.81931894180E+02  0.00000000000E+00 0.  1.
         25    2    1    2    0    0 -0.95035751285E+01 -0.27887116030E+01  0.13108550378E+03  0.18146957910E+03  0.12509877691E+03 0.  0.
         23    2    1    2    0    0  0.95035751285E+01  0.27887116030E+01 -0.16243606128E+02  0.97236106912E+02  0.95356755894E+02 0.  0.
          5    1    3    3  502    0 -0.53278085792E+02 -0.21129755397E+02  0.11925240649E+03  0.13237684784E+03  0.41800000000E+01 0. -1.
         -5    1    3    3    0  502  0.43774510663E+02  0.18341043794E+02  0.11833097284E+02  0.49092731260E+02  0.41800000000E+01 0. -1.
        -11    1    4    4    0    0 -0.32723703888E+00  0.10229368157E+02 -0.55321065634E+02  0.56259820119E+02  0.00000000000E+00 0.  1.
         11    1    4    4    0    0  0.98308121673E+01 -0.74406565544E+01  0.39077459506E+02  0.40976286792E+02  0.00000000000E+00 0. -1.
</event>
<event>
 8    1  0.3710605E-009  0.8681770E+02  0.7561462E-02  0.1310746E+00
          2   -1    0    0  501    0  0.00000000000E+00  0.00000000000E+00  0.31450341887E+03  0.31450341887E+03  0.00000000000E+00 0. -1.
         -2   -1    0    0    0  501 -0.00000000000E+00 -0.00000000000E+00 -0.52223177505E+02  0.52223177505E+02  0.00000000000E+00 0.  1.
         25    2    1    2    0    0 -0.47339012361E+02  0.31578883944E+02  0.90977476366E+02  0.16481269243E+03  0.12509242335E+03 0.  0.
         23    2    1    2    0    0  0.47339012361E+02 -0.31578883944E+02  0.17130276500E+03  0.20191390394E+03  0.90478612423E+02 0.  0.
          5    1    3    3  502    0  0.11243974470E+02  0.35832842463E+01 -0.27180770385E+02  0.29925466857E+02  0.41800000000E+01 0.  1.
         -5    1    3    3    0  502 -0.58582986832E+02  0.27995599697E+02  0.11815824675E+03  0.13488722558E+03  0.41800000000E+01 0.  1.
        -11    1    4    4    0    0 -0.30181418143E+01 -0.44067079072E+02  0.12426889124E+03  0.13188545776E+03  0.00000000000E+00 0. -1.
         11    1    4    4    0    0  0.50357154176E+02  0.12488195128E+02  0.47033873763E+02  0.70028446187E+02  0.00000000000E+00 0.  1.
</event>
<event>
 8    1  0.3710605E-009  0.9077062E+02  0.7561462E-02  0.1300996E+00
          1   -1    0    0  501    0  0.00000000000E+00  0.00000000000E+00  0.31869828857E+03  0.31869828857E+03  0.00000000000E+00 0. -1.
         -1   -1    0    0    0  501 -0.00000000000E+00 -0.00000000000E+00 -0.39541986805E+02  0.39541986805E+02  0.00000000000E+00 0.  1.
         25    2    1    2    0    0 -0.30329772070E+02  0.57281057678E+01  0.15351024738E+03  0.20041585136E+03  0.12509360958E+03 0.  0.
         23    2    1    2    0    0  0.30329772070E+02 -0.57281057678E+01  0.12564605438E+03  0.15782442401E+03  0.90382031190E+02 0.  0.
          5    1    3    3  502    0 -0.53889602647E+02  0.43662592747E+02  0.13512526402E+03  0.15194347849E+03  0.41800000000E+01 0.  1.
         -5    1    3    3    0  502  0.23559830577E+02 -0.37934486980E+02  0.18384983363E+02  0.48472372878E+02  0.41800000000E+01 0.  1.
        -11    1    4    4    0    0  0.84228746720E+01  0.26742486776E+02  0.19845307275E+01  0.28107717426E+02  0.00000000000E+00 0.  1.
         11    1    4    4    0    0  0.21906897398E+02 -0.32470592544E+02  0.12366152365E+03  0.12971670658E+03  0.00000000000E+00 0. -1.
</event>
<event>
 8    1  0.3710605E-009  0.1629685E+03  0.7561462E-02  0.1185386E+00
          1   -1    0    0  501    0  0.00000000000E+00  0.00000000000E+00  0.90912907586E+03  0.90912907586E+03  0.00000000000E+00 0. -1.
         -1   -1    0    0    0  501 -0.00000000000E+00 -0.00000000000E+00 -0.39548586109E+02  0.39548586109E+02  0.00000000000E+00 0.  1.
         25    2    1    2    0    0 -0.43075887763E+02  0.14438937067E+03  0.54800194284E+03  0.58194381969E+03  0.12509459401E+03 0.  0.
         23    2    1    2    0    0  0.43075887763E+02 -0.14438937067E+03  0.32157854692E+03  0.36673384228E+03  0.91526645138E+02 0.  0.
          5    1    3    3  502    0 -0.17304982671E+02  0.34107722579E+02  0.22947844951E+02  0.44798160148E+02  0.41800000000E+01 0.  1.
         -5    1    3    3    0  502 -0.25770905092E+02  0.11028164809E+03  0.52505409789E+03  0.53714565954E+03  0.41800000000E+01 0.  1.
        -11    1    4    4    0    0 -0.16011136083E+02 -0.97213195732E+02  0.20983578164E+03  0.23181418671E+03  0.00000000000E+00 0. -1.
         11    1    4    4    0    0  0.59087023846E+02 -0.47176174938E+02  0.11174276527E+03  0.13491965557E+03  0.00000000000E+00 0.  1.
</event>
<event>
 8    1  0.3710605E-009  0.1302340E+03  0.7561462E-02  0.1227109E+00
         -1   -1    0    0    0  501 -0.00000000000E+00  0.00000000000E+00  0.16544590651E+03  0.16544590651E+03  0.00000000000E+00 0.  1.
          1   -1    0    0  501    0  0.00000000000E+00 -0.00000000000E+00 -0.15056041896E+03  0.15056041896E+03  0.00000000000E+00 0. -1.
         25    2    1    2    0    0  0.62129465020E+02 -0.95422007690E+02  0.38161898049E+02  0.17340423883E+03  0.12508904671E+03 0.  0.
         23    2    1    2    0    0 -0.62129465020E+02  0.95422007690E+02 -0.23276410495E+02  0.14260208664E+03  0.82632522968E+02 0.  0.
          5    1    3    3  502    0 -0.16702919765E+02 -0.25759394024E+02  0.58476148609E+02  0.66177535957E+02  0.41800000000E+01 0. -1.
         -5    1    3    3    0  502  0.78832384785E+02 -0.69662613666E+02 -0.20314250560E+02  0.10722670288E+03  0.41800000000E+01 0. -1.
        -11    1    4    4    0    0 -0.43999737168E+02  0.23209964121E+02  0.23140562362E+02  0.54864969988E+02  0.00000000000E+00 0.  1.
         11    1    4    4    0    0 -0.18129727853E+02  0.72212043569E+02 -0.46416972857E+02  0.87737116648E+02  0.00000000000E+00 0. -1.
</event>
<event>
 8    1  0.3710605E-009  0.1211875E+03  0.7561462E-02  0.1241151E+00
         -3   -1    0    0    0  501 -0.00000000000E+00  0.00000000000E+00  0.38443492039E+03  0.38443492039E+03  0.00000000000E+00 0.  1.
          3   -1    0    0  501    0  0.00000000000E+00 -0.00000000000E+00 -0.53355430171E+02  0.53355430171E+02  0.00000000000E+00 0. -1.
         25    2    1    2    0    0  0.14816993156E+02  0.93443312658E+02  0.16134087427E+03  0.22501088318E+03  0.12509126217E+03 0.  0.
         23    2    1    2    0    0 -0.14816993156E+02 -0.93443312658E+02  0.16973861595E+03  0.21277946738E+03  0.86675879161E+02 0.  0.
          5    1    3    3  502    0  0.68154317623E+01 -0.25415080773E+02  0.69812231149E+02  0.74723466587E+02  0.41800000000E+01 0. -1.
         -5    1    3    3    0  502  0.80015613935E+01  0.11885839343E+03  0.91528643119E+02  0.15028741659E+03  0.41800000000E+01 0. -1.
        -11    1    4    4    0    0 -0.18942265818E+02 -0.62301650313E+02  0.34012301003E+02  0.73465241343E+02  0.00000000000E+00 0. -1.
         11    1    4    4    0    0  0.41252726625E+01 -0.31141662345E+02  0.13572631494E+03  0.13931422604E+03  0.00000000000E+00 0.  1.
</event>
<event>
 8    1  0.3710605E-009  0.9708074E+02  0.7561462E-02  0.1286557E+00
          2   -1    0    0  501    0  0.00000000000E+00  0.00000000000E+00  0.30989039310E+02  0.30989039310E+02  0.00000000000E+00 0. -1.
         -2   -1    0    0    0  501 -0.00000000000E+00 -0.00000000000E+00 -0.40810530403E+03  0.40810530403E+03  0.00000000000E+00 0.  1.
         25    2    1    2    0    0  0.13991352203E+02 -0.32241643664E+01 -0.15924373098E+03  0.20300882351E+03  0.12509142014E+03 0.  0.
         23    2    1    2    0    0 -0.13991352203E+02  0.32241643664E+01 -0.21787253374E+03  0.23608551983E+03  0.89787407486E+02 0.  0.
          5    1    3    3  502    0 -0.49867198550E+02 -0.13388335375E+02 -0.33904767331E+02  0.61911151363E+02  0.41800000000E+01 0. -1.
         -5    1    3    3    0  502  0.63858550753E+02  0.10164171008E+02 -0.12533896365E+03  0.14109767214E+03  0.41800000000E+01 0. -1.
        -11    1    4    4    0    0 -0.36060975694E+02  0.27054873854E+02 -0.18282680183E+03  0.18830294643E+03  0.00000000000E+00 0.  1.
         11    1    4    4    0    0  0.22069623491E+02 -0.23830709488E+02 -0.35045731917E+02  0.47782573406E+02  0.00000000000E+00 0. -1.
</event>
<event>
 8    1  0.3710605E-009  0.9438753E+02  0.7561462E-02  0.1292562E+00
         -1   -1    0    0    0  501 -0.00000000000E+00  0.00000000000E+00  0.36873548724E+02  0.36873548724E+02  0.00000000000E+00 0.  1.
          1   -1    0    0  501    0  0.00000000000E+00 -0.00000000000E+00 -0.43945186664E+03  0.43945186664E+03  0.00000000000E+00 0. -1.
         25    2    1    2    0    0  0.48269023598E+02  0.33816254351E+02 -0.16573821805E+03  0.21584850016E+03  0.12509188782E+03 0.  0.
         23    2    1    2    0    0 -0.48269023598E+02 -0.33816254351E+02 -0.23684009986E+03  0.26047691520E+03  0.91003037062E+02 0.  0.
          5    1    3    3  502    0  0.36238965133E+02  0.56564752269E+02 -0.17553562348E+03  0.18799750345E+03  0.41800000000E+01 0. -1.
         -5    1    3    3    0  502  0.12030058464E+02 -0.22748497919E+02  0.97974054308E+01  0.27850996704E+02  0.41800000000E+01 0. -1.
        -11    1    4    4    0    0  0.11461992778E+02 -0.33773662190E+02 -0.34946896373E+02  0.49933186382E+02  0.00000000000E+00 0.  1.
         11    1    4    4    0    0 -0.59731016376E+02 -0.42592160559E-01 -0.20189320349E+03  0.21054372882E+03  0.00000000000E+00 0. -1.
</event>
<event>
 8    1  0.3710605E-009  0.1016917E+03  0.7561462E-02  0.1276778E+00
          2   -1    0    0  501    0  0.00000000000E+00  0.00000000000E+00  0.45502206176E+02  0.45502206176E+02  0.00000000000E+00 0. -1.
         -2   -1    0    0    0  501 -0.00000000000E+00 -0.00000000000E+00 -0.30635945757E+03  0.30635945757E+03  0.00000000000E+00 0.  1.
         25    2    1    2    0    0  0.36749182198E+02 -0.26364739330E+02 -0.13671599107E+03  0.19074284263E+03  0.12508384359E+03 0.  0.
         23    2    1    2    0    0 -0.36749182198E+02  0.26364739330E+02 -0.12414126032E+03  0.16111882112E+03  0.92209653137E+02 0.  0.
          5    1    3    3  502    0  0.22039634499E+02 -0.71212345874E+02 -0.44109605314E+02  0.86718356619E+02  0.41800000000E+01 0. -1.
         -5    1    3    3    0  502  0.14709547698E+02  0.44847606544E+02 -0.92606385756E+02  0.10402448601E+03  0.41800000000E+01 0. -1.
        -11    1    4    4    0    0  0.16841307379E+02  0.21808761193E+02 -0.97072319324E+02  0.10090731826E+03  0.00000000000E+00 0.  1.
         11    1    4    4    0    0 -0.53590489577E+02  0.45559781371E+01 -0.27068940998E+02  0.60211502860E+02  0.00000000000E+00 0. -1.
</event>
<event>
 8    1  0.3710605E-009  0.2075956E+03  0.7561462E-02  0.1143484E+00
          2   -1    0    0  501    0  0.00000000000E+00  0.00000000000E+00  0.27831722649E+03  0.27831722649E+03  0.00000000000E+00 0. -1.
         -2   -1    0    0    0  501 -0.00000000000E+00 -0.00000000000E+00 -0.17352251451E+03  0.17352251451E+03  0.00000000000E+00 0.  1.
         25    2    1    2    0    0 -0.16520741797E+03  0.91897253779E+02  0.82863922721E+02  0.24135651470E+03  0.12509173152E+03 0.  0.
         23    2    1    2    0    0  0.16520741797E+03 -0.91897253779E+02  0.21930789258E+02  0.21048322630E+03  0.89909025303E+02 0.  0.
          5    1    3    3  502    0  0.22173857384E+01  0.51261544115E+02  0.35817804579E+02  0.62714035346E+02  0.41800000000E+01 0. -1.
         -5    1    3    3    0  502 -0.16742480371E+03  0.40635709665E+02  0.47046118142E+02  0.17864247935E+03  0.41800000000E+01 0. -1.
        -11    1    4    4    0    0  0.91391013933E+02 -0.67556464456E+02 -0.29333310500E+02  0.11737391713E+03  0.00000000000E+00 0.  1.
         11    1    4    4    0    0  0.73816404035E+02 -0.24340789323E+02  0.51264099758E+02  0.93109309167E+02  0.00000000000E+00 0. -1.
</event>
<event>
 8    1  0.3710605E-009  0.9448098E+02  0.7561462E-02  0.1292349E+00
          1   -1    0    0  501    0  0.00000000000E+00  0.00000000000E+00  0.94431670862E+03  0.94431670862E+03  0.00000000000E+00 0. -1.
         -1   -1    0    0    0  501 -0.00000000000E+00 -0.00000000000E+00 -0.14645330601E+02  0.14645330601E+02  0.00000000000E+00 0.  1.
         25    2    1    2    0    0  0.13692266406E+02  0.43132654377E+01  0.69771329469E+03  0.70898343166E+03  0.12509029682E+03 0.  0.
         23    2    1    2    0    0 -0.13692266406E+02 -0.43132654377E+01  0.23195808333E+03  0.24997860756E+03  0.92079690486E+02 0.  0.
          5    1    3    3  502    0  0.14857819116E+01  0.51091343911E+02  0.57097160107E+03  0.57327007126E+03  0.41800000000E+01 0. -1.
         -5    1    3    3    0  502  0.12206484494E+02 -0.46778078473E+02  0.12674169362E+03  0.13571336040E+03  0.41800000000E+01 0. -1.
        -11    1    4    4    0    0  0.22163078506E+02 -0.35355292281E+02  0.14552246553E+03  0.15138687762E+03  0.00000000000E+00 0.  1.
         11    1    4    4    0    0 -0.35855344912E+02  0.31042026843E+02  0.86435617792E+02  0.98591729939E+02  0.00000000000E+00 0. -1.
</event>
<event>
 8    1  0.3710605E-009  0.9998599E+02  0.7561462E-02  0.1280325E+00
          1   -1    0    0  501    0  0.00000000000E+00  0.00000000000E+00  0.43295738611E+03  0.43295738611E+03  0.00000000000E+00 0. -1.
         -1   -1    0    0    0  501 -0.00000000000E+00 -0.00000000000E+00 -0.33321800145E+02  0.33321800145E+02  0.00000000000E+00 0.  1.
         25    2    1    2    0    0 -0.11936122131E+02  0.41836032877E+02  0.26912925456E+03  0.29995049753E+03  0.12508805160E+03 0.  0.
         23    2    1    2    0    0  0.11936122131E+02 -0.41836032877E+02  0.13050633140E+03  0.16632868872E+03  0.93491205445E+02 0.  0.
          5    1    3    3  502    0  0.16604567104E+02  0.71412691605E+02  0.90202955796E+02  0.11631650702E+03  0.41800000000E+01 0.  1.
         -5    1    3    3    0  502 -0.28540689235E+02 -0.29576658727E+02  0.17892629876E+03  0.18363399051E+03  0.41800000000E+01 0.  1.
        -11    1    4    4    0    0  0.71008188892E+01 -0.63057560768E+02  0.44231015645E+02  0.77350244627E+02  0.00000000000E+00 0.  1.
         11    1    4    4    0    0  0.48353032420E+01  0.21221527891E+02  0.86275315759E+02  0.88978444091E+02  0.00000000000E+00 0. -1.
</event>
<event>
 8    1  0.3710605E-009  0.9631166E+02  0.7561462E-02  0.1288249E+00
          2   -1    0    0  501    0  0.00000000000E+00  0.00000000000E+00  0.70262833182E+02  0.70262833182E+02  0.00000000000E+00 0. -1.
         -2   -1    0    0    0  501 -0.00000000000E+00 -0.00000000000E+00 -0.20500301706E+03  0.20500301706E+03  0.00000000000E+00 0.  1.
         25    2    1    2    0    0  0.31853151032E+02 -0.32970482907E+02 -0.47185276503E+02  0.14133428302E+03  0.12508898139E+03 0.  0.
         23    2    1    2    0    0 -0.31853151032E+02  0.32970482907E+02 -0.87554907373E+02  0.13393156722E+03  0.90388754385E+02 0.  0.
          5    1    3    3  502    0  0.43431154867E+02 -0.52470937902E+02  0.19336803608E+02  0.70928477434E+02  0.41800000000E+01 0.  1.
         -5    1    3    3    0  502 -0.11578003835E+02  0.19500454995E+02 -0.66522080111E+02  0.70405805586E+02  0.41800000000E+01 0.  1.
        -11    1    4    4    0    0  0.28759936372E+02  0.28585447140E+02 -0.33478006567E+02  0.52583634831E+02  0.00000000000E+00 0. -1.
         11    1    4    4    0    0 -0.60613087404E+02  0.43850357667E+01 -0.54076900807E+02  0.81347932390E+02  0.00000000000E+00 0.  1.
</event>
<event>
 8    1  0.3710605E-009  0.6859526E+02  0.7561462E-02  0.1364936E+00
         -1   -1    0    0    0  501 -0.00000000000E+00  0.00000000000E+00  0.16303751731E+03  0.16303751731E+03  0.00000000000E+00 0.  1.
          1   -1    0    0  501    0  0.00000000000E+00 -0.00000000000E+00 -0.81828498467E+02  0.81828498467E+02  0.00000000000E+00 0. -1.
         25    2    1    2    0    0 -0.27191509452E+02  0.32333746534E+02  0.53492556626E+02  0.14245630557E+03  0.12508995176E+03 0.  0.
         23    2    1    2    0    0  0.27191509452E+02 -0.32333746534E+02  0.27716462217E+02  0.10240971021E+03  0.89076916852E+02 0.  0.
          5    1    3    3  502    0 -0.10609784569E+02 -0.18190531827E+02 -0.33867719448E+02  0.40099349089E+02  0.41800000000E+01 0. -1.
         -5    1    3    3    0  502 -0.16581724883E+02  0.50524278361E+02  0.87360276074E+02  0.10235695648E+03  0.41800000000E+01 0. -1.
        -11    1    4    4    0    0  0.51722524903E+01  0.11897059729E+02  0.47460997554E+02  0.49202017386E+02  0.00000000000E+00 0.  1.
         11    1    4    4    0    0  0.22019256962E+02 -0.44230806263E+02 -0.19744535337E+02  0.53207692823E+02  0.00000000000E+00 0. -1.
</event>
<event>
 8    1  0.3710605E-009  0.1906451E+03  0.7561462E-02  0.1157881E+00
          1   -1    0    0  501    0  0.00000000000E+00  0.00000000000E+00  0.42813636184E+02  0.42813636184E+02  0.00000000000E+00 0. -1.
         -1   -1    0    0    0  501 -0.00000000000E+00 -0.00000000000E+00 -0.10891656437E+04  0.10891656437E+04  0.00000000000E+00 0.  1.
         25    2    1    2    0    0  0.15491277653E+03  0.25558010112E+02 -0.28316976760E+03  0.34710743512E+03  0.12508906435E+03 0.  0.
         23    2    1    2    0    0 -0.15491277653E+03 -0.25558010112E+02 -0.76318223991E+03  0.78487184476E+03  0.94474870558E+02 0.  0.
          5    1    3    3  502    0  0.10350744642E+02  0.50744019277E+02 -0.96830884275E+02  0.10988988105E+03  0.41800000000E+01 0. -1.
         -5    1    3    3    0  502  0.14456203189E+03 -0.25186009165E+02 -0.18633888332E+03  0.23721755407E+03  0.41800000000E+01 0. -1.
        -11    1    4    4    0    0 -0.68998098204E+02 -0.58559906630E+02 -0.41281117813E+03  0.42261456317E+03  0.00000000000E+00 0.  1.
         11    1    4    4    0    0 -0.85914678326E+02  0.33001896518E+02 -0.35037106178E+03  0.36225728159E+03  0.00000000000E+00 0. -1.
</event>
<event>
 8    1  0.3710605E-009  0.9010210E+02  0.7561462E-02  0.1302605E+00
         -1   -1    0    0    0  501 -0.00000000000E+00  0.00000000000E+00  0.52939988142E+02  0.52939988142E+02  0.00000000000E+00 0.  1.
          1   -1    0    0  501    0  0.00000000000E+00 -0.00000000000E+00 -0.23895431277E+03  0.23895431277E+03  0.00000000000E+00 0. -1.
         25    2    1    2    0    0 -0.13781829378E+02 -0.38981659567E+01 -0.70524035465E+02  0.14431801835E+03  0.12509562871E+03 0.  0.
         23    2    1    2    0    0  0.13781829378E+02  0.38981659567E+01 -0.11549028917E+03  0.14757628256E+03  0.90750304490E+02 0.  0.
          5    1    3    3  502    0 -0.44384924018E+02  0.45474363200E+02 -0.18727685198E+02  0.66378744952E+02  0.41800000000E+01 0.  1.
         -5    1    3    3    0  502  0.30603094640E+02 -0.49372529156E+02 -0.51796350268E+02  0.77939273399E+02  0.41800000000E+01 0.  1.
        -11    1    4    4    0    0 -0.13296090224E+02  0.22004951823E+02  0.18713305518E+01  0.25778009970E+02  0.00000000000E+00 0.  1.
         11    1    4    4    0    0  0.27077919602E+02 -0.18106785866E+02 -0.11736161972E+03  0.12179827259E+03  0.00000000000E+00 0. -1.
</event>
<event>
 8    1  0.3710605E-009  0.1749135E+03  0.7561462E-02  0.1172819E+00
          2   -1    0    0  501    0  0.00000000000E+00  0.00000000000E+00  0.37733257438E+03  0.37733257438E+03  0.00000000000E+00 0. -1.
         -2   -1    0    0    0  501 -0.00000000000E+00 -0.00000000000E+00 -0.10298625706E+03  0.10298625706E+03  0.00000000000E+00 0.  1.
         25    2    1    2    0    0 -0.36913122287E+02 -0.14815633424E+03  0.21719069999E+03  0.29348437072E+03  0.12509355588E+03 0.  0.
         23    2    1    2    0    0  0.36913122287E+02  0.14815633424E+03  0.57155617326E+02  0.18683446072E+03  0.91254989712E+02 0.  0.
          5    1    3    3  502    0 -0.32050834286E+02  0.13220209977E+02  0.28196631734E+02  0.44883765121E+02  0.41800000000E+01 0.  1.
         -5    1    3    3    0  502 -0.48622880011E+01 -0.16137654422E+03  0.18899406826E+03  0.24860060560E+03  0.41800000000E+01 0.  1.
        -11    1    4    4    0    0  0.20344293697E+02  0.10902904440E+03 -0.55941290555E+01  0.11105186666E+03  0.00000000000E+00 0.  1.
         11    1    4    4    0    0  0.16568828590E+02  0.39127289840E+02  0.62749746382E+02  0.75782594057E+02  0.00000000000E+00 0. -1.
</event>
<event>
 8    1  0.3710605E-009  0.9663286E+02  0.7561462E-02  0.1287540E+00
          4   -1    0    0  501    0  0.00000000000E+00  0.00000000000E+00  0.57304628341E+02  0.57304628341E+02  0.00000000000E+00 0. -1.
         -4   -1    0    0    0  501 -0.00000000000E+00 -0.00000000000E+00 -0.32023887210E+03  0.32023887210E+03  0.00000000000E+00 0.  1.
         25    2    1    2    0    0 -0.46562708644E+02  0.47238108806E+02 -0.90007782132E+02  0.16777791738E+03  0.12509398049E+03 0.  0.
         23    2    1    2    0    0  0.46562708644E+02 -0.47238108806E+02 -0.17292646163E+03  0.20976558306E+03  0.98481033437E+02 0.  0.
          5    1    3    3  502    0 -0.70738091977E+02  0.37346064731E+00 -0.90418469575E+02  0.11487814923E+03  0.41800000000E+01 0.  1.
         -5    1    3    3    0  502  0.24175383333E+02  0.46864648159E+02  0.41068744268E+00  0.52899768152E+02  0.41800000000E+01 0.  1.
        -11    1    4    4    0    0  0.38668146256E+02 -0.25350231883E+02 -0.17968280457E+03  0.18553643860E+03  0.00000000000E+00 0.  1.
         11    1    4    4    0    0  0.78945623879E+01 -0.21887876924E+02  0.67563429385E+01  0.24229144463E+02  0.00000000000E+00 0. -1.
</event>
<event>
 8    1  0.3710605E-009  0.1331013E+03  0.7561462E-02  0.1222925E+00
          2   -1    0    0  501    0  0.00000000000E+00  0.00000000000E+00  0.12255901389E+03  0.12255901389E+03  0.00000000000E+00 0.  1.
         -2   -1    0    0    0  501 -0.00000000000E+00 -0.00000000000E+00 -0.19604838316E+03  0.19604838316E+03  0.00000000000E+00 0. -1.
         25    2    1    2    0    0 -0.10398998711E+03  0.36343424868E+02 -0.42182685796E+02  0.17193927558E+03  0.12509585747E+03 0.  0.
         23    2    1    2    0    0  0.10398998711E+03 -0.36343424868E+02 -0.31306683476E+02  0.14666812148E+03  0.91633331703E+02 0.  0.
          5    1    3    3  502    0 -0.31676753903E+02 -0.25073900818E+02  0.31777644821E+02  0.51569451717E+02  0.41800000000E+01 0. -1.
         -5    1    3    3    0  502 -0.72313233204E+02  0.61417325686E+02 -0.73960330617E+02  0.12036982386E+03  0.41800000000E+01 0. -1.
        -11    1    4    4    0    0  0.20378854318E+02 -0.42139527868E+02 -0.41092869431E+02  0.62286928246E+02  0.00000000000E+00 0. -1.
         11    1    4    4    0    0  0.83611132789E+02  0.57961030003E+01  0.97861859547E+01  0.84381193235E+02  0.00000000000E+00 0.  1.
</event>
<event>
 8    1  0.3710605E-009  0.1194731E+03  0.7561462E-02  0.1243969E+00
         -3   -1    0    0    0  501 -0.00000000000E+00  0.00000000000E+00  0.12365025905E+04  0.12365025905E+04  0.00000000000E+00 0.  1.
          3   -1    0    0  501    0  0.00000000000E+00 -0.00000000000E+00 -0.19273335959E+02  0.19273335959E+02  0.00000000000E+00 0. -1.
         25    2    1    2    0    0  0.22353919087E+01  0.53275614138E+02  0.10432573939E+04  0.10520839790E+04  0.12510563957E+03 0.  0.
         23    2    1    2    0    0 -0.22353919087E+01 -0.53275614138E+02  0.17397186071E+03  0.20369194746E+03  0.91547327108E+02 0.  0.
          5    1    3    3  502    0  0.43993669972E+02 -0.22263736435E+02  0.39927319053E+03  0.40232781415E+03  0.41800000000E+01 0.  1.
         -5    1    3    3    0  502 -0.41758278063E+02  0.75539350573E+02  0.64398420334E+03  0.64975616490E+03  0.41800000000E+01 0.  1.
        -11    1    4    4    0    0  0.37823491085E+02 -0.50224502795E+02  0.12821279143E+03  0.14279928937E+03  0.00000000000E+00 0. -1.
         11    1    4    4    0    0 -0.40058882994E+02 -0.30511113432E+01  0.45759069282E+02  0.60892658086E+02  0.00000000000E+00 0.  1.
</event>
<event>
 8    1  0.3710605E-009  0.1071348E+03  0.7561462E-02  0.1265970E+00
         -2   -1    0    0    0  501 -0.00000000000E+00  0.00000000000E+00  0.52977089066E+02  0.52977089066E+02  0.00000000000E+00 0.  1.
          2   -1    0    0  501    0  0.00000000000E+00 -0.00000000000E+00 -0.39314061056E+03  0.39314061056E+03  0.00000000000E+00 0. -1.
         25    2    1    2    0    0  0.59567965466E+01 -0.54294994020E+02 -0.30607664636E+03  0.33513182958E+03  0.12508796883E+03 0.  0.
         23    2    1    2    0    0 -0.59567965466E+01  0.54294994020E+02 -0.34086875132E+02  0.11098587005E+03  0.90401982799E+02 0.  0.
          5    1    3    3  502    0  0.52635205557E+02 -0.42762393031E+02 -0.84850217793E+02  0.10870197322E+03  0.41800000000E+01 0. -1.
         -5    1    3    3    0  502 -0.46678409010E+02 -0.11532600990E+02 -0.22122642857E+03  0.22642985636E+03  0.41800000000E+01 0. -1.
        -11    1    4    4    0    0  0.21994522143E+02 -0.12750017977E+02 -0.28413032837E+02  0.38126400272E+02  0.00000000000E+00 0. -1.
         11    1    4    4    0    0 -0.27951318689E+02  0.67045011997E+02 -0.56738422949E+01  0.72859469780E+02  0.00000000000E+00 0.  1.
</event>
<event>
 8    1  0.3710605E-009  0.1488431E+03  0.7561462E-02  0.1201902E+00
          1   -1    0    0  501    0  0.00000000000E+00  0.00000000000E+00  0.78662181143E+02  0.78662181143E+02  0.00000000000E+00 0. -1.
         -1   -1    0    0    0  501 -0.00000000000E+00 -0.00000000000E+00 -0.33925467727E+03  0.33925467727E+03  0.00000000000E+00 0.  1.
         25    2    1    2    0    0 -0.10754933825E+03  0.26538119555E+02 -0.73483722536E+02  0.18253429275E+03  0.12509108124E+03 0.  0.
         23    2    1    2    0    0  0.10754933825E+03 -0.26538119555E+02 -0.18710877359E+03  0.23538256566E+03  0.90133939854E+02 0.  0.
          5    1    3    3  502    0 -0.12687389460E+03  0.43619639812E+02 -0.79111437581E+02  0.15580677156E+03  0.41800000000E+01 0.  1.
         -5    1    3    3    0  502  0.19324556349E+02 -0.17081520257E+02  0.56277150453E+01  0.26727521191E+02  0.41800000000E+01 0.  1.
        -11    1    4    4    0    0  0.90858238277E+02 -0.53632721561E+02 -0.16763562142E+03  0.19807420290E+03  0.00000000000E+00 0.  1.
         11    1    4    4    0    0  0.16691099975E+02  0.27094602006E+02 -0.19473152163E+02  0.37308362755E+02  0.00000000000E+00 0. -1.
</event>
<event>
 8    1  0.3710605E-009  0.1034094E+03  0.7561462E-02  0.1273285E+00
         -1   -1    0    0    0  501 -0.00000000000E+00  0.00000000000E+00  0.48226961298E+02  0.48226961298E+02  0.00000000000E+00 0.  1.
          1   -1    0    0  501    0  0.00000000000E+00 -0.00000000000E+00 -0.40356735306E+03  0.40356735306E+03  0.00000000000E+00 0. -1.
         25    2    1    2    0    0 -0.61929101702E+02 -0.18305770360E+01 -0.96883939308E+02  0.16991929935E+03  0.12508999139E+03 0.  0.
         23    2    1    2    0    0  0.61929101702E+02  0.18305770360E+01 -0.25845645245E+03  0.28187501501E+03  0.93889411656E+02 0.  0.
          5    1    3    3  502    0 -0.16095162557E+02 -0.34344394355E+02 -0.10616079202E+03  0.11281036231E+03  0.41800000000E+01 0.  1.
         -5    1    3    3    0  502 -0.45833939145E+02  0.32513817319E+02  0.92768527111E+01  0.57108937045E+02  0.41800000000E+01 0.  1.
        -11    1    4    4    0    0  0.52980487448E+02 -0.41979142393E+02 -0.14769054986E+03  0.16242437922E+03  0.00000000000E+00 0.  1.
         11    1    4    4    0    0  0.89486142534E+01  0.43809719429E+02 -0.11076590259E+03  0.11945063579E+03  0.00000000000E+00 0. -1.
</event>
<event>
 8    1  0.3710605E-009  0.1209848E+03  0.7561462E-02  0.1241481E+00
         -2   -1    0    0    0  501 -0.00000000000E+00  0.00000000000E+00  0.13669525338E+03  0.13669525338E+03  0.00000000000E+00 0.  1.
          2   -1    0    0  501    0  0.00000000000E+00 -0.00000000000E+00 -0.16684743007E+03  0.16684743007E+03  0.00000000000E+00 0. -1.
         25    2    1    2    0    0 -0.37646864150E+02  0.93827717517E+02 -0.42055733285E+02  0.16624736409E+03  0.12509426210E+03 0.  0.
         23    2    1    2    0    0  0.37646864150E+02 -0.93827717517E+02  0.11903556587E+02  0.13729531936E+03  0.92126994438E+02 0.  0.
          5    1    3    3  502    0 -0.14723711381E+02 -0.14657264453E+02 -0.50701244912E+02  0.54951903640E+02  0.41800000000E+01 0. -1.
         -5    1    3    3    0  502 -0.22923152769E+02  0.10848498197E+03  0.86455116270E+01  0.11129546045E+03  0.41800000000E+01 0. -1.
        -11    1    4    4    0    0  0.21947572075E+02 -0.91319781493E+02  0.42289191937E+02  0.10300181633E+03  0.00000000000E+00 0.  1.
         11    1    4    4    0    0  0.15699292075E+02 -0.25079360238E+01 -0.30385635350E+02  0.34293503034E+02  0.00000000000E+00 0. -1.
</event>
<event>
 8    1  0.3710605E-009  0.9167925E+02  0.7561462E-02  0.1298835E+00
          4   -1    0    0  501    0  0.00000000000E+00  0.00000000000E+00  0.42035375538E+03  0.42035375538E+03  0.00000000000E+00 0. -1.
         -4   -1    0    0    0  501 -0.00000000000E+00 -0.00000000000E+00 -0.37900880651E+02  0.37900880651E+02  0.00000000000E+00 0.  1.
         25    2    1    2    0    0 -0.64447643509E+02  0.37993569385E+01  0.21176127899E+03  0.25428004015E+03  0.12509023014E+03 0.  0.
         23    2    1    2    0    0  0.64447643509E+02 -0.37993569385E+01  0.17069159574E+03  0.20397459588E+03  0.91115756260E+02 0.  0.
          5    1    3    3  502    0 -0.12583492438E+02  0.34276684899E+02  0.28752209492E+01  0.36864274103E+02  0.41800000000E+01 0.  1.
         -5    1    3    3    0  502 -0.51864151071E+02 -0.30477327961E+02  0.20888605804E+03  0.21741576605E+03  0.41800000000E+01 0.  1.
        -11    1    4    4    0    0  0.74189363362E+02  0.32818580220E+01  0.17583887689E+03  0.19087729790E+03  0.00000000000E+00 0. -1.
         11    1    4    4    0    0 -0.97417198535E+01 -0.70812149605E+01 -0.51472811477E+01  0.13097297975E+02  0.00000000000E+00 0.  1.
</event>
<event>
 8    1  0.3710605E-009  0.1219604E+03  0.7561462E-02  0.1239898E+00
         -2   -1    0    0    0  501 -0.00000000000E+00  0.00000000000E+00  0.91870192172E+02  0.91870192172E+02  0.00000000000E+00 0.  1.
          2   -1    0    0  501    0  0.00000000000E+00 -0.00000000000E+00 -0.26507998122E+03  0.26507998122E+03  0.00000000000E+00 0. -1.
         25    2    1    2    0    0 -0.40256518555E+02  0.54215794101E+02 -0.19285666630E+03  0.23958393910E+03  0.12508729161E+03 0.  0.
         23    2    1    2    0    0  0.40256518555E+02 -0.54215794101E+02  0.19646877260E+02  0.11736623429E+03  0.93962192121E+02 0.  0.
          5    1    3    3  502    0  0.37784554065E+02  0.40576967665E+02 -0.11829489910E+03  0.13071081969E+03  0.41800000000E+01 0. -1.
         -5    1    3    3    0  502 -0.78041072620E+02  0.13638826436E+02 -0.74561767203E+02  0.10887311941E+03  0.41800000000E+01 0. -1.
        -11    1    4    4    0    0 -0.24022017267E+02  0.12907530626E+01  0.21723083380E+02  0.32413202690E+02  0.00000000000E+00 0.  1.
         11    1    4    4    0    0  0.64278535822E+02 -0.55506547164E+02 -0.20762061206E+01  0.84953031596E+02  0.00000000000E+00 0. -1.
</event>
<event>
 8    1  0.3710605E-009  0.1058099E+03  0.7561462E-02  0.1268532E+00
          1   -1    0    0  501    0  0.00000000000E+00  0.00000000000E+00  0.14746304360E+03  0.14746304360E+03  0.00000000000E+00 0. -1.
         -1   -1    0    0    0  501 -0.00000000000E+00 -0.00000000000E+00 -0.86180304845E+02  0.86180304845E+02  0.00000000000E+00 0.  1.
         25    2    1    2    0    0 -0.33291138415E+02  0.10296669294E+02  0.35180749556E+02  0.13452263898E+03  0.12507731194E+03 0.  0.
         23    2    1    2    0    0  0.33291138415E+02 -0.10296669294E+02  0.26101989201E+02  0.99120709471E+02  0.89046504200E+02 0.  0.
          5    1    3    3  502    0  0.19967364431E+02  0.51660938675E+02  0.37333617739E+02  0.66923984046E+02  0.41800000000E+01 0.  1.
         -5    1    3    3    0  502 -0.53258502845E+02 -0.41364269382E+02 -0.21528681833E+01  0.67598654929E+02  0.41800000000E+01 0.  1.
        -11    1    4    4    0    0  0.42203768995E+01 -0.43886870741E+02 -0.57440664536E+01  0.44461930953E+02  0.00000000000E+00 0.  1.
         11    1    4    4    0    0  0.29070761515E+02  0.33590201447E+02  0.31846055655E+02  0.54658778518E+02  0.00000000000E+00 0. -1.
</event>
<event>
 8    1  0.3710605E-009  0.5563503E+02  0.7561462E-02  0.1417119E+00
         -2   -1    0    0    0  501 -0.00000000000E+00  0.00000000000E+00  0.16926632330E+03  0.16926632330E+03  0.00000000000E+00 0. -1.
          2   -1    0    0  501    0  0.00000000000E+00 -0.00000000000E+00 -0.73537683062E+02  0.73537683062E+02  0.00000000000E+00 0.  1.
         25    2    1    2    0    0 -0.18169131798E+02  0.15117178913E+02  0.79207464969E+02  0.14993181586E+03  0.12508829062E+03 0.  0.
         23    2    1    2    0    0  0.18169131798E+02 -0.15117178913E+02  0.16521175268E+02  0.92872190503E+02  0.88281640719E+02 0.  0.
          5    1    3    3  502    0 -0.43409702457E+02  0.11161159334E+02 -0.18636198729E+02  0.48721186850E+02  0.41800000000E+01 0.  1.
         -5    1    3    3    0  502  0.25240570659E+02  0.39560195789E+01  0.97843663699E+02  0.10121062901E+03  0.41800000000E+01 0.  1.
        -11    1    4    4    0    0  0.13388489441E+02 -0.25574656619E+02 -0.31947891714E+02  0.43057897018E+02  0.00000000000E+00 0.  1.
         11    1    4    4    0    0  0.47806423572E+01  0.10457477706E+02  0.48469066982E+02  0.49814293485E+02  0.00000000000E+00 0. -1.
</event>
<event>
 8    1  0.3710605E-009  0.1094002E+03  0.7561462E-02  0.1261685E+00
          2   -1    0    0  501    0  0.00000000000E+00  0.00000000000E+00  0.12056620475E+03  0.12056620475E+03  0.00000000000E+00 0. -1.
         -2   -1    0    0    0  501 -0.00000000000E+00 -0.00000000000E+00 -0.16090271236E+03  0.16090271236E+03  0.00000000000E+00 0.  1.
         25    2    1    2    0    0  0.40878215789E+02  0.61415274423E+02  0.23706094749E+02  0.14714972307E+03  0.12509275604E+03 0.  0.
         23    2    1    2    0    0 -0.40878215789E+02 -0.61415274423E+02 -0.64042602354E+02  0.13431919403E+03  0.92180944405E+02 0.  0.
          5    1    3    3  502    0  0.47939826766E+02 -0.27030996977E+02  0.18341620283E+02  0.58161750511E+02  0.41800000000E+01 0.  1.
         -5    1    3    3    0  502 -0.70616109771E+01  0.88446271400E+02  0.53644744665E+01  0.88987972561E+02  0.41800000000E+01 0.  1.
        -11    1    4    4    0    0 -0.37536268069E+02 -0.47886323710E+02 -0.87772902245E+02  0.10679959638E+03  0.00000000000E+00 0.  1.
         11    1    4    4    0    0 -0.33419477196E+01 -0.13528950713E+02  0.23730299892E+02  0.27519597652E+02  0.00000000000E+00 0. -1.
</event>
<event>
 8    1  0.3710605E-009  0.1031524E+03  0.7561462E-02  0.1273803E+00
          4   -1    0    0  501    0  0.00000000000E+00  0.00000000000E+00  0.50775827906E+02  0.50775827906E+02  0.00000000000E+00 0. -1.
         -4   -1    0    0    0  501 -0.00000000000E+00 -0.00000000000E+00 -0.24538268047E+03  0.24538268047E+03  0.00000000000E+00 0.  1.
         25    2    1    2    0    0 -0.68203038581E+01 -0.17708749300E+02 -0.13773789065E+03  0.18703446446E+03  0.12510015199E+03 0.  0.
         23    2    1    2    0    0  0.68203038581E+01  0.17708749300E+02 -0.56868961915E+02  0.10912404392E+03  0.91180380481E+02 0.  0.
          5    1    3    3  502    0 -0.62755231283E+02  0.65530112512E+01 -0.52708532925E+02  0.82321460464E+02  0.41800000000E+01 0.  1.
         -5    1    3    3    0  502  0.55934927424E+02 -0.24261760551E+02 -0.85029357727E+02  0.10471300400E+03  0.41800000000E+01 0.  1.
        -11    1    4    4    0    0 -0.87131559617E+01  0.47535629160E+02 -0.57975434037E+02  0.75476526670E+02  0.00000000000E+00 0.  1.
         11    1    4    4    0    0  0.15533459820E+02 -0.29826879860E+02  0.11064721223E+01  0.33647517245E+02  0.00000000000E+00 0. -1.
</event>
<event>
 8    1  0.3710605E-009  0.1303947E+03  0.7561462E-02  0.1226871E+00
         -1   -1    0    0    0  501 -0.00000000000E+00  0.00000000000E+00  0.15624444621E+03  0.15624444621E+03  0.00000000000E+00 0.  1.
          1   -1    0    0  501    0  0.00000000000E+00 -0.00000000000E+00 -0.14961910771E+03  0.14961910771E+03  0.00000000000E+00 0. -1.
         25    2    1    2    0    0 -0.11725264331E+02 -0.72291884217E+02  0.82134506913E+02  0.16660210869E+03  0.12508631839E+03 0.  0.
         23    2    1    2    0    0  0.11725264331E+02  0.72291884217E+02 -0.75509168413E+02  0.13926144523E+03  0.91260710414E+02 0.  0.
          5    1    3    3  502    0 -0.23115655906E+02  0.31749571266E+02  0.30010743430E+02  0.49603285625E+02  0.41800000000E+01 0.  1.
         -5    1    3    3    0  502  0.11390391576E+02 -0.10404145548E+03  0.52123763483E+02  0.11699882307E+03  0.41800000000E+01 0.  1.
        -11    1    4    4    0    0 -0.39202348308E+02  0.41243734144E+02 -0.43074890896E+02  0.71367471195E+02  0.00000000000E+00 0. -1.
         11    1    4    4    0    0  0.50927612639E+02  0.31048150073E+02 -0.32434277517E+02  0.67893974034E+02  0.00000000000E+00 0.  1.
</event>
<event>
 8    1  0.3710605E-009  0.8175370E+02  0.7561462E-02  0.1324147E+00
         -1   -1    0    0    0  501 -0.00000000000E+00  0.00000000000E+00  0.19037997889E+02  0.19037997889E+02  0.00000000000E+00 0.  1.
          1   -1    0    0  501    0  0.00000000000E+00 -0.00000000000E+00 -0.84951699421E+03  0.84951699421E+03  0.00000000000E+00 0. -1.
         25    2    1    2    0    0  0.34889282656E+01 -0.68274909812E+02 -0.50055045389E+03  0.52045398982E+03  0.12509181705E+03 0.  0.
         23    2    1    2    0    0 -0.34889282656E+01  0.68274909812E+02 -0.32992854243E+03  0.34810100228E+03  0.87451865340E+02 0.  0.
          5    1    3    3  502    0  0.94442875857E-01 -0.58484497063E+02 -0.50502538994E+03  0.50841770445E+03  0.41800000000E+01 0. -1.
         -5    1    3    3    0  502  0.33944853897E+01 -0.97904127487E+01  0.44749360433E+01  0.12036285367E+02  0.41800000000E+01 0. -1.
        -11    1    4    4    0    0 -0.12569078439E+02  0.78801956066E+02 -0.32272350888E+03  0.33244276680E+03  0.00000000000E+00 0. -1.
         11    1    4    4    0    0  0.90801501734E+01 -0.10527046254E+02 -0.72050335437E+01  0.15658235481E+02  0.00000000000E+00 0.  1.
</event>
<event>
 8    1  0.3710605E-009  0.1515199E+03  0.7561462E-02  0.1198618E+00
          2   -1    0    0  501    0  0.00000000000E+00  0.00000000000E+00  0.13555099534E+04  0.13555099534E+04  0.00000000000E+00 0. -1.
         -2   -1    0    0    0  501 -0.00000000000E+00 -0.00000000000E+00 -0.18107335306E+02  0.18107335306E+02  0.00000000000E+00 0.  1.
         25    2    1    2    0    0  0.23606915526E+02  0.10848869900E+03  0.64993503474E+03  0.67111138558E+03  0.12509139941E+03 0.  0.
         23    2    1    2    0    0 -0.23606915526E+02 -0.10848869900E+03  0.68746758335E+03  0.70250590311E+03  0.92605515430E+02 0.  0.
          5    1    3    3  502    0  0.71419307959E+02  0.84187533235E+02  0.37379522747E+03  0.38978019804E+03  0.41800000000E+01 0. -1.
         -5    1    3    3    0  502 -0.47812392433E+02  0.24301165765E+02  0.27613980726E+03  0.28133118754E+03  0.41800000000E+01 0. -1.
        -11    1    4    4    0    0  0.17773937335E+00  0.13993095459E+02  0.27590114478E+02  0.30936268824E+02  0.00000000000E+00 0.  1.
         11    1    4    4    0    0 -0.23784654899E+02 -0.12248179446E+03  0.65987746887E+03  0.67156963429E+03  0.00000000000E+00 0. -1.
</event>
<event>
 8    1  0.3710605E-009  0.1404996E+03  0.7561462E-02  0.1212658E+00
         -2   -1    0    0    0  501 -0.00000000000E+00  0.00000000000E+00  0.25932229991E+03  0.25932229991E+03  0.00000000000E+00 0.  1.
          2   -1    0    0  501    0  0.00000000000E+00 -0.00000000000E+00 -0.10758089439E+03  0.10758089439E+03  0.00000000000E+00 0. -1.
         25    2    1    2    0    0  0.10451903030E+03  0.36252149282E+02  0.15371862751E+03  0.22697112511E+03  0.12509208274E+03 0.  0.
         23    2    1    2    0    0 -0.10451903030E+03 -0.36252149282E+02 -0.19772219890E+01  0.13993206920E+03  0.85665795751E+02 0.  0.
          5    1    3    3  502    0 -0.28414872860E+02  0.82734093184E+01  0.17947922146E+02  0.34863370617E+02  0.41800000000E+01 0. -1.
         -5    1    3    3    0  502  0.13293390316E+03  0.27978739964E+02  0.13577070536E+03  0.19210775449E+03  0.41800000000E+01 0. -1.
        -11    1    4    4    0    0 -0.23534797178E+02 -0.23425909210E+02  0.36512309736E+02  0.49353912336E+02  0.00000000000E+00 0.  1.
         11    1    4    4    0    0 -0.80984233124E+02 -0.12826240072E+02 -0.38489531725E+02  0.90578156867E+02  0.00000000000E+00 0. -1.
</event>
<event>
 8    1  0.3710605E-009  0.1484082E+03  0.7561462E-02  0.1202443E+00
         -1   -1    0    0    0  501 -0.00000000000E+00  0.00000000000E+00  0.82335694011E+02  0.82335694011E+02  0.00000000000E+00 0.  1.
          1   -1    0    0  501    0  0.00000000000E+00 -0.00000000000E+00 -0.39115287486E+03  0.39115287486E+03  0.00000000000E+00 0. -1.
         25    2    1    2    0    0 -0.64966429523E+02  0.12601807720E+03 -0.18294156120E+03  0.26308769690E+03  0.12508528570E+03 0.  0.
         23    2    1    2    0    0  0.64966429523E+02 -0.12601807720E+03 -0.12587561964E+03  0.21040087197E+03  0.91228627960E+02 0.  0.
          5    1    3    3  502    0 -0.82783680309E+01  0.73665199236E+02 -0.16896242676E+03  0.18455586420E+03  0.41800000000E+01 0. -1.
         -5    1    3    3    0  502 -0.56688061492E+02  0.52352877962E+02 -0.13979134444E+02  0.78531832695E+02  0.41800000000E+01 0. -1.
        -11    1    4    4    0    0 -0.41982113981E+00 -0.24723185352E+02  0.11798721399E+02  0.27397481096E+02  0.00000000000E+00 0.  1.
         11    1    4    4    0    0  0.65386250662E+02 -0.10129489185E+03 -0.13767434104E+03  0.18300339088E+03  0.00000000000E+00 0. -1.
</event>
<event>
 8    1  0.3710605E-009  0.1322108E+03  0.7561462E-02  0.1224212E+00
         -1   -1    0    0    0  501 -0.00000000000E+00  0.00000000000E+00  0.63906917268E+02  0.63906917268E+02  0.00000000000E+00 0.  1.
          1   -1    0    0  501    0  0.00000000000E+00 -0.00000000000E+00 -0.32115770509E+03  0.32115770509E+03  0.00000000000E+00 0. -1.
         25    2    1    2    0    0 -0.60505544943E+02  0.63491681815E+02 -0.97767446363E+02  0.18137908915E+03  0.12509110994E+03 0.  0.
         23    2    1    2    0    0  0.60505544943E+02 -0.63491681815E+02 -0.15948334146E+03  0.20368553320E+03  0.91437112844E+02 0.  0.
          5    1    3    3  502    0  0.36831180878E+02  0.27987815116E+02 -0.46425156280E+02  0.65670550595E+02  0.41800000000E+01 0. -1.
         -5    1    3    3    0  502 -0.97336725821E+02  0.35503866699E+02 -0.51342290083E+02  0.11570853856E+03  0.41800000000E+01 0. -1.
        -11    1    4    4    0    0  0.46922674905E+01 -0.58009292548E+02 -0.36975883509E+02  0.68951514540E+02  0.00000000000E+00 0.  1.
         11    1    4    4    0    0  0.55813277453E+02 -0.54823892672E+01 -0.12250745795E+03  0.13473401866E+03  0.00000000000E+00 0. -1.
</event>
<event>
 8    1  0.3710605E-009  0.9564955E+02  0.7561462E-02  0.1289720E+00
         -3   -1    0    0    0  501 -0.00000000000E+00  0.00000000000E+00  0.15260108964E+03  0.15260108964E+03  0.00000000000E+00 0.  1.
          3   -1    0    0  501    0  0.00000000000E+00 -0.00000000000E+00 -0.14567945406E+03  0.14567945406E+03  0.00000000000E+00 0. -1.
         25    2    1    2    0    0  0.63090974637E+01 -0.34104049554E+02 -0.92265947951E+02  0.15925817073E+03  0.12508904382E+03 0.  0.
         23    2    1    2    0    0 -0.63090974637E+01  0.34104049554E+02  0.99187583531E+02  0.13902237298E+03  0.91028306347E+02 0.  0.
          5    1    3    3  502    0  0.25399432214E+02  0.22926343940E+02 -0.92773296404E+02  0.98970224456E+02  0.41800000000E+01 0. -1.
         -5    1    3    3    0  502 -0.19090334750E+02 -0.57030393494E+02  0.50734845359E+00  0.60287946269E+02  0.41800000000E+01 0. -1.
        -11    1    4    4    0    0  0.24861992212E+02 -0.21453194363E+02  0.42806408673E+02  0.53951337598E+02  0.00000000000E+00 0. -1.
         11    1    4    4    0    0 -0.31171089675E+02  0.55557243917E+02  0.56381174859E+02  0.85071035386E+02  0.00000000000E+00 0.  1.
</event>
<event>
 8    1  0.3710605E-009  0.1062011E+03  0.7561462E-02  0.1267771E+00
          1   -1    0    0  501    0  0.00000000000E+00  0.00000000000E+00  0.21630951509E+02  0.21630951509E+02  0.00000000000E+00 0. -1.
         -1   -1    0    0    0  501 -0.00000000000E+00 -0.00000000000E+00 -0.61588148434E+03  0.61588148434E+03  0.00000000000E+00 0.  1.
         25    2    1    2    0    0 -0.87378828150E+01 -0.41635805567E+02 -0.33575450123E+03  0.36081663687E+03  0.12509064491E+03 0.  0.
         23    2    1    2    0    0  0.87378828150E+01  0.41635805567E+02 -0.25849603159E+03  0.27669579897E+03  0.89053219586E+02 0.  0.
          5    1    3    3  502    0  0.12376434230E+01  0.35648024034E+02 -0.35166336022E+02  0.50263873388E+02  0.41800000000E+01 0. -1.
         -5    1    3    3    0  502 -0.99755262380E+01 -0.77283829601E+02 -0.30058816521E+03  0.31055276348E+03  0.41800000000E+01 0. -1.
        -11    1    4    4    0    0 -0.70213105200E+01 -0.27067832637E+02 -0.64961976180E+02  0.70724993562E+02  0.00000000000E+00 0. -1.
         11    1    4    4    0    0  0.15759193335E+02  0.68703638205E+02 -0.19353405541E+03  0.20597080541E+03  0.00000000000E+00 0.  1.
</event>
<event>
 8    1  0.3710605E-009  0.1168620E+03  0.7561462E-02  0.1248365E+00
          2   -1    0    0  501    0  0.00000000000E+00  0.00000000000E+00  0.81855080160E+03  0.81855080160E+03  0.00000000000E+00 0. -1.
         -2   -1    0    0    0  501 -0.00000000000E+00 -0.00000000000E+00 -0.38380998144E+02  0.38380998144E+02  0.00000000000E+00 0.  1.
         25    2    1    2    0    0 -0.43186007597E+02  0.34224786510E+02  0.72162708735E+03  0.73445805816E+03  0.12508644504E+03 0.  0.
         23    2    1    2    0    0  0.43186007597E+02 -0.34224786510E+02  0.58542716101E+02  0.12247374158E+03  0.92391560786E+02 0.  0.
          5    1    3    3  502    0  0.40162955574E+02  0.34300240577E+02  0.30218361557E+03  0.30679305634E+03  0.41800000000E+01 0. -1.
         -5    1    3    3    0  502 -0.83348963171E+02 -0.75454066203E-01  0.41944347179E+03  0.42766500182E+03  0.41800000000E+01 0. -1.
        -11    1    4    4    0    0  0.16923734037E+02  0.26321160730E+02  0.45466584576E+02  0.55194443461E+02  0.00000000000E+00 0.  1.
         11    1    4    4    0    0  0.26262273560E+02 -0.60545947241E+02  0.13076131524E+02  0.67279298120E+02  0.00000000000E+00 0. -1.
</event>
<event>
 8    1  0.3710605E-009  0.1004023E+03  0.7561462E-02  0.1279452E+00
          2   -1    0    0  501    0  0.00000000000E+00  0.00000000000E+00  0.43382881573E+03  0.43382881573E+03  0.00000000000E+00 0. -1.
         -2   -1    0    0    0  501 -0.00000000000E+00 -0.00000000000E+00 -0.39367050681E+02  0.39367050681E+02  0.00000000000E+00 0.  1.
         25    2    1    2    0    0  0.44908886894E+02 -0.57069796030E+02  0.20266900031E+03  0.24898912090E+03  0.12508832439E+03 0.  0.
         23    2    1    2    0    0 -0.44908886894E+02  0.57069796030E+02  0.19179276473E+03  0.22420674551E+03  0.90611425250E+02 0.  0.
          5    1    3    3  502    0  0.55203787676E+02  0.14272269665E+01  0.17457999634E+03  0.18315333105E+03  0.41800000000E+01 0. -1.
         -5    1    3    3    0  502 -0.10294900783E+02 -0.58497022997E+02  0.28089003971E+02  0.65835789854E+02  0.41800000000E+01 0. -1.
        -11    1    4    4    0    0 -0.47495486948E+02  0.24935495320E+02  0.34810004580E+02  0.63947921203E+02  0.00000000000E+00 0.  1.
         11    1    4    4    0    0  0.25866000547E+01  0.32134300710E+02  0.15698276015E+03  0.16025882430E+03  0.00000000000E+00 0. -1.
</event>
<event>
 8    1  0.3710605E-009  0.9921861E+02  0.7561462E-02  0.1281948E+00
          2   -1    0    0  501    0  0.00000000000E+00  0.00000000000E+00  0.10815399933E+04  0.10815399933E+04  0.00000000000E+00 0. -1.
         -2   -1    0    0    0  501 -0.00000000000E+00 -0.00000000000E+00 -0.13642758970E+02  0.13642758970E+02  0.00000000000E+00 0.  1.
         25    2    1    2    0    0 -0.20276705707E+01  0.57497912173E+02  0.63691377118E+03  0.65162792480E+03  0.12509867749E+03 0.  0.
         23    2    1    2    0    0  0.20276705707E+01 -0.57497912173E+02  0.43098346316E+03  0.44355482748E+03  0.87658531308E+02 0.  0.
          5    1    3    3  502    0 -0.46911929892E+02  0.25643440017E+02  0.51519259565E+03  0.51797605948E+03  0.41800000000E+01 0.  1.
         -5    1    3    3    0  502  0.44884259321E+02  0.31854472157E+02  0.12172117553E+03  0.13365186532E+03  0.41800000000E+01 0.  1.
        -11    1    4    4    0    0  0.19237159524E+02  0.87737843043E+01  0.29615185076E+02  0.36388278122E+02  0.00000000000E+00 0.  1.
         11    1    4    4    0    0 -0.17209488954E+02 -0.66271696477E+02  0.40136827808E+03  0.40716654936E+03  0.00000000000E+00 0. -1.
</event>
<event>
 8    1  0.3710605E-009  0.9015465E+02  0.7561462E-02  0.1302478E+00
          1   -1    0    0  501    0  0.00000000000E+00  0.00000000000E+00  0.34191560684E+03  0.34191560684E+03  0.00000000000E+00 0. -1.
         -1   -1    0    0    0  501 -0.00000000000E+00 -0.00000000000E+00 -0.46708347579E+02  0.46708347579E+02  0.00000000000E+00 0.  1.
         25    2    1    2    0    0  0.17625430226E+02  0.57240981154E+02  0.21680878815E+03  0.25737134558E+03  0.12508706246E+03 0.  0.
         23    2    1    2    0    0 -0.17625430226E+02 -0.57240981154E+02  0.78398471109E+02  0.13125260883E+03  0.86566398441E+02 0.  0.
          5    1    3    3  502    0  0.56584670631E+02  0.77699964883E+01  0.16829123850E+03  0.17776842000E+03  0.41800000000E+01 0. -1.
         -5    1    3    3    0  502 -0.38959240405E+02  0.49470984666E+02  0.48517549655E+02  0.79602925582E+02  0.41800000000E+01 0. -1.
        -11    1    4    4    0    0 -0.40976259419E+01 -0.16641346213E+02  0.86084370794E+02  0.87773822049E+02  0.00000000000E+00 0. -1.
         11    1    4    4    0    0 -0.13527804284E+02 -0.40599634942E+02 -0.76858996856E+01  0.43478786783E+02  0.00000000000E+00 0.  1.
</event>
<event>
 8    1  0.3710605E-009  0.1133786E+03  0.7561462E-02  0.1254438E+00
         -1   -1    0    0    0  501 -0.00000000000E+00  0.00000000000E+00  0.62138926924E+02  0.62138926924E+02  0.00000000000E+00 0.  1.
          1   -1    0    0  501    0  0.00000000000E+00 -0.00000000000E+00 -0.27559058370E+03  0.27559058370E+03  0.00000000000E+00 0. -1.
         25    2    1    2    0    0  0.39453144747E+02 -0.50007571593E+02 -0.16385000074E+03  0.21576017894E+03  0.12509326212E+03 0.  0.
         23    2    1    2    0    0 -0.39453144747E+02  0.50007571593E+02 -0.49601656040E+02  0.12196933168E+03  0.91426942103E+02 0.  0.
          5    1    3    3  502    0 -0.74363691808E+01 -0.80394846004E+02 -0.72485322443E+02  0.10858280352E+03  0.41800000000E+01 0. -1.
         -5    1    3    3    0  502  0.46889513928E+02  0.30387274411E+02 -0.91364678296E+02  0.10717737542E+03  0.41800000000E+01 0. -1.
        -11    1    4    4    0    0  0.15018928295E+02 -0.12660103120E+01 -0.44505356759E+02  0.46988272680E+02  0.00000000000E+00 0. -1.
         11    1    4    4    0    0 -0.54472073042E+02  0.51273581905E+02 -0.50962992808E+01  0.74981059003E+02  0.00000000000E+00 0.  1.
</event>
<event>
 8    1  0.3710605E-009  0.1289194E+03  0.7561462E-02  0.1229068E+00
          2   -1    0    0  501    0  0.00000000000E+00  0.00000000000E+00  0.44540090055E+03  0.44540090055E+03  0.00000000000E+00 0. -1.
         -2   -1    0    0    0  501 -0.00000000000E+00 -0.00000000000E+00 -0.47356215575E+02  0.47356215575E+02  0.00000000000E+00 0.  1.
         25    2    1    2    0    0 -0.79673010619E+02  0.49472834241E+02  0.17546790062E+03  0.23501278328E+03  0.12508666680E+03 0.  0.
         23    2    1    2    0    0  0.79673010619E+02 -0.49472834241E+02  0.22257678436E+03  0.25774433284E+03  0.89979810118E+02 0.  0.
          5    1    3    3  502    0  0.11304126200E+02  0.33898080419E+02  0.12428648737E+03  0.12938881895E+03  0.41800000000E+01 0.  1.
         -5    1    3    3    0  502 -0.90977136819E+02  0.15574753823E+02  0.51181413247E+02  0.10562396434E+03  0.41800000000E+01 0.  1.
        -11    1    4    4    0    0 -0.67743677069E+01 -0.42170750432E+02  0.84361321301E+02  0.94557372962E+02  0.00000000000E+00 0. -1.
         11    1    4    4    0    0  0.86447378325E+02 -0.73020838098E+01  0.13821546306E+03  0.16318695988E+03  0.00000000000E+00 0.  1.
</event>
<event>
 8    1  0.3710605E-009  0.1330885E+03  0.7561462E-02  0.1222944E+00
          2   -1    0    0  501    0  0.00000000000E+00  0.00000000000E+00  0.19378445172E+03  0.19378445172E+03  0.00000000000E+00 0. -1.
         -2   -1    0    0    0  501 -0.00000000000E+00 -0.00000000000E+00 -0.13494851253E+03  0.13494851253E+03  0.00000000000E+00 0.  1.
         25    2    1    2    0    0 -0.96933166737E+02  0.63704788487E+02  0.62363876173E+02  0.18163541404E+03  0.12509129342E+03 0.  0.
         23    2    1    2    0    0  0.96933166737E+02 -0.63704788487E+02 -0.35279369784E+01  0.14709755022E+03  0.90393053115E+02 0.  0.
          5    1    3    3  502    0 -0.11458065917E+03  0.60312157638E+02  0.83073400828E+02  0.15389914275E+03  0.41800000000E+01 0. -1.
         -5    1    3    3    0  502  0.17647492433E+02  0.33926308492E+01 -0.20709524655E+02  0.27736271283E+02  0.41800000000E+01 0. -1.
        -11    1    4    4    0    0  0.42201446816E+02 -0.41258471966E+02  0.42010687246E+02  0.72443919450E+02  0.00000000000E+00 0. -1.
         11    1    4    4    0    0  0.54731719921E+02 -0.22446316521E+02 -0.45538624224E+02  0.74653630770E+02  0.00000000000E+00 0.  1.
</event>
<event>
 8    1  0.3710605E-009  0.9609200E+02  0.7561462E-02  0.1288735E+00
          2   -1    0    0  501    0  0.00000000000E+00  0.00000000000E+00  0.85447624646E+02  0.85447624646E+02  0.00000000000E+00 0. -1.
         -2   -1    0    0    0  501 -0.00000000000E+00 -0.00000000000E+00 -0.14018840997E+03  0.14018840997E+03  0.00000000000E+00 0.  1.
         25    2    1    2    0    0 -0.15578989207E+01  0.10649919792E+02 -0.13376294517E+02  0.12626020049E+03  0.12508742995E+03 0.  0.
         23    2    1    2    0    0  0.15578989207E+01 -0.10649919792E+02 -0.41364490809E+02  0.99375834131E+02  0.89714477476E+02 0.  0.
          5    1    3    3  502    0 -0.48036893744E+02  0.46273611692E+02 -0.63278567694E+01  0.67129013630E+02  0.41800000000E+01 0.  1.
         -5    1    3    3    0  502  0.46478994824E+02 -0.35623691900E+02 -0.70484377474E+01  0.59131186857E+02  0.41800000000E+01 0.  1.
        -11    1    4    4    0    0 -0.28489319396E+01  0.27798521819E+02  0.14448383949E+02  0.31458385643E+02  0.00000000000E+00 0.  1.
         11    1    4    4    0    0  0.44068308603E+01 -0.38448441610E+02 -0.55812874758E+02  0.67917448489E+02  0.00000000000E+00 0. -1.
</event>
<event>
 8    1  0.3710605E-009  0.1234703E+03  0.7561462E-02  0.1237480E+00
          1   -1    0    0  501    0  0.00000000000E+00  0.00000000000E+00  0.50619247199E+03  0.50619247199E+03  0.00000000000E+00 0. -1.
         -1   -1    0    0    0  501 -0.00000000000E+00 -0.00000000000E+00 -0.38573051654E+02  0.38573051654E+02  0.00000000000E+00 0.  1.
         25    2    1    2    0    0  0.28898470659E+02 -0.68317179651E+02  0.34683621046E+03  0.37609154495E+03  0.12508850729E+03 0.  0.
         23    2    1    2    0    0 -0.28898470659E+02  0.68317179651E+02  0.12078320988E+03  0.16867397870E+03  0.91432864213E+02 0.  0.
          5    1    3    3  502    0  0.66793718986E+02 -0.73267373890E+02  0.29706879366E+03  0.31320416590E+03  0.41800000000E+01 0. -1.
         -5    1    3    3    0  502 -0.37895248327E+02  0.49501942386E+01  0.49767416796E+02  0.62887379046E+02  0.41800000000E+01 0. -1.
        -11    1    4    4    0    0 -0.53374996043E+02  0.65698231354E+02  0.11599461318E+03  0.14359630250E+03  0.00000000000E+00 0. -1.
         11    1    4    4    0    0  0.24476525384E+02  0.26189482969E+01  0.47885967066E+01  0.25077676198E+02  0.00000000000E+00 0.  1.
</event>
<event>
 8    1  0.3710605E-009  0.2065521E+03  0.7561462E-02  0.1144326E+00
          1   -1    0    0  501    0  0.00000000000E+00  0.00000000000E+00  0.79579339998E+03  0.79579339998E+03  0.00000000000E+00 0. -1.
         -1   -1    0    0    0  501 -0.00000000000E+00 -0.00000000000E+00 -0.57831204994E+02  0.57831204994E+02  0.00000000000E+00 0.  1.
         25    2    1    2    0    0 -0.82855068119E+01  0.17820361664E+03  0.47943870636E+03  0.52662556224E+03  0.12509129081E+03 0.  0.
         23    2    1    2    0    0  0.82855068119E+01 -0.17820361664E+03  0.25852348862E+03  0.32699904273E+03  0.90932948785E+02 0.  0.
          5    1    3    3  502    0 -0.45281833078E+02  0.17517252528E+02  0.70767076290E+02  0.85922930756E+02  0.41800000000E+01 0.  1.
         -5    1    3    3    0  502  0.36996326266E+02  0.16068636411E+03  0.40867163007E+03  0.44070263148E+03  0.41800000000E+01 0.  1.
        -11    1    4    4    0    0 -0.40360943852E+02 -0.91610411273E+02  0.11511611442E+03  0.15255554084E+03  0.00000000000E+00 0.  1.
         11    1    4    4    0    0  0.48646450664E+02 -0.86593205364E+02  0.14340737420E+03  0.17444350189E+03  0.00000000000E+00 0. -1.
</event>
<event>
 8    1  0.3710605E-009  0.8186786E+02  0.7561462E-02  0.1323833E+00
          1   -1    0    0  501    0  0.00000000000E+00  0.00000000000E+00  0.14839755387E+03  0.14839755387E+03  0.00000000000E+00 0. -1.
         -1   -1    0    0    0  501 -0.00000000000E+00 -0.00000000000E+00 -0.13118108798E+03  0.13118108798E+03  0.00000000000E+00 0.  1.
         25    2    1    2    0    0 -0.36501276234E+02  0.14657795518E+02  0.87764271394E+02  0.15778854991E+03  0.12508982778E+03 0.  0.
         23    2    1    2    0    0  0.36501276234E+02 -0.14657795518E+02 -0.70547805507E+02  0.12179009194E+03  0.91151738854E+02 0.  0.
          5    1    3    3  502    0  0.15850453356E+02 -0.41918760469E+02  0.61131853660E+01  0.45423152534E+02  0.41800000000E+01 0.  1.
         -5    1    3    3    0  502 -0.52351729590E+02  0.56576555987E+02  0.81651086028E+02  0.11236539738E+03  0.41800000000E+01 0.  1.
        -11    1    4    4    0    0  0.19003197216E+02 -0.47913218064E+00 -0.90027794967E+02  0.92012797690E+02  0.00000000000E+00 0.  1.
         11    1    4    4    0    0  0.17498079018E+02 -0.14178663338E+02  0.19479989460E+02  0.29777294248E+02  0.00000000000E+00 0. -1.
</event>
<event>
 8    1  0.3710605E-009  0.2704112E+03  0.7561462E-02  0.1101045E+00
          2   -1    0    0  501    0  0.00000000000E+00  0.00000000000E+00  0.12415706521E+04  0.12415706521E+04  0.00000000000E+00 0. -1.
         -2   -1    0    0    0  501 -0.00000000000E+00 -0.00000000000E+00 -0.80941404011E+02  0.80941404011E+02  0.00000000000E+00 0.  1.
         25    2    1    2    0    0  0.80276751444E+02 -0.24396085069E+03  0.27963912223E+03  0.39975748359E+03  0.12508698381E+03 0.  0.
         23    2    1    2    0    0 -0.80276751444E+02  0.24396085069E+03  0.88099012590E+03  0.92275457256E+03  0.96804678323E+02 0.  0.
          5    1    3    3  502    0  0.62020514045E+02 -0.74672321357E+02  0.17413507087E+03  0.19940660733E+03  0.41800000000E+01 0.  1.
         -5    1    3    3    0  502  0.18256237400E+02 -0.16928852933E+03  0.10550405136E+03  0.20035087627E+03  0.41800000000E+01 0.  1.
        -11    1    4    4    0    0  0.44887190516E+01  0.13602735341E+03  0.39692507315E+03  0.41961065664E+03  0.00000000000E+00 0.  1.
         11    1    4    4    0    0 -0.84765470496E+02  0.10793349728E+03  0.48406505275E+03  0.50314391591E+03  0.00000000000E+00 0. -1.
</event>
<event>
 8    1  0.3710605E-009  0.9158995E+02  0.7561462E-02  0.1299046E+00
          2   -1    0    0  501    0  0.00000000000E+00  0.00000000000E+00  0.11054329150E+03  0.11054329150E+03  0.00000000000E+00 0. -1.
         -2   -1    0    0    0  501 -0.00000000000E+00 -0.00000000000E+00 -0.13096103283E+03  0.13096103283E+03  0.00000000000E+00 0.  1.
         25    2    1    2    0    0  0.51628777916E+02 -0.82351187078E+01 -0.17798344481E+02  0.13673581306E+03  0.12508618476E+03 0.  0.
         23    2    1    2    0    0 -0.51628777916E+02  0.82351187078E+01 -0.26193968480E+01  0.10476851127E+03  0.90753687670E+02 0.  0.
          5    1    3    3  502    0  0.46441938907E+02  0.19752723128E+02 -0.64426284858E+02  0.81946582241E+02  0.41800000000E+01 0.  1.
         -5    1    3    3    0  502  0.51868390089E+01 -0.27987841836E+02  0.46627940377E+02  0.54789230815E+02  0.41800000000E+01 0.  1.
        -11    1    4    4    0    0 -0.76742730541E+02 -0.17001983931E+01 -0.81736399943E+01  0.77195503472E+02  0.00000000000E+00 0. -1.
         11    1    4    4    0    0  0.25113952626E+02  0.99353171008E+01  0.55542431463E+01  0.27573007803E+02  0.00000000000E+00 0.  1.
</event>
<event>
 8    1  0.3710605E-009  0.1492634E+03  0.7561462E-02  0.1201381E+00
          2   -1    0    0  501    0  0.00000000000E+00  0.00000000000E+00  0.42652811374E+03  0.42652811374E+03  0.00000000000E+00 0.  1.
         -2   -1    0    0    0  501 -0.00000000000E+00 -0.00000000000E+00 -0.64293810469E+02  0.64293810469E+02  0.00000000000E+00 0. -1.
         25    2    1    2    0    0 -0.85354470878E+02  0.89536545161E+02  0.21141364288E+03  0.27503731594E+03  0.12509043987E+03 0.  0.
         23    2    1    2    0    0  0.85354470878E+02 -0.89536545161E+02  0.15082066039E+03  0.21578460826E+03  0.92271051502E+02 0.  0.
          5    1    3    3  502    0 -0.41352081199E+02 -0.22535712416E+02  0.26098191234E+02  0.54004082617E+02  0.41800000000E+01 0. -1.
         -5    1    3    3    0  502 -0.44002389679E+02  0.11207225758E+03  0.18531545165E+03  0.22103323333E+03  0.41800000000E+01 0. -1.
        -11    1    4    4    0    0  0.63153756454E+02 -0.88272023917E+02  0.15863753837E+03  0.19221398425E+03  0.00000000000E+00 0.  1.
         11    1    4    4    0    0  0.22200714423E+02 -0.12645212436E+01 -0.78168779846E+01  0.23570624012E+02  0.00000000000E+00 0. -1.
</event>
<event>
 8    1  0.3710605E-009  0.8410321E+02  0.7561462E-02  0.1317795E+00
         -1   -1    0    0    0  501 -0.00000000000E+00  0.00000000000E+00  0.10812759182E+03  0.10812759182E+03  0.00000000000E+00 0.  1.
          1   -1    0    0  501    0  0.00000000000E+00 -0.00000000000E+00 -0.12639470037E+03  0.12639470037E+03  0.00000000000E+00 0. -1.
         25    2    1    2    0    0 -0.99133491051E+01  0.98990999197E+01  0.26517896784E+02  0.12863765533E+03  0.12509268904E+03 0.  0.
         23    2    1    2    0    0  0.99133491051E+01 -0.98990999197E+01 -0.44785005331E+02  0.10588463686E+03  0.94918875632E+02 0.  0.
          5    1    3    3  502    0 -0.39604862464E+02  0.25022721218E+02 -0.34947826289E+02  0.58596114805E+02  0.41800000000E+01 0. -1.
         -5    1    3    3    0  502  0.29691513359E+02 -0.15123621298E+02  0.61465723073E+02  0.70041540529E+02  0.41800000000E+01 0. -1.
        -11    1    4    4    0    0  0.19180943677E+02  0.35986036924E+02  0.45998776183E+00  0.40781307514E+02  0.00000000000E+00 0.  1.
         11    1    4    4    0    0 -0.92675945716E+01 -0.45885136844E+02 -0.45244993093E+02  0.65103329349E+02  0.00000000000E+00 0. -1.
</event>
<event>
 8    1  0.3710605E-009  0.1901841E+03  0.7561462E-02  0.1158295E+00
         -1   -1    0    0    0  501 -0.00000000000E+00  0.00000000000E+00  0.31603606675E+02  0.31603606675E+02  0.00000000000E+00 0.  1.
          1   -1    0    0  501    0  0.00000000000E+00 -0.00000000000E+00 -0.15358630287E+04  0.15358630287E+04  0.00000000000E+00 0. -1.
         25    2    1    2    0    0  0.10219051786E+03 -0.12597687745E+03 -0.11405856901E+04  0.11588340810E+04  0.12509050815E+03 0.  0.
         23    2    1    2    0    0 -0.10219051786E+03  0.12597687745E+03 -0.36367373191E+03  0.40863255436E+03  0.91700085115E+02 0.  0.
          5    1    3    3  502    0  0.11363328387E+02 -0.10959381771E+03 -0.53524652433E+03  0.54648535599E+03  0.41800000000E+01 0. -1.
         -5    1    3    3    0  502  0.90827189473E+02 -0.16383059735E+02 -0.60533916580E+03  0.61234872503E+03  0.41800000000E+01 0. -1.
        -11    1    4    4    0    0  0.72550538234E+01  0.33978288025E+02 -0.31108846264E+02  0.46636039486E+02  0.00000000000E+00 0.  1.
         11    1    4    4    0    0 -0.10944557168E+03  0.91998589425E+02 -0.33256488564E+03  0.36199651487E+03  0.00000000000E+00 0. -1.
</event>
<event>
 8    1  0.3710605E-009  0.1049028E+03  0.7561462E-02  0.1270311E+00
         -2   -1    0    0    0  501 -0.00000000000E+00  0.00000000000E+00  0.16078715961E+02  0.16078715961E+02  0.00000000000E+00 0.  1.
          2   -1    0    0  501    0  0.00000000000E+00 -0.00000000000E+00 -0.94558530057E+03  0.94558530057E+03  0.00000000000E+00 0. -1.
         25    2    1    2    0    0  0.49391214453E+01  0.15994340856E+02 -0.71397039543E+03  0.72503741928E+03  0.12508125337E+03 0.  0.
         23    2    1    2    0    0 -0.49391214453E+01 -0.15994340856E+02 -0.21553618918E+03  0.23662659726E+03  0.96208543392E+02 0.  0.
          5    1    3    3  502    0  0.55965948198E+02 -0.62826119710E+01 -0.19325405511E+03  0.20133618847E+03  0.41800000000E+01 0.  1.
         -5    1    3    3    0  502 -0.51026826753E+02  0.22276952827E+02 -0.52071634032E+03  0.52370123081E+03  0.41800000000E+01 0.  1.
        -11    1    4    4    0    0 -0.24974259390E+02  0.34835623100E+02 -0.10141122635E+03  0.11009755265E+03  0.00000000000E+00 0.  1.
         11    1    4    4    0    0  0.20035137945E+02 -0.50829963957E+02 -0.11412496283E+03  0.12652904461E+03  0.00000000000E+00 0. -1.
</event>
<event>
 8    1  0.3710605E-009  0.1989455E+03  0.7561462E-02  0.1150632E+00
          1   -1    0    0  501    0  0.00000000000E+00  0.00000000000E+00  0.36552439634E+03  0.36552439634E+03  0.00000000000E+00 0. -1.
         -1   -1    0    0    0  501 -0.00000000000E+00 -0.00000000000E+00 -0.11334728638E+03  0.11334728638E+03  0.00000000000E+00 0.  1.
         25    2    1    2    0    0  0.16244511789E+03 -0.54477751212E+02  0.12229112973E+03  0.24486380756E+03  0.12508765783E+03 0.  0.
         23    2    1    2    0    0 -0.16244511789E+03  0.54477751212E+02  0.12988598023E+03  0.23400787515E+03  0.92374650582E+02 0.  0.
          5    1    3    3  502    0  0.17949458625E+03 -0.46688733046E+02  0.87478232355E+02  0.20510499220E+03  0.41800000000E+01 0.  1.
         -5    1    3    3    0  502 -0.17049468367E+02 -0.77890181656E+01  0.34812897378E+02  0.39758815367E+02  0.41800000000E+01 0.  1.
        -11    1    4    4    0    0 -0.44518650949E+02  0.60473356536E+02  0.36664295276E+02  0.83565589097E+02  0.00000000000E+00 0. -1.
         11    1    4    4    0    0 -0.11792646694E+03 -0.59956053239E+01  0.93221684953E+02  0.15044228605E+03  0.00000000000E+00 0.  1.
</event>
<event>
 8    1  0.3710605E-009  0.1064410E+03  0.7561462E-02  0.1267306E+00
         -1   -1    0    0    0  501 -0.00000000000E+00  0.00000000000E+00  0.30703730372E+02  0.30703730372E+02  0.00000000000E+00 0.  1.
          1   -1    0    0  501    0  0.00000000000E+00 -0.00000000000E+00 -0.48029378121E+03  0.48029378121E+03  0.00000000000E+00 0. -1.
         25    2    1    2    0    0  0.52799158508E+01  0.14382237204E+02 -0.14058782136E+03  0.18880370343E+03  0.12508867516E+03 0.  0.
         23    2    1    2    0    0 -0.52799158508E+01 -0.14382237204E+02 -0.30900222947E+03  0.32219380815E+03  0.89954132389E+02 0.  0.
          5    1    3    3  502    0  0.12889939711E+02  0.67680006378E+02 -0.58145177496E+02  0.90250029779E+02  0.41800000000E+01 0. -1.
         -5    1    3    3    0  502 -0.76100238599E+01 -0.53297769174E+02 -0.82442643867E+02  0.98553673650E+02  0.41800000000E+01 0. -1.
        -11    1    4    4    0    0  0.40029250625E+02 -0.19009349311E+02 -0.12442873335E+03  0.13208408666E+03  0.00000000000E+00 0.  1.
         11    1    4    4    0    0 -0.45309166475E+02  0.46271121064E+01 -0.18457349613E+03  0.19010972149E+03  0.00000000000E+00 0. -1.
</event>
<event>
 8    1  0.3710605E-009  0.1527657E+03  0.7561462E-02  0.1197115E+00
          3   -1    0    0  501    0  0.00000000000E+00  0.00000000000E+00  0.48101378210E+03  0.48101378210E+03  0.00000000000E+00 0. -1.
         -3   -1    0    0    0  501 -0.00000000000E+00 -0.00000000000E+00 -0.60566480943E+02  0.60566480943E+02  0.00000000000E+00 0.  1.
         25    2    1    2    0    0 -0.96672334668E+02  0.84552503486E+02  0.17809068485E+03  0.25270344320E+03  0.12509225411E+03 0.  0.
         23    2    1    2    0    0  0.96672334668E+02 -0.84552503486E+02  0.24235661631E+03  0.28887681984E+03  0.90655509695E+02 0.  0.
          5    1    3    3  502    0 -0.62633036976E+01 -0.27525562237E+02  0.76628484759E+01  0.29547879728E+02  0.41800000000E+01 0. -1.
         -5    1    3    3    0  502 -0.90409030970E+02  0.11207806572E+03  0.17042783637E+03  0.22315556347E+03  0.41800000000E+01 0. -1.
        -11    1    4    4    0    0  0.57700686340E+02 -0.27690565020E+02  0.19502093915E+03  0.20525424065E+03  0.00000000000E+00 0. -1.
         11    1    4    4    0    0  0.38971648328E+02 -0.56861938466E+02  0.47335677152E+02  0.83622579193E+02  0.00000000000E+00 0.  1.
</event>
<event>
 8    1  0.3710605E-009  0.1710691E+03  0.7561462E-02  0.1176737E+00
         -2   -1    0    0    0  501 -0.00000000000E+00  0.00000000000E+00  0.23268667556E+03  0.23268667556E+03  0.00000000000E+00 0.  1.
          2   -1    0    0  501    0  0.00000000000E+00 -0.00000000000E+00 -0.13408152505E+03  0.13408152505E+03  0.00000000000E+00 0. -1.
         25    2    1    2    0    0 -0.12730352636E+03  0.50337174255E+02  0.78660315709E+02  0.20143269742E+03  0.12509063668E+03 0.  0.
         23    2    1    2    0    0  0.12730352636E+03 -0.50337174255E+02  0.19944834805E+02  0.16533550319E+03  0.90542880689E+02 0.  0.
          5    1    3    3  502    0 -0.89296221731E+02  0.88015472509E+02  0.78047625316E+02  0.14774790298E+03  0.41800000000E+01 0. -1.
         -5    1    3    3    0  502 -0.38007304632E+02 -0.37678298254E+02  0.61269039333E+00  0.53684794442E+02  0.41800000000E+01 0. -1.
        -11    1    4    4    0    0  0.67261815353E+02 -0.72600252721E+02  0.21510402826E+02  0.10128003717E+03  0.00000000000E+00 0. -1.
         11    1    4    4    0    0  0.60041711010E+02  0.22263078465E+02 -0.15655680205E+01  0.64055466019E+02  0.00000000000E+00 0.  1.
</event>
<event>
 8    1  0.3710605E-009  0.1173295E+03  0.7561462E-02  0.1247569E+00
          2   -1    0    0  501    0  0.00000000000E+00  0.00000000000E+00  0.46177389286E+03  0.46177389286E+03  0.00000000000E+00 0. -1.
         -2   -1    0    0    0  501 -0.00000000000E+00 -0.00000000000E+00 -0.52565679707E+02  0.52565679707E+02  0.00000000000E+00 0.  1.
         25    2    1    2    0    0  0.75090268212E+02 -0.59562351816E+02  0.12372054121E+03  0.20035092006E+03  0.12508995451E+03 0.  0.
         23    2    1    2    0    0 -0.75090268212E+02  0.59562351816E+02  0.28548767194E+03  0.31398865250E+03  0.88878799144E+02 0.  0.
          5    1    3    3  502    0  0.29466614562E+02  0.15589366613E+02  0.10516384590E+03  0.11040025639E+03  0.41800000000E+01 0. -1.
         -5    1    3    3    0  502  0.45623653650E+02 -0.75151718428E+02  0.18556695310E+02  0.89950663677E+02  0.41800000000E+01 0. -1.
        -11    1    4    4    0    0 -0.25688646857E+02 -0.10135464190E+02  0.17452802830E+02  0.32668555803E+02  0.00000000000E+00 0.  1.
         11    1    4    4    0    0 -0.49401621355E+02  0.69697816005E+02  0.26803486911E+03  0.28132009670E+03  0.00000000000E+00 0. -1.
</event>
<event>
 8    1  0.3710605E-009  0.8037987E+02  0.7561462E-02  0.1327977E+00
          1   -1    0    0  501    0  0.00000000000E+00  0.00000000000E+00  0.38088215406E+03  0.38088215406E+03  0.00000000000E+00 0. -1.
         -1   -1    0    0    0  501 -0.00000000000E+00 -0.00000000000E+00 -0.34739915401E+02  0.34739915401E+02  0.00000000000E+00 0.  1.
         25    2    1    2    0    0 -0.14803105760E+02  0.38886596606E+02  0.19836899115E+03  0.23817883934E+03  0.12509038142E+03 0.  0.
         23    2    1    2    0    0  0.14803105760E+02 -0.38886596606E+02  0.14777324750E+03  0.17744323012E+03  0.88982402200E+02 0.  0.
          5    1    3    3  502    0 -0.10808575549E+02  0.70541986203E+02  0.19266249745E+03  0.20549770667E+03  0.41800000000E+01 0.  1.
         -5    1    3    3    0  502 -0.39945302110E+01 -0.31655389597E+02  0.57064937002E+01  0.32681132668E+02  0.41800000000E+01 0.  1.
        -11    1    4    4    0    0 -0.69610759621E+01 -0.34107243975E+02  0.15097093198E+03  0.15493218830E+03  0.00000000000E+00 0. -1.
         11    1    4    4    0    0  0.21764181722E+02 -0.47793526317E+01 -0.31976844744E+01  0.22511041815E+02  0.00000000000E+00 0.  1.
</event>
<event>
 8    1  0.3710605E-009  0.1866995E+03  0.7561462E-02  0.1161472E+00
          2   -1    0    0  501    0  0.00000000000E+00  0.00000000000E+00  0.17049803540E+04  0.17049803540E+04  0.00000000000E+00 0. -1.
         -2   -1    0    0    0  501 -0.00000000000E+00 -0.00000000000E+00 -0.23209979423E+02  0.23209979423E+02  0.00000000000E+00 0.  1.
         25    2    1    2    0    0  0.30205339955E+02  0.15694844792E+03  0.10793727830E+04  0.10982887171E+04  0.12508926255E+03 0.  0.
         23    2    1    2    0    0 -0.30205339955E+02 -0.15694844792E+03  0.60239759164E+03  0.62990161637E+03  0.91367445087E+02 0.  0.
          5    1    3    3  502    0 -0.47887674022E+02  0.73477036762E+02  0.42183550464E+03  0.43087674529E+03  0.41800000000E+01 0.  1.
         -5    1    3    3    0  502  0.78093013977E+02  0.83471411153E+02  0.65753727833E+03  0.66741197180E+03  0.41800000000E+01 0.  1.
        -11    1    4    4    0    0 -0.47664391695E+02 -0.87912927121E+02  0.23066160727E+03  0.25140675023E+03  0.00000000000E+00 0.  1.
         11    1    4    4    0    0  0.17459051740E+02 -0.69035520795E+02  0.37173598437E+03  0.37849486614E+03  0.00000000000E+00 0. -1.
</event>
<event>
 8    1  0.3710605E-009  0.2311958E+03  0.7561462E-02  0.1125801E+00
          2   -1    0    0  501    0  0.00000000000E+00  0.00000000000E+00  0.10892463796E+04  0.10892463796E+04  0.00000000000E+00 0. -1.
         -2   -1    0    0    0  501 -0.00000000000E+00 -0.00000000000E+00 -0.55888228271E+02  0.55888228271E+02  0.00000000000E+00 0.  1.
         25    2    1    2    0    0  0.22090473674E+03  0.99079077995E+01  0.53473696124E+03  0.59202046503E+03  0.12509014328E+03 0.  0.
         23    2    1    2    0    0 -0.22090473674E+03 -0.99079077995E+01  0.49862119009E+03  0.55311414284E+03  0.91733823930E+02 0.  0.
          5    1    3    3  502    0  0.22311928954E+03  0.60664415341E+01  0.40754047304E+03  0.46467809142E+03  0.41800000000E+01 0.  1.
         -5    1    3    3    0  502 -0.22145527959E+01  0.38414662654E+01  0.12719648820E+03  0.12734237361E+03  0.41800000000E+01 0.  1.
        -11    1    4    4    0    0 -0.21381980614E+02  0.22364236981E+02  0.31561924465E+02  0.44198453215E+02  0.00000000000E+00 0. -1.
         11    1    4    4    0    0 -0.19952275613E+03 -0.32272144780E+02  0.46705926563E+03  0.50891568963E+03  0.00000000000E+00 0.  1.
</event>
<event>
 8    1  0.3710605E-009  0.8096131E+02  0.7561462E-02  0.1326345E+00
         -3   -1    0    0    0  501 -0.00000000000E+00  0.00000000000E+00  0.44595386997E+03  0.44595386997E+03  0.00000000000E+00 0.  1.
          3   -1    0    0  501    0  0.00000000000E+00 -0.00000000000E+00 -0.34919024768E+02  0.34919024768E+02  0.00000000000E+00 0. -1.
         25    2    1    2    0    0 -0.19317825454E+02 -0.55413542493E+02  0.26603123378E+03  0.29977251347E+03  0.12508838241E+03 0.  0.
         23    2    1    2    0    0  0.19317825454E+02  0.55413542493E+02  0.14500361142E+03  0.18110038126E+03  0.91254926977E+02 0.  0.
          5    1    3    3  502    0 -0.36457048461E+02 -0.45800396273E+02  0.27243601472E+03  0.27868557049E+03  0.41800000000E+01 0. -1.
         -5    1    3    3    0  502  0.17139223007E+02 -0.96131462207E+01 -0.64047809390E+01  0.21086942984E+02  0.41800000000E+01 0. -1.
        -11    1    4    4    0    0  0.18030951521E+02  0.68072396131E+02  0.15131369302E+03  0.16689757345E+03  0.00000000000E+00 0.  1.
         11    1    4    4    0    0  0.12868739326E+01 -0.12658853638E+02 -0.63100816029E+01  0.14202807813E+02  0.00000000000E+00 0. -1.
</event>
<event>
 8    1  0.3710605E-009  0.1763753E+03  0.7561462E-02  0.1171358E+00
         -1   -1    0    0    0  501 -0.00000000000E+00  0.00000000000E+00  0.25556215582E+02  0.25556215582E+02  0.00000000000E+00 0.  1.
          1   -1    0    0  501    0  0.00000000000E+00 -0.00000000000E+00 -0.19328482734E+04  0.19328482734E+04  0.00000000000E+00 0. -1.
         25    2    1    2    0    0  0.33664459018E+02 -0.17079118546E+03 -0.13664809472E+04  0.13831933979E+04  0.12510344599E+03 0.  0.
         23    2    1    2    0    0 -0.33664459018E+02  0.17079118546E+03 -0.54081111065E+03  0.57521109108E+03  0.89934515439E+02 0.  0.
          5    1    3    3  502    0  0.12879588815E+02 -0.11326055557E+02 -0.58800194088E+03  0.58826687670E+03  0.41800000000E+01 0. -1.
         -5    1    3    3    0  502  0.20784870203E+02 -0.15946512990E+03 -0.77847900633E+03  0.79492652124E+03  0.41800000000E+01 0. -1.
        -11    1    4    4    0    0 -0.25071769503E+02  0.10918485234E+03 -0.45880104933E+03  0.47227992597E+03  0.00000000000E+00 0. -1.
         11    1    4    4    0    0 -0.85926895147E+01  0.61606333119E+02 -0.82010061319E+02  0.10293116511E+03  0.00000000000E+00 0.  1.
</event>
<event>
 8    1  0.3710605E-009  0.1143979E+03  0.7561462E-02  0.1252636E+00
          2   -1    0    0  501    0  0.00000000000E+00  0.00000000000E+00  0.16670669537E+03  0.16670669537E+03  0.00000000000E+00 0. -1.
         -2   -1    0    0    0  501 -0.00000000000E+00 -0.00000000000E+00 -0.82724367919E+02  0.82724367919E+02  0.00000000000E+00 0.  1.
         25    2    1    2    0    0 -0.30438315713E+02  0.29991164471E+02  0.64534757399E+02  0.14710078810E+03  0.12509175008E+03 0.  0.
         23    2    1    2    0    0  0.30438315713E+02 -0.29991164471E+02  0.19447570052E+02  0.10233027519E+03  0.90924783360E+02 0.  0.
          5    1    3    3  502    0  0.28812840753E+02 -0.31813652745E+02  0.37693499984E+02  0.57276178593E+02  0.41800000000E+01 0.  1.
         -5    1    3    3    0  502 -0.59251156465E+02  0.61804817216E+02  0.26841257415E+02  0.89824609508E+02  0.41800000000E+01 0.  1.
        -11    1    4    4    0    0  0.15734418853E+02  0.32309987586E+02  0.11988068679E+02  0.37884311068E+02  0.00000000000E+00 0. -1.
         11    1    4    4    0    0  0.14703896859E+02 -0.62301152057E+02  0.74595013730E+01  0.64445964119E+02  0.00000000000E+00 0.  1.
</event>
<event>
 8    1  0.3710605E-009  0.1204973E+03  0.7561462E-02  0.1242279E+00
          2   -1    0    0  501    0  0.00000000000E+00  0.00000000000E+00  0.52690605882E+03  0.52690605882E+03  0.00000000000E+00 0. -1.
         -2   -1    0    0    0  501 -0.00000000000E+00 -0.00000000000E+00 -0.38922292749E+02  0.38922292749E+02  0.00000000000E+00 0.  1.
         25    2    1    2    0    0  0.65142367854E+02  0.66538956566E+02  0.26640169181E+03  0.30868910190E+03  0.12509252336E+03 0.  0.
         23    2    1    2    0    0 -0.65142367854E+02 -0.66538956566E+02  0.22158207426E+03  0.25713924967E+03  0.91383900428E+02 0.  0.
          5    1    3    3  502    0  0.92887688569E+02  0.51475204685E+02  0.25247193810E+03  0.27392950062E+03  0.41800000000E+01 0. -1.
         -5    1    3    3    0  502 -0.27745320714E+02  0.15063751882E+02  0.13929753714E+02  0.34759601275E+02  0.41800000000E+01 0. -1.
        -11    1    4    4    0    0 -0.20716389782E+02 -0.52241353407E+02  0.19604134036E+03  0.20393757609E+03  0.00000000000E+00 0. -1.
         11    1    4    4    0    0 -0.44425978073E+02 -0.14297603159E+02  0.25540733904E+02  0.53201673585E+02  0.00000000000E+00 0.  1.
</event>
<event>
 8    1  0.3710605E-009  0.3063884E+03  0.7561462E-02  0.1082090E+00
         -2   -1    0    0    0  501 -0.00000000000E+00  0.00000000000E+00  0.46669145110E+02  0.46669145110E+02  0.00000000000E+00 0.  1.
          2   -1    0    0  501    0  0.00000000000E+00 -0.00000000000E+00 -0.21520716978E+04  0.21520716978E+04  0.00000000000E+00 0. -1.
         25    2    1    2    0    0 -0.28048418042E+03  0.98988343565E+02 -0.11230295542E+04  0.11684661955E+04  0.12509117767E+03 0.  0.
         23    2    1    2    0    0  0.28048418042E+03 -0.98988343565E+02 -0.98237299848E+03  0.10302746474E+04  0.89101477875E+02 0.  0.
          5    1    3    3  502    0 -0.18324190544E+03  0.11490682400E+03 -0.87970810486E+03  0.90591666077E+03  0.41800000000E+01 0.  1.
         -5    1    3    3    0  502 -0.97242274983E+02 -0.15918480432E+02 -0.24332144934E+03  0.26254953470E+03  0.41800000000E+01 0.  1.
        -11    1    4    4    0    0  0.21234191344E+03 -0.68001024443E+02 -0.84396428200E+03  0.87291977685E+03  0.00000000000E+00 0.  1.
         11    1    4    4    0    0  0.68142266983E+02 -0.30987319123E+02 -0.13840871648E+03  0.15735487058E+03  0.00000000000E+00 0. -1.
</event>
<event>
 8    1  0.3710605E-009  0.1137730E+03  0.7561462E-02  0.1253738E+00
         -1   -1    0    0    0  501 -0.00000000000E+00  0.00000000000E+00  0.32849897848E+03  0.32849897848E+03  0.00000000000E+00 0.  1.
          1   -1    0    0  501    0  0.00000000000E+00 -0.00000000000E+00 -0.72222043578E+02  0.72222043578E+02  0.00000000000E+00 0. -1.
         25    2    1    2    0    0  0.36247132841E+01 -0.10277732573E+03  0.90747860763E+02  0.18563152889E+03  0.12509025963E+03 0.  0.
         23    2    1    2    0    0 -0.36247132841E+01  0.10277732573E+03  0.16552907414E+03  0.21508949316E+03  0.91034600321E+02 0.  0.
          5    1    3    3  502    0 -0.47300848662E+00 -0.43813969727E+02  0.11382820594E+03  0.12204188030E+03  0.41800000000E+01 0. -1.
         -5    1    3    3    0  502  0.40977217708E+01 -0.58963356001E+02 -0.23080345174E+02  0.63589648591E+02  0.41800000000E+01 0. -1.
        -11    1    4    4    0    0 -0.29706579642E+02  0.90876536618E+02  0.79287273131E+02  0.12420747748E+03  0.00000000000E+00 0.  1.
         11    1    4    4    0    0  0.26081866358E+02  0.11900789110E+02  0.86241801005E+02  0.90882015684E+02  0.00000000000E+00 0. -1.
</event>
<event>
 8    1  0.3710605E-009  0.1391715E+03  0.7561462E-02  0.1214448E+00
         -1   -1    0    0    0  501 -0.00000000000E+00  0.00000000000E+00  0.81661662492E+02  0.81661662492E+02  0.00000000000E+00 0.  1.
          1   -1    0    0  501    0  0.00000000000E+00 -0.00000000000E+00 -0.32140540547E+03  0.32140540547E+03  0.00000000000E+00 0. -1.
         25    2    1    2    0    0 -0.63380690911E+02  0.70534059047E+02 -0.34787818082E+02  0.16077981922E+03  0.12509113684E+03 0.  0.
         23    2    1    2    0    0  0.63380690911E+02 -0.70534059047E+02 -0.20495592490E+03  0.24228724874E+03  0.87772514412E+02 0.  0.
          5    1    3    3  502    0 -0.71942045355E+02 -0.11037391193E+02 -0.38017602289E+01  0.73002792242E+02  0.41800000000E+01 0. -1.
         -5    1    3    3    0  502  0.85613544443E+01  0.81571450240E+02 -0.30986057853E+02  0.87777026980E+02  0.41800000000E+01 0. -1.
        -11    1    4    4    0    0  0.67789795683E+01 -0.66199681067E+02 -0.73792924740E+02  0.99366735274E+02  0.00000000000E+00 0.  1.
         11    1    4    4    0    0  0.56601711343E+02 -0.43343779800E+01 -0.13116300016E+03  0.14292051347E+03  0.00000000000E+00 0. -1.
</event>
<event>
 8    1  0.3710605E-009  0.1671551E+03  0.7561462E-02  0.1180848E+00
         -1   -1    0    0    0  501 -0.00000000000E+00  0.00000000000E+00  0.36472744554E+03  0.36472744554E+03  0.00000000000E+00 0.  1.
          1   -1    0    0  501    0  0.00000000000E+00 -0.00000000000E+00 -0.14081281895E+03  0.14081281895E+03  0.00000000000E+00 0. -1.
         25    2    1    2    0    0  0.16518324678E+03 -0.20015809326E+02  0.23875905268E+03  0.31676250048E+03  0.12508580590E+03 0.  0.
         23    2    1    2    0    0 -0.16518324678E+03  0.20015809326E+02 -0.14844426085E+02  0.18877776401E+03  0.87923543844E+02 0.  0.
          5    1    3    3  502    0  0.15276225039E+03 -0.14977943318E+02  0.25351659381E+03  0.29639294807E+03  0.41800000000E+01 0.  1.
         -5    1    3    3    0  502  0.12420996382E+02 -0.50378660075E+01 -0.14757541131E+02  0.20369552407E+02  0.41800000000E+01 0.  1.
        -11    1    4    4    0    0 -0.55436250337E+02  0.17681786988E+01  0.36345676284E+02  0.66312234858E+02  0.00000000000E+00 0.  1.
         11    1    4    4    0    0 -0.10974699644E+03  0.18247630627E+02 -0.51190102370E+02  0.12246552916E+03  0.00000000000E+00 0. -1.
</event>
<event>
 8    1  0.3710605E-009  0.1932466E+03  0.7561462E-02  0.1155565E+00
         -2   -1    0    0    0  501 -0.00000000000E+00  0.00000000000E+00  0.47317311479E+02  0.47317311479E+02  0.00000000000E+00 0.  1.
          2   -1    0    0  501    0  0.00000000000E+00 -0.00000000000E+00 -0.82446616642E+03  0.82446616642E+03  0.00000000000E+00 0. -1.
         25    2    1    2    0    0  0.60293863499E+01  0.16361029941E+03 -0.45090309699E+03  0.49574861433E+03  0.12509357361E+03 0.  0.
         23    2    1    2    0    0 -0.60293863499E+01 -0.16361029941E+03 -0.32624575795E+03  0.37603486357E+03  0.90339584174E+02 0.  0.
          5    1    3    3  502    0  0.46487496941E+02  0.14958834874E+03 -0.29522377536E+03  0.33423391717E+03  0.41800000000E+01 0.  1.
         -5    1    3    3    0  502 -0.40458110591E+02  0.14021950666E+02 -0.15567932163E+03  0.16151469715E+03  0.41800000000E+01 0.  1.
        -11    1    4    4    0    0 -0.39900238445E+02 -0.32818509511E+02 -0.98618556249E+02  0.11133150152E+03  0.00000000000E+00 0. -1.
         11    1    4    4    0    0  0.33870852095E+02 -0.13079178990E+03 -0.22762720170E+03  0.26470336205E+03  0.00000000000E+00 0.  1.
</event>
<event>
 8    1  0.3710605E-009  0.2317302E+03  0.7561462E-02  0.1125428E+00
         -2   -1    0    0    0  501 -0.00000000000E+00  0.00000000000E+00  0.55869441325E+02  0.55869441325E+02  0.00000000000E+00 0.  1.
          2   -1    0    0  501    0  0.00000000000E+00 -0.00000000000E+00 -0.11427404558E+04  0.11427404558E+04  0.00000000000E+00 0. -1.
         25    2    1    2    0    0  0.22057707431E+03  0.13556620406E+02 -0.69727123661E+03  0.74207400152E+03  0.12509443897E+03 0.  0.
         23    2    1    2    0    0 -0.22057707431E+03 -0.13556620406E+02 -0.38959977784E+03  0.45653589558E+03  0.88312000274E+02 0.  0.
          5    1    3    3  502    0  0.18991354206E+03  0.29474407112E+02 -0.67229502220E+03  0.69923813069E+03  0.41800000000E+01 0.  1.
         -5    1    3    3    0  502  0.30663532252E+02 -0.15917786706E+02 -0.24976214409E+02  0.42835870833E+02  0.41800000000E+01 0.  1.
        -11    1    4    4    0    0 -0.16428155344E+03 -0.47094542197E+02 -0.25710030811E+03  0.30871814514E+03  0.00000000000E+00 0.  1.
         11    1    4    4    0    0 -0.56295520872E+02  0.33537921791E+02 -0.13249946973E+03  0.14781775045E+03  0.00000000000E+00 0. -1.
</event>
<event>
 8    1  0.3710605E-009  0.1188828E+03  0.7561462E-02  0.1244952E+00
          1   -1    0    0  501    0  0.00000000000E+00  0.00000000000E+00  0.12712714570E+04  0.12712714570E+04  0.00000000000E+00 0. -1.
         -1   -1    0    0    0  501 -0.00000000000E+00 -0.00000000000E+00 -0.26815023315E+02  0.26815023315E+02  0.00000000000E+00 0.  1.
         25    2    1    2    0    0 -0.25538221154E+02  0.97454731714E+02  0.10374934675E+04  0.10498524288E+04  0.12509117297E+03 0.  0.
         23    2    1    2    0    0  0.25538221154E+02 -0.97454731714E+02  0.20696296618E+03  0.24823405157E+03  0.92934651854E+02 0.  0.
          5    1    3    3  502    0  0.40510560799E+01 -0.17364704356E+02  0.45656666350E+03  0.45693384054E+03  0.41800000000E+01 0. -1.
         -5    1    3    3    0  502 -0.29589277234E+02  0.11481943607E+03  0.58092680401E+03  0.59291858821E+03  0.41800000000E+01 0. -1.
        -11    1    4    4    0    0  0.13292446502E+02 -0.43813672635E+02  0.14448488462E+02  0.48011309737E+02  0.00000000000E+00 0.  1.
         11    1    4    4    0    0  0.12245774652E+02 -0.53641059079E+02  0.19251447772E+03  0.20022274183E+03  0.00000000000E+00 0. -1.
</event>
<event>
 8    1  0.3710605E-009  0.1106458E+03  0.7561462E-02  0.1259379E+00
          2   -1    0    0  501    0  0.00000000000E+00  0.00000000000E+00  0.65045209905E+03  0.65045209905E+03  0.00000000000E+00 0. -1.
         -2   -1    0    0    0  501 -0.00000000000E+00 -0.00000000000E+00 -0.35777210514E+02  0.35777210514E+02  0.00000000000E+00 0.  1.
         25    2    1    2    0    0 -0.64197852306E+02 -0.59820348313E+02  0.47039154420E+03  0.49458691359E+03  0.12509265336E+03 0.  0.
         23    2    1    2    0    0  0.64197852306E+02  0.59820348313E+02  0.14428334434E+03  0.19164239598E+03  0.90605111171E+02 0.  0.
          5    1    3    3  502    0 -0.71127629607E+02 -0.70311040668E+01  0.11689163454E+03  0.13707553663E+03  0.41800000000E+01 0.  1.
         -5    1    3    3    0  502  0.69297773010E+01 -0.52789244247E+02  0.35349990966E+03  0.35751137695E+03  0.41800000000E+01 0.  1.
        -11    1    4    4    0    0  0.26762357782E+02  0.51352873411E+02  0.19521030937E+02  0.61109835955E+02  0.00000000000E+00 0.  1.
         11    1    4    4    0    0  0.37435494524E+02  0.84674749027E+01  0.12476231340E+03  0.13053256003E+03  0.00000000000E+00 0. -1.
</event>
<event>
 8    1  0.3710605E-009  0.1031204E+03  0.7561462E-02  0.1273868E+00
          1   -1    0    0  501    0  0.00000000000E+00  0.00000000000E+00  0.29272765186E+03  0.29272765186E+03  0.00000000000E+00 0. -1.
         -1   -1    0    0    0  501 -0.00000000000E+00 -0.00000000000E+00 -0.48838281031E+02  0.48838281031E+02  0.00000000000E+00 0.  1.
         25    2    1    2    0    0 -0.93141420257E+01  0.13639302353E+01  0.19927616675E+03  0.23547366585E+03  0.12509293796E+03 0.  0.
         23    2    1    2    0    0  0.93141420257E+01 -0.13639302353E+01  0.44613204078E+02  0.10609226704E+03  0.95794663731E+02 0.  0.
          5    1    3    3  502    0  0.54218643337E+02  0.19525560076E+02  0.11087811699E+03  0.12502934859E+03  0.41800000000E+01 0.  1.
         -5    1    3    3    0  502 -0.63532785363E+02 -0.18161629841E+02  0.88398049763E+02  0.11044431727E+03  0.41800000000E+01 0.  1.
        -11    1    4    4    0    0 -0.21201461617E+01 -0.40972005530E+02  0.49820708184E+02  0.64539160367E+02  0.00000000000E+00 0.  1.
         11    1    4    4    0    0  0.11434288187E+02  0.39608075295E+02 -0.52075041053E+01  0.41553106670E+02  0.00000000000E+00 0. -1.
</event>
<event>
 8    1  0.3710605E-009  0.7333833E+02  0.7561462E-02  0.1349095E+00
         -1   -1    0    0    0  501 -0.00000000000E+00  0.00000000000E+00  0.12325320743E+02  0.12325320743E+02  0.00000000000E+00 0.  1.
          1   -1    0    0  501    0  0.00000000000E+00 -0.00000000000E+00 -0.18581228420E+04  0.18581228420E+04  0.00000000000E+00 0. -1.
         25    2    1    2    0    0 -0.37315948865E+02 -0.37134122334E+02 -0.15634680950E+04  0.15693475707E+04  0.12509152836E+03 0.  0.
         23    2    1    2    0    0  0.37315948865E+02  0.37134122334E+02 -0.28232942623E+03  0.30110059202E+03  0.90444671049E+02 0.  0.
          5    1    3    3  502    0 -0.14361036017E+02 -0.24681481616E+02 -0.70947325437E+02  0.76592494913E+02  0.41800000000E+01 0.  1.
         -5    1    3    3    0  502 -0.22954912848E+02 -0.12452640718E+02 -0.14925207696E+04  0.14927550758E+04  0.41800000000E+01 0.  1.
        -11    1    4    4    0    0  0.12152563728E+02  0.57641046877E+02 -0.10129359138E+03  0.11717750102E+03  0.00000000000E+00 0.  1.
         11    1    4    4    0    0  0.25163385137E+02 -0.20506924543E+02 -0.18103583484E+03  0.18392309100E+03  0.00000000000E+00 0. -1.
</event>
<event>
 8    1  0.3710605E-009  0.2137913E+03  0.7561462E-02  0.1138598E+00
          2   -1    0    0  501    0  0.00000000000E+00  0.00000000000E+00  0.74442537151E+03  0.74442537151E+03  0.00000000000E+00 0. -1.
         -2   -1    0    0    0  501 -0.00000000000E+00 -0.00000000000E+00 -0.74534182726E+02  0.74534182726E+02  0.00000000000E+00 0.  1.
         25    2    1    2    0    0  0.10435619078E+03  0.15295316150E+03  0.17978353559E+03  0.28679366134E+03  0.12507437925E+03 0.  0.
         23    2    1    2    0    0 -0.10435619078E+03 -0.15295316150E+03  0.49010765320E+03  0.53216589290E+03  0.93328139804E+02 0.  0.
          5    1    3    3  502    0  0.57594284311E+02  0.16472587583E+03  0.14837015249E+03  0.22909144528E+03  0.41800000000E+01 0. -1.
         -5    1    3    3    0  502  0.46761906473E+02 -0.11772714327E+02  0.31413383105E+02  0.57702216056E+02  0.41800000000E+01 0. -1.
        -11    1    4    4    0    0  0.35328497178E+01 -0.65904478461E+02  0.12006856911E+03  0.13701219871E+03  0.00000000000E+00 0.  1.
         11    1    4    4    0    0 -0.10788904050E+03 -0.87048683038E+02  0.37003908408E+03  0.39515369419E+03  0.00000000000E+00 0. -1.
</event>
<event>
 8    1  0.3710605E-009  0.1583090E+03  0.7561462E-02  0.1190619E+00
         -2   -1    0    0    0  501 -0.00000000000E+00  0.00000000000E+00  0.16963180331E+03  0.16963180331E+03  0.00000000000E+00 0.  1.
          2   -1    0    0  501    0  0.00000000000E+00 -0.00000000000E+00 -0.18704592091E+03  0.18704592091E+03  0.00000000000E+00 0. -1.
         25    2    1    2    0    0  0.61644773414E+02 -0.12463384075E+03  0.11840117424E+02  0.18740722001E+03  0.12509038884E+03 0.  0.
         23    2    1    2    0    0 -0.61644773414E+02  0.12463384075E+03 -0.29254235027E+02  0.16927050421E+03  0.91994679072E+02 0.  0.
          5    1    3    3  502    0  0.81949820635E+02 -0.47012707572E+02 -0.26746947879E+02  0.98279394566E+02  0.41800000000E+01 0.  1.
         -5    1    3    3    0  502 -0.20305047221E+02 -0.77621133182E+02  0.38587065302E+02  0.89127825441E+02  0.41800000000E+01 0.  1.
        -11    1    4    4    0    0 -0.60612259093E+02  0.99201389428E+02  0.16000312709E+02  0.11734893107E+03  0.00000000000E+00 0.  1.
         11    1    4    4    0    0 -0.10325143211E+01  0.25432451326E+02 -0.45254547735E+02  0.51921573137E+02  0.00000000000E+00 0. -1.
</event>
<event>
 8    1  0.3710605E-009  0.1395730E+03  0.7561462E-02  0.1213905E+00
          2   -1    0    0  501    0  0.00000000000E+00  0.00000000000E+00  0.32944658094E+03  0.32944658094E+03  0.00000000000E+00 0. -1.
         -2   -1    0    0    0  501 -0.00000000000E+00 -0.00000000000E+00 -0.12997032810E+03  0.12997032810E+03  0.00000000000E+00 0.  1.
         25    2    1    2    0    0 -0.36861421835E+02 -0.87072282828E+02  0.26961302951E+03  0.31189562617E+03  0.12508936438E+03 0.  0.
         23    2    1    2    0    0  0.36861421835E+02  0.87072282828E+02 -0.70136776673E+02  0.14752128288E+03  0.88898901025E+02 0.  0.
          5    1    3    3  502    0 -0.56227131130E+02 -0.10844923079E+03  0.17932538995E+03  0.21702026130E+03  0.41800000000E+01 0. -1.
         -5    1    3    3    0  502  0.19365709295E+02  0.21376947961E+02  0.90287639566E+02  0.94875364869E+02  0.41800000000E+01 0. -1.
        -11    1    4    4    0    0  0.64459963169E+02  0.50137536746E+02 -0.56969423704E+02  0.99570952993E+02  0.00000000000E+00 0.  1.
         11    1    4    4    0    0 -0.27598541334E+02  0.36934746083E+02 -0.13167352969E+02  0.47950329886E+02  0.00000000000E+00 0. -1.
</event>
<event>
 8    1  0.3710605E-009  0.9378293E+02  0.7561462E-02  0.1293941E+00
         -1   -1    0    0    0  501 -0.00000000000E+00  0.00000000000E+00  0.17428199836E+02  0.17428199836E+02  0.00000000000E+00 0.  1.
          1   -1    0    0  501    0  0.00000000000E+00 -0.00000000000E+00 -0.95228366841E+03  0.95228366841E+03  0.00000000000E+00 0. -1.
         25    2    1    2    0    0  0.39952526466E+02  0.10023170225E+02 -0.71792775948E+03  0.72990715475E+03  0.12509004120E+03 0.  0.
         23    2    1    2    0    0 -0.39952526466E+02 -0.10023170225E+02 -0.21692770909E+03  0.23980471349E+03  0.93552131623E+02 0.  0.
          5    1    3    3  502    0 -0.23732834105E+02  0.43063026358E+01 -0.54401058694E+03  0.54456109185E+03  0.41800000000E+01 0. -1.
         -5    1    3    3    0  502  0.63685360571E+02  0.57168675894E+01 -0.17391717254E+03  0.18534606290E+03  0.41800000000E+01 0. -1.
        -11    1    4    4    0    0 -0.63293269307E+02 -0.28330179729E+02 -0.12176922791E+03  0.14012987507E+03  0.00000000000E+00 0.  1.
         11    1    4    4    0    0  0.23340742841E+02  0.18307009504E+02 -0.95158481179E+02  0.99674838418E+02  0.00000000000E+00 0. -1.
</event>
<event>
 8    1  0.3710605E-009  0.5807764E+02  0.7561462E-02  0.1406081E+00
         -2   -1    0    0    0  501 -0.00000000000E+00  0.00000000000E+00  0.40145295392E+02  0.40145295392E+02  0.00000000000E+00 0.  1.
          2   -1    0    0  501    0  0.00000000000E+00 -0.00000000000E+00 -0.31978840625E+03  0.31978840625E+03  0.00000000000E+00 0. -1.
         25    2    1    2    0    0 -0.28797497024E+02  0.73608146529E+01 -0.12312353573E+03  0.17801895527E+03  0.12509143040E+03 0.  0.
         23    2    1    2    0    0  0.28797497024E+02 -0.73608146529E+01 -0.15651957513E+03  0.18191474637E+03  0.87812983784E+02 0.  0.
          5    1    3    3  502    0 -0.21083798832E+02 -0.25190906350E+02  0.14628194154E+02  0.36201723718E+02  0.41800000000E+01 0.  1.
         -5    1    3    3    0  502 -0.77136981918E+01  0.32551721003E+02 -0.13775172988E+03  0.14181723155E+03  0.41800000000E+01 0.  1.
        -11    1    4    4    0    0  0.29646524765E+02  0.10496479178E+02 -0.16053939015E+03  0.16359091752E+03  0.00000000000E+00 0. -1.
         11    1    4    4    0    0 -0.84902774121E+00 -0.17857293831E+02  0.40198150164E+01  0.18323828853E+02  0.00000000000E+00 0.  1.
</event>
<event>
 8    1  0.3710605E-009  0.1666748E+03  0.7561462E-02  0.1181361E+00
          1   -1    0    0  501    0  0.00000000000E+00  0.00000000000E+00  0.38635328060E+03  0.38635328060E+03  0.00000000000E+00 0. -1.
         -1   -1    0    0    0  501 -0.00000000000E+00 -0.00000000000E+00 -0.90886629987E+02  0.90886629987E+02  0.00000000000E+00 0.  1.
         25    2    1    2    0    0 -0.10512834250E+03 -0.82987972804E+02  0.25065577938E+03  0.31050520430E+03  0.12508473181E+03 0.  0.
         23    2    1    2    0    0  0.10512834250E+03  0.82987972804E+02  0.44810871231E+02  0.16673470629E+03  0.88619840184E+02 0.  0.
          5    1    3    3  502    0 -0.12459256234E+03 -0.32739448759E+02  0.16799667210E+03  0.21174402549E+03  0.41800000000E+01 0. -1.
         -5    1    3    3    0  502  0.19464219841E+02 -0.50248524045E+02  0.82659107282E+02  0.98761178807E+02  0.41800000000E+01 0. -1.
        -11    1    4    4    0    0  0.16132190123E+02 -0.12105116531E+02  0.29302219708E+02  0.35572482120E+02  0.00000000000E+00 0. -1.
         11    1    4    4    0    0  0.88996152373E+02  0.95093089335E+02  0.15508651524E+02  0.13116222417E+03  0.00000000000E+00 0.  1.
</event>
<event>
 8    1  0.3710605E-009  0.2418083E+03  0.7561462E-02  0.1118594E+00
          1   -1    0    0  501    0  0.00000000000E+00  0.00000000000E+00  0.15778357812E+03  0.15778357812E+03  0.00000000000E+00 0. -1.
         -1   -1    0    0    0  501 -0.00000000000E+00 -0.00000000000E+00 -0.44179220957E+03  0.44179220957E+03  0.00000000000E+00 0.  1.
         25    2    1    2    0    0 -0.23033114777E+03 -0.66918508057E+02 -0.16505604407E+03  0.31689196847E+03  0.12508596102E+03 0.  0.
         23    2    1    2    0    0  0.23033114777E+03  0.66918508057E+02 -0.11895258737E+03  0.28268381922E+03  0.90718792178E+02 0.  0.
          5    1    3    3  502    0 -0.51618578689E+02 -0.27188985507E+01 -0.10596191647E+03  0.11797148052E+03  0.41800000000E+01 0. -1.
         -5    1    3    3    0  502 -0.17871256908E+03 -0.64199609506E+02 -0.59094127602E+02  0.19892048794E+03  0.41800000000E+01 0. -1.
        -11    1    4    4    0    0  0.11004777439E+03  0.47979839253E+02 -0.12059871798E+02  0.12065661246E+03  0.00000000000E+00 0. -1.
         11    1    4    4    0    0  0.12028337337E+03  0.18938668803E+02 -0.10689271557E+03  0.16202720676E+03  0.00000000000E+00 0.  1.
</event>
<event>
 8    1  0.3710605E-009  0.3036126E+03  0.7561462E-02  0.1083449E+00
          1   -1    0    0  501    0  0.00000000000E+00  0.00000000000E+00  0.16504153610E+04  0.16504153610E+04  0.00000000000E+00 0. -1.
         -1   -1    0    0    0  501 -0.00000000000E+00 -0.00000000000E+00 -0.60612417598E+02  0.60612417598E+02  0.00000000000E+00 0.  1.
         25    2    1    2    0    0  0.13302995709E+03 -0.26531439293E+03  0.79796227789E+03  0.86051145792E+03  0.12508987052E+03 0.  0.
         23    2    1    2    0    0 -0.13302995709E+03  0.26531439293E+03  0.79184066549E+03  0.85051632065E+03  0.90981732199E+02 0.  0.
          5    1    3    3  502    0  0.53031046493E+01 -0.59860255894E+02  0.64890081735E+02  0.88541336461E+02  0.41800000000E+01 0. -1.
         -5    1    3    3    0  502  0.12772685244E+03 -0.20545413703E+03  0.73307219615E+03  0.77197012146E+03  0.41800000000E+01 0. -1.
        -11    1    4    4    0    0 -0.59763798517E+02  0.51100860885E+02  0.14128263098E+03  0.16169041843E+03  0.00000000000E+00 0.  1.
         11    1    4    4    0    0 -0.73266158574E+02  0.21421353204E+03  0.65055803452E+03  0.68882590222E+03  0.00000000000E+00 0. -1.
</event>
<event>
 8    1  0.3710605E-009  0.9524952E+02  0.7561462E-02  0.1290615E+00
          1   -1    0    0  501    0  0.00000000000E+00  0.00000000000E+00  0.61130104931E+03  0.61130104931E+03  0.00000000000E+00 0. -1.
         -1   -1    0    0    0  501 -0.00000000000E+00 -0.00000000000E+00 -0.39997336944E+02  0.39997336944E+02  0.00000000000E+00 0.  1.
         25    2    1    2    0    0 -0.49976149658E+02  0.15966587815E+02  0.51276832689E+03  0.53040767496E+03  0.12509355351E+03 0.  0.
         23    2    1    2    0    0  0.49976149658E+02 -0.15966587815E+02  0.58535385476E+02  0.12089071130E+03  0.91845660017E+02 0.  0.
          5    1    3    3  502    0 -0.29995693824E+02  0.69682579137E+02  0.33800585368E+03  0.34644023006E+03  0.41800000000E+01 0. -1.
         -5    1    3    3    0  502 -0.19980455834E+02 -0.53715991322E+02  0.17476247322E+03  0.18396744490E+03  0.41800000000E+01 0. -1.
        -11    1    4    4    0    0  0.35395159889E+02 -0.21553315862E+02 -0.16234671435E+02  0.44507609740E+02  0.00000000000E+00 0.  1.
         11    1    4    4    0    0  0.14580989769E+02  0.55867280467E+01  0.74770056911E+02  0.76383101556E+02  0.00000000000E+00 0. -1.
</event>
<event>
 8    1  0.3710605E-009  0.2032419E+03  0.7561462E-02  0.1147032E+00
          2   -1    0    0  501    0  0.00000000000E+00  0.00000000000E+00  0.15549920926E+04  0.15549920926E+04  0.00000000000E+00 0. -1.
         -2   -1    0    0    0  501 -0.00000000000E+00 -0.00000000000E+00 -0.26967220102E+02  0.26967220102E+02  0.00000000000E+00 0.  1.
         25    2    1    2    0    0  0.13732067529E+03  0.10365950690E+03  0.79830678952E+03  0.82616248124E+03  0.12509378079E+03 0.  0.
         23    2    1    2    0    0 -0.13732067529E+03 -0.10365950690E+03  0.72971808294E+03  0.75579683142E+03  0.95593454707E+02 0.  0.
          5    1    3    3  502    0  0.12625041313E+03  0.19602262681E+02  0.48239860271E+03  0.49904839426E+03  0.41800000000E+01 0. -1.
         -5    1    3    3    0  502  0.11070262156E+02  0.84057244220E+02  0.31590818681E+03  0.32711408699E+03  0.41800000000E+01 0. -1.
        -11    1    4    4    0    0 -0.22700292579E+02 -0.71063432842E+02  0.21888588067E+03  0.23124952655E+03  0.00000000000E+00 0.  1.
         11    1    4    4    0    0 -0.11462038271E+03 -0.32596074058E+02  0.51083220227E+03  0.52454730487E+03  0.00000000000E+00 0. -1.
</event>
<event>
 8    1  0.3710605E-009  0.1678710E+03  0.7561462E-02  0.1180086E+00
          2   -1    0    0  501    0  0.00000000000E+00  0.00000000000E+00  0.14425635552E+04  0.14425635552E+04  0.00000000000E+00 0. -1.
         -2   -1    0    0    0  501 -0.00000000000E+00 -0.00000000000E+00 -0.24976795687E+02  0.24976795687E+02  0.00000000000E+00 0.  1.
         25    2    1    2    0    0 -0.65721588396E+02  0.14084344405E+03  0.74855345039E+03  0.77468425206E+03  0.12508884597E+03 0.  0.
         23    2    1    2    0    0  0.65721588396E+02 -0.14084344405E+03  0.66903330913E+03  0.69285609883E+03  0.91037366259E+02 0.  0.
          5    1    3    3  502    0 -0.20707016002E+02  0.73489851973E+02  0.60486546903E+03  0.60967962643E+03  0.41800000000E+01 0. -1.
         -5    1    3    3    0  502 -0.45014572393E+02  0.67353592072E+02  0.14368798135E+03  0.16500462563E+03  0.41800000000E+01 0. -1.
        -11    1    4    4    0    0 -0.18001186293E+02 -0.56571460205E+02  0.17718649244E+03  0.18686740197E+03  0.00000000000E+00 0.  1.
         11    1    4    4    0    0  0.83722774688E+02 -0.84271983840E+02  0.49184681669E+03  0.50598869686E+03  0.00000000000E+00 0. -1.
</event>
<event>
 8    1  0.3710605E-009  0.1593721E+03  0.7561462E-02  0.1189407E+00
          2   -1    0    0  501    0  0.00000000000E+00  0.00000000000E+00  0.85305462579E+03  0.85305462579E+03  0.00000000000E+00 0. -1.
         -2   -1    0    0    0  501 -0.00000000000E+00 -0.00000000000E+00 -0.34554464939E+02  0.34554464939E+02  0.00000000000E+00 0.  1.
         25    2    1    2    0    0  0.11771599166E+03 -0.36857024241E+02  0.56187377586E+03  0.58869888498E+03  0.12509493293E+03 0.  0.
         23    2    1    2    0    0 -0.11771599166E+03  0.36857024241E+02  0.25662638499E+03  0.29891020575E+03  0.90965458828E+02 0.  0.
          5    1    3    3  502    0  0.60827277628E+02 -0.75260831060E+02  0.42019424679E+03  0.43121320461E+03  0.41800000000E+01 0.  1.
         -5    1    3    3    0  502  0.56888714036E+02  0.38403806819E+02  0.14167952908E+03  0.15748568037E+03  0.41800000000E+01 0.  1.
        -11    1    4    4    0    0 -0.45411825570E+02  0.61750431864E+02  0.12196761908E+03  0.14405363529E+03  0.00000000000E+00 0.  1.
         11    1    4    4    0    0 -0.72304166093E+02 -0.24893407624E+02  0.13465876591E+03  0.15485657046E+03  0.00000000000E+00 0. -1.
</event>
<event>
 8    1  0.3710605E-009  0.2316795E+03  0.7561462E-02  0.1125463E+00
          2   -1    0    0  501    0  0.00000000000E+00  0.00000000000E+00  0.11893573036E+04  0.11893573036E+04  0.00000000000E+00 0. -1.
         -2   -1    0    0    0  501 -0.00000000000E+00 -0.00000000000E+00 -0.76335311165E+02  0.76335311165E+02  0.00000000000E+00 0.  1.
         25    2    1    2    0    0  0.97042237170E+02 -0.18825087104E+03  0.96317513491E+03  0.99408726122E+03  0.12509019209E+03 0.  0.
         23    2    1    2    0    0 -0.97042237170E+02  0.18825087104E+03  0.14984685753E+03  0.27160535356E+03  0.80372888022E+02 0.  0.
          5    1    3    3  502    0  0.22243099281E+01 -0.13833610455E+03  0.56775847975E+03  0.58438770445E+03  0.41800000000E+01 0.  1.
         -5    1    3    3    0  502  0.94817927242E+02 -0.49914766484E+02  0.39541665516E+03  0.40969955677E+03  0.41800000000E+01 0.  1.
        -11    1    4    4    0    0 -0.66924460254E+02  0.16948793173E+03  0.92974326470E+02  0.20457093578E+03  0.00000000000E+00 0.  1.
         11    1    4    4    0    0 -0.30117776916E+02  0.18762939305E+02  0.56872531064E+02  0.67034417781E+02  0.00000000000E+00 0. -1.
</event>
<event>
 8    1  0.3710605E-009  0.8568067E+02  0.7561462E-02  0.1313662E+00
         -2   -1    0    0    0  501 -0.00000000000E+00  0.00000000000E+00  0.34224646747E+02  0.34224646747E+02  0.00000000000E+00 0. -1.
          2   -1    0    0  501    0  0.00000000000E+00 -0.00000000000E+00 -0.40694034118E+03  0.40694034118E+03  0.00000000000E+00 0.  1.
         25    2    1    2    0    0 -0.43681064168E+02 -0.20764394946E+02 -0.21349264332E+03  0.25212459375E+03  0.12509399089E+03 0.  0.
         23    2    1    2    0    0  0.43681064168E+02  0.20764394946E+02 -0.15922305111E+03  0.18904039418E+03  0.89694454465E+02 0.  0.
          5    1    3    3  502    0 -0.53825510871E+02  0.24276326338E+02 -0.19220297313E+03  0.20111186171E+03  0.41800000000E+01 0.  1.
         -5    1    3    3    0  502  0.10144446704E+02 -0.45040721284E+02 -0.21289670186E+02  0.51012732032E+02  0.41800000000E+01 0.  1.
        -11    1    4    4    0    0  0.37769186261E+02  0.34311944807E+02 -0.16534623110E+03  0.17304102729E+03  0.00000000000E+00 0.  1.
         11    1    4    4    0    0  0.59118779062E+01 -0.13547549861E+02  0.61231799884E+01  0.15999366887E+02  0.00000000000E+00 0. -1.
</event>
<event>
 8    1  0.3710605E-009  0.6728872E+02  0.7561462E-02  0.1369563E+00
         -1   -1    0    0    0  501 -0.00000000000E+00  0.00000000000E+00  0.14876008554E+03  0.14876008554E+03  0.00000000000E+00 0.  1.
          1   -1    0    0  501    0  0.00000000000E+00 -0.00000000000E+00 -0.74844329949E+02  0.74844329949E+02  0.00000000000E+00 0. -1.
         25    2    1    2    0    0 -0.12969181748E+02  0.68844405872E+00  0.36290118905E+02  0.13089991995E+03  0.12509653345E+03 0.  0.
         23    2    1    2    0    0  0.12969181748E+02 -0.68844405872E+00  0.37625636686E+02  0.92704495539E+02  0.83724317415E+02 0.  0.
          5    1    3    3  502    0  0.20510873754E+01 -0.27829264508E+02 -0.39437745127E+02  0.48492092790E+02  0.41800000000E+01 0.  1.
         -5    1    3    3    0  502 -0.15020269124E+02  0.28517708567E+02  0.75727864032E+02  0.82407827160E+02  0.41800000000E+01 0.  1.
        -11    1    4    4    0    0  0.50796542573E+01 -0.36671753112E+02 -0.38615078939E+01  0.37222729707E+02  0.00000000000E+00 0.  1.
         11    1    4    4    0    0  0.78895274909E+01  0.35983309053E+02  0.41487144580E+02  0.55481765832E+02  0.00000000000E+00 0. -1.
</event>
<event>
 8    1  0.3710605E-009  0.4897867E+02  0.7561462E-02  0.1450929E+00
         -4   -1    0    0    0  501 -0.00000000000E+00  0.00000000000E+00  0.15591516977E+03  0.15591516977E+03  0.00000000000E+00 0.  1.
          4   -1    0    0  501    0  0.00000000000E+00 -0.00000000000E+00 -0.79088058071E+02  0.79088058071E+02  0.00000000000E+00 0. -1.
         25    2    1    2    0    0  0.39050071723E+01 -0.15870336548E+02  0.35734232780E+02  0.13111294930E+03  0.12508618397E+03 0.  0.
         23    2    1    2    0    0 -0.39050071723E+01  0.15870336548E+02  0.41092878924E+02  0.10389027854E+03  0.94007705081E+02 0.  0.
          5    1    3    3  502    0  0.18811482589E+02 -0.72933141925E+01  0.80437031698E+02  0.83034045894E+02  0.41800000000E+01 0.  1.
         -5    1    3    3    0  502 -0.14906475417E+02 -0.85770223555E+01 -0.44702798918E+02  0.48078903408E+02  0.41800000000E+01 0.  1.
        -11    1    4    4    0    0  0.23276548924E+02  0.21735860792E+02  0.61595652253E+02  0.69341688404E+02  0.00000000000E+00 0.  1.
         11    1    4    4    0    0 -0.27181556096E+02 -0.58655242437E+01 -0.20502773330E+02  0.34548590140E+02  0.00000000000E+00 0. -1.
</event>
<event>
 8    1  0.3710605E-009  0.1398220E+03  0.7561462E-02  0.1213569E+00
         -1   -1    0    0    0  501 -0.00000000000E+00  0.00000000000E+00  0.11305638360E+03  0.11305638360E+03  0.00000000000E+00 0.  1.
          1   -1    0    0  501    0  0.00000000000E+00 -0.00000000000E+00 -0.22871967262E+03  0.22871967262E+03  0.00000000000E+00 0. -1.
         25    2    1    2    0    0  0.89050746221E+02  0.48092292062E+02  0.53583948463E+01  0.16099577667E+03  0.12509206110E+03 0.  0.
         23    2    1    2    0    0 -0.89050746221E+02 -0.48092292062E+02 -0.12102168386E+03  0.18078027956E+03  0.88274331220E+02 0.  0.
          5    1    3    3  502    0 -0.13217782243E+02  0.40501121995E+02  0.33743149018E+02  0.54508010016E+02  0.41800000000E+01 0. -1.
         -5    1    3    3    0  502  0.10226852846E+03  0.75911700674E+01 -0.28384754172E+02  0.10648776665E+03  0.41800000000E+01 0. -1.
        -11    1    4    4    0    0 -0.37847088175E+02  0.24707052350E+02 -0.43991692478E+02  0.63072256391E+02  0.00000000000E+00 0.  1.
         11    1    4    4    0    0 -0.51203658046E+02 -0.72799344413E+02 -0.77029991387E+02  0.11770802316E+03  0.00000000000E+00 0. -1.
</event>
<event>
 8    1  0.3710605E-009  0.1693820E+03  0.7561462E-02  0.1178494E+00
         -1   -1    0    0    0  501 -0.00000000000E+00  0.00000000000E+00  0.29528099687E+02  0.29528099687E+02  0.00000000000E+00 0.  1.
          1   -1    0    0  501    0  0.00000000000E+00 -0.00000000000E+00 -0.11948810967E+04  0.11948810967E+04  0.00000000000E+00 0. -1.
         25    2    1    2    0    0  0.12963154474E+03 -0.66276026519E+02 -0.76234842045E+03  0.78614255157E+03  0.12509255831E+03 0.  0.
         23    2    1    2    0    0 -0.12963154474E+03  0.66276026519E+02 -0.40300457652E+03  0.43826664477E+03  0.92022356748E+02 0.  0.
          5    1    3    3  502    0  0.10953470855E+03 -0.11243973682E+02 -0.29126116592E+03  0.31140780096E+03  0.41800000000E+01 0. -1.
         -5    1    3    3    0  502  0.20096836194E+02 -0.55032052837E+02 -0.47108725452E+03  0.47473475061E+03  0.41800000000E+01 0. -1.
        -11    1    4    4    0    0 -0.99161303262E+02  0.25401978904E+01 -0.27036210071E+03  0.28798451724E+03  0.00000000000E+00 0.  1.
         11    1    4    4    0    0 -0.30470241481E+02  0.63735828629E+02 -0.13264247581E+03  0.15028212754E+03  0.00000000000E+00 0. -1.
</event>
<event>
 8    1  0.3710605E-009  0.1715432E+03  0.7561462E-02  0.1176248E+00
          2   -1    0    0  501    0  0.00000000000E+00  0.00000000000E+00  0.76910996746E+03  0.76910996746E+03  0.00000000000E+00 0. -1.
         -2   -1    0    0    0  501 -0.00000000000E+00 -0.00000000000E+00 -0.45127969423E+02  0.45127969423E+02  0.00000000000E+00 0.  1.
         25    2    1    2    0    0 -0.10770152417E+03  0.84842577072E+02  0.24534586163E+03  0.30763133519E+03  0.12507823702E+03 0.  0.
         23    2    1    2    0    0  0.10770152417E+03 -0.84842577072E+02  0.47863613640E+03  0.50660660170E+03  0.93593891992E+02 0.  0.
          5    1    3    3  502    0 -0.62145550307E+02  0.11378490022E+03  0.15299811007E+03  0.20058655744E+03  0.41800000000E+01 0.  1.
         -5    1    3    3    0  502 -0.45555973863E+02 -0.28942323148E+02  0.92347751561E+02  0.10704477774E+03  0.41800000000E+01 0.  1.
        -11    1    4    4    0    0  0.54757740315E+02  0.49662236874E+01  0.23955778445E+03  0.24578650409E+03  0.00000000000E+00 0. -1.
         11    1    4    4    0    0  0.52943783855E+02 -0.89808800759E+02  0.23907835196E+03  0.26082009761E+03  0.00000000000E+00 0.  1.
</event>
<event>
 8    1  0.3710605E-009  0.1722868E+03  0.7561462E-02  0.1175484E+00
          1   -1    0    0  501    0  0.00000000000E+00  0.00000000000E+00  0.34331584271E+03  0.34331584271E+03  0.00000000000E+00 0. -1.
         -1   -1    0    0    0  501 -0.00000000000E+00 -0.00000000000E+00 -0.99046422073E+02  0.99046422073E+02  0.00000000000E+00 0.  1.
         25    2    1    2    0    0 -0.35273401422E+02  0.14301154425E+03  0.12481767510E+03  0.23005154916E+03  0.12509096138E+03 0.  0.
         23    2    1    2    0    0  0.35273401422E+02 -0.14301154425E+03  0.11945174554E+03  0.21231071562E+03  0.95449493535E+02 0.  0.
          5    1    3    3  502    0  0.21658537910E+02  0.88337015886E+02  0.12030951027E+03  0.15087866417E+03  0.41800000000E+01 0.  1.
         -5    1    3    3    0  502 -0.56931939332E+02  0.54674528368E+02  0.45081648262E+01  0.79172884995E+02  0.41800000000E+01 0.  1.
        -11    1    4    4    0    0 -0.31324244535E+02 -0.63162666067E+02  0.37077199368E+02  0.79658329090E+02  0.00000000000E+00 0.  1.
         11    1    4    4    0    0  0.66597645957E+02 -0.79848878186E+02  0.82374546174E+02  0.13265238653E+03  0.00000000000E+00 0. -1.
</event>
<event>
 8    1  0.3710605E-009  0.1313512E+03  0.7561462E-02  0.1225464E+00
         -1   -1    0    0    0  501 -0.00000000000E+00  0.00000000000E+00  0.43883165149E+02  0.43883165149E+02  0.00000000000E+00 0.  1.
          1   -1    0    0  501    0  0.00000000000E+00 -0.00000000000E+00 -0.59720499134E+03  0.59720499134E+03  0.00000000000E+00 0. -1.
         25    2    1    2    0    0  0.10654090284E+03  0.38265265381E+01 -0.40718759442E+03  0.43910663293E+03  0.12508913521E+03 0.  0.
         23    2    1    2    0    0 -0.10654090284E+03 -0.38265265381E+01 -0.14613423177E+03  0.20198152356E+03  0.89864986963E+02 0.  0.
          5    1    3    3  502    0 -0.10875006796E+02  0.71593202275E+01 -0.20335017233E+03  0.20380943704E+03  0.41800000000E+01 0.  1.
         -5    1    3    3    0  502  0.11741590964E+03 -0.33327936894E+01 -0.20383742209E+03  0.23529719589E+03  0.41800000000E+01 0.  1.
        -11    1    4    4    0    0 -0.29790898401E+02  0.34600095865E+02 -0.21041401653E+02  0.50273301512E+02  0.00000000000E+00 0.  1.
         11    1    4    4    0    0 -0.76750004438E+02 -0.38426622403E+02 -0.12509283012E+03  0.15170822205E+03  0.00000000000E+00 0. -1.
</event>
<event>
 8    1  0.3710605E-009  0.1564302E+03  0.7561462E-02  0.1192787E+00
          1   -1    0    0  501    0  0.00000000000E+00  0.00000000000E+00  0.10458571082E+04  0.10458571082E+04  0.00000000000E+00 0. -1.
         -1   -1    0    0    0  501 -0.00000000000E+00 -0.00000000000E+00 -0.26205205077E+02  0.26205205077E+02  0.00000000000E+00 0.  1.
         25    2    1    2    0    0  0.12567943834E+03 -0.11028615579E+02  0.59899886953E+03  0.62479074809E+03  0.12508749582E+03 0.  0.
         23    2    1    2    0    0 -0.12567943834E+03  0.11028615579E+02  0.42065303362E+03  0.44727156522E+03  0.84769845919E+02 0.  0.
          5    1    3    3  502    0  0.10210293363E+03  0.36418553583E+02  0.26113642743E+03  0.28277380754E+03  0.41800000000E+01 0. -1.
         -5    1    3    3    0  502  0.23576504709E+02 -0.47447169162E+02  0.33786244211E+03  0.34201694055E+03  0.41800000000E+01 0. -1.
        -11    1    4    4    0    0  0.70605416118E+01  0.16945918156E+02  0.67415937946E+02  0.69870766986E+02  0.00000000000E+00 0.  1.
         11    1    4    4    0    0 -0.13273997995E+03 -0.59173025767E+01  0.35323709568E+03  0.37740079824E+03  0.00000000000E+00 0. -1.
</event>
<event>
 8    1  0.3710605E-009  0.1835516E+03  0.7561462E-02  0.1164409E+00
         -1   -1    0    0    0  501 -0.00000000000E+00  0.00000000000E+00  0.42483929574E+02  0.42483929574E+02  0.00000000000E+00 0.  1.
          1   -1    0    0  501    0  0.00000000000E+00 -0.00000000000E+00 -0.90162077783E+03  0.90162077783E+03  0.00000000000E+00 0. -1.
         25    2    1    2    0    0  0.96968771562E+02  0.12370531026E+03 -0.54917384132E+03  0.58476104625E+03  0.12509047437E+03 0.  0.
         23    2    1    2    0    0 -0.96968771562E+02 -0.12370531026E+03 -0.30996300693E+03  0.35934366115E+03  0.91350176223E+02 0.  0.
          5    1    3    3  502    0  0.48921746497E+02  0.14039289616E+03 -0.38048605365E+03  0.40852247428E+03  0.41800000000E+01 0. -1.
         -5    1    3    3    0  502  0.48047025064E+02 -0.16687585894E+02 -0.16868778767E+03  0.17623857197E+03  0.41800000000E+01 0. -1.
        -11    1    4    4    0    0 -0.16995927019E+02 -0.67457021721E+02 -0.63474362751E+02  0.94171683862E+02  0.00000000000E+00 0.  1.
         11    1    4    4    0    0 -0.79972844542E+02 -0.56248288542E+02 -0.24648864418E+03  0.26517197729E+03  0.00000000000E+00 0. -1.
</event>
<event>
 8    1  0.3710605E-009  0.1115023E+03  0.7561462E-02  0.1257813E+00
         -1   -1    0    0    0  501 -0.00000000000E+00  0.00000000000E+00  0.19056119381E+03  0.19056119381E+03  0.00000000000E+00 0.  1.
          1   -1    0    0  501    0  0.00000000000E+00 -0.00000000000E+00 -0.74286264156E+02  0.74286264156E+02  0.00000000000E+00 0. -1.
         25    2    1    2    0    0  0.39370967307E+02 -0.79261158651E+01  0.55951695376E+02  0.14279845303E+03  0.12509160481E+03 0.  0.
         23    2    1    2    0    0 -0.39370967307E+02  0.79261158651E+01  0.60323234281E+02  0.12204900493E+03  0.98204738337E+02 0.  0.
          5    1    3    3  502    0 -0.16432335527E+02 -0.52436815910E+02  0.57015351670E+01  0.55404162451E+02  0.41800000000E+01 0. -1.
         -5    1    3    3    0  502  0.55803302834E+02  0.44510700045E+02  0.50250160209E+02  0.87394290584E+02  0.41800000000E+01 0. -1.
        -11    1    4    4    0    0 -0.49408529846E+02  0.39502250568E+02  0.13490718815E+02  0.64680987281E+02  0.00000000000E+00 0. -1.
         11    1    4    4    0    0  0.10037562539E+02 -0.31576134703E+02  0.46832515466E+02  0.57368017652E+02  0.00000000000E+00 0.  1.
</event>
<event>
 8    1  0.3710605E-009  0.1036190E+03  0.7561462E-02  0.1272865E+00
         -3   -1    0    0    0  501 -0.00000000000E+00  0.00000000000E+00  0.16998672202E+03  0.16998672202E+03  0.00000000000E+00 0.  1.
          3   -1    0    0  501    0  0.00000000000E+00 -0.00000000000E+00 -0.79005044124E+02  0.79005044124E+02  0.00000000000E+00 0. -1.
         25    2    1    2    0    0 -0.25157886301E+02  0.58203933070E+01  0.15808942822E+02  0.12869633925E+03  0.12508408709E+03 0.  0.
         23    2    1    2    0    0  0.25157886301E+02 -0.58203933070E+01  0.75172735070E+02  0.12029542689E+03  0.90295367606E+02 0.  0.
          5    1    3    3  502    0 -0.65214822675E+02 -0.23787982059E+02 -0.13368777815E+02  0.70816931643E+02  0.41800000000E+01 0.  1.
         -5    1    3    3    0  502  0.40056936374E+02  0.29608375366E+02  0.29177720638E+02  0.57879407609E+02  0.41800000000E+01 0.  1.
        -11    1    4    4    0    0  0.42007526949E+02  0.27611569049E+02  0.63685054441E+02  0.81134562455E+02  0.00000000000E+00 0.  1.
         11    1    4    4    0    0 -0.16849640648E+02 -0.33431962356E+02  0.11487680629E+02  0.39160864434E+02  0.00000000000E+00 0. -1.
</event>
<event>
 8    1  0.3710605E-009  0.9451250E+02  0.7561462E-02  0.1292278E+00
          1   -1    0    0  501    0  0.00000000000E+00  0.00000000000E+00  0.93213326108E+03  0.93213326108E+03  0.00000000000E+00 0. -1.
         -1   -1    0    0    0  501 -0.00000000000E+00 -0.00000000000E+00 -0.13934651676E+02  0.13934651676E+02  0.00000000000E+00 0.  1.
         25    2    1    2    0    0  0.10948316261E+02 -0.27694666220E+02  0.58992110660E+03  0.60377223384E+03  0.12508852137E+03 0.  0.
         23    2    1    2    0    0 -0.10948316261E+02  0.27694666220E+02  0.32827750280E+03  0.34229567891E+03  0.92267831833E+02 0.  0.
          5    1    3    3  502    0  0.10279135638E+01 -0.62408394299E+02  0.15233454376E+03  0.16467892976E+03  0.41800000000E+01 0. -1.
         -5    1    3    3    0  502  0.99204026974E+01  0.34713728079E+02  0.43758656285E+03  0.43909330409E+03  0.41800000000E+01 0. -1.
        -11    1    4    4    0    0  0.20221937669E+02  0.48568217312E+02  0.25022900351E+03  0.25569973151E+03  0.00000000000E+00 0. -1.
         11    1    4    4    0    0 -0.31170253930E+02 -0.20873551092E+02  0.78048499289E+02  0.86595947403E+02  0.00000000000E+00 0.  1.
</event>
<event>
 8    1  0.3710605E-009  0.8116417E+02  0.7561462E-02  0.1325780E+00
         -1   -1    0    0    0  501 -0.00000000000E+00  0.00000000000E+00  0.40986444963E+03  0.40986444963E+03  0.00000000000E+00 0.  1.
          1   -1    0    0  501    0  0.00000000000E+00 -0.00000000000E+00 -0.34595042822E+02  0.34595042822E+02  0.00000000000E+00 0. -1.
         25    2    1    2    0    0  0.11249905044E+02 -0.28914978868E+02  0.28446360910E+03  0.31229826607E+03  0.12509206898E+03 0.  0.
         23    2    1    2    0    0 -0.11249905044E+02  0.28914978868E+02  0.90805797708E+02  0.13216122638E+03  0.90874971771E+02 0.  0.
          5    1    3    3  502    0 -0.20103822923E+02 -0.33074157832E+02  0.16235830702E+02  0.42179831804E+02  0.41800000000E+01 0.  1.
         -5    1    3    3    0  502  0.31353727966E+02  0.41591789642E+01  0.26822777840E+03  0.27011843427E+03  0.41800000000E+01 0.  1.
        -11    1    4    4    0    0 -0.33810010336E+02  0.50170121924E+02  0.77782208279E+02  0.98540498566E+02  0.00000000000E+00 0.  1.
         11    1    4    4    0    0  0.22560105292E+02 -0.21255143056E+02  0.13023589429E+02  0.33620727814E+02  0.00000000000E+00 0. -1.
</event>
<event>
 8    1  0.3710605E-009  0.1567670E+03  0.7561462E-02  0.1192396E+00
         -2   -1    0    0    0  501 -0.00000000000E+00  0.00000000000E+00  0.79268711021E+02  0.79268711021E+02  0.00000000000E+00 0.  1.
          2   -1    0    0  501    0  0.00000000000E+00 -0.00000000000E+00 -0.41088376149E+03  0.41088376149E+03  0.00000000000E+00 0. -1.
         25    2    1    2    0    0  0.10377101736E+02 -0.13710921605E+03 -0.11859093562E+03  0.22049443093E+03  0.12508941879E+03 0.  0.
         23    2    1    2    0    0 -0.10377101736E+02  0.13710921605E+03 -0.21302411485E+03  0.26965804159E+03  0.91812659904E+02 0.  0.
          5    1    3    3  502    0  0.34649672853E+02 -0.13474299755E+03 -0.13244734960E+03  0.19213549394E+03  0.41800000000E+01 0.  1.
         -5    1    3    3    0  502 -0.24272571117E+02 -0.23662184953E+01  0.13856413976E+02  0.28358936984E+02  0.41800000000E+01 0.  1.
        -11    1    4    4    0    0  0.11979067784E+02  0.13974209643E+01  0.40121220436E+01  0.12710152384E+02  0.00000000000E+00 0.  1.
         11    1    4    4    0    0 -0.22356169520E+02  0.13571179508E+03 -0.21703623690E+03  0.25694788920E+03  0.00000000000E+00 0. -1.
</event>
<event>
 8    1  0.3710605E-009  0.1426843E+03  0.7561462E-02  0.1209762E+00
          2   -1    0    0  501    0  0.00000000000E+00  0.00000000000E+00  0.30955985800E+03  0.30955985800E+03  0.00000000000E+00 0. -1.
         -2   -1    0    0    0  501 -0.00000000000E+00 -0.00000000000E+00 -0.82490706829E+02  0.82490706829E+02  0.00000000000E+00 0.  1.
         25    2    1    2    0    0 -0.69015985396E+02  0.96301670792E+02  0.13102859100E+03  0.21645583254E+03  0.12508963883E+03 0.  0.
         23    2    1    2    0    0  0.69015985396E+02 -0.96301670792E+02  0.96040560172E+02  0.17559473229E+03  0.87020128544E+02 0.  0.
          5    1    3    3  502    0  0.28390214823E+02 -0.21113019777E+00  0.30777256493E+01  0.28861629698E+02  0.41800000000E+01 0. -1.
         -5    1    3    3    0  502 -0.97406200219E+02  0.96512800990E+02  0.12795086535E+03  0.18759420284E+03  0.41800000000E+01 0. -1.
        -11    1    4    4    0    0  0.48452918374E+02 -0.54666774095E+02  0.47868697162E+01  0.73205570899E+02  0.00000000000E+00 0.  1.
         11    1    4    4    0    0  0.20563067022E+02 -0.41634896697E+02  0.91253690456E+02  0.10238916139E+03  0.00000000000E+00 0. -1.
</event>
<event>
 8    1  0.3710605E-009  0.8407675E+02  0.7561462E-02  0.1317865E+00
          1   -1    0    0  501    0  0.00000000000E+00  0.00000000000E+00  0.10252590722E+03  0.10252590722E+03  0.00000000000E+00 0. -1.
         -1   -1    0    0    0  501 -0.00000000000E+00 -0.00000000000E+00 -0.14649343607E+03  0.14649343607E+03  0.00000000000E+00 0.  1.
         25    2    1    2    0    0 -0.22297820064E+01  0.10529116231E+02 -0.82464866010E+02  0.15021265487E+03  0.12509018083E+03 0.  0.
         23    2    1    2    0    0  0.22297820064E+01 -0.10529116231E+02  0.38497337151E+02  0.98806688418E+02  0.90359739331E+02 0.  0.
          5    1    3    3  502    0 -0.38780834654E+01  0.63796674722E+02 -0.70846576304E+02  0.95507931665E+02  0.41800000000E+01 0.  1.
         -5    1    3    3    0  502  0.16483014591E+01 -0.53267558491E+02 -0.11618289706E+02  0.54704723206E+02  0.41800000000E+01 0.  1.
        -11    1    4    4    0    0  0.18444252325E+02 -0.23505545085E+02  0.61159767340E+02  0.68067747389E+02  0.00000000000E+00 0. -1.
         11    1    4    4    0    0 -0.16214470319E+02  0.12976428854E+02 -0.22662430189E+02  0.30738941029E+02  0.00000000000E+00 0.  1.
</event>
<event>
 8    1  0.3710605E-009  0.1336128E+03  0.7561462E-02  0.1222191E+00
          2   -1    0    0  501    0  0.00000000000E+00  0.00000000000E+00  0.36375137418E+03  0.36375137418E+03  0.00000000000E+00 0. -1.
         -2   -1    0    0    0  501 -0.00000000000E+00 -0.00000000000E+00 -0.56727680575E+02  0.56727680575E+02  0.00000000000E+00 0.  1.
         25    2    1    2    0    0  0.33038599360E+02 -0.86751322447E+02  0.19306795330E+03  0.24807564074E+03  0.12509575510E+03 0.  0.
         23    2    1    2    0    0 -0.33038599360E+02  0.86751322447E+02  0.11395574030E+03  0.17240341401E+03  0.90109297082E+02 0.  0.
          5    1    3    3  502    0  0.74072568035E+02 -0.29405510831E+02  0.13414059091E+03  0.15608523291E+03  0.41800000000E+01 0. -1.
         -5    1    3    3    0  502 -0.41033968675E+02 -0.57345811616E+02  0.58927362393E+02  0.91990407836E+02  0.41800000000E+01 0. -1.
        -11    1    4    4    0    0  0.19470808813E+02  0.58448304164E+01  0.56706247991E+02  0.60240127819E+02  0.00000000000E+00 0. -1.
         11    1    4    4    0    0 -0.52509408173E+02  0.80906492031E+02  0.57249492310E+02  0.11216328619E+03  0.00000000000E+00 0.  1.
</event>
<event>
 8    1  0.3710605E-009  0.1078888E+03  0.7561462E-02  0.1264530E+00
          1   -1    0    0  501    0  0.00000000000E+00  0.00000000000E+00  0.11974911269E+04  0.11974911269E+04  0.00000000000E+00 0. -1.
         -1   -1    0    0    0  501 -0.00000000000E+00 -0.00000000000E+00 -0.10693134489E+02  0.10693134489E+02  0.00000000000E+00 0.  1.
         25    2    1    2    0    0  0.28371565437E+02 -0.92243203043E+01  0.78424250815E+03  0.79471626473E+03  0.12509035150E+03 0.  0.
         23    2    1    2    0    0 -0.28371565437E+02  0.92243203043E+01  0.40255548426E+03  0.41346799665E+03  0.89525597096E+02 0.  0.
          5    1    3    3  502    0  0.74394071272E+02 -0.14359470247E+02  0.35853825253E+03  0.36648031755E+03  0.41800000000E+01 0.  1.
         -5    1    3    3    0  502 -0.46022505835E+02  0.51351499427E+01  0.42570425562E+03  0.42823594718E+03  0.41800000000E+01 0.  1.
        -11    1    4    4    0    0  0.32025450625E+02  0.79081126500E+01  0.17162685273E+03  0.17476825888E+03  0.00000000000E+00 0. -1.
         11    1    4    4    0    0 -0.60397016062E+02  0.13162076542E+01  0.23092863153E+03  0.23869973777E+03  0.00000000000E+00 0.  1.
</event>
<event>
 8    1  0.3710605E-009  0.1395689E+03  0.7561462E-02  0.1213910E+00
          1   -1    0    0  501    0  0.00000000000E+00  0.00000000000E+00  0.11493097473E+04  0.11493097473E+04  0.00000000000E+00 0. -1.
         -1   -1    0    0    0  501 -0.00000000000E+00 -0.00000000000E+00 -0.24199258853E+02  0.24199258853E+02  0.00000000000E+00 0.  1.
         25    2    1    2    0    0 -0.78277632072E+02 -0.78717438685E+02  0.82686340212E+03  0.84360663545E+03  0.12508096085E+03 0.  0.
         23    2    1    2    0    0  0.78277632072E+02  0.78717438685E+02  0.29824708631E+03  0.32990237069E+03  0.86950715111E+02 0.  0.
          5    1    3    3  502    0 -0.77948422153E+02  0.36496898128E+01  0.52061872312E+03  0.52645095120E+03  0.41800000000E+01 0.  1.
         -5    1    3    3    0  502 -0.32920991837E+00 -0.82367128498E+02  0.30624467900E+03  0.31715568425E+03  0.41800000000E+01 0.  1.
        -11    1    4    4    0    0  0.77602886659E+02  0.55777425501E+02  0.29028256915E+03  0.30560971707E+03  0.00000000000E+00 0. -1.
         11    1    4    4    0    0  0.67474541295E+00  0.22940013184E+02  0.79645171533E+01  0.24292653617E+02  0.00000000000E+00 0.  1.
</event>
<event>
 8    1  0.3710605E-009  0.1015701E+03  0.7561462E-02  0.1277028E+00
          2   -1    0    0  501    0  0.00000000000E+00  0.00000000000E+00  0.28217788398E+03  0.28217788398E+03  0.00000000000E+00 0.  1.
         -2   -1    0    0    0  501 -0.00000000000E+00 -0.00000000000E+00 -0.42102325127E+02  0.42102325127E+02  0.00000000000E+00 0. -1.
         25    2    1    2    0    0 -0.32538381655E+01  0.73466031779E+01  0.11393067042E+03  0.16938156685E+03  0.12508140343E+03 0.  0.
         23    2    1    2    0    0  0.32538381655E+01 -0.73466031779E+01  0.12614488843E+03  0.15489864225E+03  0.89534889591E+02 0.  0.
          5    1    3    3  502    0  0.46042399880E+02  0.34370900991E+02  0.92702231334E+02  0.10914411352E+03  0.41800000000E+01 0.  1.
         -5    1    3    3    0  502 -0.49296238045E+02 -0.27024297813E+02  0.21228439086E+02  0.60237453330E+02  0.41800000000E+01 0.  1.
        -11    1    4    4    0    0 -0.42004347222E+02 -0.11939436004E+02  0.51917083193E+02  0.67840245024E+02  0.00000000000E+00 0.  1.
         11    1    4    4    0    0  0.45258185388E+02  0.45928328263E+01  0.74227805237E+02  0.87058397230E+02  0.00000000000E+00 0. -1.
</event>
<event>
 8    1  0.3710605E-009  0.7960472E+02  0.7561462E-02  0.1330177E+00
         -1   -1    0    0    0  501 -0.00000000000E+00  0.00000000000E+00  0.47843661737E+02  0.47843661737E+02  0.00000000000E+00 0.  1.
          1   -1    0    0  501    0  0.00000000000E+00 -0.00000000000E+00 -0.33844343678E+03  0.33844343678E+03  0.00000000000E+00 0. -1.
         25    2    1    2    0    0  0.42365174114E+02 -0.51768352151E+02 -0.16425497834E+03  0.21703167817E+03  0.12509308997E+03 0.  0.
         23    2    1    2    0    0 -0.42365174114E+02  0.51768352151E+02 -0.12634479670E+03  0.16925542034E+03  0.90606950063E+02 0.  0.
          5    1    3    3  502    0 -0.13524231845E+01  0.88668751482E+01  0.17698462612E+02  0.20277043724E+02  0.41800000000E+01 0. -1.
         -5    1    3    3    0  502  0.43717597298E+02 -0.60635227299E+02 -0.18195344095E+03  0.19675463445E+03  0.41800000000E+01 0. -1.
        -11    1    4    4    0    0 -0.52996246051E+01  0.32002988231E+02  0.36487539802E+01  0.32643386501E+02  0.00000000000E+00 0.  1.
         11    1    4    4    0    0 -0.37065549509E+02  0.19765363920E+02 -0.12999355068E+03  0.13661203384E+03  0.00000000000E+00 0. -1.
</event>
<event>
 8    1  0.3710605E-009  0.1265894E+03  0.7561462E-02  0.1232606E+00
         -2   -1    0    0    0  501 -0.00000000000E+00  0.00000000000E+00  0.18012430185E+02  0.18012430185E+02  0.00000000000E+00 0.  1.
          2   -1    0    0  501    0  0.00000000000E+00 -0.00000000000E+00 -0.12916546303E+04  0.12916546303E+04  0.00000000000E+00 0. -1.
         25    2    1    2    0    0  0.66215785961E+02 -0.43657014916E+02 -0.99474469009E+03  0.10057112560E+04  0.12509063370E+03 0.  0.
         23    2    1    2    0    0 -0.66215785961E+02  0.43657014916E+02 -0.27889750999E+03  0.30395580449E+03  0.91185770507E+02 0.  0.
          5    1    3    3  502    0  0.90283051318E+02 -0.54791523392E+02 -0.92432627408E+03  0.93034922139E+03  0.41800000000E+01 0.  1.
         -5    1    3    3    0  502 -0.24067265356E+02  0.11134508476E+02 -0.70418416011E+02  0.75362034568E+02  0.41800000000E+01 0.  1.
        -11    1    4    4    0    0 -0.24369761218E+02  0.67997063656E+02 -0.17567411713E+03  0.18994441649E+03  0.00000000000E+00 0.  1.
         11    1    4    4    0    0 -0.41846024743E+02 -0.24340048740E+02 -0.10322339286E+03  0.11401138800E+03  0.00000000000E+00 0. -1.
</event>
<event>
 8    1  0.3710605E-009  0.1723492E+03  0.7561462E-02  0.1175420E+00
         -2   -1    0    0    0  501 -0.00000000000E+00  0.00000000000E+00  0.38546569338E+02  0.38546569338E+02  0.00000000000E+00 0.  1.
          2   -1    0    0  501    0  0.00000000000E+00 -0.00000000000E+00 -0.10782854696E+04  0.10782854696E+04  0.00000000000E+00 0. -1.
         25    2    1    2    0    0 -0.16215641275E+03 -0.29514863130E+02 -0.68677159901E+03  0.71726454684E+03  0.12508945443E+03 0.  0.
         23    2    1    2    0    0  0.16215641275E+03  0.29514863130E+02 -0.35296730122E+03  0.39956749207E+03  0.88895644683E+02 0.  0.
          5    1    3    3  502    0 -0.12180984726E+03 -0.14825075546E+02 -0.25159918404E+03  0.27995900336E+03  0.41800000000E+01 0. -1.
         -5    1    3    3    0  502 -0.40346565482E+02 -0.14689787583E+02 -0.43517241497E+03  0.43730554348E+03  0.41800000000E+01 0. -1.
        -11    1    4    4    0    0  0.35680834311E+02 -0.22326226716E+02 -0.14269167891E+03  0.14876994846E+03  0.00000000000E+00 0. -1.
         11    1    4    4    0    0  0.12647557844E+03  0.51841089846E+02 -0.21027562231E+03  0.25079754360E+03  0.00000000000E+00 0.  1.
</event>
<event>
 8    1  0.3710605E-009  0.1576565E+03  0.7561462E-02  0.1191368E+00
         -2   -1    0    0    0  501 -0.00000000000E+00  0.00000000000E+00  0.41330860668E+02  0.41330860668E+02  0.00000000000E+00 0.  1.
          2   -1    0    0  501    0  0.00000000000E+00 -0.00000000000E+00 -0.13098835589E+04  0.13098835589E+04  0.00000000000E+00 0. -1.
         25    2    1    2    0    0 -0.96957243175E+02 -0.79060070218E+02 -0.11287308873E+04  0.11425112968E+04  0.12508975073E+03 0.  0.
         23    2    1    2    0    0  0.96957243175E+02  0.79060070218E+02 -0.13982181098E+03  0.20870312278E+03  0.91409260616E+02 0.  0.
          5    1    3    3  502    0 -0.77231116838E+02  0.15830493755E+01 -0.78795289783E+03  0.79174136752E+03  0.41800000000E+01 0. -1.
         -5    1    3    3    0  502 -0.19726126337E+02 -0.80643119593E+02 -0.34077798944E+03  0.35076992928E+03  0.41800000000E+01 0. -1.
        -11    1    4    4    0    0  0.65784960367E+02  0.98236102237E+02 -0.11012737650E+03  0.16157361124E+03  0.00000000000E+00 0.  1.
         11    1    4    4    0    0  0.31172282808E+02 -0.19176032019E+02 -0.29694434474E+02  0.47129511542E+02  0.00000000000E+00 0. -1.
</event>
<event>
 8    1  0.3710605E-009  0.9447458E+02  0.7561462E-02  0.1292364E+00
         -1   -1    0    0    0  501 -0.00000000000E+00  0.00000000000E+00  0.58945166137E+02  0.58945166137E+02  0.00000000000E+00 0.  1.
          1   -1    0    0  501    0  0.00000000000E+00 -0.00000000000E+00 -0.25107403457E+03  0.25107403457E+03  0.00000000000E+00 0. -1.
         25    2    1    2    0    0 -0.53319221969E+02 -0.82884228058E+01 -0.11835621853E+03  0.18046720495E+03  0.12509428529E+03 0.  0.
         23    2    1    2    0    0  0.53319221969E+02  0.82884228058E+01 -0.73772649899E+02  0.12955199576E+03  0.91813279797E+02 0.  0.
          5    1    3    3  502    0 -0.92404530641E+02 -0.86894801459E+01 -0.10177447161E+03  0.13780282951E+03  0.41800000000E+01 0. -1.
         -5    1    3    3    0  502  0.39085308672E+02  0.40105734007E+00 -0.16581746919E+02  0.42664375442E+02  0.41800000000E+01 0. -1.
        -11    1    4    4    0    0  0.13352718002E+02 -0.55189299601E+01 -0.84663625427E+02  0.85887619226E+02  0.00000000000E+00 0. -1.
         11    1    4    4    0    0  0.39966503967E+02  0.13807352766E+02  0.10890975527E+02  0.43664376529E+02  0.00000000000E+00 0.  1.
</event>
<event>
 8    1  0.3710605E-009  0.1140061E+03  0.7561462E-02  0.1253326E+00
          2   -1    0    0  501    0  0.00000000000E+00  0.00000000000E+00  0.40353192249E+03  0.40353192249E+03  0.00000000000E+00 0. -1.
         -2   -1    0    0    0  501 -0.00000000000E+00 -0.00000000000E+00 -0.52558403776E+02  0.52558403776E+02  0.00000000000E+00 0.  1.
         25    2    1    2    0    0 -0.93883388952E+02  0.30724996263E+02  0.17844568661E+03  0.23926769648E+03  0.12509217158E+03 0.  0.
         23    2    1    2    0    0  0.93883388952E+02 -0.30724996263E+02  0.17252783210E+03  0.21682262979E+03  0.86533714941E+02 0.  0.
          5    1    3    3  502    0 -0.32206085332E+02  0.17616008301E+02 -0.11812982993E+02  0.38788846954E+02  0.41800000000E+01 0.  1.
         -5    1    3    3    0  502 -0.61677303620E+02  0.13108987963E+02  0.19025866960E+03  0.20047884952E+03  0.41800000000E+01 0.  1.
        -11    1    4    4    0    0  0.38969987352E+02  0.27608286541E+02  0.41636193172E+02  0.63359687356E+02  0.00000000000E+00 0.  1.
         11    1    4    4    0    0  0.54913401600E+02 -0.58333282804E+02  0.13089163893E+03  0.15346294243E+03  0.00000000000E+00 0. -1.
</event>
<event>
 8    1  0.3710605E-009  0.1501135E+03  0.7561462E-02  0.1200334E+00
         -2   -1    0    0    0  501 -0.00000000000E+00  0.00000000000E+00  0.25579609611E+02  0.25579609611E+02  0.00000000000E+00 0.  1.
          2   -1    0    0  501    0  0.00000000000E+00 -0.00000000000E+00 -0.11457070665E+04  0.11457070665E+04  0.00000000000E+00 0. -1.
         25    2    1    2    0    0  0.24282805282E+02  0.12463655985E+03 -0.71935525313E+03  0.74110988959E+03  0.12509181253E+03 0.  0.
         23    2    1    2    0    0 -0.24282805282E+02 -0.12463655985E+03 -0.40077220379E+03  0.43017678655E+03  0.91158003876E+02 0.  0.
          5    1    3    3  502    0  0.25779348697E+01  0.14077749829E+03 -0.48140302841E+03  0.50158877373E+03  0.41800000000E+01 0.  1.
         -5    1    3    3    0  502  0.21704870412E+02 -0.16140938439E+02 -0.23795222472E+03  0.23952111586E+03  0.41800000000E+01 0.  1.
        -11    1    4    4    0    0 -0.31725939455E+02 -0.70014197025E+02 -0.33801800416E+03  0.34664779554E+03  0.00000000000E+00 0. -1.
         11    1    4    4    0    0  0.74431341727E+01 -0.54622362827E+02 -0.62754199631E+02  0.83528991006E+02  0.00000000000E+00 0.  1.
</event>
<event>
 8    1  0.3710605E-009  0.9602089E+02  0.7561462E-02  0.1288893E+00
         -3   -1    0    0    0  501 -0.00000000000E+00  0.00000000000E+00  0.36014665470E+03  0.36014665470E+03  0.00000000000E+00 0.  1.
          3   -1    0    0  501    0  0.00000000000E+00 -0.00000000000E+00 -0.45443046242E+02  0.45443046242E+02  0.00000000000E+00 0. -1.
         25    2    1    2    0    0  0.14796304680E+02  0.63874127895E+02  0.14587825594E+03  0.20304466456E+03  0.12509130827E+03 0.  0.
         23    2    1    2    0    0 -0.14796304680E+02 -0.63874127895E+02  0.16882535252E+03  0.20254503638E+03  0.90684382685E+02 0.  0.
          5    1    3    3  502    0  0.24036416014E+00  0.79401699611E+02  0.15894449485E+03  0.17772313445E+03  0.41800000000E+01 0.  1.
         -5    1    3    3    0  502  0.14555940520E+02 -0.15527571716E+02 -0.13066238911E+02  0.25321530110E+02  0.41800000000E+01 0.  1.
        -11    1    4    4    0    0 -0.63880420944E+00 -0.73638734743E+02  0.67907953508E+02  0.10017265832E+03  0.00000000000E+00 0. -1.
         11    1    4    4    0    0 -0.14157500470E+02  0.97646068483E+01  0.10091739901E+03  0.10237237806E+03  0.00000000000E+00 0.  1.
</event>
<event>
 8    1  0.3710605E-009  0.1094758E+03  0.7561462E-02  0.1261544E+00
         -1   -1    0    0    0  501 -0.00000000000E+00  0.00000000000E+00  0.33013708260E+02  0.33013708260E+02  0.00000000000E+00 0.  1.
          1   -1    0    0  501    0  0.00000000000E+00 -0.00000000000E+00 -0.44896030654E+03  0.44896030654E+03  0.00000000000E+00 0. -1.
         25    2    1    2    0    0  0.32896505167E+02 -0.39380929757E+02 -0.27205165469E+03  0.30379628290E+03  0.12508813295E+03 0.  0.
         23    2    1    2    0    0 -0.32896505167E+02  0.39380929757E+02 -0.14389494359E+03  0.17817773190E+03  0.91697937128E+02 0.  0.
          5    1    3    3  502    0  0.67090227149E+02 -0.63310648865E+02 -0.16997851153E+03  0.19344121490E+03  0.41800000000E+01 0.  1.
         -5    1    3    3    0  502 -0.34193721982E+02  0.23929719108E+02 -0.10207314316E+03  0.11035506800E+03  0.41800000000E+01 0.  1.
        -11    1    4    4    0    0 -0.15094937162E+02 -0.18634657490E+02 -0.22576807414E+01  0.24087438843E+02  0.00000000000E+00 0.  1.
         11    1    4    4    0    0 -0.17801568006E+02  0.58015587247E+02 -0.14163726285E+03  0.15409029306E+03  0.00000000000E+00 0. -1.
</event>
<event>
 8    1  0.3710605E-009  0.7520457E+02  0.7561462E-02  0.1343239E+00
          2   -1    0    0  501    0  0.00000000000E+00  0.00000000000E+00  0.33385079471E+03  0.33385079471E+03  0.00000000000E+00 0. -1.
         -2   -1    0    0    0  501 -0.00000000000E+00 -0.00000000000E+00 -0.46986915301E+02  0.46986915301E+02  0.00000000000E+00 0.  1.
         25    2    1    2    0    0 -0.26513018293E+02 -0.54972480632E+02  0.13742860134E+03  0.19559776357E+03  0.12508777272E+03 0.  0.
         23    2    1    2    0    0  0.26513018293E+02  0.54972480632E+02  0.14943527807E+03  0.18523994644E+03  0.90873657674E+02 0.  0.
          5    1    3    3  502    0  0.75055740794E+01 -0.35925043861E+02 -0.13751948413E+02  0.39414856384E+02  0.41800000000E+01 0. -1.
         -5    1    3    3    0  502 -0.34018592372E+02 -0.19047436771E+02  0.15118054975E+03  0.15618290719E+03  0.41800000000E+01 0. -1.
        -11    1    4    4    0    0 -0.11700855600E+02  0.13535795542E+02 -0.68050785969E+01  0.19142541039E+02  0.00000000000E+00 0.  1.
         11    1    4    4    0    0  0.38213873893E+02  0.41436685090E+02  0.15624035667E+03  0.16609740540E+03  0.00000000000E+00 0. -1.
</event>
<event>
 8    1  0.3710605E-009  0.9927806E+02  0.7561462E-02  0.1281821E+00
         -1   -1    0    0    0  501 -0.00000000000E+00  0.00000000000E+00  0.21886347724E+03  0.21886347724E+03  0.00000000000E+00 0.  1.
          1   -1    0    0  501    0  0.00000000000E+00 -0.00000000000E+00 -0.69660252166E+02  0.69660252166E+02  0.00000000000E+00 0. -1.
         25    2    1    2    0    0 -0.28844647726E+02 -0.47500152646E+02  0.10529781320E+03  0.17269329704E+03  0.12508823756E+03 0.  0.
         23    2    1    2    0    0  0.28844647726E+02  0.47500152646E+02  0.43905411870E+02  0.11583043236E+03  0.91655472642E+02 0.  0.
          5    1    3    3  502    0  0.18458624665E+02  0.63254796214E+01 -0.20024881314E+02  0.28270139522E+02  0.41800000000E+01 0.  1.
         -5    1    3    3    0  502 -0.47303272392E+02 -0.53825632268E+02  0.12532269452E+03  0.14442315752E+03  0.41800000000E+01 0.  1.
        -11    1    4    4    0    0  0.30858777894E+02  0.74035934970E+02  0.37028267392E+02  0.88344079745E+02  0.00000000000E+00 0.  1.
         11    1    4    4    0    0 -0.20141301672E+01 -0.26535782324E+02  0.68771444776E+01  0.27486352614E+02  0.00000000000E+00 0. -1.
</event>
<event>
 8    1  0.3710605E-009  0.9945215E+02  0.7561462E-02  0.1281452E+00
         -1   -1    0    0    0  501 -0.00000000000E+00  0.00000000000E+00  0.22417797452E+02  0.22417797452E+02  0.00000000000E+00 0.  1.
          1   -1    0    0  501    0  0.00000000000E+00 -0.00000000000E+00 -0.69235691571E+03  0.69235691571E+03  0.00000000000E+00 0. -1.
         25    2    1    2    0    0  0.57445307172E+02  0.10450068177E+02 -0.42489471081E+03  0.44675830639E+03  0.12509317253E+03 0.  0.
         23    2    1    2    0    0 -0.57445307172E+02 -0.10450068177E+02 -0.24504440745E+03  0.26801640677E+03  0.91525217488E+02 0.  0.
          5    1    3    3  502    0  0.27196438229E+02 -0.36415348687E+02 -0.35163883296E+03  0.35458858571E+03  0.41800000000E+01 0.  1.
         -5    1    3    3    0  502  0.30248868943E+02  0.46865416864E+02 -0.73255877852E+02  0.92169720679E+02  0.41800000000E+01 0.  1.
        -11    1    4    4    0    0 -0.77003277421E+02 -0.57891330237E+01 -0.23080165049E+03  0.24337711614E+03  0.00000000000E+00 0. -1.
         11    1    4    4    0    0  0.19557970249E+02 -0.46609351528E+01 -0.14242756959E+02  0.24639290626E+02  0.00000000000E+00 0.  1.
</event>
<event>
 8    1  0.3710605E-009  0.2899240E+03  0.7561462E-02  0.1090389E+00
          2   -1    0    0  501    0  0.00000000000E+00  0.00000000000E+00  0.15977723453E+04  0.15977723453E+04  0.00000000000E+00 0. -1.
         -2   -1    0    0    0  501 -0.00000000000E+00 -0.00000000000E+00 -0.63912159912E+02  0.63912159912E+02  0.00000000000E+00 0.  1.
         25    2    1    2    0    0 -0.82772272087E+02  0.26659753338E+03  0.49324169030E+03  0.58039630531E+03  0.12508801838E+03 0.  0.
         23    2    1    2    0    0  0.82772272087E+02 -0.26659753338E+03  0.10406184951E+04  0.10812881999E+04  0.91497678007E+02 0.  0.
          5    1    3    3  502    0 -0.10299721890E+03  0.24593566213E+03  0.38535463675E+03  0.46862399157E+03  0.41800000000E+01 0.  1.
         -5    1    3    3    0  502  0.20224946810E+02  0.20661871255E+02  0.10788705355E+03  0.11177231375E+03  0.41800000000E+01 0.  1.
        -11    1    4    4    0    0  0.77210448117E+02 -0.16448236181E+03  0.78960016634E+03  0.81023720189E+03  0.00000000000E+00 0. -1.
         11    1    4    4    0    0  0.55618239703E+01 -0.10211517157E+03  0.25101832874E+03  0.27105099799E+03  0.00000000000E+00 0.  1.
</event>
<event>
 8    1  0.3710605E-009  0.2056915E+03  0.7561462E-02  0.1145024E+00
         -1   -1    0    0    0  501 -0.00000000000E+00  0.00000000000E+00  0.54093193575E+02  0.54093193575E+02  0.00000000000E+00 0.  1.
          1   -1    0    0  501    0  0.00000000000E+00 -0.00000000000E+00 -0.91337995858E+03  0.91337995858E+03  0.00000000000E+00 0. -1.
         25    2    1    2    0    0 -0.65927420347E+02 -0.16633304125E+03 -0.61009591943E+03  0.64797930627E+03  0.12508814924E+03 0.  0.
         23    2    1    2    0    0  0.65927420347E+02  0.16633304125E+03 -0.24919084558E+03  0.31949384589E+03  0.89258807279E+02 0.  0.
          5    1    3    3  502    0  0.35935350121E+02 -0.54789375154E+02 -0.15110810538E+03  0.16475544583E+03  0.41800000000E+01 0. -1.
         -5    1    3    3    0  502 -0.10186277047E+03 -0.11154366610E+03 -0.45898781405E+03  0.48322386044E+03  0.41800000000E+01 0. -1.
        -11    1    4    4    0    0  0.23468450396E+02  0.14538601855E+03 -0.15344061788E+03  0.21267789206E+03  0.00000000000E+00 0.  1.
         11    1    4    4    0    0  0.42458969950E+02  0.20947022699E+02 -0.95750227700E+02  0.10681595384E+03  0.00000000000E+00 0. -1.
</event>
<event>
 8    1  0.3710605E-009  0.7538387E+02  0.7561462E-02  0.1342686E+00
         -2   -1    0    0    0  501 -0.00000000000E+00  0.00000000000E+00  0.37028521761E+02  0.37028521761E+02  0.00000000000E+00 0.  1.
          2   -1    0    0  501    0  0.00000000000E+00 -0.00000000000E+00 -0.56007482656E+03  0.56007482656E+03  0.00000000000E+00 0. -1.
         25    2    1    2    0    0 -0.11166666366E+02  0.41163057379E+02 -0.11237356735E+03  0.17347699036E+03  0.12508939129E+03 0.  0.
         23    2    1    2    0    0  0.11166666366E+02 -0.41163057379E+02 -0.41067273745E+03  0.42362635797E+03  0.94805601880E+02 0.  0.
          5    1    3    3  502    0  0.11418308548E+02 -0.62206687394E+00  0.25139068333E+02  0.27932237539E+02  0.41800000000E+01 0. -1.
         -5    1    3    3    0  502 -0.22584974914E+02  0.41785124253E+02 -0.13751263568E+03  0.14554475282E+03  0.41800000000E+01 0. -1.
        -11    1    4    4    0    0  0.26269573311E+02 -0.60744566905E+02 -0.37115212940E+03  0.37700649338E+03  0.00000000000E+00 0. -1.
         11    1    4    4    0    0 -0.15102906945E+02  0.19581509526E+02 -0.39520608047E+02  0.46619864585E+02  0.00000000000E+00 0.  1.
</event>
<event>
 8    1  0.3710605E-009  0.2848587E+03  0.7561462E-02  0.1093064E+00
         -1   -1    0    0    0  501 -0.00000000000E+00  0.00000000000E+00  0.12095842826E+03  0.12095842826E+03  0.00000000000E+00 0.  1.
          1   -1    0    0  501    0  0.00000000000E+00 -0.00000000000E+00 -0.12722176659E+04  0.12722176659E+04  0.00000000000E+00 0. -1.
         25    2    1    2    0    0  0.27106287358E+03 -0.58763166234E+02 -0.10357817747E+04  0.10795463872E+04  0.12509326985E+03 0.  0.
         23    2    1    2    0    0 -0.27106287358E+03  0.58763166234E+02 -0.11547746289E+03  0.31362970692E+03  0.90001986031E+02 0.  0.
          5    1    3    3  502    0  0.96728239711E+02  0.23188107668E+02 -0.50869195456E+03  0.51834256793E+03  0.41800000000E+01 0.  1.
         -5    1    3    3    0  502  0.17433463387E+03 -0.81951273903E+02 -0.52708982016E+03  0.56120381928E+03  0.41800000000E+01 0.  1.
        -11    1    4    4    0    0 -0.80081548139E+02  0.13558210073E+02 -0.80355137580E+02  0.11425334808E+03  0.00000000000E+00 0. -1.
         11    1    4    4    0    0 -0.19098132544E+03  0.45204956162E+02 -0.35122325310E+02  0.19937635884E+03  0.00000000000E+00 0.  1.
</event>
<event>
 8    1  0.3710605E-009  0.7753007E+02  0.7561462E-02  0.1336211E+00
         -2   -1    0    0    0  501 -0.00000000000E+00  0.00000000000E+00  0.40035559907E+02  0.40035559907E+02  0.00000000000E+00 0.  1.
          2   -1    0    0  501    0  0.00000000000E+00 -0.00000000000E+00 -0.36909184966E+03  0.36909184966E+03  0.00000000000E+00 0. -1.
         25    2    1    2    0    0  0.29127477630E+02  0.45831985118E+02 -0.17001339893E+03  0.21794489640E+03  0.12508573554E+03 0.  0.
         23    2    1    2    0    0 -0.29127477630E+02 -0.45831985118E+02 -0.15904289082E+03  0.19118251317E+03  0.91143466077E+02 0.  0.
          5    1    3    3  502    0 -0.11952985511E+00  0.19193675492E+02  0.17469513122E+02  0.26288167586E+02  0.41800000000E+01 0. -1.
         -5    1    3    3    0  502  0.29247007485E+02  0.26638309626E+02 -0.18748291205E+03  0.19165672881E+03  0.41800000000E+01 0. -1.
        -11    1    4    4    0    0  0.55829370912E+01  0.20243040750E+02 -0.78987911822E+02  0.81731512279E+02  0.00000000000E+00 0. -1.
         11    1    4    4    0    0 -0.34710414721E+02 -0.66075025869E+02 -0.80054978999E+02  0.10945100089E+03  0.00000000000E+00 0.  1.
</event>
<event>
 8    1  0.3710605E-009  0.1256548E+03  0.7561462E-02  0.1234049E+00
         -2   -1    0    0    0  501 -0.00000000000E+00  0.00000000000E+00  0.49686841454E+03  0.49686841454E+03  0.00000000000E+00 0.  1.
          2   -1    0    0  501    0  0.00000000000E+00 -0.00000000000E+00 -0.35624457370E+02  0.35624457370E+02  0.00000000000E+00 0. -1.
         25    2    1    2    0    0 -0.42689031182E+02 -0.47128369960E+02  0.33999165061E+03  0.36781187096E+03  0.12509121989E+03 0.  0.
         23    2    1    2    0    0  0.42689031182E+02  0.47128369960E+02  0.12125230656E+03  0.16468100095E+03  0.91511057203E+02 0.  0.
          5    1    3    3  502    0  0.20202344408E+02 -0.70015272220E+02  0.16562437913E+03  0.18099497348E+03  0.41800000000E+01 0. -1.
         -5    1    3    3    0  502 -0.62891375590E+02  0.22886902261E+02  0.17436727148E+03  0.18681689748E+03  0.41800000000E+01 0. -1.
        -11    1    4    4    0    0 -0.27684494212E+02  0.22060966092E+01  0.26384591470E+02  0.38307241470E+02  0.00000000000E+00 0. -1.
         11    1    4    4    0    0  0.70373525394E+02  0.44922273351E+02  0.94867715091E+02  0.12637375948E+03  0.00000000000E+00 0.  1.
</event>
<event>
 8    1  0.3710605E-009  0.1064480E+03  0.7561462E-02  0.1267293E+00
          3   -1    0    0  501    0  0.00000000000E+00  0.00000000000E+00  0.72487088009E+03  0.72487088009E+03  0.00000000000E+00 0. -1.
         -3   -1    0    0    0  501 -0.00000000000E+00 -0.00000000000E+00 -0.26472486264E+02  0.26472486264E+02  0.00000000000E+00 0.  1.
         25    2    1    2    0    0  0.81426646633E+02 -0.26726838251E+02  0.39365200602E+03  0.42184658389E+03  0.12509202946E+03 0.  0.
         23    2    1    2    0    0 -0.81426646633E+02  0.26726838251E+02  0.30474638780E+03  0.32949678246E+03  0.91395547525E+02 0.  0.
          5    1    3    3  502    0  0.52148427807E+02  0.96405727611E+01  0.43911933150E+02  0.68979195696E+02  0.41800000000E+01 0.  1.
         -5    1    3    3    0  502  0.29278218826E+02 -0.36367411012E+02  0.34974007287E+03  0.35286738820E+03  0.41800000000E+01 0.  1.
        -11    1    4    4    0    0  0.13933422669E+02  0.58351811420E+00  0.66903086237E+01  0.15467417048E+02  0.00000000000E+00 0.  1.
         11    1    4    4    0    0 -0.95360069302E+02  0.26143320136E+02  0.29805607918E+03  0.31402936541E+03  0.00000000000E+00 0. -1.
</event>
<event>
 8    1  0.3710605E-009  0.2174030E+03  0.7561462E-02  0.1135834E+00
          1   -1    0    0  501    0  0.00000000000E+00  0.00000000000E+00  0.18616914052E+03  0.18616914052E+03  0.00000000000E+00 0. -1.
         -1   -1    0    0    0  501 -0.00000000000E+00 -0.00000000000E+00 -0.26841001999E+03  0.26841001999E+03  0.00000000000E+00 0.  1.
         25    2    1    2    0    0  0.18902120515E+03 -0.44419847401E+02 -0.28879472790E+02  0.23277290740E+03  0.12508822339E+03 0.  0.
         23    2    1    2    0    0 -0.18902120515E+03  0.44419847401E+02 -0.53361406677E+02  0.22180625311E+03  0.92996964229E+02 0.  0.
          5    1    3    3  502    0 -0.11615951223E+02  0.17086479938E+02 -0.27187291806E+01  0.21254223294E+02  0.41800000000E+01 0.  1.
         -5    1    3    3    0  502  0.20063715637E+03 -0.61506327340E+02 -0.26160743610E+02  0.21151868410E+03  0.41800000000E+01 0.  1.
        -11    1    4    4    0    0 -0.11085391840E+03 -0.56591566365E+01  0.67619308824E+01  0.11120405113E+03  0.00000000000E+00 0. -1.
         11    1    4    4    0    0 -0.78167286750E+02  0.50079004038E+02 -0.60123337559E+02  0.11060220198E+03  0.00000000000E+00 0.  1.
</event>
<event>
 8    1  0.3710605E-009  0.8780653E+02  0.7561462E-02  0.1308252E+00
          2   -1    0    0  501    0  0.00000000000E+00  0.00000000000E+00  0.47632970583E+03  0.47632970583E+03  0.00000000000E+00 0. -1.
         -2   -1    0    0    0  501 -0.00000000000E+00 -0.00000000000E+00 -0.41219775009E+02  0.41219775009E+02  0.00000000000E+00 0.  1.
         25    2    1    2    0    0  0.14622656078E+02  0.81817187865E+02  0.28381328530E+03  0.32109902604E+03  0.12508688704E+03 0.  0.
         23    2    1    2    0    0 -0.14622656078E+02 -0.81817187865E+02  0.15129664552E+03  0.19645045480E+03  0.93777566323E+02 0.  0.
          5    1    3    3  502    0  0.21560556449E+02  0.21382006363E+02  0.24901146651E+03  0.25089087397E+03  0.41800000000E+01 0. -1.
         -5    1    3    3    0  502 -0.69379003716E+01  0.60435181502E+02  0.34801818789E+02  0.70208152061E+02  0.41800000000E+01 0. -1.
        -11    1    4    4    0    0 -0.13539729078E+02 -0.41473400755E+02  0.14984401822E+03  0.15606600216E+03  0.00000000000E+00 0. -1.
         11    1    4    4    0    0 -0.10829270001E+01 -0.40343787111E+02  0.14526273022E+01  0.40384452645E+02  0.00000000000E+00 0.  1.
</event>
<event>
 8    1  0.3710605E-009  0.1774890E+03  0.7561462E-02  0.1170256E+00
         -1   -1    0    0    0  501 -0.00000000000E+00  0.00000000000E+00  0.97545971645E+02  0.97545971645E+02  0.00000000000E+00 0. -1.
          1   -1    0    0  501    0  0.00000000000E+00 -0.00000000000E+00 -0.41449917644E+03  0.41449917644E+03  0.00000000000E+00 0.  1.
         25    2    1    2    0    0 -0.77790753236E+02  0.13241693007E+03 -0.25655459736E+03  0.32412294063E+03  0.12509905897E+03 0.  0.
         23    2    1    2    0    0  0.77790753236E+02 -0.13241693007E+03 -0.60398607429E+02  0.18792220746E+03  0.89895047793E+02 0.  0.
          5    1    3    3  502    0  0.29560633742E+02  0.19949720037E+02 -0.86564649949E+02  0.93716238814E+02  0.41800000000E+01 0.  1.
         -5    1    3    3    0  502 -0.10735138698E+03  0.11246721003E+03 -0.16998994741E+03  0.23040670181E+03  0.41800000000E+01 0.  1.
        -11    1    4    4    0    0 -0.69222795848E+01 -0.29196448733E+02 -0.44183920560E+02  0.53409450562E+02  0.00000000000E+00 0.  1.
         11    1    4    4    0    0  0.84713032821E+02 -0.10322048134E+03 -0.16214686869E+02  0.13451275689E+03  0.00000000000E+00 0. -1.
</event>
<event>
 8    1  0.3710605E-009  0.1494680E+03  0.7561462E-02  0.1201128E+00
          2   -1    0    0  501    0  0.00000000000E+00  0.00000000000E+00  0.10786752030E+04  0.10786752030E+04  0.00000000000E+00 0. -1.
         -2   -1    0    0    0  501 -0.00000000000E+00 -0.00000000000E+00 -0.29656061998E+02  0.29656061998E+02  0.00000000000E+00 0.  1.
         25    2    1    2    0    0 -0.32999836362E+02 -0.11333523166E+03  0.31630435869E+03  0.36004109104E+03  0.12508907214E+03 0.  0.
         23    2    1    2    0    0  0.32999836362E+02  0.11333523166E+03  0.73271478228E+03  0.74829017394E+03  0.95568657529E+02 0.  0.
          5    1    3    3  502    0 -0.58826908472E+02 -0.11239251812E+03  0.30709016201E+03  0.33228680879E+03  0.41800000000E+01 0.  1.
         -5    1    3    3    0  502  0.25827072111E+02 -0.94271354177E+00  0.92141966829E+01  0.27754282249E+02  0.41800000000E+01 0.  1.
        -11    1    4    4    0    0 -0.27376253648E+02  0.17273298261E+02  0.90153969325E+02  0.95789165784E+02  0.00000000000E+00 0.  1.
         11    1    4    4    0    0  0.60376090010E+02  0.96061933399E+02  0.64256081296E+03  0.65250100816E+03  0.00000000000E+00 0. -1.
</event>
<event>
 8    1  0.3710605E-009  0.1361459E+03  0.7561462E-02  0.1218611E+00
          2   -1    0    0  501    0  0.00000000000E+00  0.00000000000E+00  0.23908044376E+04  0.23908044376E+04  0.00000000000E+00 0.  1.
         -2   -1    0    0    0  501 -0.00000000000E+00 -0.00000000000E+00 -0.18066612900E+02  0.18066612900E+02  0.00000000000E+00 0. -1.
         25    2    1    2    0    0  0.50626008032E+02 -0.94815208224E+02  0.20521622582E+04  0.20587787157E+04  0.12508776815E+03 0.  0.
         23    2    1    2    0    0 -0.50626008032E+02  0.94815208224E+02  0.32057556653E+03  0.35009233485E+03  0.90791148615E+02 0.  0.
          5    1    3    3  502    0  0.63377350281E+02 -0.11628323735E+03  0.14369682894E+04  0.14430640377E+04  0.41800000000E+01 0.  1.
         -5    1    3    3    0  502 -0.12751342249E+02  0.21468029127E+02  0.61519396880E+03  0.61571467796E+03  0.41800000000E+01 0.  1.
        -11    1    4    4    0    0 -0.40164510551E+02  0.33577367991E+02  0.49704832074E+02  0.72188627086E+02  0.00000000000E+00 0. -1.
         11    1    4    4    0    0 -0.10461497481E+02  0.61237840233E+02  0.27087073445E+03  0.27790370777E+03  0.00000000000E+00 0.  1.
</event>
<event>
 8    1  0.3710605E-009  0.1225733E+03  0.7561462E-02  0.1238911E+00
         -1   -1    0    0    0  501 -0.00000000000E+00  0.00000000000E+00  0.24889209127E+03  0.24889209127E+03  0.00000000000E+00 0.  1.
          1   -1    0    0  501    0  0.00000000000E+00 -0.00000000000E+00 -0.11323216465E+03  0.11323216465E+03  0.00000000000E+00 0. -1.
         25    2    1    2    0    0 -0.54185367728E+02 -0.84622542618E+02 -0.70786471134E+01  0.16060697286E+03  0.12508982250E+03 0.  0.
         23    2    1    2    0    0  0.54185367728E+02  0.84622542618E+02  0.14273857374E+03  0.20151728305E+03  0.10068707038E+03 0.  0.
          5    1    3    3  502    0 -0.37821291816E+02 -0.73386367463E+02  0.52326144687E+02  0.97834078224E+02  0.41800000000E+01 0.  1.
         -5    1    3    3    0  502 -0.16364075912E+02 -0.11236175154E+02 -0.59404791801E+02  0.62772894639E+02  0.41800000000E+01 0.  1.
        -11    1    4    4    0    0  0.17970860239E+02 -0.22685999761E+02  0.26860009972E+02  0.39485016634E+02  0.00000000000E+00 0.  1.
         11    1    4    4    0    0  0.36214507489E+02  0.10730854238E+03  0.11587856377E+03  0.16203226642E+03  0.00000000000E+00 0. -1.
</event>
<event>
 8    1  0.3710605E-009  0.1771608E+03  0.7561462E-02  0.1170579E+00
          2   -1    0    0  501    0  0.00000000000E+00  0.00000000000E+00  0.12241655763E+04  0.12241655763E+04  0.00000000000E+00 0. -1.
         -2   -1    0    0    0  501 -0.00000000000E+00 -0.00000000000E+00 -0.30235856013E+02  0.30235856013E+02  0.00000000000E+00 0.  1.
         25    2    1    2    0    0 -0.15658620174E+03  0.26762928064E+02  0.62554872678E+03  0.65741491930E+03  0.12509066171E+03 0.  0.
         23    2    1    2    0    0  0.15658620174E+03 -0.26762928064E+02  0.56838099353E+03  0.59698651303E+03  0.90002500229E+02 0.  0.
          5    1    3    3  502    0  0.70844258070E+01  0.20402996792E+02  0.18815760569E+02  0.28947825702E+02  0.41800000000E+01 0.  1.
         -5    1    3    3    0  502 -0.16367062755E+03  0.63599312719E+01  0.60673296621E+03  0.62846709360E+03  0.41800000000E+01 0.  1.
        -11    1    4    4    0    0  0.12287904347E+03 -0.44122667468E+02  0.51638797978E+03  0.53263741398E+03  0.00000000000E+00 0. -1.
         11    1    4    4    0    0  0.33707158269E+02  0.17359739404E+02  0.51993013751E+02  0.64349099059E+02  0.00000000000E+00 0.  1.
</event>
<event>
 8    1  0.3710605E-009  0.1573985E+03  0.7561462E-02  0.1191665E+00
         -2   -1    0    0    0  501 -0.00000000000E+00  0.00000000000E+00  0.18418166881E+03  0.18418166881E+03  0.00000000000E+00 0.  1.
          2   -1    0    0  501    0  0.00000000000E+00 -0.00000000000E+00 -0.16508545705E+03  0.16508545705E+03  0.00000000000E+00 0. -1.
         25    2    1    2    0    0 -0.12069410120E+03 -0.61342409577E+02  0.32205654536E+02  0.18712703123E+03  0.12509741946E+03 0.  0.
         23    2    1    2    0    0  0.12069410120E+03  0.61342409577E+02 -0.13109442772E+02  0.16214009462E+03  0.88247354167E+02 0.  0.
          5    1    3    3  502    0 -0.14348690616E+03 -0.44756336673E+02  0.43413718749E+02  0.15650509668E+03  0.41800000000E+01 0.  1.
         -5    1    3    3    0  502  0.22792804957E+02 -0.16586072904E+02 -0.11208064214E+02  0.30621934550E+02  0.41800000000E+01 0.  1.
        -11    1    4    4    0    0  0.66993185897E+02  0.40809733026E+02  0.36203931183E+02  0.86395867374E+02  0.00000000000E+00 0.  1.
         11    1    4    4    0    0  0.53700915304E+02  0.20532676551E+02 -0.49313373955E+02  0.75744227250E+02  0.00000000000E+00 0. -1.
</event>
<event>
 8    1  0.3710605E-009  0.8434062E+02  0.7561462E-02  0.1317166E+00
         -1   -1    0    0    0  501 -0.00000000000E+00  0.00000000000E+00  0.31695667973E+03  0.31695667973E+03  0.00000000000E+00 0.  1.
          1   -1    0    0  501    0  0.00000000000E+00 -0.00000000000E+00 -0.67147498247E+02  0.67147498247E+02  0.00000000000E+00 0. -1.
         25    2    1    2    0    0 -0.79737853500E+02 -0.16423659577E+02  0.18360475713E+03  0.23660994688E+03  0.12508276558E+03 0.  0.
         23    2    1    2    0    0  0.79737853500E+02  0.16423659577E+02  0.66204424348E+02  0.14749423110E+03  0.10365163061E+03 0.  0.
          5    1    3    3  502    0 -0.49584046242E+02  0.31689873052E+01  0.19289482330E+03  0.19923479961E+03  0.41800000000E+01 0.  1.
         -5    1    3    3    0  502 -0.30153807258E+02 -0.19592646882E+02 -0.92900661618E+01  0.37375147268E+02  0.41800000000E+01 0.  1.
        -11    1    4    4    0    0  0.26849876233E+02  0.12407588434E+02  0.85950618328E+02  0.90897595652E+02  0.00000000000E+00 0.  1.
         11    1    4    4    0    0  0.52887977267E+02  0.40160711426E+01 -0.19746193980E+02  0.56596635444E+02  0.00000000000E+00 0. -1.
</event>
<event>
 8    1  0.3710605E-009  0.2237956E+03  0.7561462E-02  0.1131085E+00
         -2   -1    0    0    0  501 -0.00000000000E+00  0.00000000000E+00  0.75359400900E+02  0.75359400900E+02  0.00000000000E+00 0. -1.
          2   -1    0    0  501    0  0.00000000000E+00 -0.00000000000E+00 -0.98644554545E+03  0.98644554545E+03  0.00000000000E+00 0.  1.
         25    2    1    2    0    0 -0.26506611676E+02 -0.20117785743E+03 -0.74976990870E+03  0.78675119124E+03  0.12508952847E+03 0.  0.
         23    2    1    2    0    0  0.26506611676E+02  0.20117785743E+03 -0.16131623584E+03  0.27505375511E+03  0.91959281583E+02 0.  0.
          5    1    3    3  502    0  0.38538176322E+02 -0.17147100255E+02 -0.15928160369E+03  0.16482510657E+03  0.41800000000E+01 0. -1.
         -5    1    3    3    0  502 -0.65044787998E+02 -0.18403075718E+03 -0.59048830501E+03  0.62192608467E+03  0.41800000000E+01 0. -1.
        -11    1    4    4    0    0 -0.16810124219E+02  0.55415544164E+02 -0.90185973212E+02  0.10717729506E+03  0.00000000000E+00 0.  1.
         11    1    4    4    0    0  0.43316735895E+02  0.14576231327E+03 -0.71130262629E+02  0.16787646005E+03  0.00000000000E+00 0. -1.
</event>
<event>
 8    1  0.3710605E-009  0.1136775E+03  0.7561462E-02  0.1253907E+00
         -2   -1    0    0    0  501 -0.00000000000E+00  0.00000000000E+00  0.12157540468E+03  0.12157540468E+03  0.00000000000E+00 0.  1.
          2   -1    0    0  501    0  0.00000000000E+00 -0.00000000000E+00 -0.11446205082E+03  0.11446205082E+03  0.00000000000E+00 0. -1.
         25    2    1    2    0    0  0.73298021919E+01 -0.39774528348E+02 -0.20890152408E+02  0.13310736656E+03  0.12508170713E+03 0.  0.
         23    2    1    2    0    0 -0.73298021919E+01  0.39774528348E+02  0.28003506273E+02  0.10293008895E+03  0.90413869190E+02 0.  0.
          5    1    3    3  502    0  0.23078566113E+01  0.44654681691E+02  0.33231402260E+01  0.45032015945E+02  0.41800000000E+01 0.  1.
         -5    1    3    3    0  502  0.50219455806E+01 -0.84429210039E+02 -0.24213292634E+02  0.88075350612E+02  0.41800000000E+01 0.  1.
        -11    1    4    4    0    0  0.40029386417E+02  0.28334197458E+02  0.22304818028E+02  0.53876557330E+02  0.00000000000E+00 0. -1.
         11    1    4    4    0    0 -0.47359188608E+02  0.11440330889E+02  0.56986882452E+01  0.49053531618E+02  0.00000000000E+00 0.  1.
</event>
<event>
 8    1  0.3710605E-009  0.1057051E+03  0.7561462E-02  0.1268737E+00
         -1   -1    0    0    0  501 -0.00000000000E+00  0.00000000000E+00  0.41905179521E+02  0.41905179521E+02  0.00000000000E+00 0.  1.
          1   -1    0    0  501    0  0.00000000000E+00 -0.00000000000E+00 -0.29281920918E+03  0.29281920918E+03  0.00000000000E+00 0. -1.
         25    2    1    2    0    0  0.19683533220E+02  0.12805377733E+02 -0.13350147901E+03  0.18444968482E+03  0.12509045589E+03 0.  0.
         23    2    1    2    0    0 -0.19683533220E+02 -0.12805377733E+02 -0.11741255064E+03  0.15027470388E+03  0.90803966860E+02 0.  0.
          5    1    3    3  502    0  0.43144909493E+02 -0.41327164417E+02 -0.34474344370E+02  0.69104055985E+02  0.41800000000E+01 0.  1.
         -5    1    3    3    0  502 -0.23461376274E+02  0.54132542150E+02 -0.99027134641E+02  0.11534562884E+03  0.41800000000E+01 0.  1.
        -11    1    4    4    0    0 -0.55526982529E+02 -0.10003251437E+02 -0.84024244631E+02  0.10120960683E+03  0.00000000000E+00 0.  1.
         11    1    4    4    0    0  0.35843449309E+02 -0.28021262969E+01 -0.33388306014E+02  0.49065097052E+02  0.00000000000E+00 0. -1.
</event>
<event>
 8    1  0.3710605E-009  0.3306807E+03  0.7561462E-02  0.1070836E+00
          2   -1    0    0  501    0  0.00000000000E+00  0.00000000000E+00  0.64243074428E+03  0.64243074428E+03  0.00000000000E+00 0. -1.
         -2   -1    0    0    0  501 -0.00000000000E+00 -0.00000000000E+00 -0.20161225653E+03  0.20161225653E+03  0.00000000000E+00 0.  1.
         25    2    1    2    0    0 -0.34886043744E+02 -0.32442960951E+03  0.34690174338E+03  0.49240237459E+03  0.12509065261E+03 0.  0.
         23    2    1    2    0    0  0.34886043744E+02  0.32442960951E+03  0.93916744368E+02  0.35164062622E+03  0.91428483302E+02 0.  0.
          5    1    3    3  502    0 -0.50827850256E+02 -0.30647669023E+03  0.34980515349E+03  0.46785954070E+03  0.41800000000E+01 0.  1.
         -5    1    3    3    0  502  0.15941806512E+02 -0.17952919280E+02 -0.29034101032E+01  0.24542833898E+02  0.41800000000E+01 0.  1.
        -11    1    4    4    0    0  0.13223401754E+02  0.12286129010E+03 -0.97291774309E+01  0.12395326479E+03  0.00000000000E+00 0.  1.
         11    1    4    4    0    0  0.21662641990E+02  0.20156831941E+03  0.10364592180E+03  0.22768736143E+03  0.00000000000E+00 0. -1.
</event>
<event>
 8    1  0.3710605E-009  0.1753406E+03  0.7561462E-02  0.1172390E+00
          2   -1    0    0  501    0  0.00000000000E+00  0.00000000000E+00  0.69071260175E+03  0.69071260175E+03  0.00000000000E+00 0. -1.
         -2   -1    0    0    0  501 -0.00000000000E+00 -0.00000000000E+00 -0.45685746557E+02  0.45685746557E+02  0.00000000000E+00 0.  1.
         25    2    1    2    0    0 -0.11520734323E+03  0.80614092335E+02  0.32545167563E+03  0.37594822009E+03  0.12508759809E+03 0.  0.
         23    2    1    2    0    0  0.11520734323E+03 -0.80614092335E+02  0.31957517956E+03  0.36045012823E+03  0.89580331135E+02 0.  0.
          5    1    3    3  502    0 -0.27895420545E+02 -0.33719190206E+02  0.85667598040E+02  0.96288878015E+02  0.41800000000E+01 0.  1.
         -5    1    3    3    0  502 -0.87311922689E+02  0.11433328254E+03  0.23978407759E+03  0.27965934207E+03  0.41800000000E+01 0.  1.
        -11    1    4    4    0    0  0.59907410071E+02  0.58196502666E+01  0.82506691561E+02  0.10212796024E+03  0.00000000000E+00 0.  1.
         11    1    4    4    0    0  0.55299933162E+02 -0.86433742602E+02  0.23706848800E+03  0.25832216798E+03  0.00000000000E+00 0. -1.
</event>
<event>
 8    1  0.3710605E-009  0.1110433E+03  0.7561462E-02  0.1258650E+00
          4   -1    0    0  501    0  0.00000000000E+00  0.00000000000E+00  0.50946390559E+03  0.50946390559E+03  0.00000000000E+00 0. -1.
         -4   -1    0    0    0  501 -0.00000000000E+00 -0.00000000000E+00 -0.31241694616E+02  0.31241694616E+02  0.00000000000E+00 0.  1.
         25    2    1    2    0    0  0.30009064407E+02  0.50462571350E+02  0.20205128567E+03  0.24478483181E+03  0.12509147369E+03 0.  0.
         23    2    1    2    0    0 -0.30009064407E+02 -0.50462571350E+02  0.27617092530E+03  0.29592076839E+03  0.88609853465E+02 0.  0.
          5    1    3    3  502    0 -0.12855207895E+02  0.77911958356E+02  0.80030545041E+02  0.11250728938E+03  0.41800000000E+01 0. -1.
         -5    1    3    3    0  502  0.42864272301E+02 -0.27449387006E+02  0.12202074063E+03  0.13227754243E+03  0.41800000000E+01 0. -1.
        -11    1    4    4    0    0  0.17102727637E+02 -0.40250612387E+02  0.58868597790E+02  0.73335713646E+02  0.00000000000E+00 0.  1.
         11    1    4    4    0    0 -0.47111792044E+02 -0.10211958964E+02  0.21730232751E+03  0.22258505474E+03  0.00000000000E+00 0. -1.
</event>
<event>
 8    1  0.3710605E-009  0.9275038E+02  0.7561462E-02  0.1296325E+00
          1   -1    0    0  501    0  0.00000000000E+00  0.00000000000E+00  0.22728637014E+03  0.22728637014E+03  0.00000000000E+00 0. -1.
         -1   -1    0    0    0  501 -0.00000000000E+00 -0.00000000000E+00 -0.67493144919E+02  0.67493144919E+02  0.00000000000E+00 0.  1.
         25    2    1    2    0    0  0.59601121527E+02  0.11934025040E+02  0.73853565948E+02  0.15746666445E+03  0.12508671620E+03 0.  0.
         23    2    1    2    0    0 -0.59601121527E+02 -0.11934025040E+02  0.85939659278E+02  0.13731285061E+03  0.88173007578E+02 0.  0.
          5    1    3    3  502    0  0.63294702143E+01  0.23698388801E+02 -0.30666352592E+02  0.39491434594E+02  0.41800000000E+01 0.  1.
         -5    1    3    3    0  502  0.53271651312E+02 -0.11764363761E+02  0.10451991854E+03  0.11797522986E+03  0.41800000000E+01 0.  1.
        -11    1    4    4    0    0 -0.43717968496E+02 -0.48945634561E+02  0.43106560482E+02  0.78518223799E+02  0.00000000000E+00 0. -1.
         11    1    4    4    0    0 -0.15883153031E+02  0.37011609521E+02  0.42833098796E+02  0.58794626812E+02  0.00000000000E+00 0.  1.
</event>
<event>
 8    1  0.3710605E-009  0.1068173E+03  0.7561462E-02  0.1266580E+00
         -4   -1    0    0    0  501 -0.00000000000E+00  0.00000000000E+00  0.22275602198E+03  0.22275602198E+03  0.00000000000E+00 0.  1.
          4   -1    0    0  501    0  0.00000000000E+00 -0.00000000000E+00 -0.80265423152E+02  0.80265423152E+02  0.00000000000E+00 0. -1.
         25    2    1    2    0    0 -0.17278349537E+02 -0.38094129910E+02  0.15427283179E+03  0.20297012881E+03  0.12508821872E+03 0.  0.
         23    2    1    2    0    0  0.17278349537E+02  0.38094129910E+02 -0.11782232970E+02  0.10005131632E+03  0.90120701209E+02 0.  0.
          5    1    3    3  502    0 -0.49162758582E+02  0.24985729086E+02  0.97996481674E+02  0.11252575843E+03  0.41800000000E+01 0.  1.
         -5    1    3    3    0  502  0.31884409045E+02 -0.63079858996E+02  0.56276350120E+02  0.90444370383E+02  0.41800000000E+01 0.  1.
        -11    1    4    4    0    0  0.25020201266E+02  0.59615809511E+02  0.13405675459E+02  0.66028534359E+02  0.00000000000E+00 0.  1.
         11    1    4    4    0    0 -0.77418517288E+01 -0.21521679601E+02 -0.25187908429E+02  0.34022781957E+02  0.00000000000E+00 0. -1.
</event>
<event>
 8    1  0.3710605E-009  0.1130013E+03  0.7561462E-02  0.1255111E+00
         -1   -1    0    0    0  501 -0.00000000000E+00  0.00000000000E+00  0.11398406873E+03  0.11398406873E+03  0.00000000000E+00 0.  1.
          1   -1    0    0  501    0  0.00000000000E+00 -0.00000000000E+00 -0.17176264501E+03  0.17176264501E+03  0.00000000000E+00 0. -1.
         25    2    1    2    0    0 -0.80820089497E+02 -0.98910687226E+01 -0.69838476164E+00  0.14926574729E+03  0.12510018172E+03 0.  0.
         23    2    1    2    0    0  0.80820089497E+02  0.98910687226E+01 -0.57080191512E+02  0.13648096645E+03  0.93483612640E+02 0.  0.
          5    1    3    3  502    0 -0.63536891057E+02  0.41378420699E+02  0.35712814227E+02  0.83916552150E+02  0.41800000000E+01 0. -1.
         -5    1    3    3    0  502 -0.17283198439E+02 -0.51269489422E+02 -0.36411198989E+02  0.65349195142E+02  0.41800000000E+01 0. -1.
        -11    1    4    4    0    0  0.43765462621E+01  0.18372433331E+02  0.20058069307E+02  0.27550437529E+02  0.00000000000E+00 0.  1.
         11    1    4    4    0    0  0.76443543234E+02 -0.84813646084E+01 -0.77138260820E+02  0.10893052892E+03  0.00000000000E+00 0. -1.
</event>
<event>
 8    1  0.3710605E-009  0.2117985E+03  0.7561462E-02  0.1140150E+00
         -2   -1    0    0    0  501 -0.00000000000E+00  0.00000000000E+00  0.18655350732E+03  0.18655350732E+03  0.00000000000E+00 0.  1.
          2   -1    0    0  501    0  0.00000000000E+00 -0.00000000000E+00 -0.27841973032E+03  0.27841973032E+03  0.00000000000E+00 0. -1.
         25    2    1    2    0    0 -0.13313757599E+03 -0.14825087835E+03 -0.29522736651E+02  0.23711235616E+03  0.12508693135E+03 0.  0.
         23    2    1    2    0    0  0.13313757599E+03  0.14825087835E+03 -0.62343486354E+02  0.22786088147E+03  0.91268471789E+02 0.  0.
          5    1    3    3  502    0 -0.14143899686E+03 -0.13252853555E+03 -0.58811262790E+02  0.20259575415E+03  0.41800000000E+01 0.  1.
         -5    1    3    3    0  502  0.83014208648E+01 -0.15722342797E+02  0.29288526139E+02  0.34516602016E+02  0.41800000000E+01 0.  1.
        -11    1    4    4    0    0  0.10656075740E+03  0.66760466823E+02 -0.72250545322E+01  0.12595378661E+03  0.00000000000E+00 0. -1.
         11    1    4    4    0    0  0.26576818591E+02  0.81490411522E+02 -0.55118431822E+02  0.10190709486E+03  0.00000000000E+00 0.  1.
</event>
<event>
 8    1  0.3710605E-009  0.1212472E+03  0.7561462E-02  0.1241054E+00
         -1   -1    0    0    0  501 -0.00000000000E+00  0.00000000000E+00  0.59404804672E+02  0.59404804672E+02  0.00000000000E+00 0.  1.
          1   -1    0    0  501    0  0.00000000000E+00 -0.00000000000E+00 -0.44860242308E+03  0.44860242308E+03  0.00000000000E+00 0. -1.
         25    2    1    2    0    0 -0.56636506693E+02  0.98913211621E+02 -0.26763396771E+03  0.31665120733E+03  0.12509408101E+03 0.  0.
         23    2    1    2    0    0  0.56636506693E+02 -0.98913211621E+02 -0.12156365069E+03  0.19135602042E+03  0.94063213103E+02 0.  0.
          5    1    3    3  502    0 -0.46972919268E+02  0.99673248763E+02 -0.10053108430E+03  0.14921522367E+03  0.41800000000E+01 0.  1.
         -5    1    3    3    0  502 -0.96635874249E+01 -0.76003714246E+00 -0.16710288342E+03  0.16743598366E+03  0.41800000000E+01 0.  1.
        -11    1    4    4    0    0  0.47299637148E+02 -0.39773807649E+02 -0.71347068469E+01  0.62210252298E+02  0.00000000000E+00 0.  1.
         11    1    4    4    0    0  0.93368695445E+01 -0.59139403972E+02 -0.11442894385E+03  0.12914576813E+03  0.00000000000E+00 0. -1.
</event>
<event>
 8    1  0.3710605E-009  0.1660156E+03  0.7561462E-02  0.1182068E+00
          1   -1    0    0  501    0  0.00000000000E+00  0.00000000000E+00  0.15991301186E+04  0.15991301186E+04  0.00000000000E+00 0. -1.
         -1   -1    0    0    0  501 -0.00000000000E+00 -0.00000000000E+00 -0.23008978267E+02  0.23008978267E+02  0.00000000000E+00 0.  1.
         25    2    1    2    0    0 -0.10839864764E+03  0.11234102027E+03  0.92082998841E+03  0.94230904040E+03  0.12509072075E+03 0.  0.
         23    2    1    2    0    0  0.10839864764E+03 -0.11234102027E+03  0.65529115190E+03  0.67983005644E+03  0.91605896335E+02 0.  0.
          5    1    3    3  502    0 -0.17487758935E+02  0.31720202862E+02  0.56703879007E+03  0.56820986864E+03  0.41800000000E+01 0.  1.
         -5    1    3    3    0  502 -0.90910888706E+02  0.80620817403E+02  0.35379119835E+03  0.37409917176E+03  0.41800000000E+01 0.  1.
        -11    1    4    4    0    0  0.20170369091E+02 -0.75893197838E+02  0.39149134742E+03  0.39928948944E+03  0.00000000000E+00 0.  1.
         11    1    4    4    0    0  0.88228278549E+02 -0.36447822427E+02  0.26379980448E+03  0.28054056701E+03  0.00000000000E+00 0. -1.
</event>
<event>
 8    1  0.3710605E-009  0.1185722E+03  0.7561462E-02  0.1245471E+00
          1   -1    0    0  501    0  0.00000000000E+00  0.00000000000E+00  0.60875570313E+03  0.60875570313E+03  0.00000000000E+00 0. -1.
         -1   -1    0    0    0  501 -0.00000000000E+00 -0.00000000000E+00 -0.33630702306E+02  0.33630702306E+02  0.00000000000E+00 0.  1.
         25    2    1    2    0    0  0.26963156535E+02 -0.41128866497E+02  0.48291427102E+03  0.50127113236E+03  0.12509180435E+03 0.  0.
         23    2    1    2    0    0 -0.26963156535E+02  0.41128866497E+02  0.92210729802E+02  0.14111527307E+03  0.94826716350E+02 0.  0.
          5    1    3    3  502    0 -0.34939713536E+02 -0.59919919536E+02  0.24034167137E+03  0.25018547467E+03  0.41800000000E+01 0.  1.
         -5    1    3    3    0  502  0.61902870071E+02  0.18791053039E+02  0.24257259965E+03  0.25108565769E+03  0.41800000000E+01 0.  1.
        -11    1    4    4    0    0 -0.59631117879E+02  0.16365897906E+02  0.36024086236E+02  0.71564290138E+02  0.00000000000E+00 0.  1.
         11    1    4    4    0    0  0.32667961344E+02  0.24762968591E+02  0.56186643566E+02  0.69550982934E+02  0.00000000000E+00 0. -1.
</event>
<event>
 8    1  0.3710605E-009  0.8348028E+02  0.7561462E-02  0.1319455E+00
         -1   -1    0    0    0  501 -0.00000000000E+00  0.00000000000E+00  0.88569562378E+02  0.88569562378E+02  0.00000000000E+00 0.  1.
          1   -1    0    0  501    0  0.00000000000E+00 -0.00000000000E+00 -0.17011785070E+03  0.17011785070E+03  0.00000000000E+00 0. -1.
         25    2    1    2    0    0  0.24224163089E+02  0.12549077285E+01 -0.98802897154E+02  0.16123899006E+03  0.12509042553E+03 0.  0.
         23    2    1    2    0    0 -0.24224163089E+02 -0.12549077285E+01  0.17254608828E+02  0.97448423023E+02  0.92790563922E+02 0.  0.
          5    1    3    3  502    0  0.50101749846E+02  0.24520678405E+02 -0.11086130318E+03  0.12417386983E+03  0.41800000000E+01 0.  1.
         -5    1    3    3    0  502 -0.25877586757E+02 -0.23265770676E+02  0.12058406024E+02  0.37065120226E+02  0.41800000000E+01 0.  1.
        -11    1    4    4    0    0 -0.47619243522E+02 -0.13599077965E+02  0.39135148450E+02  0.63119625469E+02  0.00000000000E+00 0.  1.
         11    1    4    4    0    0  0.23395080433E+02  0.12344170237E+02 -0.21880539622E+02  0.34328797553E+02  0.00000000000E+00 0. -1.
</event>
<event>
 8    1  0.3710605E-009  0.8585592E+02  0.7561462E-02  0.1313209E+00
          1   -1    0    0  501    0  0.00000000000E+00  0.00000000000E+00  0.15862126072E+03  0.15862126072E+03  0.00000000000E+00 0. -1.
         -1   -1    0    0    0  501 -0.00000000000E+00 -0.00000000000E+00 -0.12299368211E+03  0.12299368211E+03  0.00000000000E+00 0.  1.
         25    2    1    2    0    0 -0.31129550935E+02 -0.35810483082E+01  0.10293779200E+03  0.16500686765E+03  0.12509678054E+03 0.  0.
         23    2    1    2    0    0  0.31129550935E+02  0.35810483082E+01 -0.67310213385E+02  0.11660807518E+03  0.89916102689E+02 0.  0.
          5    1    3    3  502    0  0.13501150298E+02  0.48523391939E+02  0.75813832590E+02  0.91115367730E+02  0.41800000000E+01 0.  1.
         -5    1    3    3    0  502 -0.44630701233E+02 -0.52104440247E+02  0.27123959414E+02  0.73891499919E+02  0.41800000000E+01 0.  1.
        -11    1    4    4    0    0  0.30966420024E+02  0.19450688029E+02  0.98184158874E+01  0.37863567244E+02  0.00000000000E+00 0. -1.
         11    1    4    4    0    0  0.16313091071E+00 -0.15869639721E+02 -0.77128629273E+02  0.78744507936E+02  0.00000000000E+00 0.  1.
</event>
<event>
 8    1  0.3710605E-009  0.1455363E+03  0.7561462E-02  0.1206068E+00
         -2   -1    0    0    0  501 -0.00000000000E+00  0.00000000000E+00  0.14197976599E+03  0.14197976599E+03  0.00000000000E+00 0.  1.
          2   -1    0    0  501    0  0.00000000000E+00 -0.00000000000E+00 -0.14927137972E+03  0.14927137972E+03  0.00000000000E+00 0. -1.
         25    2    1    2    0    0  0.41459549734E+02 -0.87541217006E+02 -0.33715201896E+01  0.15824477705E+03  0.12509070060E+03 0.  0.
         23    2    1    2    0    0 -0.41459549734E+02  0.87541217006E+02 -0.39200935345E+01  0.13300636866E+03  0.91065734680E+02 0.  0.
          5    1    3    3  502    0  0.85098694144E+02 -0.72207162913E+02 -0.47061637161E+01  0.11178229957E+03  0.41800000000E+01 0.  1.
         -5    1    3    3    0  502 -0.43639144410E+02 -0.15334054093E+02  0.13346435265E+01  0.46462477475E+02  0.41800000000E+01 0.  1.
        -11    1    4    4    0    0 -0.68519445241E+02  0.43202360129E+02 -0.27818553879E+01  0.81049966170E+02  0.00000000000E+00 0.  1.
         11    1    4    4    0    0  0.27059895507E+02  0.44338856877E+02 -0.11382381467E+01  0.51956402494E+02  0.00000000000E+00 0. -1.
</event>
<event>
 8    1  0.3710605E-009  0.2231332E+03  0.7561462E-02  0.1131568E+00
         -1   -1    0    0    0  501 -0.00000000000E+00  0.00000000000E+00  0.65585119258E+02  0.65585119258E+02  0.00000000000E+00 0.  1.
          1   -1    0    0  501    0  0.00000000000E+00 -0.00000000000E+00 -0.84414736032E+03  0.84414736032E+03  0.00000000000E+00 0. -1.
         25    2    1    2    0    0  0.14860504385E+03 -0.14430386157E+03 -0.44732825027E+03  0.50858382945E+03  0.12509150476E+03 0.  0.
         23    2    1    2    0    0 -0.14860504385E+03  0.14430386157E+03 -0.33123399079E+03  0.40114865013E+03  0.91089073566E+02 0.  0.
          5    1    3    3  502    0  0.20676324580E+01 -0.67125309742E+02 -0.73269514150E+02  0.99478522384E+02  0.41800000000E+01 0.  1.
         -5    1    3    3    0  502  0.14653741139E+03 -0.77178551827E+02 -0.37405873612E+03  0.40910530707E+03  0.41800000000E+01 0.  1.
        -11    1    4    4    0    0 -0.12957803561E+03  0.14474927827E+03 -0.24416913137E+03  0.31202786027E+03  0.00000000000E+00 0.  1.
         11    1    4    4    0    0 -0.19027008238E+02 -0.44541669859E+00 -0.87064859422E+02  0.89120789857E+02  0.00000000000E+00 0. -1.
</event>
<event>
 8    1  0.3710605E-009  0.8912516E+02  0.7561462E-02  0.1304984E+00
         -2   -1    0    0    0  501 -0.00000000000E+00  0.00000000000E+00  0.13226083784E+02  0.13226083784E+02  0.00000000000E+00 0.  1.
          2   -1    0    0  501    0  0.00000000000E+00 -0.00000000000E+00 -0.10123398225E+04  0.10123398225E+04  0.00000000000E+00 0. -1.
         25    2    1    2    0    0  0.10039370485E+02  0.33134682954E+02 -0.63995914843E+03  0.65298812376E+03  0.12508829656E+03 0.  0.
         23    2    1    2    0    0 -0.10039370485E+02 -0.33134682954E+02 -0.35915459027E+03  0.37257778251E+03  0.92862738127E+02 0.  0.
          5    1    3    3  502    0  0.30831423912E+02 -0.16444312761E+02 -0.53386643993E+02  0.63942147911E+02  0.41800000000E+01 0.  1.
         -5    1    3    3    0  502 -0.20792053427E+02  0.49578995715E+02 -0.58657250444E+03  0.58904597585E+03  0.41800000000E+01 0.  1.
        -11    1    4    4    0    0  0.28676915559E+02 -0.40598097197E+02 -0.27732673581E+03  0.28174578857E+03  0.00000000000E+00 0. -1.
         11    1    4    4    0    0 -0.38716286044E+02  0.74634142430E+01 -0.81827854461E+02  0.90831993939E+02  0.00000000000E+00 0.  1.
</event>
<event>
 8    1  0.3710605E-009  0.9060228E+02  0.7561462E-02  0.1301400E+00
          2   -1    0    0  501    0  0.00000000000E+00  0.00000000000E+00  0.13903253368E+03  0.13903253368E+03  0.00000000000E+00 0. -1.
         -2   -1    0    0    0  501 -0.00000000000E+00 -0.00000000000E+00 -0.11676810263E+03  0.11676810263E+03  0.00000000000E+00 0.  1.
         25    2    1    2    0    0 -0.18168597708E+02  0.16528887450E+02 -0.48075884821E+02  0.13624210949E+03  0.12508924667E+03 0.  0.
         23    2    1    2    0    0  0.18168597708E+02 -0.16528887450E+02  0.70340315870E+02  0.11955852681E+03  0.93504969036E+02 0.  0.
          5    1    3    3  502    0 -0.23704214848E+02  0.69525773672E+02 -0.33495168140E+02  0.80840099548E+02  0.41800000000E+01 0.  1.
         -5    1    3    3    0  502  0.55356171404E+01 -0.52996886222E+02 -0.14580716681E+02  0.55402009939E+02  0.41800000000E+01 0.  1.
        -11    1    4    4    0    0  0.26376197902E+02  0.86024725160E+01 -0.14068182905E+02  0.31106592861E+02  0.00000000000E+00 0.  1.
         11    1    4    4    0    0 -0.82076001945E+01 -0.25131359965E+02  0.84408498775E+02  0.88451933954E+02  0.00000000000E+00 0. -1.
</event>
<event>
 8    1  0.3710605E-009  0.2099047E+03  0.7561462E-02  0.1141641E+00
         -1   -1    0    0    0  501 -0.00000000000E+00  0.00000000000E+00  0.63001911986E+02  0.63001911986E+02  0.00000000000E+00 0.  1.
          1   -1    0    0  501    0  0.00000000000E+00 -0.00000000000E+00 -0.82608442501E+03  0.82608442501E+03  0.00000000000E+00 0. -1.
         25    2    1    2    0    0  0.11407680816E+03 -0.15140865394E+03 -0.26953515421E+03  0.35246933071E+03  0.12508929245E+03 0.  0.
         23    2    1    2    0    0 -0.11407680816E+03  0.15140865394E+03 -0.49354735881E+03  0.53661700628E+03  0.91818938094E+02 0.  0.
          5    1    3    3  502    0 -0.20049623199E+02 -0.91087158234E+01 -0.68115213445E+02  0.71708512723E+02  0.41800000000E+01 0. -1.
         -5    1    3    3    0  502  0.13412643136E+03 -0.14229993812E+03 -0.20141994077E+03  0.28076081799E+03  0.41800000000E+01 0. -1.
        -11    1    4    4    0    0 -0.87437918548E+02  0.58632442276E+02 -0.33343315098E+03  0.34965814599E+03  0.00000000000E+00 0.  1.
         11    1    4    4    0    0 -0.26638889617E+02  0.92776211667E+02 -0.16011420783E+03  0.18695886029E+03  0.00000000000E+00 0. -1.
</event>
<event>
 8    1  0.3710605E-009  0.6746215E+02  0.7561462E-02  0.1368942E+00
         -2   -1    0    0    0  501 -0.00000000000E+00  0.00000000000E+00  0.23519212611E+03  0.23519212611E+03  0.00000000000E+00 0. -1.
          2   -1    0    0  501    0  0.00000000000E+00 -0.00000000000E+00 -0.62435777896E+02  0.62435777896E+02  0.00000000000E+00 0.  1.
         25    2    1    2    0    0 -0.68807171953E-01  0.95458251783E+01  0.16677791599E+03  0.20869523363E+03  0.12509076610E+03 0.  0.
         23    2    1    2    0    0  0.68807171953E-01 -0.95458251783E+01  0.59784322188E+01  0.88932670377E+02  0.88216499000E+02 0.  0.
          5    1    3    3  502    0  0.16832916504E+02  0.32951419823E+02  0.17457313019E+03  0.17850040148E+03  0.41800000000E+01 0. -1.
         -5    1    3    3    0  502 -0.16901723676E+02 -0.23405594645E+02 -0.77952141933E+01  0.30194832144E+02  0.41800000000E+01 0. -1.
        -11    1    4    4    0    0  0.30595962366E+02  0.10092303322E+02 -0.25341686434E+02  0.40989859365E+02  0.00000000000E+00 0.  1.
         11    1    4    4    0    0 -0.30527155194E+02 -0.19638128501E+02  0.31320118653E+02  0.47942811012E+02  0.00000000000E+00 0. -1.
</event>
<event>
 8    1  0.3710605E-009  0.8361487E+02  0.7561462E-02  0.1319095E+00
         -1   -1    0    0    0  501 -0.00000000000E+00  0.00000000000E+00  0.43131851272E+02  0.43131851272E+02  0.00000000000E+00 0.  1.
          1   -1    0    0  501    0  0.00000000000E+00 -0.00000000000E+00 -0.54047441386E+03  0.54047441386E+03  0.00000000000E+00 0. -1.
         25    2    1    2    0    0 -0.16631823352E+02 -0.24318187234E+02 -0.46422229126E+03  0.48168225783E+03  0.12508984785E+03 0.  0.
         23    2    1    2    0    0  0.16631823352E+02  0.24318187234E+02 -0.33120271333E+02  0.10192400730E+03  0.91779949403E+02 0.  0.
          5    1    3    3  502    0  0.30846362951E+02 -0.47377626039E+02 -0.11227680903E+03  0.12577635630E+03  0.41800000000E+01 0.  1.
         -5    1    3    3    0  502 -0.47478186303E+02  0.23059438805E+02 -0.35194548222E+03  0.35590590154E+03  0.41800000000E+01 0.  1.
        -11    1    4    4    0    0  0.30683905630E+02  0.29550218425E+02 -0.58547246972E+02  0.72405093755E+02  0.00000000000E+00 0. -1.
         11    1    4    4    0    0 -0.14052082278E+02 -0.52320311909E+01  0.25426975638E+02  0.29518913544E+02  0.00000000000E+00 0.  1.
</event>
<event>
 8    1  0.3710605E-009  0.8271697E+02  0.7561462E-02  0.1321513E+00
         -2   -1    0    0    0  501 -0.00000000000E+00  0.00000000000E+00  0.31860294352E+03  0.31860294352E+03  0.00000000000E+00 0.  1.
          2   -1    0    0  501    0  0.00000000000E+00 -0.00000000000E+00 -0.51723092261E+02  0.51723092261E+02  0.00000000000E+00 0. -1.
         25    2    1    2    0    0 -0.21432381838E+02 -0.19859476290E+02  0.59601117699E+02  0.14162238897E+03  0.12510340537E+03 0.  0.
         23    2    1    2    0    0  0.21432381838E+02  0.19859476290E+02  0.20727873356E+03  0.22870364681E+03  0.92125669003E+02 0.  0.
          5    1    3    3  502    0 -0.10370588017E+02 -0.60283185229E+02 -0.81461661067E+01  0.61850173317E+02  0.41800000000E+01 0.  1.
         -5    1    3    3    0  502 -0.11061793820E+02  0.40423708938E+02  0.67747283805E+02  0.79772215651E+02  0.41800000000E+01 0.  1.
        -11    1    4    4    0    0  0.27147003222E+02 -0.11968191969E+02  0.14119913714E+02  0.32856800913E+02  0.00000000000E+00 0. -1.
         11    1    4    4    0    0 -0.57146213847E+01  0.31827668260E+02  0.19315881985E+03  0.19584684590E+03  0.00000000000E+00 0.  1.
</event>
<event>
 8    1  0.3710605E-009  0.1000668E+03  0.7561462E-02  0.1280156E+00
         -1   -1    0    0    0  501 -0.00000000000E+00  0.00000000000E+00  0.46487070534E+02  0.46487070534E+02  0.00000000000E+00 0.  1.
          1   -1    0    0  501    0  0.00000000000E+00 -0.00000000000E+00 -0.30652216789E+03  0.30652216789E+03  0.00000000000E+00 0. -1.
         25    2    1    2    0    0  0.49962122077E+01  0.43897968184E+02 -0.18616115811E+03  0.22859486774E+03  0.12509053929E+03 0.  0.
         23    2    1    2    0    0 -0.49962122077E+01 -0.43897968184E+02 -0.73873939244E+02  0.12441437069E+03  0.89830857653E+02 0.  0.
          5    1    3    3  502    0  0.13806222931E+02 -0.28718023585E+02 -0.41673787664E+01  0.32406420908E+02  0.41800000000E+01 0. -1.
         -5    1    3    3    0  502 -0.88100107236E+01  0.72615991769E+02 -0.18199377935E+03  0.19618844683E+03  0.41800000000E+01 0. -1.
        -11    1    4    4    0    0  0.21887021419E+02 -0.59671814070E+02 -0.29210307050E+02  0.69950047455E+02  0.00000000000E+00 0. -1.
         11    1    4    4    0    0 -0.26883233627E+02  0.15773845886E+02 -0.44663632194E+02  0.54464323231E+02  0.00000000000E+00 0.  1.
</event>
<event>
 8    1  0.3710605E-009  0.2011957E+03  0.7561462E-02  0.1148734E+00
          2   -1    0    0  501    0  0.00000000000E+00  0.00000000000E+00  0.49490846128E+03  0.49490846128E+03  0.00000000000E+00 0.  1.
         -2   -1    0    0    0  501 -0.00000000000E+00 -0.00000000000E+00 -0.10052882478E+03  0.10052882478E+03  0.00000000000E+00 0. -1.
         25    2    1    2    0    0  0.44746238010E+02  0.18133023572E+03  0.27611660690E+03  0.35604852442E+03  0.12508913195E+03 0.  0.
         23    2    1    2    0    0 -0.44746238010E+02 -0.18133023572E+03  0.11826302960E+03  0.23938876164E+03  0.91858341087E+02 0.  0.
          5    1    3    3  502    0  0.56864824220E+02  0.14269663097E+03  0.27536117916E+03  0.31533662666E+03  0.41800000000E+01 0. -1.
         -5    1    3    3    0  502 -0.12118586210E+02  0.38633604754E+02  0.75542773748E+00  0.40711897758E+02  0.41800000000E+01 0. -1.
        -11    1    4    4    0    0 -0.32757902825E+02 -0.72797493573E+01  0.22071899938E+02  0.40165205279E+02  0.00000000000E+00 0. -1.
         11    1    4    4    0    0 -0.11988335185E+02 -0.17405048637E+03  0.96191129659E+02  0.19922355636E+03  0.00000000000E+00 0.  1.
</event>
<event>
 8    1  0.3710605E-009  0.9408172E+02  0.7561462E-02  0.1293258E+00
         -2   -1    0    0    0  501 -0.00000000000E+00  0.00000000000E+00  0.69911099879E+02  0.69911099879E+02  0.00000000000E+00 0. -1.
          2   -1    0    0  501    0  0.00000000000E+00 -0.00000000000E+00 -0.22895460200E+03  0.22895460200E+03  0.00000000000E+00 0.  1.
         25    2    1    2    0    0  0.52433689894E+02 -0.14219665622E+02 -0.12444152072E+03  0.18462103708E+03  0.12509094502E+03 0.  0.
         23    2    1    2    0    0 -0.52433689894E+02  0.14219665622E+02 -0.34601981396E+02  0.11424466480E+03  0.94356004536E+02 0.  0.
          5    1    3    3  502    0 -0.44591289103E+00 -0.41438029534E+02 -0.11742067404E+03  0.12458890890E+03  0.41800000000E+01 0.  1.
         -5    1    3    3    0  502  0.52879602785E+02  0.27218363912E+02 -0.70208466816E+01  0.60032128172E+02  0.41800000000E+01 0.  1.
        -11    1    4    4    0    0 -0.67204711995E+02  0.12199575769E+01 -0.54295392479E+02  0.86405736240E+02  0.00000000000E+00 0.  1.
         11    1    4    4    0    0  0.14771022101E+02  0.12999708045E+02  0.19693411083E+02  0.27838928558E+02  0.00000000000E+00 0. -1.
</event>
<event>
 8    1  0.3710605E-009  0.1050256E+03  0.7561462E-02  0.1270069E+00
          3   -1    0    0  501    0  0.00000000000E+00  0.00000000000E+00  0.18367801855E+03  0.18367801855E+03  0.00000000000E+00 0. -1.
         -3   -1    0    0    0  501 -0.00000000000E+00 -0.00000000000E+00 -0.82058756921E+02  0.82058756921E+02  0.00000000000E+00 0.  1.
         25    2    1    2    0    0 -0.36297842688E+02 -0.18229844254E+02  0.99909651762E+02  0.16516735420E+03  0.12509378791E+03 0.  0.
         23    2    1    2    0    0  0.36297842688E+02  0.18229844254E+02  0.17096098707E+01  0.10056942127E+03  0.91986005044E+02 0.  0.
          5    1    3    3  502    0  0.28370142845E+02  0.33557678687E+02  0.56010852821E+02  0.71313889514E+02  0.41800000000E+01 0.  1.
         -5    1    3    3    0  502 -0.64667985533E+02 -0.51787522941E+02  0.43898798941E+02  0.93853464687E+02  0.41800000000E+01 0.  1.
        -11    1    4    4    0    0  0.51203173095E+01 -0.27299093106E+02 -0.26680419812E+02  0.38513672054E+02  0.00000000000E+00 0.  1.
         11    1    4    4    0    0  0.31177525379E+02  0.45528937359E+02  0.28390029683E+02  0.62055749220E+02  0.00000000000E+00 0. -1.
</event>
<event>
 8    1  0.3710605E-009  0.2060810E+03  0.7561462E-02  0.1144708E+00
          2   -1    0    0  501    0  0.00000000000E+00  0.00000000000E+00  0.60599871605E+03  0.60599871605E+03  0.00000000000E+00 0.  1.
         -2   -1    0    0    0  501 -0.00000000000E+00 -0.00000000000E+00 -0.89790581000E+02  0.89790581000E+02  0.00000000000E+00 0. -1.
         25    2    1    2    0    0  0.18123529839E+03 -0.29354486575E+02  0.12690517666E+03  0.25585214238E+03  0.12508987021E+03 0.  0.
         23    2    1    2    0    0 -0.18123529839E+03  0.29354486575E+02  0.38930295839E+03  0.43993715467E+03  0.90994436020E+02 0.  0.
          5    1    3    3  502    0  0.47659040282E+02 -0.58659298917E+02  0.82605481019E+02  0.11204211424E+03  0.41800000000E+01 0. -1.
         -5    1    3    3    0  502  0.13357625811E+03  0.29304812341E+02  0.44299695643E+02  0.14381002813E+03  0.41800000000E+01 0. -1.
        -11    1    4    4    0    0 -0.51221963720E+02  0.45659124324E+02  0.89718458124E+02  0.11295063935E+03  0.00000000000E+00 0. -1.
         11    1    4    4    0    0 -0.13001333467E+03 -0.16304637749E+02  0.29958450026E+03  0.32698651532E+03  0.00000000000E+00 0.  1.
</event>
<event>
 8    1  0.3710605E-009  0.1112054E+03  0.7561462E-02  0.1258354E+00
          1   -1    0    0  501    0  0.00000000000E+00  0.00000000000E+00  0.19328256627E+03  0.19328256627E+03  0.00000000000E+00 0. -1.
         -1   -1    0    0    0  501 -0.00000000000E+00 -0.00000000000E+00 -0.69346650014E+02  0.69346650014E+02  0.00000000000E+00 0.  1.
         25    2    1    2    0    0  0.28410764949E+02  0.26084085980E+02  0.56936344381E+02  0.14274763881E+03  0.12509032724E+03 0.  0.
         23    2    1    2    0    0 -0.28410764949E+02 -0.26084085980E+02  0.66999571872E+02  0.11988157747E+03  0.91624772188E+02 0.  0.
          5    1    3    3  502    0  0.19369615754E+02 -0.50146122001E+02  0.26276555263E+02  0.59981208080E+02  0.41800000000E+01 0. -1.
         -5    1    3    3    0  502  0.90411491950E+01  0.76230207982E+02  0.30659789118E+02  0.82766430734E+02  0.41800000000E+01 0. -1.
        -11    1    4    4    0    0 -0.57432743246E+02 -0.95781535579E+01  0.63746801871E+02  0.86336062982E+02  0.00000000000E+00 0. -1.
         11    1    4    4    0    0  0.29021978297E+02 -0.16505932422E+02  0.32527700006E+01  0.33545514485E+02  0.00000000000E+00 0.  1.
</event>
<event>
 8    1  0.3710605E-009  0.9593027E+02  0.7561462E-02  0.1289095E+00
          4   -1    0    0  501    0  0.00000000000E+00  0.00000000000E+00  0.25428493094E+03  0.25428493094E+03  0.00000000000E+00 0. -1.
         -4   -1    0    0    0  501 -0.00000000000E+00 -0.00000000000E+00 -0.78646244598E+02  0.78646244598E+02  0.00000000000E+00 0.  1.
         25    2    1    2    0    0  0.42974141882E+02  0.41057110658E+02  0.17083153273E+03  0.21991845192E+03  0.12509296429E+03 0.  0.
         23    2    1    2    0    0 -0.42974141882E+02 -0.41057110658E+02  0.48071536155E+01  0.11301272362E+03  0.96001582110E+02 0.  0.
          5    1    3    3  502    0  0.51754360302E+02  0.58513049072E+02  0.40550873486E+02  0.88114337440E+02  0.41800000000E+01 0.  1.
         -5    1    3    3    0  502 -0.87802184203E+01 -0.17455938414E+02  0.13028065924E+03  0.13180411448E+03  0.41800000000E+01 0.  1.
        -11    1    4    4    0    0 -0.63342043952E+02 -0.26748504430E+02 -0.25908416270E+02  0.73477500331E+02  0.00000000000E+00 0.  1.
         11    1    4    4    0    0  0.20367902070E+02 -0.14308606228E+02  0.30715569886E+02  0.39535223287E+02  0.00000000000E+00 0. -1.
</event>
<event>
 8    1  0.3710605E-009  0.1750529E+03  0.7561462E-02  0.1172679E+00
         -1   -1    0    0    0  501 -0.00000000000E+00  0.00000000000E+00  0.17261684233E+02  0.17261684233E+02  0.00000000000E+00 0. -1.
          1   -1    0    0  501    0  0.00000000000E+00 -0.00000000000E+00 -0.22671791331E+04  0.22671791331E+04  0.00000000000E+00 0.  1.
         25    2    1    2    0    0  0.47911606333E+02  0.14836683612E+03 -0.14542360861E+04  0.14679097161E+04  0.12509236741E+03 0.  0.
         23    2    1    2    0    0 -0.47911606333E+02 -0.14836683612E+03 -0.79568136279E+03  0.81653110127E+03  0.96467446144E+02 0.  0.
          5    1    3    3  502    0  0.22946471676E+02 -0.10485744581E+02 -0.46308224010E+03  0.46378780159E+03  0.41800000000E+01 0.  1.
         -5    1    3    3    0  502  0.24965134657E+02  0.15885258070E+03 -0.99115384599E+03  0.10041219145E+04  0.41800000000E+01 0.  1.
        -11    1    4    4    0    0  0.10479872934E+02 -0.27920681042E+02 -0.44839553048E+02  0.53851440873E+02  0.00000000000E+00 0. -1.
         11    1    4    4    0    0 -0.58391479267E+02 -0.12044615508E+03 -0.75084180974E+03  0.76267966039E+03  0.00000000000E+00 0.  1.
</event>
<event>
 8    1  0.3710605E-009  0.3177760E+03  0.7561462E-02  0.1076677E+00
         -2   -1    0    0    0  501 -0.00000000000E+00  0.00000000000E+00  0.22055958318E+03  0.22055958318E+03  0.00000000000E+00 0.  1.
          2   -1    0    0  501    0  0.00000000000E+00 -0.00000000000E+00 -0.54506344440E+03  0.54506344440E+03  0.00000000000E+00 0. -1.
         25    2    1    2    0    0 -0.61300022820E+02 -0.30518110065E+03 -0.28304206429E+03  0.43892347360E+03  0.12509120085E+03 0.  0.
         23    2    1    2    0    0  0.61300022820E+02  0.30518110065E+03 -0.41461796935E+02  0.32669955398E+03  0.90112823561E+02 0.  0.
          5    1    3    3  502    0 -0.32801891225E+02 -0.25399019361E+03 -0.28090415913E+03  0.38014681576E+03  0.41800000000E+01 0.  1.
         -5    1    3    3    0  502 -0.28498131596E+02 -0.51190907042E+02 -0.21379051553E+01  0.58776657839E+02  0.41800000000E+01 0.  1.
        -11    1    4    4    0    0  0.90404033252E+01  0.22368704865E+03 -0.71358855147E+01  0.22398335985E+03  0.00000000000E+00 0.  1.
         11    1    4    4    0    0  0.52259619495E+02  0.81494051999E+02 -0.34325911420E+02  0.10271619413E+03  0.00000000000E+00 0. -1.
</event>
<event>
 8    1  0.3710605E-009  0.8387770E+02  0.7561462E-02  0.1318394E+00
         -1   -1    0    0    0  501 -0.00000000000E+00  0.00000000000E+00  0.32755375966E+02  0.32755375966E+02  0.00000000000E+00 0.  1.
          1   -1    0    0  501    0  0.00000000000E+00 -0.00000000000E+00 -0.37906320367E+03  0.37906320367E+03  0.00000000000E+00 0. -1.
         25    2    1    2    0    0 -0.13809744162E+02 -0.22815422198E+02 -0.18816567712E+03  0.22752116546E+03  0.12509318992E+03 0.  0.
         23    2    1    2    0    0  0.13809744162E+02  0.22815422198E+02 -0.15814215059E+03  0.18429741417E+03  0.90803879620E+02 0.  0.
          5    1    3    3  502    0 -0.24371216640E+02 -0.43640221895E+02 -0.14457369400E+02  0.52200700163E+02  0.41800000000E+01 0.  1.
         -5    1    3    3    0  502  0.10561472478E+02  0.20824799697E+02 -0.17370830772E+03  0.17532046530E+03  0.41800000000E+01 0.  1.
        -11    1    4    4    0    0 -0.12334965646E+01 -0.34549245229E+02 -0.47296393736E+02  0.58584304383E+02  0.00000000000E+00 0.  1.
         11    1    4    4    0    0  0.15043240727E+02  0.57364667427E+02 -0.11084575685E+03  0.12571310979E+03  0.00000000000E+00 0. -1.
</event>
<event>
 8    1  0.3710605E-009  0.1179354E+03  0.7561462E-02  0.1246542E+00
         -1   -1    0    0    0  501 -0.00000000000E+00  0.00000000000E+00  0.53276252018E+02  0.53276252018E+02  0.00000000000E+00 0.  1.
          1   -1    0    0  501    0  0.00000000000E+00 -0.00000000000E+00 -0.48100002890E+03  0.48100002890E+03  0.00000000000E+00 0. -1.
         25    2    1    2    0    0  0.89466202315E+02 -0.38839105302E+02 -0.12097493587E+03  0.19948711631E+03  0.12508995567E+03 0.  0.
         23    2    1    2    0    0 -0.89466202315E+02  0.38839105302E+02 -0.30674884101E+03  0.33478916460E+03  0.92066583615E+02 0.  0.
          5    1    3    3  502    0  0.91939264788E+02 -0.45471870919E+02 -0.14296948672E+03  0.17600643735E+03  0.41800000000E+01 0. -1.
         -5    1    3    3    0  502 -0.24730624729E+01  0.66327656171E+01  0.21994550848E+02  0.23480678966E+02  0.41800000000E+01 0. -1.
        -11    1    4    4    0    0 -0.27297009751E+02 -0.24183902311E+02 -0.41957966867E+02  0.55591895596E+02  0.00000000000E+00 0.  1.
         11    1    4    4    0    0 -0.62169192564E+02  0.63023007613E+02 -0.26479087414E+03  0.27919726901E+03  0.00000000000E+00 0. -1.
</event>
<event>
 8    1  0.3710605E-009  0.1565756E+03  0.7561462E-02  0.1192618E+00
          1   -1    0    0  501    0  0.00000000000E+00  0.00000000000E+00  0.58162304480E+02  0.58162304480E+02  0.00000000000E+00 0. -1.
         -1   -1    0    0    0  501 -0.00000000000E+00 -0.00000000000E+00 -0.45051283235E+03  0.45051283235E+03  0.00000000000E+00 0.  1.
         25    2    1    2    0    0  0.89483760225E+02  0.78887762848E+02 -0.19819267130E+03  0.26297993286E+03  0.12508991830E+03 0.  0.
         23    2    1    2    0    0 -0.89483760225E+02 -0.78887762848E+02 -0.19415785657E+03  0.24569520397E+03  0.91859879785E+02 0.  0.
          5    1    3    3  502    0 -0.22462637983E+02 -0.81629207116E+01 -0.76862509323E+01  0.25451016347E+02  0.41800000000E+01 0. -1.
         -5    1    3    3    0  502  0.11194639821E+03  0.87050683559E+02 -0.19050642037E+03  0.23752891652E+03  0.41800000000E+01 0. -1.
        -11    1    4    4    0    0 -0.55726525823E+02  0.56277920840E+01 -0.10081558624E+03  0.11532952854E+03  0.00000000000E+00 0.  1.
         11    1    4    4    0    0 -0.33757234403E+02 -0.84515554931E+02 -0.93342270330E+02  0.13036567543E+03  0.00000000000E+00 0. -1.
</event>
<event>
 8    1  0.3710605E-009  0.9554097E+02  0.7561462E-02  0.1289962E+00
          2   -1    0    0  501    0  0.00000000000E+00  0.00000000000E+00  0.29464278724E+02  0.29464278724E+02  0.00000000000E+00 0. -1.
         -2   -1    0    0    0  501 -0.00000000000E+00 -0.00000000000E+00 -0.58240871190E+03  0.58240871190E+03  0.00000000000E+00 0.  1.
         25    2    1    2    0    0 -0.33585108977E+02  0.62568715203E+02 -0.32043045924E+03  0.35123600238E+03  0.12509295143E+03 0.  0.
         23    2    1    2    0    0  0.33585108977E+02 -0.62568715203E+02 -0.23251397394E+03  0.26063698824E+03  0.93947261242E+02 0.  0.
          5    1    3    3  502    0  0.18380859162E+00  0.11756869051E+02  0.95014509011E+01  0.15684633394E+02  0.41800000000E+01 0. -1.
         -5    1    3    3    0  502 -0.33768917568E+02  0.50811846151E+02 -0.32993191014E+03  0.33555136899E+03  0.41800000000E+01 0. -1.
        -11    1    4    4    0    0  0.13288651267E+02 -0.85672676205E+02 -0.17973422388E+03  0.19955146437E+03  0.00000000000E+00 0.  1.
         11    1    4    4    0    0  0.20296457710E+02  0.23103961002E+02 -0.52779750062E+02  0.61085523867E+02  0.00000000000E+00 0. -1.
</event>
<event>
 8    1  0.3710605E-009  0.9025648E+02  0.7561462E-02  0.1302232E+00
         -2   -1    0    0    0  501 -0.00000000000E+00  0.00000000000E+00  0.89684133676E+02  0.89684133676E+02  0.00000000000E+00 0.  1.
          2   -1    0    0  501    0  0.00000000000E+00 -0.00000000000E+00 -0.15660349937E+03  0.15660349937E+03  0.00000000000E+00 0. -1.
         25    2    1    2    0    0  0.32365079701E+02  0.22274158264E+02 -0.66079109131E+02  0.14682617697E+03  0.12509133091E+03 0.  0.
         23    2    1    2    0    0 -0.32365079701E+02 -0.22274158264E+02 -0.84025656044E+00  0.99461456074E+02  0.91368696515E+02 0.  0.
          5    1    3    3  502    0  0.24860735375E+02 -0.26002229650E+02  0.24570188161E+02  0.43764582214E+02  0.41800000000E+01 0. -1.
         -5    1    3    3    0  502  0.75043443261E+01  0.48276387914E+02 -0.90649297291E+02  0.10306159475E+03  0.41800000000E+01 0. -1.
        -11    1    4    4    0    0 -0.25892155897E+02  0.31683259219E+02 -0.14527847081E+02  0.43419937731E+02  0.00000000000E+00 0.  1.
         11    1    4    4    0    0 -0.64729238034E+01 -0.53957417483E+02  0.13687590521E+02  0.56041518344E+02  0.00000000000E+00 0. -1.
</event>
<event>
 8    1  0.3710605E-009  0.1038024E+03  0.7561462E-02  0.1272497E+00
          1   -1    0    0  501    0  0.00000000000E+00  0.00000000000E+00  0.58775939355E+03  0.58775939355E+03  0.00000000000E+00 0. -1.
         -1   -1    0    0    0  501 -0.00000000000E+00 -0.00000000000E+00 -0.37314364309E+02  0.37314364309E+02  0.00000000000E+00 0.  1.
         25    2    1    2    0    0  0.89591676237E+02 -0.13878858737E+02  0.39289360138E+03  0.42217564629E+03  0.12509037990E+03 0.  0.
         23    2    1    2    0    0 -0.89591676237E+02  0.13878858737E+02  0.15755142786E+03  0.20289811157E+03  0.90143774532E+02 0.  0.
          5    1    3    3  502    0  0.27032613028E+02 -0.19777700748E+02  0.33480013999E+03  0.33649743796E+03  0.41800000000E+01 0. -1.
         -5    1    3    3    0  502  0.62559063209E+02  0.58988420107E+01  0.58093461383E+02  0.85678208327E+02  0.41800000000E+01 0. -1.
        -11    1    4    4    0    0 -0.45382148466E+02 -0.25164830767E+02  0.12542101100E+03  0.13573222943E+03  0.00000000000E+00 0. -1.
         11    1    4    4    0    0 -0.44209527771E+02  0.39043689504E+02  0.32130416869E+02  0.67165882142E+02  0.00000000000E+00 0.  1.
</event>
<event>
 8    1  0.3710605E-009  0.1330840E+03  0.7561462E-02  0.1222950E+00
          2   -1    0    0  501    0  0.00000000000E+00  0.00000000000E+00  0.33770509362E+02  0.33770509362E+02  0.00000000000E+00 0. -1.
         -2   -1    0    0    0  501 -0.00000000000E+00 -0.00000000000E+00 -0.57908759382E+03  0.57908759382E+03  0.00000000000E+00 0.  1.
         25    2    1    2    0    0  0.65826445861E+02  0.54283116970E+02 -0.34789403093E+03  0.37942301563E+03  0.12510711518E+03 0.  0.
         23    2    1    2    0    0 -0.65826445861E+02 -0.54283116970E+02 -0.19742305353E+03  0.23343508756E+03  0.90754064781E+02 0.  0.
          5    1    3    3  502    0  0.86913537942E+02  0.72974753871E+02 -0.21124046695E+03  0.23983178492E+03  0.41800000000E+01 0.  1.
         -5    1    3    3    0  502 -0.21087092082E+02 -0.18691636901E+02 -0.13665356398E+03  0.13959123071E+03  0.41800000000E+01 0.  1.
        -11    1    4    4    0    0 -0.88048971756E+02 -0.50714101754E+02 -0.15354509711E+03  0.18412126001E+03  0.00000000000E+00 0. -1.
         11    1    4    4    0    0  0.22222525895E+02 -0.35690152156E+01 -0.43877956429E+02  0.49313827545E+02  0.00000000000E+00 0.  1.
</event>
<event>
 8    1  0.3710605E-009  0.1475177E+03  0.7561462E-02  0.1203557E+00
         -2   -1    0    0    0  501 -0.00000000000E+00  0.00000000000E+00  0.83682389828E+02  0.83682389828E+02  0.00000000000E+00 0.  1.
          2   -1    0    0  501    0  0.00000000000E+00 -0.00000000000E+00 -0.30329503730E+03  0.30329503730E+03  0.00000000000E+00 0. -1.
         25    2    1    2    0    0  0.22794007986E+02  0.11070853640E+03 -0.14691288576E+03  0.22361748658E+03  0.12508172316E+03 0.  0.
         23    2    1    2    0    0 -0.22794007986E+02 -0.11070853640E+03 -0.72699761711E+02  0.16335994055E+03  0.92872320920E+02 0.  0.
          5    1    3    3  502    0 -0.13486678109E+02  0.12728277069E+03 -0.10498005579E+03  0.16559311191E+03  0.41800000000E+01 0.  1.
         -5    1    3    3    0  502  0.36280686095E+02 -0.16574234288E+02 -0.41932829973E+02  0.58024374665E+02  0.41800000000E+01 0.  1.
        -11    1    4    4    0    0 -0.43526489393E+01 -0.10816243588E+03 -0.87807190782E+02  0.13938493764E+03  0.00000000000E+00 0. -1.
         11    1    4    4    0    0 -0.18441359046E+02 -0.25461005144E+01  0.15107429071E+02  0.23975002908E+02  0.00000000000E+00 0.  1.
</event>
<event>
 8    1  0.3710605E-009  0.7307610E+02  0.7561462E-02  0.1349934E+00
         -2   -1    0    0    0  501 -0.00000000000E+00  0.00000000000E+00  0.21076763249E+03  0.21076763249E+03  0.00000000000E+00 0.  1.
          2   -1    0    0  501    0  0.00000000000E+00 -0.00000000000E+00 -0.81948437070E+02  0.81948437070E+02  0.00000000000E+00 0. -1.
         25    2    1    2    0    0 -0.53011408208E+02 -0.61505133328E+00  0.13032765371E+03  0.18826616917E+03  0.12509302717E+03 0.  0.
         23    2    1    2    0    0  0.53011408208E+02  0.61505133328E+00 -0.15084582895E+01  0.10444990039E+03  0.89982879237E+02 0.  0.
          5    1    3    3  502    0 -0.94420841686E+01  0.24792567251E+02 -0.17473167221E+02  0.32040729034E+02  0.41800000000E+01 0.  1.
         -5    1    3    3    0  502 -0.43569324039E+02 -0.25407618584E+02  0.14780082093E+03  0.15622544014E+03  0.41800000000E+01 0.  1.
        -11    1    4    4    0    0  0.22161229325E+02  0.21938473829E+02 -0.39993750316E+02  0.50714068891E+02  0.00000000000E+00 0. -1.
         11    1    4    4    0    0  0.30850178883E+02 -0.21323422496E+02  0.38485292026E+02  0.53735831495E+02  0.00000000000E+00 0.  1.
</event>
<event>
 8    1  0.3710605E-009  0.2367980E+03  0.7561462E-02  0.1121944E+00
         -2   -1    0    0    0  501 -0.00000000000E+00  0.00000000000E+00  0.79265439898E+02  0.79265439898E+02  0.00000000000E+00 0.  1.
          2   -1    0    0  501    0  0.00000000000E+00 -0.00000000000E+00 -0.76731532544E+03  0.76731532544E+03  0.00000000000E+00 0. -1.
         25    2    1    2    0    0 -0.19070627557E+03 -0.11149406676E+03 -0.37669018491E+03  0.45424932602E+03  0.12508854593E+03 0.  0.
         23    2    1    2    0    0  0.19070627557E+03  0.11149406676E+03 -0.31135970064E+03  0.39233143932E+03  0.90439397556E+02 0.  0.
          5    1    3    3  502    0 -0.20690900920E+03 -0.11286651773E+03 -0.36174302142E+03  0.43177039600E+03  0.41800000000E+01 0.  1.
         -5    1    3    3    0  502  0.16202733629E+02  0.13724509757E+01 -0.14947163482E+02  0.22478930021E+02  0.41800000000E+01 0.  1.
        -11    1    4    4    0    0  0.13859943378E+03  0.76480077198E+02 -0.28117446137E+03  0.32267333788E+03  0.00000000000E+00 0. -1.
         11    1    4    4    0    0  0.52106841789E+02  0.35013989561E+02 -0.30185239273E+02  0.69658101440E+02  0.00000000000E+00 0.  1.
</event>
<event>
 8    1  0.3710605E-009  0.1137180E+03  0.7561462E-02  0.1253836E+00
         -2   -1    0    0    0  501 -0.00000000000E+00  0.00000000000E+00  0.88329549635E+02  0.88329549635E+02  0.00000000000E+00 0.  1.
          2   -1    0    0  501    0  0.00000000000E+00 -0.00000000000E+00 -0.18825484179E+03  0.18825484179E+03  0.00000000000E+00 0. -1.
         25    2    1    2    0    0  0.12230833969E+02 -0.64329309636E+02 -0.31203096949E+02  0.14460101812E+03  0.12509183748E+03 0.  0.
         23    2    1    2    0    0 -0.12230833969E+02  0.64329309636E+02 -0.68722195206E+02  0.13198337330E+03  0.91700694308E+02 0.  0.
          5    1    3    3  502    0  0.17728293834E+02 -0.93945570193E+02 -0.50879126124E+02  0.10837998171E+03  0.41800000000E+01 0.  1.
         -5    1    3    3    0  502 -0.54974598650E+01  0.29616260557E+02  0.19676029175E+02  0.36221036408E+02  0.41800000000E+01 0.  1.
        -11    1    4    4    0    0  0.27746419578E+02  0.52926375913E+02 -0.10862447236E+02  0.60737614594E+02  0.00000000000E+00 0.  1.
         11    1    4    4    0    0 -0.39977253548E+02  0.11402933723E+02 -0.57859747971E+02  0.71245758708E+02  0.00000000000E+00 0. -1.
</event>
<event>
 8    1  0.3710605E-009  0.1329434E+03  0.7561462E-02  0.1223152E+00
          4   -1    0    0  501    0  0.00000000000E+00  0.00000000000E+00  0.60443340794E+02  0.60443340794E+02  0.00000000000E+00 0. -1.
         -4   -1    0    0    0  501 -0.00000000000E+00 -0.00000000000E+00 -0.37254668451E+03  0.37254668451E+03  0.00000000000E+00 0.  1.
         25    2    1    2    0    0  0.56118618410E+02 -0.57237835960E+02 -0.73318471521E+02  0.16567537318E+03  0.12508901556E+03 0.  0.
         23    2    1    2    0    0 -0.56118618410E+02  0.57237835960E+02 -0.23878487219E+03  0.26731465212E+03  0.89517813049E+02 0.  0.
          5    1    3    3  502    0  0.61551813564E+02 -0.91934370417E+02 -0.67945487389E+02  0.12990233206E+03  0.41800000000E+01 0.  1.
         -5    1    3    3    0  502 -0.54331951533E+01  0.34696534457E+02 -0.53729841318E+01  0.35773041125E+02  0.41800000000E+01 0.  1.
        -11    1    4    4    0    0  0.24418215030E+02  0.96350019992E+01 -0.44174875745E+02  0.51385816485E+02  0.00000000000E+00 0. -1.
         11    1    4    4    0    0 -0.80536833441E+02  0.47602833961E+02 -0.19460999645E+03  0.21592883564E+03  0.00000000000E+00 0.  1.
</event>
<event>
 8    1  0.3710605E-009  0.1175260E+03  0.7561462E-02  0.1247235E+00
         -1   -1    0    0    0  501 -0.00000000000E+00  0.00000000000E+00  0.26206733363E+03  0.26206733363E+03  0.00000000000E+00 0. -1.
          1   -1    0    0  501    0  0.00000000000E+00 -0.00000000000E+00 -0.72201724096E+02  0.72201724096E+02  0.00000000000E+00 0.  1.
         25    2    1    2    0    0 -0.47426358118E+02  0.62633661347E+02  0.14134116771E+03  0.20444318113E+03  0.12508978232E+03 0.  0.
         23    2    1    2    0    0  0.47426358118E+02 -0.62633661347E+02  0.48524441818E+02  0.12982587659E+03  0.91257338345E+02 0.  0.
          5    1    3    3  502    0  0.25645233770E+02  0.16813496719E+02 -0.79716092540E+01  0.31959202761E+02  0.41800000000E+01 0.  1.
         -5    1    3    3    0  502 -0.73071591888E+02  0.45820164628E+02  0.14931277697E+03  0.17248397837E+03  0.41800000000E+01 0.  1.
        -11    1    4    4    0    0 -0.17968782533E+02 -0.47279388746E+02  0.34442132235E+02  0.61192141806E+02  0.00000000000E+00 0. -1.
         11    1    4    4    0    0  0.65395140651E+02 -0.15354272601E+02  0.14082309583E+02  0.68633734788E+02  0.00000000000E+00 0.  1.
</event>
<event>
 8    1  0.3710605E-009  0.9077005E+02  0.7561462E-02  0.1300998E+00
          2   -1    0    0  501    0  0.00000000000E+00  0.00000000000E+00  0.12533380311E+03  0.12533380311E+03  0.00000000000E+00 0. -1.
         -2   -1    0    0    0  501 -0.00000000000E+00 -0.00000000000E+00 -0.11837334487E+03  0.11837334487E+03  0.00000000000E+00 0.  1.
         25    2    1    2    0    0  0.49454416770E+02  0.15410288880E+02 -0.19624332049E+02  0.13680365514E+03  0.12508760653E+03 0.  0.
         23    2    1    2    0    0 -0.49454416770E+02 -0.15410288880E+02  0.26584790292E+02  0.10690349285E+03  0.89657065351E+02 0.  0.
          5    1    3    3  502    0 -0.94165481825E+01  0.35508235735E+02  0.37198456260E+02  0.52447151809E+02  0.41800000000E+01 0.  1.
         -5    1    3    3    0  502  0.58870964953E+02 -0.20097946855E+02 -0.56822788309E+02  0.84356503327E+02  0.41800000000E+01 0.  1.
        -11    1    4    4    0    0  0.14135969600E+02 -0.11992909085E+02  0.37930811764E+02  0.42218502886E+02  0.00000000000E+00 0. -1.
         11    1    4    4    0    0 -0.63590386370E+02 -0.34173797954E+01 -0.11346021472E+02  0.64684989964E+02  0.00000000000E+00 0.  1.
</event>
<event>
 8    1  0.3710605E-009  0.9556932E+02  0.7561462E-02  0.1289899E+00
         -2   -1    0    0    0  501 -0.00000000000E+00  0.00000000000E+00  0.34570506512E+02  0.34570506512E+02  0.00000000000E+00 0.  1.
          2   -1    0    0  501    0  0.00000000000E+00 -0.00000000000E+00 -0.40277418722E+03  0.40277418722E+03  0.00000000000E+00 0. -1.
         25    2    1    2    0    0 -0.21484898213E+02  0.12561349781E+02 -0.13206044432E+03  0.18358921662E+03  0.12508257730E+03 0.  0.
         23    2    1    2    0    0  0.21484898213E+02 -0.12561349781E+02 -0.23614323639E+03  0.25375547712E+03  0.89492042760E+02 0.  0.
          5    1    3    3  502    0  0.24204290895E+02 -0.39240995731E+02 -0.93594572397E+02  0.10441800528E+03  0.41800000000E+01 0.  1.
         -5    1    3    3    0  502 -0.45689189108E+02  0.51802345511E+02 -0.38465871926E+02  0.79171211339E+02  0.41800000000E+01 0.  1.
        -11    1    4    4    0    0  0.10279289247E+02  0.29958990209E+02 -0.32356078899E+02  0.45278258838E+02  0.00000000000E+00 0.  1.
         11    1    4    4    0    0  0.11205608967E+02 -0.42520339989E+02 -0.20378715749E+03  0.20847721828E+03  0.00000000000E+00 0. -1.
</event>
<event>
 8    1  0.3710605E-009  0.1437561E+03  0.7561462E-02  0.1208362E+00
          3   -1    0    0  501    0  0.00000000000E+00  0.00000000000E+00  0.30510995017E+03  0.30510995017E+03  0.00000000000E+00 0. -1.
         -3   -1    0    0    0  501 -0.00000000000E+00 -0.00000000000E+00 -0.79451921517E+02  0.79451921517E+02  0.00000000000E+00 0.  1.
         25    2    1    2    0    0  0.45546163656E+02  0.90930858422E+02  0.17771613587E+03  0.23994286970E+03  0.12508669687E+03 0.  0.
         23    2    1    2    0    0 -0.45546163656E+02 -0.90930858422E+02  0.47941892789E+02  0.14461900199E+03  0.90957993685E+02 0.  0.
          5    1    3    3  502    0 -0.35816075119E+02  0.80241042804E+01  0.14763615793E+02  0.39782084381E+02  0.41800000000E+01 0.  1.
         -5    1    3    3    0  502  0.81362238775E+02  0.82906754142E+02  0.16295252007E+03  0.20016078532E+03  0.41800000000E+01 0.  1.
        -11    1    4    4    0    0 -0.53638442822E+02 -0.11966628224E+02  0.32199278922E+02  0.63695182726E+02  0.00000000000E+00 0. -1.
         11    1    4    4    0    0  0.80922791659E+01 -0.78964230199E+02  0.15742613867E+02  0.80923819264E+02  0.00000000000E+00 0.  1.
</event>
<event>
 8    1  0.3710605E-009  0.9518381E+02  0.7561462E-02  0.1290763E+00
         -2   -1    0    0    0  501 -0.00000000000E+00  0.00000000000E+00  0.13273284763E+03  0.13273284763E+03  0.00000000000E+00 0.  1.
          2   -1    0    0  501    0  0.00000000000E+00 -0.00000000000E+00 -0.10357131305E+03  0.10357131305E+03  0.00000000000E+00 0. -1.
         25    2    1    2    0    0 -0.35071386412E+02  0.23636297548E+02  0.19314539878E+02  0.13344687161E+03  0.12508532842E+03 0.  0.
         23    2    1    2    0    0  0.35071386412E+02 -0.23636297548E+02  0.98469947049E+01  0.10285728907E+03  0.93241524563E+02 0.  0.
          5    1    3    3  502    0  0.23667870654E+02 -0.11840029214E+02 -0.36232487471E+02  0.45062400529E+02  0.41800000000E+01 0. -1.
         -5    1    3    3    0  502 -0.58739257066E+02  0.35476326762E+02  0.55547027349E+02  0.88384471082E+02  0.41800000000E+01 0. -1.
        -11    1    4    4    0    0  0.63418483193E+02 -0.18018636969E+02 -0.11507069223E+02  0.66925241359E+02  0.00000000000E+00 0. -1.
         11    1    4    4    0    0 -0.28347096781E+02 -0.56176605783E+01  0.21354063928E+02  0.35932047709E+02  0.00000000000E+00 0.  1.
</event>
<event>
 8    1  0.3710605E-009  0.1042750E+03  0.7561462E-02  0.1271555E+00
         -1   -1    0    0    0  501 -0.00000000000E+00  0.00000000000E+00  0.16785706704E+03  0.16785706704E+03  0.00000000000E+00 0.  1.
          1   -1    0    0  501    0  0.00000000000E+00 -0.00000000000E+00 -0.18101644315E+03  0.18101644315E+03  0.00000000000E+00 0. -1.
         25    2    1    2    0    0 -0.90111578256E+02 -0.43478022338E+02  0.84905052253E+02  0.18129043900E+03  0.12508765092E+03 0.  0.
         23    2    1    2    0    0  0.90111578256E+02  0.43478022338E+02 -0.98064428365E+02  0.16758307118E+03  0.91962050189E+02 0.  0.
          5    1    3    3  502    0 -0.79452177887E+02 -0.39350457813E+02 -0.65747615906E+01  0.89004533542E+02  0.41800000000E+01 0. -1.
         -5    1    3    3    0  502 -0.10659400369E+02 -0.41275645246E+01  0.91479813844E+02  0.92285905457E+02  0.41800000000E+01 0. -1.
        -11    1    4    4    0    0  0.74927810724E+02  0.16595893390E+02 -0.13975998240E+02  0.78005955055E+02  0.00000000000E+00 0. -1.
         11    1    4    4    0    0  0.15183767532E+02  0.26882128948E+02 -0.84088430124E+02  0.89577116129E+02  0.00000000000E+00 0.  1.
</event>
<event>
 8    1  0.3710605E-009  0.9625150E+02  0.7561462E-02  0.1288382E+00
          1   -1    0    0  501    0  0.00000000000E+00  0.00000000000E+00  0.51290828474E+02  0.51290828474E+02  0.00000000000E+00 0. -1.
         -1   -1    0    0    0  501 -0.00000000000E+00 -0.00000000000E+00 -0.23871701111E+03  0.23871701111E+03  0.00000000000E+00 0.  1.
         25    2    1    2    0    0 -0.12364492174E+00  0.10298879518E+02 -0.13510393178E+03  0.18440513205E+03  0.12508436408E+03 0.  0.
         23    2    1    2    0    0  0.12364492174E+00 -0.10298879518E+02 -0.52322250860E+02  0.10560270753E+03  0.91149501896E+02 0.  0.
          5    1    3    3  502    0 -0.38707078540E+02  0.42248952143E+02 -0.11810947053E+03  0.13134127803E+03  0.41800000000E+01 0. -1.
         -5    1    3    3    0  502  0.38583433618E+02 -0.31950072625E+02 -0.16994461250E+02  0.53063854022E+02  0.41800000000E+01 0. -1.
        -11    1    4    4    0    0  0.50974281400E+01 -0.47236901120E+02 -0.88294357563E+01  0.48324605915E+02  0.00000000000E+00 0. -1.
         11    1    4    4    0    0 -0.49737832182E+01  0.36938021602E+02 -0.43492815104E+02  0.57278101619E+02  0.00000000000E+00 0.  1.
</event>
<event>
 8    1  0.3710605E-009  0.1063203E+03  0.7561462E-02  0.1267540E+00
          1   -1    0    0  501    0  0.00000000000E+00  0.00000000000E+00  0.74300149831E+02  0.74300149831E+02  0.00000000000E+00 0. -1.
         -1   -1    0    0    0  501 -0.00000000000E+00 -0.00000000000E+00 -0.23200909862E+03  0.23200909862E+03  0.00000000000E+00 0.  1.
         25    2    1    2    0    0  0.73154393487E+02  0.96739939374E+01 -0.80269537629E+02  0.16593476444E+03  0.12508395554E+03 0.  0.
         23    2    1    2    0    0 -0.73154393487E+02 -0.96739939374E+01 -0.77439411155E+02  0.14037448401E+03  0.90900945626E+02 0.  0.
          5    1    3    3  502    0  0.48868693976E+02  0.62880287009E+02 -0.20789732625E+02  0.82412166140E+02  0.41800000000E+01 0.  1.
         -5    1    3    3    0  502  0.24285699511E+02 -0.53206293071E+02 -0.59479805004E+02  0.83522598298E+02  0.41800000000E+01 0.  1.
        -11    1    4    4    0    0 -0.18112711938E+02  0.11998220566E+01  0.20575031959E+02  0.27437963606E+02  0.00000000000E+00 0. -1.
         11    1    4    4    0    0 -0.55041681549E+02 -0.10873815994E+02 -0.98014443114E+02  0.11293652040E+03  0.00000000000E+00 0.  1.
</event>
<event>
 8    1  0.3710605E-009  0.9290025E+02  0.7561462E-02  0.1295977E+00
         -1   -1    0    0    0  501 -0.00000000000E+00  0.00000000000E+00  0.62698671023E+02  0.62698671023E+02  0.00000000000E+00 0.  1.
          1   -1    0    0  501    0  0.00000000000E+00 -0.00000000000E+00 -0.23469005536E+03  0.23469005536E+03  0.00000000000E+00 0. -1.
         25    2    1    2    0    0  0.72295644299E+01  0.54908931006E+02 -0.10727999762E+03  0.17384964427E+03  0.12508974225E+03 0.  0.
         23    2    1    2    0    0 -0.72295644299E+01 -0.54908931006E+02 -0.64711386717E+02  0.12353908212E+03  0.89482310727E+02 0.  0.
          5    1    3    3  502    0  0.25298767805E+02  0.56746980969E+00  0.21101333987E+02  0.33212774207E+02  0.41800000000E+01 0.  1.
         -5    1    3    3    0  502 -0.18069203375E+02  0.54341461196E+02 -0.12838133161E+03  0.14063687006E+03  0.41800000000E+01 0.  1.
        -11    1    4    4    0    0  0.39218333977E+02 -0.16852822964E+02 -0.13940366249E+02  0.44904667608E+02  0.00000000000E+00 0. -1.
         11    1    4    4    0    0 -0.46447898407E+02 -0.38056108041E+02 -0.50771020468E+02  0.78634414508E+02  0.00000000000E+00 0.  1.
</event>
<event>
 8    1  0.3710605E-009  0.1095601E+03  0.7561462E-02  0.1261387E+00
          1   -1    0    0  501    0  0.00000000000E+00  0.00000000000E+00  0.14458218580E+03  0.14458218580E+03  0.00000000000E+00 0. -1.
         -1   -1    0    0    0  501 -0.00000000000E+00 -0.00000000000E+00 -0.13586145570E+03  0.13586145570E+03  0.00000000000E+00 0.  1.
         25    2    1    2    0    0  0.37650698546E+02  0.19991266260E+02  0.81938782587E+02  0.15549744721E+03  0.12509303006E+03 0.  0.
         23    2    1    2    0    0 -0.37650698546E+02 -0.19991266260E+02 -0.73218052490E+02  0.12494619429E+03  0.91833776086E+02 0.  0.
          5    1    3    3  502    0  0.81762592683E+02  0.27853854654E+02  0.46296290096E+02  0.98090660401E+02  0.41800000000E+01 0.  1.
         -5    1    3    3    0  502 -0.44111894137E+02 -0.78625883938E+01  0.35642492491E+02  0.57406786807E+02  0.41800000000E+01 0.  1.
        -11    1    4    4    0    0 -0.36511180055E+02  0.23962339783E+02 -0.67796176990E+02  0.80644786635E+02  0.00000000000E+00 0.  1.
         11    1    4    4    0    0 -0.11395184911E+01 -0.43953606043E+02 -0.54218754998E+01  0.44301407658E+02  0.00000000000E+00 0. -1.
</event>
<event>
 8    1  0.3710605E-009  0.1023941E+03  0.7561462E-02  0.1275341E+00
         -1   -1    0    0    0  501 -0.00000000000E+00  0.00000000000E+00  0.37236983050E+02  0.37236983050E+02  0.00000000000E+00 0.  1.
          1   -1    0    0  501    0  0.00000000000E+00 -0.00000000000E+00 -0.38058164153E+03  0.38058164153E+03  0.00000000000E+00 0. -1.
         25    2    1    2    0    0 -0.38276729435E+02 -0.30140837365E+02 -0.16604740608E+03  0.21352585935E+03  0.12509186007E+03 0.  0.
         23    2    1    2    0    0  0.38276729435E+02  0.30140837365E+02 -0.17729725241E+03  0.20429276523E+03  0.89037296233E+02 0.  0.
          5    1    3    3  502    0 -0.60651765352E+02  0.56318452250E+01 -0.15928970062E+03  0.17059025600E+03  0.41800000000E+01 0. -1.
         -5    1    3    3    0  502  0.22375035917E+02 -0.35772682590E+02 -0.67577054604E+01  0.42935603351E+02  0.41800000000E+01 0. -1.
        -11    1    4    4    0    0  0.39046875029E+02 -0.24883744204E+02 -0.86804890087E+02  0.98381645230E+02  0.00000000000E+00 0. -1.
         11    1    4    4    0    0 -0.77014559491E+00  0.55024581569E+02 -0.90492362320E+02  0.10591112000E+03  0.00000000000E+00 0.  1.
</event>
<event>
 8    1  0.3710605E-009  0.9965982E+02  0.7561462E-02  0.1281013E+00
          4   -1    0    0  501    0  0.00000000000E+00  0.00000000000E+00  0.30795198889E+02  0.30795198889E+02  0.00000000000E+00 0. -1.
         -4   -1    0    0    0  501 -0.00000000000E+00 -0.00000000000E+00 -0.53096270305E+03  0.53096270305E+03  0.00000000000E+00 0.  1.
         25    2    1    2    0    0  0.18458404025E+02  0.13189459988E+02 -0.41287025489E+03  0.43200017727E+03  0.12509049227E+03 0.  0.
         23    2    1    2    0    0 -0.18458404025E+02 -0.13189459988E+02 -0.87297249274E+02  0.12975772467E+03  0.93282275095E+02 0.  0.
          5    1    3    3  502    0  0.45060885332E+02 -0.29903067424E+02 -0.33262751451E+03  0.33702108634E+03  0.41800000000E+01 0.  1.
         -5    1    3    3    0  502 -0.26602481307E+02  0.43092527412E+02 -0.80242740373E+02  0.94979090925E+02  0.41800000000E+01 0.  1.
        -11    1    4    4    0    0 -0.14560001654E+02 -0.52642137816E+02 -0.62472257957E+02  0.82981753032E+02  0.00000000000E+00 0.  1.
         11    1    4    4    0    0 -0.38984023718E+01  0.39452677828E+02 -0.24824991316E+02  0.46775971638E+02  0.00000000000E+00 0. -1.
</event>
<event>
 8    1  0.3710605E-009  0.4458165E+02  0.7561462E-02  0.1476970E+00
          1   -1    0    0  501    0  0.00000000000E+00  0.00000000000E+00  0.18294577834E+03  0.18294577834E+03  0.00000000000E+00 0. -1.
         -1   -1    0    0    0  501 -0.00000000000E+00 -0.00000000000E+00 -0.76129029245E+02  0.76129029245E+02  0.00000000000E+00 0.  1.
         25    2    1    2    0    0  0.10240476800E+02 -0.25283833849E+02  0.10489986047E+03  0.16552329062E+03  0.12509931811E+03 0.  0.
         23    2    1    2    0    0 -0.10240476800E+02  0.25283833849E+02  0.19168886231E+01  0.93551516966E+02  0.89465480748E+02 0.  0.
          5    1    3    3  502    0  0.34837256388E+01  0.11259248012E+01  0.12886612370E+03  0.12898586856E+03  0.41800000000E+01 0.  1.
         -5    1    3    3    0  502  0.67567511608E+01 -0.26409758650E+02 -0.23966263223E+02  0.36537422064E+02  0.41800000000E+01 0.  1.
        -11    1    4    4    0    0  0.83989172608E+01 -0.11822902818E+02 -0.35065048271E+02  0.37945756712E+02  0.00000000000E+00 0.  1.
         11    1    4    4    0    0 -0.18639394060E+02  0.37106736667E+02  0.36981936894E+02  0.55605760254E+02  0.00000000000E+00 0. -1.
</event>
<event>
 8    1  0.3710605E-009  0.7163181E+02  0.7561462E-02  0.1354630E+00
          2   -1    0    0  501    0  0.00000000000E+00  0.00000000000E+00  0.25384933069E+03  0.25384933069E+03  0.00000000000E+00 0. -1.
         -2   -1    0    0    0  501 -0.00000000000E+00 -0.00000000000E+00 -0.56564515225E+02  0.56564515225E+02  0.00000000000E+00 0.  1.
         25    2    1    2    0    0  0.27170568812E+02  0.40880421632E+02  0.11245658622E+03  0.17522342172E+03  0.12508922836E+03 0.  0.
         23    2    1    2    0    0 -0.27170568812E+02 -0.40880421632E+02  0.84828229242E+02  0.13519042419E+03  0.93119136781E+02 0.  0.
          5    1    3    3  502    0  0.99376177805E+01 -0.21215570072E+02 -0.17879618992E+02  0.29765917354E+02  0.41800000000E+01 0.  1.
         -5    1    3    3    0  502  0.17232951031E+02  0.62095991704E+02  0.13033620522E+03  0.14545750437E+03  0.41800000000E+01 0.  1.
        -11    1    4    4    0    0 -0.29211223967E+02 -0.23782378064E+02 -0.98696047987E+01  0.38939776719E+02  0.00000000000E+00 0.  1.
         11    1    4    4    0    0  0.20406551548E+01 -0.17098043568E+02  0.94697834040E+02  0.96250647474E+02  0.00000000000E+00 0. -1.
</event>
<event>
 8    1  0.3710605E-009  0.1073345E+03  0.7561462E-02  0.1265587E+00
         -2   -1    0    0    0  501 -0.00000000000E+00  0.00000000000E+00  0.17568303727E+02  0.17568303727E+02  0.00000000000E+00 0.  1.
          2   -1    0    0  501    0  0.00000000000E+00 -0.00000000000E+00 -0.92103634729E+03  0.92103634729E+03  0.00000000000E+00 0. -1.
         25    2    1    2    0    0  0.36791244857E+02  0.49638710338E+02 -0.61099391856E+03  0.62671990457E+03  0.12508666198E+03 0.  0.
         23    2    1    2    0    0 -0.36791244857E+02 -0.49638710338E+02 -0.29247412500E+03  0.31188474645E+03  0.88957203231E+02 0.  0.
          5    1    3    3  502    0  0.41346241026E+01  0.73349883511E+02 -0.53966909921E+03  0.54466274847E+03  0.41800000000E+01 0. -1.
         -5    1    3    3    0  502  0.32656620754E+02 -0.23711173173E+02 -0.71324819350E+02  0.82057156102E+02  0.41800000000E+01 0. -1.
        -11    1    4    4    0    0 -0.34133193732E+02 -0.71109059264E+02 -0.16863591016E+03  0.18617100585E+03  0.00000000000E+00 0.  1.
         11    1    4    4    0    0 -0.26580511245E+01  0.21470348926E+02 -0.12383821484E+03  0.12571374060E+03  0.00000000000E+00 0. -1.
</event>
<event>
 8    1  0.3710605E-009  0.1177365E+03  0.7561462E-02  0.1246878E+00
          2   -1    0    0  501    0  0.00000000000E+00  0.00000000000E+00  0.15507180139E+03  0.15507180139E+03  0.00000000000E+00 0. -1.
         -2   -1    0    0    0  501 -0.00000000000E+00 -0.00000000000E+00 -0.14458305598E+03  0.14458305598E+03  0.00000000000E+00 0.  1.
         25    2    1    2    0    0  0.21314123395E+02  0.96963535300E+02 -0.21067772063E+02  0.16107953378E+03  0.12508615490E+03 0.  0.
         23    2    1    2    0    0 -0.21314123395E+02 -0.96963535300E+02  0.31556517470E+02  0.13857532360E+03  0.91384284651E+02 0.  0.
          5    1    3    3  502    0 -0.53727518008E+01  0.80019735333E+02  0.41838249963E+02  0.90553498357E+02  0.41800000000E+01 0.  1.
         -5    1    3    3    0  502  0.26686875196E+02  0.16943799966E+02 -0.62906022027E+02  0.70526035421E+02  0.41800000000E+01 0.  1.
        -11    1    4    4    0    0 -0.42588816203E+02 -0.27661139624E+02  0.41263298251E+02  0.65433979655E+02  0.00000000000E+00 0. -1.
         11    1    4    4    0    0  0.21274692808E+02 -0.69302395676E+02 -0.97067807806E+01  0.73141343942E+02  0.00000000000E+00 0.  1.
</event>
<event>
 8    1  0.3710605E-009  0.8433926E+02  0.7561462E-02  0.1317170E+00
          1   -1    0    0  501    0  0.00000000000E+00  0.00000000000E+00  0.14361304316E+03  0.14361304316E+03  0.00000000000E+00 0. -1.
         -1   -1    0    0    0  501 -0.00000000000E+00 -0.00000000000E+00 -0.12647098960E+03  0.12647098960E+03  0.00000000000E+00 0.  1.
         25    2    1    2    0    0  0.60027219835E+02 -0.11706241760E+02  0.63963346847E+02  0.15323465748E+03  0.12509695158E+03 0.  0.
         23    2    1    2    0    0 -0.60027219835E+02  0.11706241760E+02 -0.46821293291E+02  0.11684937528E+03  0.87870585407E+02 0.  0.
          5    1    3    3  502    0  0.23846572403E+02 -0.13937348524E+02  0.98868039454E+02  0.10273884526E+03  0.41800000000E+01 0.  1.
         -5    1    3    3    0  502  0.36180647431E+02  0.22311067637E+01 -0.34904692606E+02  0.50495812221E+02  0.41800000000E+01 0.  1.
        -11    1    4    4    0    0  0.14916018326E+02 -0.18228173438E+02 -0.66022379093E-02  0.23553215347E+02  0.00000000000E+00 0. -1.
         11    1    4    4    0    0 -0.74943238160E+02  0.29934415198E+02 -0.46814691053E+02  0.93296159930E+02  0.00000000000E+00 0.  1.
</event>
<event>
 8    1  0.3710605E-009  0.2406350E+03  0.7561462E-02  0.1119371E+00
         -2   -1    0    0    0  501 -0.00000000000E+00  0.00000000000E+00  0.31559404360E+02  0.31559404360E+02  0.00000000000E+00 0.  1.
          2   -1    0    0  501    0  0.00000000000E+00 -0.00000000000E+00 -0.20727537707E+04  0.20727537707E+04  0.00000000000E+00 0. -1.
         25    2    1    2    0    0 -0.19550602707E+03 -0.12001210106E+03 -0.93986676272E+03  0.97551080842E+03  0.12508514958E+03 0.  0.
         23    2    1    2    0    0  0.19550602707E+03  0.12001210106E+03 -0.11013276036E+04  0.11288023666E+04  0.92988071381E+02 0.  0.
          5    1    3    3  502    0 -0.12924518402E+03 -0.10569536320E+03 -0.43264159805E+03  0.46375861411E+03  0.41800000000E+01 0.  1.
         -5    1    3    3    0  502 -0.66260843050E+02 -0.14316737866E+02 -0.50722516467E+03  0.51175219431E+03  0.41800000000E+01 0.  1.
        -11    1    4    4    0    0  0.20711610463E+02  0.56811433199E+02 -0.32077988001E+03  0.32642953477E+03  0.00000000000E+00 0. -1.
         11    1    4    4    0    0  0.17479441661E+03  0.63200667866E+02 -0.78054772357E+03  0.80237283184E+03  0.00000000000E+00 0.  1.
</event>
<event>
 8    1  0.3710605E-009  0.1130554E+03  0.7561462E-02  0.1255014E+00
         -2   -1    0    0    0  501 -0.00000000000E+00  0.00000000000E+00  0.11027378914E+02  0.11027378914E+02  0.00000000000E+00 0.  1.
          2   -1    0    0  501    0  0.00000000000E+00 -0.00000000000E+00 -0.11625147989E+04  0.11625147989E+04  0.00000000000E+00 0. -1.
         25    2    1    2    0    0  0.98089259610E+00  0.33472995164E+02 -0.64707311580E+03  0.65990480526E+03  0.12509728717E+03 0.  0.
         23    2    1    2    0    0 -0.98089259610E+00 -0.33472995164E+02 -0.50441430419E+03  0.51363737256E+03  0.90929404822E+02 0.  0.
          5    1    3    3  502    0 -0.59337682551E+02  0.34961732820E+02 -0.35088985797E+03  0.35760935133E+03  0.41800000000E+01 0.  1.
         -5    1    3    3    0  502  0.60318575147E+02 -0.14887376563E+01 -0.29618325783E+03  0.30229545393E+03  0.41800000000E+01 0.  1.
        -11    1    4    4    0    0  0.13672421993E+02  0.29213528468E+02 -0.18686390309E+03  0.18962722286E+03  0.00000000000E+00 0.  1.
         11    1    4    4    0    0 -0.14653314589E+02 -0.62686523631E+02 -0.31755040109E+03  0.32401014970E+03  0.00000000000E+00 0. -1.
</event>
<event>
 8    1  0.3710605E-009  0.9716536E+02  0.7561462E-02  0.1286372E+00
         -2   -1    0    0    0  501 -0.00000000000E+00  0.00000000000E+00  0.10701110098E+03  0.10701110098E+03  0.00000000000E+00 0.  1.
          2   -1    0    0  501    0  0.00000000000E+00 -0.00000000000E+00 -0.11765301647E+03  0.11765301647E+03  0.00000000000E+00 0. -1.
         25    2    1    2    0    0  0.15170620072E+02  0.29807916318E+02 -0.14073539428E+02  0.13024479853E+03  0.12508790287E+03 0.  0.
         23    2    1    2    0    0 -0.15170620072E+02 -0.29807916318E+02  0.34316239398E+01  0.94419318917E+02  0.88230222448E+02 0.  0.
          5    1    3    3  502    0  0.31493929190E+02 -0.35710855472E+02  0.23063531254E+02  0.53071005721E+02  0.41800000000E+01 0.  1.
         -5    1    3    3    0  502 -0.16323309117E+02  0.65518771791E+02 -0.37137070682E+02  0.77173792808E+02  0.41800000000E+01 0.  1.
        -11    1    4    4    0    0  0.18531402049E+02 -0.39654902833E+02  0.27643474591E+02  0.51769545758E+02  0.00000000000E+00 0.  1.
         11    1    4    4    0    0 -0.33702022122E+02  0.98469865144E+01 -0.24211850651E+02  0.42649773158E+02  0.00000000000E+00 0. -1.
</event>
<event>
 8    1  0.3710605E-009  0.1188259E+03  0.7561462E-02  0.1245047E+00
         -3   -1    0    0    0  501 -0.00000000000E+00  0.00000000000E+00  0.29539595483E+03  0.29539595483E+03  0.00000000000E+00 0.  1.
          3   -1    0    0  501    0  0.00000000000E+00 -0.00000000000E+00 -0.80495623344E+02  0.80495623344E+02  0.00000000000E+00 0. -1.
         25    2    1    2    0    0  0.54612754669E+02  0.90733830011E+02  0.14832536423E+03  0.22104838194E+03  0.12508714003E+03 0.  0.
         23    2    1    2    0    0 -0.54612754669E+02 -0.90733830011E+02  0.66574967251E+02  0.15484319624E+03  0.91263400523E+02 0.  0.
          5    1    3    3  502    0 -0.12628418703E+01  0.14185047491E+02 -0.21734562055E+02  0.26318699239E+02  0.41800000000E+01 0. -1.
         -5    1    3    3    0  502  0.55875596540E+02  0.76548782520E+02  0.17005992629E+03  0.19472968270E+03  0.41800000000E+01 0. -1.
        -11    1    4    4    0    0 -0.46023159131E+01 -0.75536732055E+02  0.69149100262E+02  0.10251135190E+03  0.00000000000E+00 0.  1.
         11    1    4    4    0    0 -0.50010438756E+02 -0.15197097957E+02 -0.25741330114E+01  0.52331844336E+02  0.00000000000E+00 0. -1.
</event>
<event>
 8    1  0.3710605E-009  0.1077765E+03  0.7561462E-02  0.1264744E+00
         -2   -1    0    0    0  501 -0.00000000000E+00  0.00000000000E+00  0.49954969441E+02  0.49954969441E+02  0.00000000000E+00 0.  1.
          2   -1    0    0  501    0  0.00000000000E+00 -0.00000000000E+00 -0.26724662591E+03  0.26724662591E+03  0.00000000000E+00 0. -1.
         25    2    1    2    0    0 -0.63371401550E+01  0.67991938536E+01 -0.17812325953E+03  0.21786085073E+03  0.12509622822E+03 0.  0.
         23    2    1    2    0    0  0.63371401550E+01 -0.67991938536E+01 -0.39168396939E+02  0.99340744615E+02  0.90818675610E+02 0.  0.
          5    1    3    3  502    0 -0.61643774179E+02 -0.17664968856E+02 -0.81358360072E+02  0.10367575017E+03  0.41800000000E+01 0.  1.
         -5    1    3    3    0  502  0.55306634024E+02  0.24464162710E+02 -0.96764899456E+02  0.11418510056E+03  0.41800000000E+01 0.  1.
        -11    1    4    4    0    0  0.46941797277E+02  0.76741737176E+01 -0.26310963403E+02  0.54357079291E+02  0.00000000000E+00 0. -1.
         11    1    4    4    0    0 -0.40604657122E+02 -0.14473367571E+02 -0.12857433536E+02  0.44983665324E+02  0.00000000000E+00 0.  1.
</event>
<event>
 8    1  0.3710605E-009  0.1250790E+03  0.7561462E-02  0.1234946E+00
          1   -1    0    0  501    0  0.00000000000E+00  0.00000000000E+00  0.20782743940E+03  0.20782743940E+03  0.00000000000E+00 0. -1.
         -1   -1    0    0    0  501 -0.00000000000E+00 -0.00000000000E+00 -0.97901846253E+02  0.97901846253E+02  0.00000000000E+00 0.  1.
         25    2    1    2    0    0 -0.17062575037E+02 -0.65283955367E+02 -0.74195713058E+01  0.14232190170E+03  0.12508935754E+03 0.  0.
         23    2    1    2    0    0  0.17062575037E+02  0.65283955367E+02  0.11734516446E+03  0.16340738396E+03  0.91536655031E+02 0.  0.
          5    1    3    3  502    0 -0.31813733045E+02  0.27584994078E+02  0.16146729479E+02  0.45290559517E+02  0.41800000000E+01 0.  1.
         -5    1    3    3    0  502  0.14751158008E+02 -0.92868949445E+02 -0.23566300785E+02  0.97031342185E+02  0.41800000000E+01 0.  1.
        -11    1    4    4    0    0  0.54149624877E+02  0.49662472296E+02  0.76256060610E+02  0.10589395549E+03  0.00000000000E+00 0. -1.
         11    1    4    4    0    0 -0.37087049840E+02  0.15621483071E+02  0.41089103848E+02  0.57513428468E+02  0.00000000000E+00 0.  1.
</event>
<event>
 8    1  0.3710605E-009  0.8478850E+02  0.7561462E-02  0.1315987E+00
          2   -1    0    0  501    0  0.00000000000E+00  0.00000000000E+00  0.55769405163E+03  0.55769405163E+03  0.00000000000E+00 0. -1.
         -2   -1    0    0    0  501 -0.00000000000E+00 -0.00000000000E+00 -0.21333227422E+02  0.21333227422E+02  0.00000000000E+00 0.  1.
         25    2    1    2    0    0 -0.21499984739E+02 -0.59058010500E+01  0.32066357077E+03  0.34492037789E+03  0.12509122125E+03 0.  0.
         23    2    1    2    0    0  0.21499984739E+02  0.59058010500E+01  0.21569725344E+03  0.23410690116E+03  0.88224759576E+02 0.  0.
          5    1    3    3  502    0 -0.56149869822E+02 -0.26771842060E+01  0.61608095031E+02  0.83504520654E+02  0.41800000000E+01 0.  1.
         -5    1    3    3    0  502  0.34649885083E+02 -0.32286168440E+01  0.25905547574E+03  0.26141585724E+03  0.41800000000E+01 0.  1.
        -11    1    4    4    0    0 -0.20607823019E+02 -0.20001726184E+02  0.28381370954E+02  0.40376399507E+02  0.00000000000E+00 0. -1.
         11    1    4    4    0    0  0.42107807758E+02  0.25907527234E+02  0.18731588248E+03  0.19373050166E+03  0.00000000000E+00 0.  1.
</event>
<event>
 8    1  0.3710605E-009  0.1397376E+03  0.7561462E-02  0.1213682E+00
         -1   -1    0    0    0  501 -0.00000000000E+00  0.00000000000E+00  0.10181135177E+03  0.10181135177E+03  0.00000000000E+00 0.  1.
          1   -1    0    0  501    0  0.00000000000E+00 -0.00000000000E+00 -0.25873273555E+03  0.25873273555E+03  0.00000000000E+00 0. -1.
         25    2    1    2    0    0  0.55327383399E+02  0.71584686422E+02  0.44577948206E+01  0.15444358893E+03  0.12508982190E+03 0.  0.
         23    2    1    2    0    0 -0.55327383399E+02 -0.71584686422E+02 -0.16137917859E+03  0.20610049839E+03  0.90822296112E+02 0.  0.
          5    1    3    3  502    0 -0.93426833065E+01  0.86218224211E+02  0.11720502038E+02  0.87611132201E+02  0.41800000000E+01 0. -1.
         -5    1    3    3    0  502  0.64670066705E+02 -0.14633537789E+02 -0.72627072171E+01  0.66832456726E+02  0.41800000000E+01 0. -1.
        -11    1    4    4    0    0  0.22874524265E+02 -0.29746352380E+02 -0.65528467547E+02  0.75512048041E+02  0.00000000000E+00 0. -1.
         11    1    4    4    0    0 -0.78201907664E+02 -0.41838334042E+02 -0.95850711046E+02  0.13058845035E+03  0.00000000000E+00 0.  1.
</event>
<event>
 8    1  0.3710605E-009  0.1009214E+03  0.7561462E-02  0.1278370E+00
         -1   -1    0    0    0  501 -0.00000000000E+00  0.00000000000E+00  0.78513442205E+03  0.78513442205E+03  0.00000000000E+00 0.  1.
          1   -1    0    0  501    0  0.00000000000E+00 -0.00000000000E+00 -0.16657620845E+02  0.16657620845E+02  0.00000000000E+00 0. -1.
         25    2    1    2    0    0  0.23456327632E+01 -0.31869508842E+02  0.50183919381E+03  0.51817903704E+03  0.12508305400E+03 0.  0.
         23    2    1    2    0    0 -0.23456327632E+01  0.31869508842E+02  0.26663760739E+03  0.28361300585E+03  0.91211599184E+02 0.  0.
          5    1    3    3  502    0  0.14930694408E+02  0.37619210938E+02  0.73265162276E+02  0.83805650587E+02  0.41800000000E+01 0. -1.
         -5    1    3    3    0  502 -0.12585061645E+02 -0.69488719780E+02  0.42857403154E+03  0.43437338646E+03  0.41800000000E+01 0. -1.
        -11    1    4    4    0    0  0.32495519756E+02  0.42943227518E+02  0.10632959062E+03  0.11918918338E+03  0.00000000000E+00 0. -1.
         11    1    4    4    0    0 -0.34841152519E+02 -0.11073718676E+02  0.16030801677E+03  0.16442382247E+03  0.00000000000E+00 0.  1.
</event>
<event>
 8    1  0.3710605E-009  0.1018794E+03  0.7561462E-02  0.1276393E+00
          1   -1    0    0  501    0  0.00000000000E+00  0.00000000000E+00  0.38768610566E+03  0.38768610566E+03  0.00000000000E+00 0. -1.
         -1   -1    0    0    0  501 -0.00000000000E+00 -0.00000000000E+00 -0.34403642790E+02  0.34403642790E+02  0.00000000000E+00 0.  1.
         25    2    1    2    0    0 -0.28048291598E+02  0.30342224674E+02  0.17125686310E+03  0.21606637667E+03  0.12509359979E+03 0.  0.
         23    2    1    2    0    0  0.28048291598E+02 -0.30342224674E+02  0.18202559977E+03  0.20602337178E+03  0.87206384453E+02 0.  0.
          5    1    3    3  502    0 -0.20335493816E+02 -0.38449197885E+02  0.12573613155E+03  0.13311243482E+03  0.41800000000E+01 0. -1.
         -5    1    3    3    0  502 -0.77127977821E+01  0.68791422559E+02  0.45520731556E+02  0.82953941852E+02  0.41800000000E+01 0. -1.
        -11    1    4    4    0    0  0.17899202383E+02  0.27047637645E+02  0.10194742443E+03  0.10698239807E+03  0.00000000000E+00 0. -1.
         11    1    4    4    0    0  0.10149089216E+02 -0.57389862319E+02  0.80078175338E+02  0.99040973715E+02  0.00000000000E+00 0.  1.
</event>
<event>
 8    1  0.3710605E-009  0.1652330E+03  0.7561462E-02  0.1182912E+00
          1   -1    0    0  501    0  0.00000000000E+00  0.00000000000E+00  0.12302232052E+03  0.12302232052E+03  0.00000000000E+00 0. -1.
         -1   -1    0    0    0  501 -0.00000000000E+00 -0.00000000000E+00 -0.27355686062E+03  0.27355686062E+03  0.00000000000E+00 0.  1.
         25    2    1    2    0    0 -0.13521365833E+03 -0.47156119190E+02 -0.44688300136E+02  0.19532262840E+03  0.12508977584E+03 0.  0.
         23    2    1    2    0    0  0.13521365833E+03  0.47156119190E+02 -0.10584623996E+03  0.20125655275E+03  0.93778145289E+02 0.  0.
          5    1    3    3  502    0 -0.14514405626E+03 -0.37750243339E+02 -0.17247917223E+01  0.15004107853E+03  0.41800000000E+01 0.  1.
         -5    1    3    3    0  502  0.99303979305E+01 -0.94058758510E+01 -0.42963508414E+02  0.45281549872E+02  0.41800000000E+01 0.  1.
        -11    1    4    4    0    0  0.31341688368E+02  0.53567795406E+02 -0.63820493189E+02  0.89021713561E+02  0.00000000000E+00 0.  1.
         11    1    4    4    0    0  0.10387196996E+03 -0.64116762158E+01 -0.42025746772E+02  0.11223483919E+03  0.00000000000E+00 0. -1.
</event>
<event>
 8    1  0.3710605E-009  0.1189428E+03  0.7561462E-02  0.1244851E+00
         -1   -1    0    0    0  501 -0.00000000000E+00  0.00000000000E+00  0.98202306593E+02  0.98202306593E+02  0.00000000000E+00 0.  1.
          1   -1    0    0  501    0  0.00000000000E+00 -0.00000000000E+00 -0.22233844114E+03  0.22233844114E+03  0.00000000000E+00 0. -1.
         25    2    1    2    0    0  0.53153668165E+02  0.68849583020E+02 -0.18736006460E+02  0.15350707306E+03  0.12509119082E+03 0.  0.
         23    2    1    2    0    0 -0.53153668165E+02 -0.68849583020E+02 -0.10540012809E+03  0.16703367467E+03  0.96049382884E+02 0.  0.
          5    1    3    3  502    0 -0.12841577868E+02  0.33703843997E+02  0.43124519908E+02  0.56374212541E+02  0.41800000000E+01 0.  1.
         -5    1    3    3    0  502  0.65995246033E+02  0.35145739022E+02 -0.61860526368E+02  0.97132860520E+02  0.41800000000E+01 0.  1.
        -11    1    4    4    0    0  0.22895061701E+02 -0.38531801468E+02 -0.54777890260E+02  0.70777827291E+02  0.00000000000E+00 0. -1.
         11    1    4    4    0    0 -0.76048729866E+02 -0.30317781552E+02 -0.50622237829E+02  0.96255847382E+02  0.00000000000E+00 0.  1.
</event>
<event>
 8    1  0.3710605E-009  0.9172452E+02  0.7561462E-02  0.1298728E+00
          1   -1    0    0  501    0  0.00000000000E+00  0.00000000000E+00  0.19217347114E+03  0.19217347114E+03  0.00000000000E+00 0. -1.
         -1   -1    0    0    0  501 -0.00000000000E+00 -0.00000000000E+00 -0.77371632198E+02  0.77371632198E+02  0.00000000000E+00 0.  1.
         25    2    1    2    0    0  0.51373558245E+02 -0.23308712455E+02  0.57067022933E+02  0.14861595585E+03  0.12509004223E+03 0.  0.
         23    2    1    2    0    0 -0.51373558245E+02  0.23308712455E+02  0.57734816012E+02  0.12092914749E+03  0.90044495498E+02 0.  0.
          5    1    3    3  502    0  0.51246517320E+02 -0.62800611182E+02  0.25962098509E+01  0.81205510945E+02  0.41800000000E+01 0. -1.
         -5    1    3    3    0  502  0.12704092494E+00  0.39491898728E+02  0.54470813082E+02  0.67410444905E+02  0.41800000000E+01 0. -1.
        -11    1    4    4    0    0 -0.30869149744E+02  0.27844925138E+02 -0.15785610474E+02  0.44468300619E+02  0.00000000000E+00 0.  1.
         11    1    4    4    0    0 -0.20504408501E+02 -0.45362126837E+01  0.73520426486E+02  0.76460846870E+02  0.00000000000E+00 0. -1.
</event>
<event>
 8    1  0.3710605E-009  0.1285147E+03  0.7561462E-02  0.1229676E+00
          1   -1    0    0  501    0  0.00000000000E+00  0.00000000000E+00  0.60773227247E+03  0.60773227247E+03  0.00000000000E+00 0. -1.
         -1   -1    0    0    0  501 -0.00000000000E+00 -0.00000000000E+00 -0.39890311376E+02  0.39890311376E+02  0.00000000000E+00 0.  1.
         25    2    1    2    0    0 -0.38724011355E+02  0.81302929328E+02  0.44813868099E+03  0.47390477877E+03  0.12509095321E+03 0.  0.
         23    2    1    2    0    0  0.38724011355E+02 -0.81302929328E+02  0.11970328010E+03  0.17371780507E+03  0.87973207043E+02 0.  0.
          5    1    3    3  502    0  0.21371688094E+02  0.89010358105E+02  0.23342865311E+03  0.25077081448E+03  0.41800000000E+01 0.  1.
         -5    1    3    3    0  502 -0.60095699448E+02 -0.77074287768E+01  0.21471002788E+03  0.22313396429E+03  0.41800000000E+01 0.  1.
        -11    1    4    4    0    0  0.37750460937E+02 -0.18838341052E+02  0.41950343294E+01  0.42397862064E+02  0.00000000000E+00 0.  1.
         11    1    4    4    0    0  0.97355041751E+00 -0.62464588276E+02  0.11550824577E+03  0.13131994300E+03  0.00000000000E+00 0. -1.
</event>
<event>
 8    1  0.3710605E-009  0.1556113E+03  0.7561462E-02  0.1193743E+00
          1   -1    0    0  501    0  0.00000000000E+00  0.00000000000E+00  0.17941748727E+04  0.17941748727E+04  0.00000000000E+00 0. -1.
         -1   -1    0    0    0  501 -0.00000000000E+00 -0.00000000000E+00 -0.18016529625E+02  0.18016529625E+02  0.00000000000E+00 0.  1.
         25    2    1    2    0    0 -0.11200926029E+03 -0.61404136289E+02  0.12634026142E+04  0.12759898137E+04  0.12508915541E+03 0.  0.
         23    2    1    2    0    0  0.11200926029E+03  0.61404136289E+02  0.51275572893E+03  0.53620158866E+03  0.90978919474E+02 0.  0.
          5    1    3    3  502    0 -0.12631587531E+03 -0.83971691874E+02  0.10738696462E+04  0.10845369679E+04  0.41800000000E+01 0. -1.
         -5    1    3    3    0  502  0.14306615026E+02  0.22567555585E+02  0.18953296799E+03  0.19145284577E+03  0.41800000000E+01 0. -1.
        -11    1    4    4    0    0  0.23653078997E+02 -0.19254194164E+01  0.18384406723E+02  0.30019357030E+02  0.00000000000E+00 0.  1.
         11    1    4    4    0    0  0.88356181290E+02  0.63329555706E+02  0.49437132220E+03  0.50618223163E+03  0.00000000000E+00 0. -1.
</event>
<event>
 8    1  0.3710605E-009  0.1520359E+03  0.7561462E-02  0.1197993E+00
          4   -1    0    0  501    0  0.00000000000E+00  0.00000000000E+00  0.14348121344E+03  0.14348121344E+03  0.00000000000E+00 0.  1.
         -4   -1    0    0    0  501 -0.00000000000E+00 -0.00000000000E+00 -0.27978077780E+03  0.27978077780E+03  0.00000000000E+00 0. -1.
         25    2    1    2    0    0 -0.14453443582E+03 -0.37519946419E+02 -0.15388704222E+03  0.24824716859E+03  0.12508990940E+03 0.  0.
         23    2    1    2    0    0  0.14453443582E+03  0.37519946419E+02  0.17587477866E+02  0.17501482265E+03  0.89570749985E+02 0.  0.
          5    1    3    3  502    0 -0.11447411091E+03 -0.33941506240E+02 -0.33555746804E+02  0.12409596471E+03  0.41800000000E+01 0.  1.
         -5    1    3    3    0  502 -0.30060324914E+02 -0.35784401794E+01 -0.12033129542E+03  0.12415120388E+03  0.41800000000E+01 0.  1.
        -11    1    4    4    0    0  0.89508944986E+02  0.41917731547E+02  0.50245956173E+02  0.11087652395E+03  0.00000000000E+00 0.  1.
         11    1    4    4    0    0  0.55025490834E+02 -0.43977851274E+01 -0.32658478306E+02  0.64138298706E+02  0.00000000000E+00 0. -1.
</event>
<event>
 8    1  0.3710605E-009  0.9385603E+02  0.7561462E-02  0.1293774E+00
         -3   -1    0    0    0  501 -0.00000000000E+00  0.00000000000E+00  0.20035558249E+03  0.20035558249E+03  0.00000000000E+00 0.  1.
          3   -1    0    0  501    0  0.00000000000E+00 -0.00000000000E+00 -0.89411796514E+02  0.89411796514E+02  0.00000000000E+00 0. -1.
         25    2    1    2    0    0 -0.30839531140E+01  0.70860655919E+02  0.26043562224E+02  0.14613445604E+03  0.12508504621E+03 0.  0.
         23    2    1    2    0    0  0.30839531140E+01 -0.70860655919E+02  0.84900223755E+02  0.14363292297E+03  0.91605814457E+02 0.  0.
          5    1    3    3  502    0 -0.10018595437E+01  0.57699039115E+01  0.68112605871E+02  0.68491568768E+02  0.41800000000E+01 0. -1.
         -5    1    3    3    0  502 -0.20820935703E+01  0.65090752007E+02 -0.42069043647E+02  0.77642887272E+02  0.41800000000E+01 0. -1.
        -11    1    4    4    0    0 -0.24334297474E+02 -0.82097105839E+02  0.56493387235E+02  0.10258457790E+03  0.00000000000E+00 0. -1.
         11    1    4    4    0    0  0.27418250588E+02  0.11236449920E+02  0.28406836520E+02  0.41048345072E+02  0.00000000000E+00 0.  1.
</event>
<event>
 8    1  0.3710605E-009  0.1223305E+03  0.7561462E-02  0.1239301E+00
         -1   -1    0    0    0  501 -0.00000000000E+00  0.00000000000E+00  0.21921550879E+03  0.21921550879E+03  0.00000000000E+00 0.  1.
          1   -1    0    0  501    0  0.00000000000E+00 -0.00000000000E+00 -0.68942181630E+02  0.68942181630E+02  0.00000000000E+00 0. -1.
         25    2    1    2    0    0  0.20966915564E+02 -0.56118161985E+02  0.88179331061E+02  0.16435407159E+03  0.12509119381E+03 0.  0.
         23    2    1    2    0    0 -0.20966915564E+02  0.56118161985E+02  0.62093996103E+02  0.12380361883E+03  0.88785201647E+02 0.  0.
          5    1    3    3  502    0 -0.20866698530E+02  0.33506452648E+02  0.26005754982E+02  0.47453905727E+02  0.41800000000E+01 0. -1.
         -5    1    3    3    0  502  0.41833614094E+02 -0.89624614633E+02  0.62173576079E+02  0.11690016586E+03  0.41800000000E+01 0. -1.
        -11    1    4    4    0    0  0.33978371979E+02  0.14037305763E+02  0.13180567388E+02  0.39055128628E+02  0.00000000000E+00 0. -1.
         11    1    4    4    0    0 -0.54945287544E+02  0.42080856222E+02  0.48913428714E+02  0.84748490206E+02  0.00000000000E+00 0.  1.
</event>
<event>
 8    1  0.3710605E-009  0.9636774E+02  0.7561462E-02  0.1288125E+00
          1   -1    0    0  501    0  0.00000000000E+00  0.00000000000E+00  0.43469920083E+02  0.43469920083E+02  0.00000000000E+00 0. -1.
         -1   -1    0    0    0  501 -0.00000000000E+00 -0.00000000000E+00 -0.36761359096E+03  0.36761359096E+03  0.00000000000E+00 0.  1.
         25    2    1    2    0    0  0.22337275334E+02  0.50226395956E+02 -0.12167897843E+03  0.18296107656E+03  0.12508931619E+03 0.  0.
         23    2    1    2    0    0 -0.22337275334E+02 -0.50226395956E+02 -0.20246469245E+03  0.22812243449E+03  0.89589333660E+02 0.  0.
          5    1    3    3  502    0  0.18566943203E+01  0.89294834283E+02 -0.62756052214E+02  0.10923739851E+03  0.41800000000E+01 0.  1.
         -5    1    3    3    0  502  0.20480581014E+02 -0.39068438327E+02 -0.58922926213E+02  0.73723678052E+02  0.41800000000E+01 0.  1.
        -11    1    4    4    0    0 -0.49477382925E+01 -0.36571805129E+02 -0.20267904404E+03  0.20601158204E+03  0.00000000000E+00 0.  1.
         11    1    4    4    0    0 -0.17389537042E+02 -0.13654590828E+02  0.21435158188E+00  0.22110852444E+02  0.00000000000E+00 0. -1.
</event>
<event>
 8    1  0.3710605E-009  0.1286442E+03  0.7561462E-02  0.1229481E+00
         -2   -1    0    0    0  501 -0.00000000000E+00  0.00000000000E+00  0.17400102368E+03  0.17400102368E+03  0.00000000000E+00 0.  1.
          2   -1    0    0  501    0  0.00000000000E+00 -0.00000000000E+00 -0.10438647658E+03  0.10438647658E+03  0.00000000000E+00 0. -1.
         25    2    1    2    0    0 -0.63274833936E+02  0.41717199986E+02  0.62785882038E+02  0.15916554894E+03  0.12509026981E+03 0.  0.
         23    2    1    2    0    0  0.63274833936E+02 -0.41717199986E+02  0.68286650668E+01  0.11922195132E+03  0.91778067240E+02 0.  0.
          5    1    3    3  502    0 -0.20120073200E+02  0.82150855949E+02  0.22938781513E+02  0.87733919188E+02  0.41800000000E+01 0.  1.
         -5    1    3    3    0  502 -0.43154760736E+02 -0.40433655963E+02  0.39847100524E+02  0.71431629751E+02  0.41800000000E+01 0.  1.
        -11    1    4    4    0    0  0.16559060754E+02 -0.60683656001E+02  0.21888186532E+02  0.66601811600E+02  0.00000000000E+00 0.  1.
         11    1    4    4    0    0  0.46715773182E+02  0.18966456014E+02 -0.15059521465E+02  0.52620139723E+02  0.00000000000E+00 0. -1.
</event>
<event>
 8    1  0.3710605E-009  0.1134447E+03  0.7561462E-02  0.1254321E+00
          3   -1    0    0  501    0  0.00000000000E+00  0.00000000000E+00  0.31617667653E+03  0.31617667653E+03  0.00000000000E+00 0. -1.
         -3   -1    0    0    0  501 -0.00000000000E+00 -0.00000000000E+00 -0.12425393930E+03  0.12425393930E+03  0.00000000000E+00 0.  1.
         25    2    1    2    0    0  0.10873159806E+02 -0.87863244247E+02  0.25520166255E+03  0.29767670215E+03  0.12508139405E+03 0.  0.
         23    2    1    2    0    0 -0.10873159806E+02  0.87863244247E+02 -0.63278925325E+02  0.14275391369E+03  0.92392002845E+02 0.  0.
          5    1    3    3  502    0  0.42946027032E+02 -0.28889499683E+02  0.21075279802E+03  0.21705570415E+03  0.41800000000E+01 0.  1.
         -5    1    3    3    0  502 -0.32072867227E+02 -0.58973744564E+02  0.44448864530E+02  0.80620997997E+02  0.41800000000E+01 0.  1.
        -11    1    4    4    0    0  0.18006979659E+02  0.73063615921E+02 -0.76870284791E+02  0.10757129716E+03  0.00000000000E+00 0.  1.
         11    1    4    4    0    0 -0.28880139464E+02  0.14799628326E+02  0.13591359466E+02  0.35182616534E+02  0.00000000000E+00 0. -1.
</event>
<event>
 8    1  0.3710605E-009  0.2379037E+03  0.7561462E-02  0.1121197E+00
         -2   -1    0    0    0  501 -0.00000000000E+00  0.00000000000E+00  0.82921918765E+02  0.82921918765E+02  0.00000000000E+00 0.  1.
          2   -1    0    0  501    0  0.00000000000E+00 -0.00000000000E+00 -0.88585495768E+03  0.88585495768E+03  0.00000000000E+00 0. -1.
         25    2    1    2    0    0  0.15759370896E+03 -0.17196754993E+03 -0.26101867620E+03  0.37173508963E+03  0.12509041614E+03 0.  0.
         23    2    1    2    0    0 -0.15759370896E+03  0.17196754993E+03 -0.54191436272E+03  0.59704178681E+03  0.91537442325E+02 0.  0.
          5    1    3    3  502    0  0.36135089001E+02 -0.24420031527E+02  0.50671804429E+01  0.44104776550E+02  0.41800000000E+01 0. -1.
         -5    1    3    3    0  502  0.12145861996E+03 -0.14754751840E+03 -0.26608585664E+03  0.32763031308E+03  0.41800000000E+01 0. -1.
        -11    1    4    4    0    0 -0.13968445621E+03  0.17364256895E+03 -0.43643579584E+03  0.49004050134E+03  0.00000000000E+00 0.  1.
         11    1    4    4    0    0 -0.17909252752E+02 -0.16750190269E+01 -0.10547856688E+03  0.10700128547E+03  0.00000000000E+00 0. -1.
</event>
<event>
 8    1  0.3710605E-009  0.8615606E+02  0.7561462E-02  0.1312437E+00
         -1   -1    0    0    0  501 -0.00000000000E+00  0.00000000000E+00  0.11339124237E+03  0.11339124237E+03  0.00000000000E+00 0.  1.
          1   -1    0    0  501    0  0.00000000000E+00 -0.00000000000E+00 -0.11149967855E+03  0.11149967855E+03  0.00000000000E+00 0. -1.
         25    2    1    2    0    0  0.41478977021E+01  0.14412866227E+02 -0.25210876798E+02  0.12848038257E+03  0.12508670844E+03 0.  0.
         23    2    1    2    0    0 -0.41478977021E+01 -0.14412866227E+02  0.27102440619E+02  0.96410538337E+02  0.91299035300E+02 0.  0.
          5    1    3    3  502    0 -0.49663935982E+02  0.16459660563E+02  0.21838650797E+02  0.56849151548E+02  0.41800000000E+01 0. -1.
         -5    1    3    3    0  502  0.53811833684E+02 -0.20467943358E+01 -0.47049527595E+02  0.71631231027E+02  0.41800000000E+01 0. -1.
        -11    1    4    4    0    0  0.25126395924E+02  0.10635183242E+02 -0.21251496838E+02  0.34584230692E+02  0.00000000000E+00 0. -1.
         11    1    4    4    0    0 -0.29274293626E+02 -0.25048049469E+02  0.48353937457E+02  0.61826307645E+02  0.00000000000E+00 0.  1.
</event>
<event>
 8    1  0.3710605E-009  0.1042240E+03  0.7561462E-02  0.1271656E+00
         -1   -1    0    0    0  501 -0.00000000000E+00  0.00000000000E+00  0.13369568688E+03  0.13369568688E+03  0.00000000000E+00 0.  1.
          1   -1    0    0  501    0  0.00000000000E+00 -0.00000000000E+00 -0.16414784172E+03  0.16414784172E+03  0.00000000000E+00 0. -1.
         25    2    1    2    0    0 -0.45903669310E+02  0.59617399625E+02 -0.83349221651E+02  0.16809864035E+03  0.12509467991E+03 0.  0.
         23    2    1    2    0    0  0.45903669310E+02 -0.59617399625E+02  0.52897066810E+02  0.12974488826E+03  0.91510956496E+02 0.  0.
          5    1    3    3  502    0  0.10413458898E+02  0.15432332856E+02 -0.93725607750E+02  0.95648099677E+02  0.41800000000E+01 0.  1.
         -5    1    3    3    0  502 -0.56317128208E+02  0.44185066769E+02  0.10376386100E+02  0.72450540671E+02  0.41800000000E+01 0.  1.
        -11    1    4    4    0    0  0.58973044956E+02 -0.24525719070E+01  0.18968861549E+02  0.61997200331E+02  0.00000000000E+00 0.  1.
         11    1    4    4    0    0 -0.13069375646E+02 -0.57164827718E+02  0.33928205261E+02  0.67747687931E+02  0.00000000000E+00 0. -1.
</event>
<event>
 8    1  0.3710605E-009  0.1306979E+03  0.7561462E-02  0.1226424E+00
         -1   -1    0    0    0  501 -0.00000000000E+00  0.00000000000E+00  0.41113286888E+03  0.41113286888E+03  0.00000000000E+00 0.  1.
          1   -1    0    0  501    0  0.00000000000E+00 -0.00000000000E+00 -0.68949046955E+02  0.68949046955E+02  0.00000000000E+00 0. -1.
         25    2    1    2    0    0  0.89443774406E+02  0.67829764111E+02  0.90697264204E+02  0.19098299760E+03  0.12508975162E+03 0.  0.
         23    2    1    2    0    0 -0.89443774406E+02 -0.67829764111E+02  0.25148655772E+03  0.28909891823E+03  0.87929688556E+02 0.  0.
          5    1    3    3  502    0  0.24266236977E+02  0.52562517606E+02  0.10720434183E+03  0.12190944106E+03  0.41800000000E+01 0.  1.
         -5    1    3    3    0  502  0.65177537429E+02  0.15267246505E+02 -0.16507077622E+02  0.69073556538E+02  0.41800000000E+01 0.  1.
        -11    1    4    4    0    0 -0.82747035957E+02 -0.16326146966E+02  0.19447656144E+03  0.21197817809E+03  0.00000000000E+00 0.  1.
         11    1    4    4    0    0 -0.66967384488E+01 -0.51503617145E+02  0.57009996274E+02  0.77120740142E+02  0.00000000000E+00 0. -1.
</event>
<event>
 8    1  0.3710605E-009  0.1097839E+03  0.7561462E-02  0.1260971E+00
         -2   -1    0    0    0  501 -0.00000000000E+00  0.00000000000E+00  0.17030617272E+03  0.17030617272E+03  0.00000000000E+00 0.  1.
          2   -1    0    0  501    0  0.00000000000E+00 -0.00000000000E+00 -0.10294806992E+03  0.10294806992E+03  0.00000000000E+00 0. -1.
         25    2    1    2    0    0 -0.11252418298E+02 -0.71043464268E+02  0.13948508361E+02  0.14496926090E+03  0.12509090689E+03 0.  0.
         23    2    1    2    0    0  0.11252418298E+02  0.71043464268E+02  0.53409594440E+02  0.12828498174E+03  0.91818631167E+02 0.  0.
          5    1    3    3  502    0 -0.57969046035E+02 -0.41342579526E+02  0.41996974367E+02  0.82769785767E+02  0.41800000000E+01 0.  1.
         -5    1    3    3    0  502  0.46716627736E+02 -0.29700884742E+02 -0.28048466006E+02  0.62199475132E+02  0.41800000000E+01 0.  1.
        -11    1    4    4    0    0 -0.22867470134E+02  0.42422251040E+02  0.66260663313E+02  0.81933168353E+02  0.00000000000E+00 0.  1.
         11    1    4    4    0    0  0.34119888432E+02  0.28621213227E+02 -0.12851068873E+02  0.46351813389E+02  0.00000000000E+00 0. -1.
</event>
<event>
 8    1  0.3710605E-009  0.8950065E+02  0.7561462E-02  0.1304065E+00
          2   -1    0    0  501    0  0.00000000000E+00  0.00000000000E+00  0.37309879548E+03  0.37309879548E+03  0.00000000000E+00 0. -1.
         -2   -1    0    0    0  501 -0.00000000000E+00 -0.00000000000E+00 -0.36127693580E+02  0.36127693580E+02  0.00000000000E+00 0.  1.
         25    2    1    2    0    0 -0.10426943920E+02  0.27195718424E+02  0.14520691175E+03  0.19385959828E+03  0.12509263914E+03 0.  0.
         23    2    1    2    0    0  0.10426943920E+02 -0.27195718424E+02  0.19176419015E+03  0.21536689077E+03  0.93600559600E+02 0.  0.
          5    1    3    3  502    0 -0.22795182017E+02  0.67297484994E+02  0.13147846334E+03  0.14950796143E+03  0.41800000000E+01 0.  1.
         -5    1    3    3    0  502  0.12368238098E+02 -0.40101766570E+02  0.13728448410E+02  0.44351636852E+02  0.41800000000E+01 0.  1.
        -11    1    4    4    0    0  0.17859124342E+01 -0.45434480441E+02  0.18970710930E+03  0.19508015997E+03  0.00000000000E+00 0. -1.
         11    1    4    4    0    0  0.86410314854E+01  0.18238762017E+02  0.20570808524E+01  0.20286730803E+02  0.00000000000E+00 0.  1.
</event>
<event>
 8    1  0.3710605E-009  0.1031574E+03  0.7561462E-02  0.1273793E+00
          2   -1    0    0  501    0  0.00000000000E+00  0.00000000000E+00  0.19934279709E+03  0.19934279709E+03  0.00000000000E+00 0. -1.
         -2   -1    0    0    0  501 -0.00000000000E+00 -0.00000000000E+00 -0.67007083702E+02  0.67007083702E+02  0.00000000000E+00 0.  1.
         25    2    1    2    0    0  0.31359787732E+02  0.23294121211E+02  0.69226010433E+02  0.14820914550E+03  0.12509059885E+03 0.  0.
         23    2    1    2    0    0 -0.31359787732E+02 -0.23294121211E+02  0.63109702956E+02  0.11814073529E+03  0.91914886490E+02 0.  0.
          5    1    3    3  502    0  0.78172864759E+02  0.14588677842E+02  0.26015465141E+02  0.83774119705E+02  0.41800000000E+01 0.  1.
         -5    1    3    3    0  502 -0.46813077027E+02  0.87054433698E+01  0.43210545292E+02  0.64435025797E+02  0.41800000000E+01 0.  1.
        -11    1    4    4    0    0 -0.25813385586E+02  0.21593830961E+02  0.64650042318E+02  0.72885200025E+02  0.00000000000E+00 0. -1.
         11    1    4    4    0    0 -0.55464021460E+01 -0.44887952172E+02 -0.15403393615E+01  0.45255535267E+02  0.00000000000E+00 0.  1.
</event>
<event>
 8    1  0.3710605E-009  0.6843355E+02  0.7561462E-02  0.1365502E+00
         -2   -1    0    0    0  501 -0.00000000000E+00  0.00000000000E+00  0.41598791074E+03  0.41598791074E+03  0.00000000000E+00 0.  1.
          2   -1    0    0  501    0  0.00000000000E+00 -0.00000000000E+00 -0.37172773679E+02  0.37172773679E+02  0.00000000000E+00 0. -1.
         25    2    1    2    0    0 -0.14179480444E+02 -0.18287732994E+02  0.31623452917E+03  0.34086235167E+03  0.12508943401E+03 0.  0.
         23    2    1    2    0    0  0.14179480444E+02  0.18287732994E+02  0.62580607882E+02  0.11229833275E+03  0.90327649204E+02 0.  0.
          5    1    3    3  502    0  0.37626236039E+01 -0.46361989964E+02  0.29991183972E+03  0.30352623520E+03  0.41800000000E+01 0.  1.
         -5    1    3    3    0  502 -0.17942104048E+02  0.28074256969E+02  0.16322689453E+02  0.37336116470E+02  0.41800000000E+01 0.  1.
        -11    1    4    4    0    0  0.28060771418E+02  0.28002776536E+02  0.79198359277E+02  0.88566034678E+02  0.00000000000E+00 0.  1.
         11    1    4    4    0    0 -0.13881290974E+02 -0.97150435421E+01 -0.16617751395E+02  0.23732298067E+02  0.00000000000E+00 0. -1.
</event>
<event>
 8    1  0.3710605E-009  0.7380727E+02  0.7561462E-02  0.1347605E+00
         -2   -1    0    0    0  501 -0.00000000000E+00  0.00000000000E+00  0.64726171371E+02  0.64726171371E+02  0.00000000000E+00 0.  1.
          2   -1    0    0  501    0  0.00000000000E+00 -0.00000000000E+00 -0.24748616861E+03  0.24748616861E+03  0.00000000000E+00 0. -1.
         25    2    1    2    0    0 -0.43659355973E+02  0.47335800012E+02 -0.11704010468E+03  0.18300995065E+03  0.12508972222E+03 0.  0.
         23    2    1    2    0    0  0.43659355973E+02 -0.47335800012E+02 -0.65719892559E+02  0.12920238933E+03  0.90704662528E+02 0.  0.
          5    1    3    3  502    0 -0.73613905655E+01  0.30885701292E+02 -0.13525456254E+03  0.13899419306E+03  0.41800000000E+01 0. -1.
         -5    1    3    3    0  502 -0.36297965407E+02  0.16450098721E+02  0.18214457866E+02  0.44015757588E+02  0.41800000000E+01 0. -1.
        -11    1    4    4    0    0  0.17880523859E+02  0.37758824970E+01  0.19381936591E+02  0.26638879258E+02  0.00000000000E+00 0.  1.
         11    1    4    4    0    0  0.25778832114E+02 -0.51111682509E+02 -0.85101829150E+02  0.10256351007E+03  0.00000000000E+00 0. -1.
</event>
<event>
 8    1  0.3710605E-009  0.9818827E+02  0.7561462E-02  0.1284153E+00
         -1   -1    0    0    0  501 -0.00000000000E+00  0.00000000000E+00  0.30213814074E+02  0.30213814074E+02  0.00000000000E+00 0.  1.
          1   -1    0    0  501    0  0.00000000000E+00 -0.00000000000E+00 -0.38173018582E+03  0.38173018582E+03  0.00000000000E+00 0. -1.
         25    2    1    2    0    0  0.10313792271E+01  0.11856040196E+02 -0.17811662958E+03  0.21797813569E+03  0.12508918607E+03 0.  0.
         23    2    1    2    0    0 -0.10313792271E+01 -0.11856040196E+02 -0.17339974217E+03  0.19396586421E+03  0.86102592658E+02 0.  0.
          5    1    3    3  502    0 -0.53937768218E+02 -0.18570714742E+02 -0.53321395101E+02  0.78197172979E+02  0.41800000000E+01 0.  1.
         -5    1    3    3    0  502  0.54969147445E+02  0.30426754938E+02 -0.12479523448E+03  0.13978096271E+03  0.41800000000E+01 0.  1.
        -11    1    4    4    0    0 -0.27443958747E+02 -0.32609189055E+02 -0.48212448695E+02  0.64350371341E+02  0.00000000000E+00 0.  1.
         11    1    4    4    0    0  0.26412579520E+02  0.20753148859E+02 -0.12518729347E+03  0.12961549287E+03  0.00000000000E+00 0. -1.
</event>
<event>
 8    1  0.3710605E-009  0.7362645E+02  0.7561462E-02  0.1348178E+00
         -1   -1    0    0    0  501 -0.00000000000E+00  0.00000000000E+00  0.25281013114E+02  0.25281013114E+02  0.00000000000E+00 0.  1.
          1   -1    0    0  501    0  0.00000000000E+00 -0.00000000000E+00 -0.79265352188E+03  0.79265352188E+03  0.00000000000E+00 0. -1.
         25    2    1    2    0    0  0.13657182459E+02 -0.31727485931E+02 -0.66735237497E+03  0.67985280288E+03  0.12508992449E+03 0.  0.
         23    2    1    2    0    0 -0.13657182459E+02  0.31727485931E+02 -0.10002013380E+03  0.13808173212E+03  0.88709557451E+02 0.  0.
          5    1    3    3  502    0 -0.23719112212E+02 -0.33012839648E+02 -0.68099368812E+02  0.79419394976E+02  0.41800000000E+01 0. -1.
         -5    1    3    3    0  502  0.37376294671E+02  0.12853537173E+01 -0.59925300616E+03  0.60043340790E+03  0.41800000000E+01 0. -1.
        -11    1    4    4    0    0 -0.22853763342E+02 -0.10778184930E+02  0.37710130551E+01  0.25547686955E+02  0.00000000000E+00 0.  1.
         11    1    4    4    0    0  0.91965808829E+01  0.42505670861E+02 -0.10379114686E+03  0.11253404516E+03  0.00000000000E+00 0. -1.
</event>
<event>
 8    1  0.3710605E-009  0.2059374E+03  0.7561462E-02  0.1144824E+00
         -2   -1    0    0    0  501 -0.00000000000E+00  0.00000000000E+00  0.42126030057E+02  0.42126030057E+02  0.00000000000E+00 0.  1.
          2   -1    0    0  501    0  0.00000000000E+00 -0.00000000000E+00 -0.11298070545E+04  0.11298070545E+04  0.00000000000E+00 0. -1.
         25    2    1    2    0    0  0.14570181873E+03  0.12002145872E+03 -0.51251020611E+03  0.56031223535E+03  0.12509564011E+03 0.  0.
         23    2    1    2    0    0 -0.14570181873E+03 -0.12002145872E+03 -0.57517081832E+03  0.61162084920E+03  0.87317938555E+02 0.  0.
          5    1    3    3  502    0  0.12359683301E+03  0.45203428187E+02 -0.20990635877E+03  0.24778555023E+03  0.41800000000E+01 0.  1.
         -5    1    3    3    0  502  0.22104985729E+02  0.74818030530E+02 -0.30260384734E+03  0.31252668512E+03  0.41800000000E+01 0.  1.
        -11    1    4    4    0    0 -0.25783643445E+02  0.76746991723E+01 -0.13914615064E+03  0.14172278756E+03  0.00000000000E+00 0. -1.
         11    1    4    4    0    0 -0.11991817529E+03 -0.12769615789E+03 -0.43602466768E+03  0.46989806164E+03  0.00000000000E+00 0.  1.
</event>
<event>
 8    1  0.3710605E-009  0.1202253E+03  0.7561462E-02  0.1242726E+00
          1   -1    0    0  501    0  0.00000000000E+00  0.00000000000E+00  0.45620010735E+03  0.45620010735E+03  0.00000000000E+00 0. -1.
         -1   -1    0    0    0  501 -0.00000000000E+00 -0.00000000000E+00 -0.32805401405E+02  0.32805401405E+02  0.00000000000E+00 0.  1.
         25    2    1    2    0    0  0.43202689522E+02 -0.37178575406E+02  0.22810093018E+03  0.26632100889E+03  0.12509247210E+03 0.  0.
         23    2    1    2    0    0 -0.43202689522E+02  0.37178575406E+02  0.19529377576E+03  0.22268449986E+03  0.90553899837E+02 0.  0.
          5    1    3    3  502    0  0.77774988943E+02 -0.57756183482E+02  0.15760067016E+03  0.18504099349E+03  0.41800000000E+01 0.  1.
         -5    1    3    3    0  502 -0.34572299421E+02  0.20577608076E+02  0.70500260022E+02  0.81280015407E+02  0.41800000000E+01 0.  1.
        -11    1    4    4    0    0 -0.69507459257E+02  0.30448839302E+02  0.16719865740E+03  0.18361320689E+03  0.00000000000E+00 0. -1.
         11    1    4    4    0    0  0.26304769735E+02  0.67297361044E+01  0.28095118365E+02  0.39071292976E+02  0.00000000000E+00 0.  1.
</event>
<event>
 8    1  0.3710605E-009  0.9078501E+02  0.7561462E-02  0.1300962E+00
          2   -1    0    0  501    0  0.00000000000E+00  0.00000000000E+00  0.10721725662E+04  0.10721725662E+04  0.00000000000E+00 0. -1.
         -2   -1    0    0    0  501 -0.00000000000E+00 -0.00000000000E+00 -0.11328748451E+02  0.11328748451E+02  0.00000000000E+00 0.  1.
         25    2    1    2    0    0  0.18837833686E+02  0.10776207319E+02  0.62145194485E+03  0.63429107478E+03  0.12510658323E+03 0.  0.
         23    2    1    2    0    0 -0.18837833686E+02 -0.10776207319E+02  0.43939187293E+03  0.44921023990E+03  0.90849496493E+02 0.  0.
          5    1    3    3  502    0  0.40141429183E+02 -0.24264439811E+02  0.54834862994E+03  0.55036695916E+03  0.41800000000E+01 0.  1.
         -5    1    3    3    0  502 -0.21303595497E+02  0.35040647130E+02  0.73103314913E+02  0.83924115626E+02  0.41800000000E+01 0.  1.
        -11    1    4    4    0    0  0.83121795538E+01  0.37208132895E+02  0.16734385761E+03  0.17163188562E+03  0.00000000000E+00 0. -1.
         11    1    4    4    0    0 -0.27150013240E+02 -0.47984340214E+02  0.27204801532E+03  0.27757835428E+03  0.00000000000E+00 0.  1.
</event>
<event>
 8    1  0.3710605E-009  0.2607434E+03  0.7561462E-02  0.1106697E+00
          3   -1    0    0  501    0  0.00000000000E+00  0.00000000000E+00  0.27000873184E+03  0.27000873184E+03  0.00000000000E+00 0. -1.
         -3   -1    0    0    0  501 -0.00000000000E+00 -0.00000000000E+00 -0.28749682693E+03  0.28749682693E+03  0.00000000000E+00 0.  1.
         25    2    1    2    0    0  0.33257859288E+02 -0.24384191777E+03 -0.80635994092E+02  0.28760073784E+03  0.12508818808E+03 0.  0.
         23    2    1    2    0    0 -0.33257859288E+02  0.24384191777E+03  0.63147899002E+02  0.26990482092E+03  0.91082320699E+02 0.  0.
          5    1    3    3  502    0  0.73708054320E+02 -0.19109701147E+03 -0.37541747462E+02  0.20827337868E+03  0.41800000000E+01 0.  1.
         -5    1    3    3    0  502 -0.40450195032E+02 -0.52744906295E+02 -0.43094246630E+02  0.79327359157E+02  0.41800000000E+01 0.  1.
        -11    1    4    4    0    0 -0.43255301270E+02  0.16602714087E+03  0.39372581398E+01  0.17161449413E+03  0.00000000000E+00 0. -1.
         11    1    4    4    0    0  0.99974419817E+01  0.77814776894E+02  0.59210640862E+02  0.98290326790E+02  0.00000000000E+00 0.  1.
</event>
<event>
 8    1  0.3710605E-009  0.8942690E+02  0.7561462E-02  0.1304246E+00
          3   -1    0    0  501    0  0.00000000000E+00  0.00000000000E+00  0.12484980025E+03  0.12484980025E+03  0.00000000000E+00 0. -1.
         -3   -1    0    0    0  501 -0.00000000000E+00 -0.00000000000E+00 -0.10886761351E+03  0.10886761351E+03  0.00000000000E+00 0.  1.
         25    2    1    2    0    0 -0.20500804648E+02 -0.17826496755E+02  0.41998834200E+02  0.13471998868E+03  0.12508999280E+03 0.  0.
         23    2    1    2    0    0  0.20500804648E+02  0.17826496755E+02 -0.26016647462E+02  0.98997425076E+02  0.91572688334E+02 0.  0.
          5    1    3    3  502    0 -0.55418640604E+02 -0.11244189970E+02  0.69426138669E+02  0.89638823425E+02  0.41800000000E+01 0.  1.
         -5    1    3    3    0  502  0.34917835957E+02 -0.65823067849E+01 -0.27427304470E+02  0.45081165257E+02  0.41800000000E+01 0.  1.
        -11    1    4    4    0    0 -0.12331131985E+01  0.48646040513E+02 -0.35351384911E+02  0.60147138260E+02  0.00000000000E+00 0.  1.
         11    1    4    4    0    0  0.21733917846E+02 -0.30819543758E+02  0.93347374500E+01  0.38850286816E+02  0.00000000000E+00 0. -1.
</event>
<event>
 8    1  0.3710605E-009  0.1017688E+03  0.7561462E-02  0.1276620E+00
          1   -1    0    0  501    0  0.00000000000E+00  0.00000000000E+00  0.19828272141E+03  0.19828272141E+03  0.00000000000E+00 0. -1.
         -1   -1    0    0    0  501 -0.00000000000E+00 -0.00000000000E+00 -0.90535355039E+02  0.90535355039E+02  0.00000000000E+00 0.  1.
         25    2    1    2    0    0  0.47617359143E+02 -0.44019020758E+02  0.10516697591E+03  0.17582160866E+03  0.12509219868E+03 0.  0.
         23    2    1    2    0    0 -0.47617359143E+02  0.44019020758E+02  0.25803904690E+01  0.11299646779E+03  0.92501114797E+02 0.  0.
          5    1    3    3  502    0  0.64028346262E+02 -0.34005204031E+02  0.12708450568E+03  0.14636914637E+03  0.41800000000E+01 0.  1.
         -5    1    3    3    0  502 -0.16410987119E+02 -0.10013816727E+02 -0.21917529770E+02  0.29452462289E+02  0.41800000000E+01 0.  1.
        -11    1    4    4    0    0  0.27229202053E+02  0.97005740266E+01 -0.79694555317E+01  0.29984042462E+02  0.00000000000E+00 0.  1.
         11    1    4    4    0    0 -0.74846561196E+02  0.34318446731E+02  0.10549846001E+02  0.83012425332E+02  0.00000000000E+00 0. -1.
</event>
<event>
 8    1  0.3710605E-009  0.9934311E+02  0.7561462E-02  0.1281683E+00
         -2   -1    0    0    0  501 -0.00000000000E+00  0.00000000000E+00  0.45176461237E+02  0.45176461237E+02  0.00000000000E+00 0.  1.
          2   -1    0    0  501    0  0.00000000000E+00 -0.00000000000E+00 -0.57944666784E+03  0.57944666784E+03  0.00000000000E+00 0. -1.
         25    2    1    2    0    0  0.38814439006E+02 -0.25635476803E+02 -0.49492941026E+03  0.51260829822E+03  0.12509359665E+03 0.  0.
         23    2    1    2    0    0 -0.38814439006E+02  0.25635476803E+02 -0.39340796346E+02  0.11201483085E+03  0.93999392168E+02 0.  0.
          5    1    3    3  502    0  0.61904537489E+02 -0.62351874062E+02 -0.28767248946E+03  0.30082031439E+03  0.41800000000E+01 0.  1.
         -5    1    3    3    0  502 -0.23090098483E+02  0.36716397258E+02 -0.20725692080E+03  0.21178798383E+03  0.41800000000E+01 0.  1.
        -11    1    4    4    0    0 -0.68550860667E+01 -0.14384366680E+02 -0.55949251442E+02  0.58174057333E+02  0.00000000000E+00 0. -1.
         11    1    4    4    0    0 -0.31959352939E+02  0.40019843483E+02  0.16608455096E+02  0.53840773521E+02  0.00000000000E+00 0.  1.
</event>
<event>
 8    1  0.3710605E-009  0.1173052E+03  0.7561462E-02  0.1247610E+00
          2   -1    0    0  501    0  0.00000000000E+00  0.00000000000E+00  0.13254643209E+03  0.13254643209E+03  0.00000000000E+00 0. -1.
         -2   -1    0    0    0  501 -0.00000000000E+00 -0.00000000000E+00 -0.14656737302E+03  0.14656737302E+03  0.00000000000E+00 0.  1.
         25    2    1    2    0    0  0.81837377182E+02  0.29500337310E+01  0.19003129193E+02  0.15071351532E+03  0.12508951107E+03 0.  0.
         23    2    1    2    0    0 -0.81837377182E+02 -0.29500337310E+01 -0.33024070122E+02  0.12840028978E+03  0.93220095502E+02 0.  0.
          5    1    3    3  502    0  0.97416976877E+02  0.37540759195E+01  0.54462852517E+02  0.11174898288E+03  0.41800000000E+01 0.  1.
         -5    1    3    3    0  502 -0.15579599695E+02 -0.80404218858E+00 -0.35459723324E+02  0.38964532446E+02  0.41800000000E+01 0.  1.
        -11    1    4    4    0    0 -0.96155382437E+02 -0.20413362680E+02 -0.14851736092E+02  0.99413967894E+02  0.00000000000E+00 0. -1.
         11    1    4    4    0    0  0.14318005255E+02  0.17463328949E+02 -0.18172334030E+02  0.28986321887E+02  0.00000000000E+00 0.  1.
</event>
<event>
 8    1  0.3710605E-009  0.1126251E+03  0.7561462E-02  0.1255784E+00
          1   -1    0    0  501    0  0.00000000000E+00  0.00000000000E+00  0.21064762796E+03  0.21064762796E+03  0.00000000000E+00 0. -1.
         -1   -1    0    0    0  501 -0.00000000000E+00 -0.00000000000E+00 -0.87367469267E+02  0.87367469267E+02  0.00000000000E+00 0.  1.
         25    2    1    2    0    0 -0.71934970901E+02 -0.31762293009E+02  0.96900810068E+02  0.17669334424E+03  0.12508911868E+03 0.  0.
         23    2    1    2    0    0  0.71934970901E+02  0.31762293009E+02  0.26379348626E+02  0.12132175299E+03  0.88541597108E+02 0.  0.
          5    1    3    3  502    0  0.44748708350E+01 -0.52617106672E+02  0.79435795355E+02  0.95478282176E+02  0.41800000000E+01 0. -1.
         -5    1    3    3    0  502 -0.76409841736E+02  0.20854813663E+02  0.17465014712E+02  0.81215062063E+02  0.41800000000E+01 0. -1.
        -11    1    4    4    0    0  0.14842303892E+02  0.32648002440E+02  0.48300281651E+02  0.60158983168E+02  0.00000000000E+00 0.  1.
         11    1    4    4    0    0  0.57092667009E+02 -0.88570943102E+00 -0.21920933026E+02  0.61162769821E+02  0.00000000000E+00 0. -1.
</event>
<event>
 8    1  0.3710605E-009  0.1131683E+03  0.7561462E-02  0.1254813E+00
          2   -1    0    0  501    0  0.00000000000E+00  0.00000000000E+00  0.64230446395E+02  0.64230446395E+02  0.00000000000E+00 0. -1.
         -2   -1    0    0    0  501 -0.00000000000E+00 -0.00000000000E+00 -0.21673109491E+03  0.21673109491E+03  0.00000000000E+00 0.  1.
         25    2    1    2    0    0 -0.12767294854E+02  0.39619559856E+02 -0.11190099666E+03  0.17292394201E+03  0.12509253905E+03 0.  0.
         23    2    1    2    0    0  0.12767294854E+02 -0.39619559856E+02 -0.40599651856E+02  0.10803759930E+03  0.91055355638E+02 0.  0.
          5    1    3    3  502    0  0.69660316472E+01  0.83278516249E+02 -0.68345759408E+02  0.10803912298E+03  0.41800000000E+01 0. -1.
         -5    1    3    3    0  502 -0.19733326501E+02 -0.43658956392E+02 -0.43555237254E+02  0.64884819028E+02  0.41800000000E+01 0. -1.
        -11    1    4    4    0    0  0.27871831307E+02  0.19197712494E+02 -0.32234925589E+02  0.46738437855E+02  0.00000000000E+00 0.  1.
         11    1    4    4    0    0 -0.15104536453E+02 -0.58817272351E+02 -0.83647262676E+01  0.61299161444E+02  0.00000000000E+00 0. -1.
</event>
<event>
 8    1  0.3710605E-009  0.1872653E+03  0.7561462E-02  0.1160951E+00
          1   -1    0    0  501    0  0.00000000000E+00  0.00000000000E+00  0.69077097079E+03  0.69077097079E+03  0.00000000000E+00 0. -1.
         -1   -1    0    0    0  501 -0.00000000000E+00 -0.00000000000E+00 -0.63637247409E+02  0.63637247409E+02  0.00000000000E+00 0.  1.
         25    2    1    2    0    0  0.11854370220E+03 -0.13319810722E+03  0.30285892329E+03  0.37304846336E+03  0.12508910226E+03 0.  0.
         23    2    1    2    0    0 -0.11854370220E+03  0.13319810722E+03  0.32427480010E+03  0.38135975484E+03  0.92123675216E+02 0.  0.
          5    1    3    3  502    0  0.38097475628E+02 -0.36481812860E+02  0.21018346210E+03  0.21674155222E+03  0.41800000000E+01 0. -1.
         -5    1    3    3    0  502  0.80446226570E+02 -0.96716294360E+02  0.92675461184E+02  0.15630691114E+03  0.41800000000E+01 0. -1.
        -11    1    4    4    0    0 -0.26772180998E+02  0.90783662385E+02  0.11497425723E+03  0.14892112965E+03  0.00000000000E+00 0. -1.
         11    1    4    4    0    0 -0.91771521201E+02  0.42414444835E+02  0.20930054287E+03  0.23243862519E+03  0.00000000000E+00 0.  1.
</event>
<event>
 8    1  0.3710605E-009  0.1177158E+03  0.7561462E-02  0.1246914E+00
         -2   -1    0    0    0  501 -0.00000000000E+00  0.00000000000E+00  0.39154504485E+02  0.39154504485E+02  0.00000000000E+00 0.  1.
          2   -1    0    0  501    0  0.00000000000E+00 -0.00000000000E+00 -0.43012583358E+03  0.43012583358E+03  0.00000000000E+00 0. -1.
         25    2    1    2    0    0  0.24401932849E+02 -0.61139462239E+02 -0.24095073818E+03  0.27935381901E+03  0.12509120590E+03 0.  0.
         23    2    1    2    0    0 -0.24401932849E+02  0.61139462239E+02 -0.15002059091E+03  0.18992651906E+03  0.96085465988E+02 0.  0.
          5    1    3    3  502    0 -0.25718131524E+02 -0.82529327483E+02 -0.15403495122E+03  0.17668262727E+03  0.41800000000E+01 0. -1.
         -5    1    3    3    0  502  0.50120064374E+02  0.21389865243E+02 -0.86915786966E+02  0.10267119173E+03  0.41800000000E+01 0. -1.
        -11    1    4    4    0    0 -0.46273825834E+02  0.26667726489E+02 -0.26080699760E+02  0.59435994931E+02  0.00000000000E+00 0.  1.
         11    1    4    4    0    0  0.21871892984E+02  0.34471735750E+02 -0.12393989115E+03  0.13049052413E+03  0.00000000000E+00 0. -1.
</event>
<event>
 8    1  0.3710605E-009  0.8300477E+02  0.7561462E-02  0.1320734E+00
         -2   -1    0    0    0  501 -0.00000000000E+00  0.00000000000E+00  0.43421015937E+03  0.43421015937E+03  0.00000000000E+00 0. -1.
          2   -1    0    0  501    0  0.00000000000E+00 -0.00000000000E+00 -0.31257994885E+02  0.31257994885E+02  0.00000000000E+00 0.  1.
         25    2    1    2    0    0 -0.80622334128E+01  0.38888891029E+02  0.25053866831E+03  0.28283326042E+03  0.12509070080E+03 0.  0.
         23    2    1    2    0    0  0.80622334128E+01 -0.38888891029E+02  0.15241349617E+03  0.18263489384E+03  0.92456936884E+02 0.  0.
          5    1    3    3  502    0  0.18468330724E+02 -0.26306996865E+01  0.22746290579E+03  0.22826485873E+03  0.41800000000E+01 0. -1.
         -5    1    3    3    0  502 -0.26530564137E+02  0.41519590716E+02  0.23075762519E+02  0.54568401685E+02  0.41800000000E+01 0. -1.
        -11    1    4    4    0    0 -0.40011571920E+02 -0.95906653751E+01  0.42567174180E+02  0.59201951552E+02  0.00000000000E+00 0.  1.
         11    1    4    4    0    0  0.48073805333E+02 -0.29298225654E+02  0.10984632199E+03  0.12343294229E+03  0.00000000000E+00 0. -1.
</event>
<event>
 8    1  0.3710605E-009  0.1112212E+03  0.7561462E-02  0.1258325E+00
         -2   -1    0    0    0  501 -0.00000000000E+00  0.00000000000E+00  0.16926204591E+03  0.16926204591E+03  0.00000000000E+00 0.  1.
          2   -1    0    0  501    0  0.00000000000E+00 -0.00000000000E+00 -0.13043921286E+03  0.13043921286E+03  0.00000000000E+00 0. -1.
         25    2    1    2    0    0  0.95939311195E+02 -0.26694184450E+02  0.15473978254E+02  0.16063471415E+03  0.12508851455E+03 0.  0.
         23    2    1    2    0    0 -0.95939311195E+02  0.26694184450E+02  0.23348854804E+02  0.13906654462E+03  0.94219976097E+02 0.  0.
          5    1    3    3  502    0  0.33035458395E+01 -0.28514478454E+02 -0.42354322829E+02  0.51335659720E+02  0.41800000000E+01 0. -1.
         -5    1    3    3    0  502  0.92635765355E+02  0.18202940038E+01  0.57828301083E+02  0.10929905443E+03  0.41800000000E+01 0. -1.
        -11    1    4    4    0    0 -0.39398794900E+02  0.34328318532E+01  0.56925355346E+02  0.69314828539E+02  0.00000000000E+00 0.  1.
         11    1    4    4    0    0 -0.56540516294E+02  0.23261352597E+02 -0.33576500542E+02  0.69751716080E+02  0.00000000000E+00 0. -1.
</event>
<event>
 8    1  0.3710605E-009  0.1041615E+03  0.7561462E-02  0.1271781E+00
          1   -1    0    0  501    0  0.00000000000E+00  0.00000000000E+00  0.13384168075E+03  0.13384168075E+03  0.00000000000E+00 0. -1.
         -1   -1    0    0    0  501 -0.00000000000E+00 -0.00000000000E+00 -0.14257146917E+03  0.14257146917E+03  0.00000000000E+00 0.  1.
         25    2    1    2    0    0  0.37145185470E+02 -0.15683285204E+02 -0.78252892723E+02  0.15296217921E+03  0.12509269687E+03 0.  0.
         23    2    1    2    0    0 -0.37145185470E+02  0.15683285204E+02  0.69523104299E+02  0.12345097071E+03  0.93706722807E+02 0.  0.
          5    1    3    3  502    0 -0.23241631543E+02 -0.40641949736E+02  0.47495781178E+01  0.47243755222E+02  0.41800000000E+01 0. -1.
         -5    1    3    3    0  502  0.60386817013E+02  0.24958664532E+02 -0.83002470840E+02  0.10571842398E+03  0.41800000000E+01 0. -1.
        -11    1    4    4    0    0  0.26965933033E+01  0.45812729321E+02  0.54585587119E+02  0.71313842306E+02  0.00000000000E+00 0. -1.
         11    1    4    4    0    0 -0.39841778773E+02 -0.30129444117E+02  0.14937517180E+02  0.52137128403E+02  0.00000000000E+00 0.  1.
</event>
<event>
 8    1  0.3710605E-009  0.8932696E+02  0.7561462E-02  0.1304490E+00
          2   -1    0    0  501    0  0.00000000000E+00  0.00000000000E+00  0.84843979044E+02  0.84843979044E+02  0.00000000000E+00 0. -1.
         -2   -1    0    0    0  501 -0.00000000000E+00 -0.00000000000E+00 -0.18418781882E+03  0.18418781882E+03  0.00000000000E+00 0.  1.
         25    2    1    2    0    0  0.33643089430E+02  0.38002774349E+02 -0.40403752007E+02  0.14090510499E+03  0.12508284099E+03 0.  0.
         23    2    1    2    0    0 -0.33643089430E+02 -0.38002774349E+02 -0.58940087767E+02  0.12812669288E+03  0.10181575103E+03 0.  0.
          5    1    3    3  502    0  0.18539676491E+02 -0.41694006900E+02 -0.38194179657E+02  0.59652138063E+02  0.41800000000E+01 0. -1.
         -5    1    3    3    0  502  0.15103412939E+02  0.79696781249E+02 -0.22095723500E+01  0.81252966923E+02  0.41800000000E+01 0. -1.
        -11    1    4    4    0    0 -0.13372146042E+02 -0.86081650164E+01 -0.83363155038E+02  0.84866544719E+02  0.00000000000E+00 0.  1.
         11    1    4    4    0    0 -0.20270943389E+02 -0.29394609333E+02  0.24423067271E+02  0.43260148157E+02  0.00000000000E+00 0. -1.
</event>
<event>
 8    1  0.3710605E-009  0.1652268E+03  0.7561462E-02  0.1182919E+00
         -2   -1    0    0    0  501 -0.00000000000E+00  0.00000000000E+00  0.27846166114E+03  0.27846166114E+03  0.00000000000E+00 0.  1.
          2   -1    0    0  501    0  0.00000000000E+00 -0.00000000000E+00 -0.13761099781E+03  0.13761099781E+03  0.00000000000E+00 0. -1.
         25    2    1    2    0    0 -0.12187862875E+03 -0.54546025563E+02  0.17277193742E+03  0.25164962314E+03  0.12509085264E+03 0.  0.
         23    2    1    2    0    0  0.12187862875E+03  0.54546025563E+02 -0.31921274098E+02  0.16442303581E+03  0.90478162648E+02 0.  0.
          5    1    3    3  502    0 -0.28823725602E+02 -0.73510862539E+02  0.40715666586E+02  0.88937573468E+02  0.41800000000E+01 0. -1.
         -5    1    3    3    0  502 -0.93054903145E+02  0.18964836975E+02  0.13205627083E+03  0.16271204967E+03  0.41800000000E+01 0. -1.
        -11    1    4    4    0    0  0.12087166516E+02  0.44455471456E+02  0.87753681866E+01  0.46897714481E+02  0.00000000000E+00 0. -1.
         11    1    4    4    0    0  0.10979146223E+03  0.10090554107E+02 -0.40696642285E+02  0.11752532133E+03  0.00000000000E+00 0.  1.
</event>
<event>
 8    1  0.3710605E-009  0.9543545E+02  0.7561462E-02  0.1290198E+00
         -1   -1    0    0    0  501 -0.00000000000E+00  0.00000000000E+00  0.21563791029E+02  0.21563791029E+02  0.00000000000E+00 0.  1.
          1   -1    0    0  501    0  0.00000000000E+00 -0.00000000000E+00 -0.85330082701E+03  0.85330082701E+03  0.00000000000E+00 0. -1.
         25    2    1    2    0    0 -0.45946719625E+02 -0.29404469703E+02 -0.26174572346E+03  0.29518414351E+03  0.12508849246E+03 0.  0.
         23    2    1    2    0    0  0.45946719625E+02  0.29404469703E+02 -0.56999131252E+03  0.57968047453E+03  0.90352821305E+02 0.  0.
          5    1    3    3  502    0  0.55922438674E+01 -0.33881764556E+02 -0.23358926994E+03  0.23613696574E+03  0.41800000000E+01 0. -1.
         -5    1    3    3    0  502 -0.51538963492E+02  0.44772948530E+01 -0.28156453521E+02  0.59047177764E+02  0.41800000000E+01 0. -1.
        -11    1    4    4    0    0 -0.23084734429E+02  0.26693537094E+02 -0.15402362670E+03  0.15801495963E+03  0.00000000000E+00 0.  1.
         11    1    4    4    0    0  0.69031454054E+02  0.27109326087E+01 -0.41596768582E+03  0.42166551490E+03  0.00000000000E+00 0. -1.
</event>
<event>
 8    1  0.3710605E-009  0.1976285E+03  0.7561462E-02  0.1151755E+00
         -1   -1    0    0    0  501 -0.00000000000E+00  0.00000000000E+00  0.53325717774E+02  0.53325717774E+02  0.00000000000E+00 0.  1.
          1   -1    0    0  501    0  0.00000000000E+00 -0.00000000000E+00 -0.94599883159E+03  0.94599883159E+03  0.00000000000E+00 0. -1.
         25    2    1    2    0    0  0.16858200326E+03  0.56361441787E+02 -0.64425226254E+03  0.67993017169E+03  0.12509019406E+03 0.  0.
         23    2    1    2    0    0 -0.16858200326E+03 -0.56361441787E+02 -0.24842085128E+03  0.31939437767E+03  0.93291720936E+02 0.  0.
          5    1    3    3  502    0  0.14316277394E+03 -0.12422244394E+02 -0.43805505494E+03  0.46104185879E+03  0.41800000000E+01 0. -1.
         -5    1    3    3    0  502  0.25419229316E+02  0.68783686181E+02 -0.20619720760E+03  0.21888831290E+03  0.41800000000E+01 0. -1.
        -11    1    4    4    0    0 -0.11615345402E+03 -0.43771007279E+02 -0.93626724895E+02  0.15547826077E+03  0.00000000000E+00 0.  1.
         11    1    4    4    0    0 -0.52428549245E+02 -0.12590434508E+02 -0.15479412638E+03  0.16391611690E+03  0.00000000000E+00 0. -1.
</event>
<event>
 8    1  0.3710605E-009  0.1190978E+03  0.7561462E-02  0.1244593E+00
         -1   -1    0    0    0  501 -0.00000000000E+00  0.00000000000E+00  0.17036038557E+03  0.17036038557E+03  0.00000000000E+00 0.  1.
          1   -1    0    0  501    0  0.00000000000E+00 -0.00000000000E+00 -0.11472455093E+03  0.11472455093E+03  0.00000000000E+00 0. -1.
         25    2    1    2    0    0  0.53335142444E+02 -0.71364501292E+02  0.30811554585E+02  0.15663287103E+03  0.12508786883E+03 0.  0.
         23    2    1    2    0    0 -0.53335142444E+02  0.71364501292E+02  0.24824280057E+02  0.12845206546E+03  0.89141229385E+02 0.  0.
          5    1    3    3  502    0  0.28861306915E+01 -0.81347269704E+02 -0.20311233571E+02  0.83998372888E+02  0.41800000000E+01 0.  1.
         -5    1    3    3    0  502  0.50449011752E+02  0.99827684123E+01  0.51122788157E+02  0.72634498146E+02  0.41800000000E+01 0.  1.
        -11    1    4    4    0    0 -0.30921275867E+02  0.66784935243E+00 -0.24437404044E+02  0.39417737637E+02  0.00000000000E+00 0. -1.
         11    1    4    4    0    0 -0.22413866577E+02  0.70696651939E+02  0.49261684101E+02  0.89034327823E+02  0.00000000000E+00 0.  1.
</event>
<event>
 8    1  0.3710605E-009  0.1079133E+03  0.7561462E-02  0.1264484E+00
         -2   -1    0    0    0  501 -0.00000000000E+00  0.00000000000E+00  0.81589124313E+02  0.81589124313E+02  0.00000000000E+00 0. -1.
          2   -1    0    0  501    0  0.00000000000E+00 -0.00000000000E+00 -0.17647120273E+03  0.17647120273E+03  0.00000000000E+00 0.  1.
         25    2    1    2    0    0  0.24742227336E+02 -0.35605227138E+02 -0.57873523904E+02  0.14448727221E+03  0.12508923635E+03 0.  0.
         23    2    1    2    0    0 -0.24742227336E+02  0.35605227138E+02 -0.37008554512E+02  0.11357305483E+03  0.98230828476E+02 0.  0.
          5    1    3    3  502    0 -0.46600035288E+02 -0.18712001098E+02 -0.49400102361E+02  0.70565889686E+02  0.41800000000E+01 0. -1.
         -5    1    3    3    0  502  0.71342262624E+02 -0.16893226040E+02 -0.84734215438E+01  0.73921382529E+02  0.41800000000E+01 0. -1.
        -11    1    4    4    0    0 -0.47229706828E+02  0.47139619492E+02 -0.51633866255E+02  0.84373248589E+02  0.00000000000E+00 0. -1.
         11    1    4    4    0    0  0.22487479492E+02 -0.11534392354E+02  0.14625311743E+02  0.29199806240E+02  0.00000000000E+00 0.  1.
</event>
<event>
 8    1  0.3710605E-009  0.8826240E+02  0.7561462E-02  0.1307115E+00
         -1   -1    0    0    0  501 -0.00000000000E+00  0.00000000000E+00  0.44791584027E+02  0.44791584027E+02  0.00000000000E+00 0.  1.
          1   -1    0    0  501    0  0.00000000000E+00 -0.00000000000E+00 -0.28102764505E+03  0.28102764505E+03  0.00000000000E+00 0. -1.
         25    2    1    2    0    0 -0.82473656446E+01  0.21587464290E+02 -0.10718062683E+03  0.16633792212E+03  0.12508628987E+03 0.  0.
         23    2    1    2    0    0  0.82473656446E+01 -0.21587464290E+02 -0.12905543420E+03  0.15948130696E+03  0.90801676848E+02 0.  0.
          5    1    3    3  502    0  0.35730576266E+01  0.66411051396E+02 -0.23641564851E+02  0.70707782294E+02  0.41800000000E+01 0. -1.
         -5    1    3    3    0  502 -0.11820423271E+02 -0.44823587106E+02 -0.83539061976E+02  0.95630139826E+02  0.41800000000E+01 0. -1.
        -11    1    4    4    0    0  0.20988560135E+02 -0.37489956773E+02 -0.18019342690E+02  0.46590913560E+02  0.00000000000E+00 0.  1.
         11    1    4    4    0    0 -0.12741194490E+02  0.15902492482E+02 -0.11103609151E+03  0.11289039340E+03  0.00000000000E+00 0. -1.
</event>
<event>
 8    1  0.3710605E-009  0.3386834E+03  0.7561462E-02  0.1067358E+00
          1   -1    0    0  501    0  0.00000000000E+00  0.00000000000E+00  0.11423677437E+04  0.11423677437E+04  0.00000000000E+00 0. -1.
         -1   -1    0    0    0  501 -0.00000000000E+00 -0.00000000000E+00 -0.10873074972E+03  0.10873074972E+03  0.00000000000E+00 0.  1.
         25    2    1    2    0    0 -0.30793529967E+03 -0.94830189514E+02  0.36173626875E+03  0.50031719108E+03  0.12508896808E+03 0.  0.
         23    2    1    2    0    0  0.30793529967E+03  0.94830189514E+02  0.67190072527E+03  0.75078130237E+03  0.91679145648E+02 0.  0.
          5    1    3    3  502    0 -0.31476027817E+03 -0.74785238941E+02  0.34521630982E+03  0.47313701783E+03  0.41800000000E+01 0.  1.
         -5    1    3    3    0  502  0.68249784969E+01 -0.20044950573E+02  0.16519958935E+02  0.27180173255E+02  0.41800000000E+01 0.  1.
        -11    1    4    4    0    0  0.11762968597E+03 -0.41972846216E+01  0.19359830897E+03  0.22657154600E+03  0.00000000000E+00 0.  1.
         11    1    4    4    0    0  0.19030561370E+03  0.99027474136E+02  0.47830241630E+03  0.52420975637E+03  0.00000000000E+00 0. -1.
</event>
<event>
 8    1  0.3710605E-009  0.9731199E+02  0.7561462E-02  0.1286052E+00
          2   -1    0    0  501    0  0.00000000000E+00  0.00000000000E+00  0.32971332360E+03  0.32971332360E+03  0.00000000000E+00 0.  1.
         -2   -1    0    0    0  501 -0.00000000000E+00 -0.00000000000E+00 -0.37745123677E+02  0.37745123677E+02  0.00000000000E+00 0. -1.
         25    2    1    2    0    0 -0.13247637191E+02  0.64878707492E+01  0.13307576726E+03  0.18322288551E+03  0.12507547155E+03 0.  0.
         23    2    1    2    0    0  0.13247637191E+02 -0.64878707492E+01  0.15889243266E+03  0.18423556177E+03  0.92077927350E+02 0.  0.
          5    1    3    3  502    0 -0.36834041276E+02  0.57639267915E+02  0.83911723716E+02  0.10834058141E+03  0.41800000000E+01 0.  1.
         -5    1    3    3    0  502  0.23586404085E+02 -0.51151397166E+02  0.49164043545E+02  0.74882304101E+02  0.41800000000E+01 0.  1.
        -11    1    4    4    0    0  0.37986356724E+02  0.10726667433E+02  0.24393377507E+02  0.46401094358E+02  0.00000000000E+00 0. -1.
         11    1    4    4    0    0 -0.24738719534E+02 -0.17214538182E+02  0.13449905515E+03  0.13783446741E+03  0.00000000000E+00 0.  1.
</event>
<event>
 8    1  0.3710605E-009  0.2586406E+03  0.7561462E-02  0.1107963E+00
         -2   -1    0    0    0  501 -0.00000000000E+00  0.00000000000E+00  0.51258199888E+03  0.51258199888E+03  0.00000000000E+00 0.  1.
          2   -1    0    0  501    0  0.00000000000E+00 -0.00000000000E+00 -0.29792085429E+03  0.29792085429E+03  0.00000000000E+00 0. -1.
         25    2    1    2    0    0 -0.21097876016E+03  0.13489366934E+03 -0.18147168362E+03  0.33359790935E+03  0.12508898392E+03 0.  0.
         23    2    1    2    0    0  0.21097876016E+03 -0.13489366934E+03  0.39613282820E+03  0.47690494382E+03  0.88367237110E+02 0.  0.
          5    1    3    3  502    0 -0.11128049954E+03  0.91273155935E+02 -0.17195869143E+03  0.22427974168E+03  0.41800000000E+01 0. -1.
         -5    1    3    3    0  502 -0.99698260620E+02  0.43620513409E+02 -0.95129921909E+01  0.10931816766E+03  0.41800000000E+01 0. -1.
        -11    1    4    4    0    0  0.17625076546E+03 -0.67794817011E+02  0.30231011146E+03  0.35644336581E+03  0.00000000000E+00 0. -1.
         11    1    4    4    0    0  0.34727994702E+02 -0.67098852334E+02  0.93822716737E+02  0.12046157801E+03  0.00000000000E+00 0.  1.
</event>
<event>
 8    1  0.3710605E-009  0.1301631E+03  0.7561462E-02  0.1227214E+00
          1   -1    0    0  501    0  0.00000000000E+00  0.00000000000E+00  0.25354304614E+03  0.25354304614E+03  0.00000000000E+00 0. -1.
         -1   -1    0    0    0  501 -0.00000000000E+00 -0.00000000000E+00 -0.86765082351E+02  0.86765082351E+02  0.00000000000E+00 0.  1.
         25    2    1    2    0    0 -0.94761501780E+02  0.36563334795E+02  0.79387878823E+02  0.17962040513E+03  0.12507771569E+03 0.  0.
         23    2    1    2    0    0  0.94761501780E+02 -0.36563334795E+02  0.87390084964E+02  0.16068772336E+03  0.88695534377E+02 0.  0.
          5    1    3    3  502    0 -0.26712205278E+02 -0.44969534076E+02  0.41101926089E+02  0.66653144217E+02  0.41800000000E+01 0. -1.
         -5    1    3    3    0  502 -0.68049296502E+02  0.81532868871E+02  0.38285952734E+02  0.11296726091E+03  0.41800000000E+01 0. -1.
        -11    1    4    4    0    0  0.66591947833E+02 -0.26022391360E+02  0.35141582277E+01  0.71582132382E+02  0.00000000000E+00 0.  1.
         11    1    4    4    0    0  0.28169553947E+02 -0.10540943435E+02  0.83875926737E+02  0.89105590980E+02  0.00000000000E+00 0. -1.
</event>
<event>
 8    1  0.3710605E-009  0.1213310E+03  0.7561462E-02  0.1240917E+00
          1   -1    0    0  501    0  0.00000000000E+00  0.00000000000E+00  0.87232418182E+02  0.87232418182E+02  0.00000000000E+00 0. -1.
         -1   -1    0    0    0  501 -0.00000000000E+00 -0.00000000000E+00 -0.24021222897E+03  0.24021222897E+03  0.00000000000E+00 0.  1.
         25    2    1    2    0    0 -0.44646709670E+02 -0.65551786460E+02 -0.26652350524E+02  0.15049521200E+03  0.12509234850E+03 0.  0.
         23    2    1    2    0    0  0.44646709670E+02  0.65551786460E+02 -0.12632746027E+03  0.17694943515E+03  0.95195115379E+02 0.  0.
          5    1    3    3  502    0 -0.83365058795E+02 -0.67250502011E+02 -0.85926075398E+01  0.10753449843E+03  0.41800000000E+01 0.  1.
         -5    1    3    3    0  502  0.38718349125E+02  0.16987155518E+01 -0.18059742984E+02  0.42960713566E+02  0.41800000000E+01 0.  1.
        -11    1    4    4    0    0 -0.12841029445E+02  0.79090597963E+01 -0.83713368868E+02  0.85060998062E+02  0.00000000000E+00 0. -1.
         11    1    4    4    0    0  0.57487739115E+02  0.57642726663E+02 -0.42614091398E+02  0.91888437093E+02  0.00000000000E+00 0.  1.
</event>
<event>
 8    1  0.3710605E-009  0.1215463E+03  0.7561462E-02  0.1240568E+00
          1   -1    0    0  501    0  0.00000000000E+00  0.00000000000E+00  0.88442394973E+02  0.88442394973E+02  0.00000000000E+00 0. -1.
         -1   -1    0    0    0  501 -0.00000000000E+00 -0.00000000000E+00 -0.24164312264E+03  0.24164312264E+03  0.00000000000E+00 0.  1.
         25    2    1    2    0    0 -0.47613873827E+02 -0.76791882121E+02 -0.12337800789E+03  0.19757049458E+03  0.12509153990E+03 0.  0.
         23    2    1    2    0    0  0.47613873827E+02  0.76791882121E+02 -0.29822719776E+02  0.13251502304E+03  0.92232112498E+02 0.  0.
          5    1    3    3  502    0 -0.11200581809E+02  0.29883153975E+02 -0.60256568339E+02  0.68313851833E+02  0.41800000000E+01 0. -1.
         -5    1    3    3    0  502 -0.36413292018E+02 -0.10667503610E+03 -0.63121439555E+02  0.12925664274E+03  0.41800000000E+01 0. -1.
        -11    1    4    4    0    0 -0.32172510923E+01  0.26188612640E+02 -0.51262181317E+02  0.57654187792E+02  0.00000000000E+00 0.  1.
         11    1    4    4    0    0  0.50831124919E+02  0.50603269481E+02  0.21439461541E+02  0.74860835247E+02  0.00000000000E+00 0. -1.
</event>
<event>
 8    1  0.3710605E-009  0.3782768E+03  0.7561462E-02  0.1051572E+00
          2   -1    0    0  501    0  0.00000000000E+00  0.00000000000E+00  0.17987131797E+04  0.17987131797E+04  0.00000000000E+00 0. -1.
         -2   -1    0    0    0  501 -0.00000000000E+00 -0.00000000000E+00 -0.93028471277E+02  0.93028471277E+02  0.00000000000E+00 0.  1.
         25    2    1    2    0    0  0.11748244649E+03 -0.35174956349E+03  0.11690455716E+04  0.12328192689E+04  0.12508365465E+03 0.  0.
         23    2    1    2    0    0 -0.11748244649E+03  0.35174956349E+03  0.53663913681E+03  0.65892238205E+03  0.93098129792E+02 0.  0.
          5    1    3    3  502    0  0.10929565108E+03 -0.16469987014E+03  0.48894306347E+03  0.52740343029E+03  0.41800000000E+01 0.  1.
         -5    1    3    3    0  502  0.81867954023E+01 -0.18704969335E+03  0.68010250813E+03  0.70541583861E+03  0.41800000000E+01 0.  1.
        -11    1    4    4    0    0 -0.44311463913E+02  0.99498741747E+02  0.92330426702E+02  0.14278800068E+03  0.00000000000E+00 0.  1.
         11    1    4    4    0    0 -0.73170982572E+02  0.25225082174E+03  0.44430871010E+03  0.51613438137E+03  0.00000000000E+00 0. -1.
</event>
<event>
 8    1  0.3710605E-009  0.1515202E+03  0.7561462E-02  0.1198617E+00
         -1   -1    0    0    0  501 -0.00000000000E+00  0.00000000000E+00  0.12231104445E+04  0.12231104445E+04  0.00000000000E+00 0.  1.
          1   -1    0    0  501    0  0.00000000000E+00 -0.00000000000E+00 -0.12312944755E+03  0.12312944755E+03  0.00000000000E+00 0. -1.
         25    2    1    2    0    0  0.23107425071E+02 -0.12240673191E+03  0.11651776765E+04  0.11784738191E+04  0.12507662998E+03 0.  0.
         23    2    1    2    0    0 -0.23107425071E+02  0.12240673191E+03 -0.65196679550E+02  0.16776607296E+03  0.91528613556E+02 0.  0.
          5    1    3    3  502    0 -0.29912206640E+02 -0.11111722554E+03  0.92954630474E+03  0.93665126006E+03  0.41800000000E+01 0.  1.
         -5    1    3    3    0  502  0.53019631711E+02 -0.11289506379E+02  0.23563137180E+03  0.24182255907E+03  0.41800000000E+01 0.  1.
        -11    1    4    4    0    0 -0.37886708530E+02  0.77872136125E+02  0.10247075188E+01  0.86605555788E+02  0.00000000000E+00 0.  1.
         11    1    4    4    0    0  0.14779283458E+02  0.44534595789E+02 -0.66221387069E+02  0.81160517168E+02  0.00000000000E+00 0. -1.
</event>
<event>
 8    1  0.3710605E-009  0.1623797E+03  0.7561462E-02  0.1186036E+00
         -1   -1    0    0    0  501 -0.00000000000E+00  0.00000000000E+00  0.49628459881E+03  0.49628459881E+03  0.00000000000E+00 0.  1.
          1   -1    0    0  501    0  0.00000000000E+00 -0.00000000000E+00 -0.57878177770E+02  0.57878177770E+02  0.00000000000E+00 0. -1.
         25    2    1    2    0    0 -0.12640650322E+03  0.19539208952E+02  0.19772106702E+03  0.26665015380E+03  0.12509316302E+03 0.  0.
         23    2    1    2    0    0  0.12640650322E+03 -0.19539208952E+02  0.24068535402E+03  0.28751262278E+03  0.91507835047E+02 0.  0.
          5    1    3    3  502    0 -0.14192121207E+03 -0.23167492290E+01  0.12553355104E+03  0.18953401436E+03  0.41800000000E+01 0. -1.
         -5    1    3    3    0  502  0.15514708852E+02  0.21855958181E+02  0.72187515977E+02  0.77116139437E+02  0.41800000000E+01 0. -1.
        -11    1    4    4    0    0  0.13708910629E+03 -0.44733427593E+01  0.19663539133E+03  0.23974759849E+03  0.00000000000E+00 0. -1.
         11    1    4    4    0    0 -0.10682603068E+02 -0.15065866193E+02  0.44049962683E+02  0.47765024284E+02  0.00000000000E+00 0.  1.
</event>
<event>
 8    1  0.3710605E-009  0.9974171E+02  0.7561462E-02  0.1280840E+00
          3   -1    0    0  501    0  0.00000000000E+00  0.00000000000E+00  0.10229823916E+03  0.10229823916E+03  0.00000000000E+00 0. -1.
         -3   -1    0    0    0  501 -0.00000000000E+00 -0.00000000000E+00 -0.18550593600E+03  0.18550593600E+03  0.00000000000E+00 0.  1.
         25    2    1    2    0    0 -0.13836564369E+02  0.59400078992E+02 -0.10469541997E+03  0.17414697445E+03  0.12508484261E+03 0.  0.
         23    2    1    2    0    0  0.13836564369E+02 -0.59400078992E+02  0.21487723130E+02  0.11365720071E+03  0.93468802977E+02 0.  0.
          5    1    3    3  502    0 -0.31811803562E+02  0.77983606424E+02 -0.21637906031E+02  0.87058055884E+02  0.41800000000E+01 0.  1.
         -5    1    3    3    0  502  0.17975239194E+02 -0.18583527432E+02 -0.83057513937E+02  0.87088918567E+02  0.41800000000E+01 0.  1.
        -11    1    4    4    0    0 -0.23046052016E+02 -0.55632354168E+01 -0.24290706660E+02  0.33942724285E+02  0.00000000000E+00 0.  1.
         11    1    4    4    0    0  0.36882616385E+02 -0.53836843575E+02  0.45778429791E+02  0.79714476424E+02  0.00000000000E+00 0. -1.
</event>
<event>
 8    1  0.3710605E-009  0.1295241E+03  0.7561462E-02  0.1228164E+00
         -1   -1    0    0    0  501 -0.00000000000E+00  0.00000000000E+00  0.65943138515E+02  0.65943138515E+02  0.00000000000E+00 0.  1.
          1   -1    0    0  501    0  0.00000000000E+00 -0.00000000000E+00 -0.34206056574E+03  0.34206056574E+03  0.00000000000E+00 0. -1.
         25    2    1    2    0    0 -0.85005509894E+02  0.16434512049E+02 -0.71174416636E+02  0.16795897165E+03  0.12509351972E+03 0.  0.
         23    2    1    2    0    0  0.85005509894E+02 -0.16434512049E+02 -0.20494301059E+03  0.24004473260E+03  0.90132159421E+02 0.  0.
          5    1    3    3  502    0 -0.54273236867E+01  0.47992514987E+02 -0.66270468445E+02  0.82109589727E+02  0.41800000000E+01 0.  1.
         -5    1    3    3    0  502 -0.79578186207E+02 -0.31558002938E+02 -0.49039481910E+01  0.85849381928E+02  0.41800000000E+01 0.  1.
        -11    1    4    4    0    0 -0.12362994369E+02  0.17779506576E+02 -0.39643912942E+02  0.45172937885E+02  0.00000000000E+00 0. -1.
         11    1    4    4    0    0  0.97368504263E+02 -0.34214018625E+02 -0.16529909765E+03  0.19487179472E+03  0.00000000000E+00 0.  1.
</event>
<event>
 8    1  0.3710605E-009  0.6919522E+02  0.7561462E-02  0.1362851E+00
         -2   -1    0    0    0  501 -0.00000000000E+00  0.00000000000E+00  0.41189360001E+02  0.41189360001E+02  0.00000000000E+00 0.  1.
          2   -1    0    0  501    0  0.00000000000E+00 -0.00000000000E+00 -0.29986821011E+03  0.29986821011E+03  0.00000000000E+00 0. -1.
         25    2    1    2    0    0 -0.94275797008E+01  0.20479699149E+02 -0.13637499468E+03  0.18642443638E+03  0.12509050311E+03 0.  0.
         23    2    1    2    0    0  0.94275797008E+01 -0.20479699149E+02 -0.12230385543E+03  0.15463313374E+03  0.91896004586E+02 0.  0.
          5    1    3    3  502    0  0.59034869221E+00  0.46342767482E+02 -0.14868228714E+03  0.15579440143E+03  0.41800000000E+01 0. -1.
         -5    1    3    3    0  502 -0.10017928393E+02 -0.25863068333E+02  0.12307292460E+02  0.30630034942E+02  0.41800000000E+01 0. -1.
        -11    1    4    4    0    0 -0.25479066252E+02 -0.98658668331E+01 -0.33520964376E+00  0.27324540453E+02  0.00000000000E+00 0.  1.
         11    1    4    4    0    0  0.34906645953E+02 -0.10613832316E+02 -0.12196864579E+03  0.12730859328E+03  0.00000000000E+00 0. -1.
</event>
<event>
 8    1  0.3710605E-009  0.1177562E+03  0.7561462E-02  0.1246845E+00
         -1   -1    0    0    0  501 -0.00000000000E+00  0.00000000000E+00  0.22551611090E+03  0.22551611090E+03  0.00000000000E+00 0.  1.
          1   -1    0    0  501    0  0.00000000000E+00 -0.00000000000E+00 -0.10091450061E+03  0.10091450061E+03  0.00000000000E+00 0. -1.
         25    2    1    2    0    0 -0.68938494913E+02  0.62262645845E+02  0.22431908962E+02  0.15741364411E+03  0.12508681651E+03 0.  0.
         23    2    1    2    0    0  0.68938494913E+02 -0.62262645845E+02  0.10216970133E+03  0.16901696740E+03  0.97462476109E+02 0.  0.
          5    1    3    3  502    0 -0.15361580790E+02 -0.31364004861E+01 -0.45864788126E+02  0.48650450792E+02  0.41800000000E+01 0. -1.
         -5    1    3    3    0  502 -0.53576914122E+02  0.65399046331E+02  0.68296697089E+02  0.10876319332E+03  0.41800000000E+01 0. -1.
        -11    1    4    4    0    0  0.13658951611E+02  0.26648517580E+02  0.22926073012E+02  0.37713595321E+02  0.00000000000E+00 0. -1.
         11    1    4    4    0    0  0.55279543301E+02 -0.88911163425E+02  0.79243628318E+02  0.13130337207E+03  0.00000000000E+00 0.  1.
</event>
<event>
 8    1  0.3710605E-009  0.9319206E+02  0.7561462E-02  0.1295301E+00
          1   -1    0    0  501    0  0.00000000000E+00  0.00000000000E+00  0.79126311806E+03  0.79126311806E+03  0.00000000000E+00 0. -1.
         -1   -1    0    0    0  501 -0.00000000000E+00 -0.00000000000E+00 -0.19256186243E+02  0.19256186243E+02  0.00000000000E+00 0.  1.
         25    2    1    2    0    0  0.19000106518E+02 -0.59378874358E+02  0.37890898679E+03  0.40386467830E+03  0.12509118011E+03 0.  0.
         23    2    1    2    0    0 -0.19000106518E+02  0.59378874358E+02  0.39309794503E+03  0.40665462601E+03  0.83397456178E+02 0.  0.
          5    1    3    3  502    0 -0.15708350953E+02 -0.44655415425E+02  0.37986542220E+02  0.60838377743E+02  0.41800000000E+01 0.  1.
         -5    1    3    3    0  502  0.34708457471E+02 -0.14723458932E+02  0.34092244457E+03  0.34302630055E+03  0.41800000000E+01 0.  1.
        -11    1    4    4    0    0  0.22094814399E+02 -0.67223177344E+01  0.53869351104E+02  0.58611239258E+02  0.00000000000E+00 0. -1.
         11    1    4    4    0    0 -0.41094920916E+02  0.66101192092E+02  0.33922859393E+03  0.34804338675E+03  0.00000000000E+00 0.  1.
</event>
<event>
 8    1  0.3710605E-009  0.1310805E+03  0.7561462E-02  0.1225861E+00
          2   -1    0    0  501    0  0.00000000000E+00  0.00000000000E+00  0.63266396443E+03  0.63266396443E+03  0.00000000000E+00 0. -1.
         -2   -1    0    0    0  501 -0.00000000000E+00 -0.00000000000E+00 -0.33293245832E+02  0.33293245832E+02  0.00000000000E+00 0.  1.
         25    2    1    2    0    0  0.74588734664E+02  0.60090886084E+02  0.34304035970E+03  0.37749015130E+03  0.12509089502E+03 0.  0.
         23    2    1    2    0    0 -0.74588734664E+02 -0.60090886084E+02  0.25633035889E+03  0.28846705896E+03  0.91288538621E+02 0.  0.
          5    1    3    3  502    0  0.39938675986E+02  0.98064021338E+02  0.22905191270E+03  0.25237650689E+03  0.41800000000E+01 0.  1.
         -5    1    3    3    0  502  0.34650058678E+02 -0.37973135254E+02  0.11398844700E+03  0.12511364441E+03  0.41800000000E+01 0.  1.
        -11    1    4    4    0    0 -0.61653338540E+02 -0.23795220734E+02  0.62894520069E+02  0.91230846415E+02  0.00000000000E+00 0.  1.
         11    1    4    4    0    0 -0.12935396124E+02 -0.36295665350E+02  0.19343583882E+03  0.19723621254E+03  0.00000000000E+00 0. -1.
</event>
<event>
 8    1  0.3710605E-009  0.1336333E+03  0.7561462E-02  0.1222162E+00
          1   -1    0    0  501    0  0.00000000000E+00  0.00000000000E+00  0.13885221184E+03  0.13885221184E+03  0.00000000000E+00 0. -1.
         -1   -1    0    0    0  501 -0.00000000000E+00 -0.00000000000E+00 -0.16398804196E+03  0.16398804196E+03  0.00000000000E+00 0.  1.
         25    2    1    2    0    0 -0.98215886831E+02  0.56457631720E+01  0.24305586779E+02  0.16098711571E+03  0.12509138583E+03 0.  0.
         23    2    1    2    0    0  0.98215886831E+02 -0.56457631720E+01 -0.49441416903E+02  0.14185313809E+03  0.89440617248E+02 0.  0.
          5    1    3    3  502    0 -0.10697580707E+03 -0.36221413843E+02  0.31694585286E+02  0.11737901540E+03  0.41800000000E+01 0. -1.
         -5    1    3    3    0  502  0.87599202435E+01  0.41867177015E+02 -0.73889985076E+01  0.43608100312E+02  0.41800000000E+01 0. -1.
        -11    1    4    4    0    0  0.72678302365E+02 -0.27451160258E+02 -0.68209445520E+02  0.10338389764E+03  0.00000000000E+00 0.  1.
         11    1    4    4    0    0  0.25537584466E+02  0.21805397086E+02  0.18768028617E+02  0.38469240448E+02  0.00000000000E+00 0. -1.
</event>
<event>
 8    1  0.3710605E-009  0.1148137E+03  0.7561462E-02  0.1251907E+00
         -2   -1    0    0    0  501 -0.00000000000E+00  0.00000000000E+00  0.14184295930E+02  0.14184295930E+02  0.00000000000E+00 0.  1.
          2   -1    0    0  501    0  0.00000000000E+00 -0.00000000000E+00 -0.14414740040E+04  0.14414740040E+04  0.00000000000E+00 0. -1.
         25    2    1    2    0    0  0.20513302416E+02 -0.53651481365E+02 -0.11474566012E+04  0.11556831497E+04  0.12509042258E+03 0.  0.
         23    2    1    2    0    0 -0.20513302416E+02  0.53651481365E+02 -0.27983310684E+03  0.29997515021E+03  0.91538221679E+02 0.  0.
          5    1    3    3  502    0 -0.48881682392E+02 -0.40871870123E+02 -0.66783939275E+03  0.67088512843E+03  0.41800000000E+01 0. -1.
         -5    1    3    3    0  502  0.69394984808E+02 -0.12779611242E+02 -0.47961720847E+03  0.48479802129E+03  0.41800000000E+01 0. -1.
        -11    1    4    4    0    0 -0.43326745897E+02  0.80087855940E+01 -0.60858560575E+02  0.75133960045E+02  0.00000000000E+00 0.  1.
         11    1    4    4    0    0  0.22813443481E+02  0.45642695771E+02 -0.21897454627E+03  0.22484119016E+03  0.00000000000E+00 0. -1.
</event>
<event>
 8    1  0.3710605E-009  0.7225923E+02  0.7561462E-02  0.1352575E+00
          1   -1    0    0  501    0  0.00000000000E+00  0.00000000000E+00  0.11457704284E+03  0.11457704284E+03  0.00000000000E+00 0. -1.
         -1   -1    0    0    0  501 -0.00000000000E+00 -0.00000000000E+00 -0.11307447602E+03  0.11307447602E+03  0.00000000000E+00 0.  1.
         25    2    1    2    0    0 -0.12728184733E+02  0.19103642276E+02  0.25431289522E+02  0.12969841658E+03  0.12509185802E+03 0.  0.
         23    2    1    2    0    0  0.12728184733E+02 -0.19103642276E+02 -0.23928722703E+02  0.97953102286E+02  0.92169792461E+02 0.  0.
          5    1    3    3  502    0  0.76175710939E+01 -0.13367400732E+02  0.69410482114E+02  0.71217990838E+02  0.41800000000E+01 0.  1.
         -5    1    3    3    0  502 -0.20345755827E+02  0.32471043008E+02 -0.43979192592E+02  0.58480425745E+02  0.41800000000E+01 0.  1.
        -11    1    4    4    0    0 -0.33052240503E+02 -0.28088734524E+02  0.40314672067E+01  0.43562372953E+02  0.00000000000E+00 0.  1.
         11    1    4    4    0    0  0.45780425237E+02  0.89850922480E+01 -0.27960189910E+02  0.54390729333E+02  0.00000000000E+00 0. -1.
</event>
<event>
 8    1  0.3710605E-009  0.8380813E+02  0.7561462E-02  0.1318579E+00
          1   -1    0    0  501    0  0.00000000000E+00  0.00000000000E+00  0.22216055142E+03  0.22216055142E+03  0.00000000000E+00 0. -1.
         -1   -1    0    0    0  501 -0.00000000000E+00 -0.00000000000E+00 -0.68917656140E+02  0.68917656140E+02  0.00000000000E+00 0.  1.
         25    2    1    2    0    0  0.18082342898E+01 -0.39667043515E+02  0.13944683366E+03  0.19149221716E+03  0.12508839180E+03 0.  0.
         23    2    1    2    0    0 -0.18082342898E+01  0.39667043515E+02  0.13796061621E+02  0.99585990398E+02  0.90278979364E+02 0.  0.
          5    1    3    3  502    0 -0.23424683080E+02 -0.66405411179E+02  0.13738164726E+03  0.15443310466E+03  0.41800000000E+01 0. -1.
         -5    1    3    3    0  502  0.25232917370E+02  0.26738367665E+02  0.20651863969E+01  0.37059112499E+02  0.41800000000E+01 0. -1.
        -11    1    4    4    0    0 -0.12201259467E+02  0.46210095743E+02 -0.28429938940E+02  0.55610296792E+02  0.00000000000E+00 0.  1.
         11    1    4    4    0    0  0.10393025177E+02 -0.65430522284E+01  0.42226000561E+02  0.43975693606E+02  0.00000000000E+00 0. -1.
</event>
<event>
 8    1  0.3710605E-009  0.8177527E+02  0.7561462E-02  0.1324088E+00
          1   -1    0    0  501    0  0.00000000000E+00  0.00000000000E+00  0.38846660324E+02  0.38846660324E+02  0.00000000000E+00 0. -1.
         -1   -1    0    0    0  501 -0.00000000000E+00 -0.00000000000E+00 -0.38066531424E+03  0.38066531424E+03  0.00000000000E+00 0.  1.
         25    2    1    2    0    0 -0.53303082688E+02  0.11752048573E+02 -0.17523618417E+03  0.22211270511E+03  0.12508798607E+03 0.  0.
         23    2    1    2    0    0  0.53303082688E+02 -0.11752048573E+02 -0.16658246975E+03  0.19739926946E+03  0.90760250571E+02 0.  0.
          5    1    3    3  502    0 -0.25944307526E+02  0.15156705955E+02 -0.18871726896E+03  0.19114003461E+03  0.41800000000E+01 0.  1.
         -5    1    3    3    0  502 -0.27358775162E+02 -0.34046573814E+01  0.13481084795E+02  0.30972670494E+02  0.41800000000E+01 0.  1.
        -11    1    4    4    0    0  0.78538264625E+02 -0.14766993835E+02 -0.11707225412E+03  0.14174708393E+03  0.00000000000E+00 0.  1.
         11    1    4    4    0    0 -0.25235181936E+02  0.30149452616E+01 -0.49510215627E+02  0.55652185525E+02  0.00000000000E+00 0. -1.
</event>
<event>
 8    1  0.3710605E-009  0.7247770E+02  0.7561462E-02  0.1351865E+00
          2   -1    0    0  501    0  0.00000000000E+00  0.00000000000E+00  0.46427004249E+02  0.46427004249E+02  0.00000000000E+00 0. -1.
         -2   -1    0    0    0  501 -0.00000000000E+00 -0.00000000000E+00 -0.34286808610E+03  0.34286808610E+03  0.00000000000E+00 0.  1.
         25    2    1    2    0    0 -0.49373077668E+02 -0.51789564601E+01 -0.22337692419E+03  0.26078621781E+03  0.12509068210E+03 0.  0.
         23    2    1    2    0    0  0.49373077668E+02  0.51789564601E+01 -0.73064157656E+02  0.12850887254E+03  0.93336149474E+02 0.  0.
          5    1    3    3  502    0  0.17173140465E+02 -0.68613464472E+01  0.75592814293E+01  0.20411025555E+02  0.41800000000E+01 0.  1.
         -5    1    3    3    0  502 -0.66546218133E+02  0.16823899871E+01 -0.23093620562E+03  0.24037519225E+03  0.41800000000E+01 0.  1.
        -11    1    4    4    0    0  0.40527252594E+02 -0.99873186130E+01  0.10565398278E+02  0.43056153761E+02  0.00000000000E+00 0. -1.
         11    1    4    4    0    0  0.88458250739E+01  0.15166275073E+02 -0.83629555934E+02  0.85452718778E+02  0.00000000000E+00 0.  1.
</event>
<event>
 8    1  0.3710605E-009  0.1000241E+03  0.7561462E-02  0.1280245E+00
          2   -1    0    0  501    0  0.00000000000E+00  0.00000000000E+00  0.61960459079E+03  0.61960459079E+03  0.00000000000E+00 0. -1.
         -2   -1    0    0    0  501 -0.00000000000E+00 -0.00000000000E+00 -0.28433958866E+02  0.28433958866E+02  0.00000000000E+00 0.  1.
         25    2    1    2    0    0 -0.18548585078E+02 -0.72118289508E+02  0.37255815402E+03  0.39998843112E+03  0.12508424846E+03 0.  0.
         23    2    1    2    0    0  0.18548585078E+02  0.72118289508E+02  0.21861247790E+03  0.24805011853E+03  0.90511591078E+02 0.  0.
          5    1    3    3  502    0  0.58331176937E+01 -0.18067042038E+00  0.28038793740E+03  0.28047981343E+03  0.41800000000E+01 0. -1.
         -5    1    3    3    0  502 -0.24381702772E+02 -0.71937619088E+02  0.92170216623E+02  0.11950861769E+03  0.41800000000E+01 0. -1.
        -11    1    4    4    0    0  0.55070298939E+02  0.47787590457E+02  0.14631535201E+03  0.16347652389E+03  0.00000000000E+00 0. -1.
         11    1    4    4    0    0 -0.36521713861E+02  0.24330699051E+02  0.72297125882E+02  0.84573594641E+02  0.00000000000E+00 0.  1.
</event>
<event>
 8    1  0.3710605E-009  0.9458966E+02  0.7561462E-02  0.1292103E+00
          1   -1    0    0  501    0  0.00000000000E+00  0.00000000000E+00  0.99010716386E+02  0.99010716386E+02  0.00000000000E+00 0. -1.
         -1   -1    0    0    0  501 -0.00000000000E+00 -0.00000000000E+00 -0.13256794611E+03  0.13256794611E+03  0.00000000000E+00 0.  1.
         25    2    1    2    0    0  0.83940070054E+01 -0.26903441071E+02 -0.43200188048E+02  0.13531077889E+03  0.12509394926E+03 0.  0.
         23    2    1    2    0    0 -0.83940070054E+01  0.26903441071E+02  0.96429583237E+01  0.96267883607E+02  0.91543783371E+02 0.  0.
          5    1    3    3  502    0 -0.53147009039E+02 -0.71051361101E+01  0.57856658824E+01  0.54092826314E+02  0.41800000000E+01 0. -1.
         -5    1    3    3    0  502  0.61541016045E+02 -0.19798304961E+02 -0.48985853931E+02  0.81217952575E+02  0.41800000000E+01 0. -1.
        -11    1    4    4    0    0  0.24768204182E+02  0.28065765670E+02  0.37468512105E+02  0.52962633435E+02  0.00000000000E+00 0. -1.
         11    1    4    4    0    0 -0.33162211187E+02 -0.11623245987E+01 -0.27825553781E+02  0.43305250173E+02  0.00000000000E+00 0.  1.
</event>
<event>
 8    1  0.3710605E-009  0.1251655E+03  0.7561462E-02  0.1234811E+00
         -1   -1    0    0    0  501 -0.00000000000E+00  0.00000000000E+00  0.14114303541E+03  0.14114303541E+03  0.00000000000E+00 0. -1.
          1   -1    0    0  501    0  0.00000000000E+00 -0.00000000000E+00 -0.12104992253E+03  0.12104992253E+03  0.00000000000E+00 0.  1.
         25    2    1    2    0    0 -0.62992305863E+02  0.25375834262E+02  0.34062590424E+02  0.14635363583E+03  0.12508862095E+03 0.  0.
         23    2    1    2    0    0  0.62992305863E+02 -0.25375834262E+02 -0.13969477551E+02  0.11583932211E+03  0.92798915309E+02 0.  0.
          5    1    3    3  502    0  0.12077023379E+02  0.53715721274E+02 -0.77826341454E+01  0.55760873379E+02  0.41800000000E+01 0. -1.
         -5    1    3    3    0  502 -0.75069329243E+02 -0.28339887012E+02  0.41845224570E+02  0.90592762449E+02  0.41800000000E+01 0. -1.
        -11    1    4    4    0    0  0.87457902449E+02 -0.19510482716E+02 -0.78767841555E+01  0.89953250998E+02  0.00000000000E+00 0. -1.
         11    1    4    4    0    0 -0.24465596586E+02 -0.58653515460E+01 -0.60926933950E+01  0.25886071117E+02  0.00000000000E+00 0.  1.
</event>
<event>
 8    1  0.3710605E-009  0.2404149E+03  0.7561462E-02  0.1119517E+00
         -2   -1    0    0    0  501 -0.00000000000E+00  0.00000000000E+00  0.46653646356E+02  0.46653646356E+02  0.00000000000E+00 0.  1.
          2   -1    0    0  501    0  0.00000000000E+00 -0.00000000000E+00 -0.13711097104E+04  0.13711097104E+04  0.00000000000E+00 0. -1.
         25    2    1    2    0    0  0.12590356237E+03  0.18943977681E+03 -0.72111902165E+03  0.76642023495E+03  0.12509275397E+03 0.  0.
         23    2    1    2    0    0 -0.12590356237E+03 -0.18943977681E+03 -0.60333704240E+03  0.65134312182E+03  0.92158231045E+02 0.  0.
          5    1    3    3  502    0  0.12761951244E+03  0.15567592010E+03 -0.44775218234E+03  0.49093912173E+03  0.41800000000E+01 0. -1.
         -5    1    3    3    0  502 -0.17159500769E+01  0.33763856712E+02 -0.27336683931E+03  0.27548111321E+03  0.41800000000E+01 0. -1.
        -11    1    4    4    0    0 -0.62620637168E+02 -0.21918538980E+02 -0.16221005063E+03  0.17525372200E+03  0.00000000000E+00 0. -1.
         11    1    4    4    0    0 -0.63282925199E+02 -0.16752123783E+03 -0.44112699177E+03  0.47608939981E+03  0.00000000000E+00 0.  1.
</event>
<event>
 8    1  0.3710605E-009  0.8122510E+02  0.7561462E-02  0.1325610E+00
          1   -1    0    0  501    0  0.00000000000E+00  0.00000000000E+00  0.47248300761E+03  0.47248300761E+03  0.00000000000E+00 0. -1.
         -1   -1    0    0    0  501 -0.00000000000E+00 -0.00000000000E+00 -0.25324764845E+02  0.25324764845E+02  0.00000000000E+00 0.  1.
         25    2    1    2    0    0  0.14916240398E+02 -0.33833057814E+01  0.26875975275E+03  0.29683980283E+03  0.12509245723E+03 0.  0.
         23    2    1    2    0    0 -0.14916240398E+02  0.33833057814E+01  0.17839849001E+03  0.20096796962E+03  0.91258767208E+02 0.  0.
          5    1    3    3  502    0  0.30763286685E+02 -0.31396859632E+02  0.25930178435E+03  0.26303427603E+03  0.41800000000E+01 0. -1.
         -5    1    3    3    0  502 -0.15847046287E+02  0.28013553851E+02  0.94579684044E+01  0.33805526792E+02  0.41800000000E+01 0. -1.
        -11    1    4    4    0    0 -0.16484081779E+02 -0.39565910909E+02  0.51579044344E+02  0.67064029655E+02  0.00000000000E+00 0.  1.
         11    1    4    4    0    0  0.15678413814E+01  0.42949216690E+02  0.12681944566E+03  0.13390393997E+03  0.00000000000E+00 0. -1.
</event>
<event>
 8    1  0.3710605E-009  0.1163112E+03  0.7561462E-02  0.1249309E+00
          2   -1    0    0  501    0  0.00000000000E+00  0.00000000000E+00  0.24969096462E+02  0.24969096462E+02  0.00000000000E+00 0.  1.
         -2   -1    0    0    0  501 -0.00000000000E+00 -0.00000000000E+00 -0.58708456166E+03  0.58708456166E+03  0.00000000000E+00 0. -1.
         25    2    1    2    0    0  0.48388655501E+02  0.62200777425E+01 -0.31805496649E+03  0.34523425842E+03  0.12509028791E+03 0.  0.
         23    2    1    2    0    0 -0.48388655501E+02 -0.62200777425E+01 -0.24406049871E+03  0.26681939970E+03  0.96160873951E+02 0.  0.
          5    1    3    3  502    0  0.67416511203E+02 -0.43537920038E+02 -0.17667276919E+03  0.19409089685E+03  0.41800000000E+01 0.  1.
         -5    1    3    3    0  502 -0.19027855702E+02  0.49757997781E+02 -0.14138219729E+03  0.15114336157E+03  0.41800000000E+01 0.  1.
        -11    1    4    4    0    0  0.16059540102E+02  0.23008180057E+02 -0.12673867717E+03  0.12980746307E+03  0.00000000000E+00 0. -1.
         11    1    4    4    0    0 -0.64448195604E+02 -0.29228257799E+02 -0.11732182154E+03  0.13701193663E+03  0.00000000000E+00 0.  1.
</event>
<event>
 8    1  0.3710605E-009  0.9336952E+02  0.7561462E-02  0.1294891E+00
          4   -1    0    0  501    0  0.00000000000E+00  0.00000000000E+00  0.92798042580E+02  0.92798042580E+02  0.00000000000E+00 0. -1.
         -4   -1    0    0    0  501 -0.00000000000E+00 -0.00000000000E+00 -0.15433891848E+03  0.15433891848E+03  0.00000000000E+00 0.  1.
         25    2    1    2    0    0  0.32082167233E+02 -0.28615543904E+02 -0.64626290861E+02  0.14722070185E+03  0.12509701345E+03 0.  0.
         23    2    1    2    0    0 -0.32082167233E+02  0.28615543904E+02  0.30854149584E+01  0.99916259213E+02  0.90142244604E+02 0.  0.
          5    1    3    3  502    0  0.35404431789E+02 -0.74523335185E+02 -0.57026560284E+02  0.10038277868E+03  0.41800000000E+01 0. -1.
         -5    1    3    3    0  502 -0.33222645558E+01  0.45907791281E+02 -0.75997305764E+01  0.46837923171E+02  0.41800000000E+01 0. -1.
        -11    1    4    4    0    0  0.89611610017E+01  0.78478316294E+01 -0.37020014248E+02  0.38889231450E+02  0.00000000000E+00 0.  1.
         11    1    4    4    0    0 -0.41043328235E+02  0.20767712275E+02  0.40105429207E+02  0.61027027763E+02  0.00000000000E+00 0. -1.
</event>
<event>
 8    1  0.3710605E-009  0.1124456E+03  0.7561462E-02  0.1256107E+00
          1   -1    0    0  501    0  0.00000000000E+00  0.00000000000E+00  0.23911804720E+03  0.23911804720E+03  0.00000000000E+00 0. -1.
         -1   -1    0    0    0  501 -0.00000000000E+00 -0.00000000000E+00 -0.67268219939E+02  0.67268219939E+02  0.00000000000E+00 0.  1.
         25    2    1    2    0    0 -0.45866403679E+02 -0.79000412732E+01  0.36390423091E+02  0.13834039765E+03  0.12509062750E+03 0.  0.
         23    2    1    2    0    0  0.45866403679E+02  0.79000412732E+01  0.13545940417E+03  0.16804586950E+03  0.87886440579E+02 0.  0.
          5    1    3    3  502    0  0.37438364684E+02  0.19414657712E+02 -0.22578515236E+01  0.42439726410E+02  0.41800000000E+01 0.  1.
         -5    1    3    3    0  502 -0.83304768363E+02 -0.27314698985E+02  0.38648274615E+02  0.95900671235E+02  0.41800000000E+01 0.  1.
        -11    1    4    4    0    0  0.18359774970E+02  0.44975434697E+02  0.43762487423E+02  0.65383685798E+02  0.00000000000E+00 0.  1.
         11    1    4    4    0    0  0.27506628709E+02 -0.37075393423E+02  0.91696916751E+02  0.10266218370E+03  0.00000000000E+00 0. -1.
</event>
<event>
 8    1  0.3710605E-009  0.9246576E+02  0.7561462E-02  0.1296988E+00
          2   -1    0    0  501    0  0.00000000000E+00  0.00000000000E+00  0.42574672230E+03  0.42574672230E+03  0.00000000000E+00 0. -1.
         -2   -1    0    0    0  501 -0.00000000000E+00 -0.00000000000E+00 -0.34567114587E+02  0.34567114587E+02  0.00000000000E+00 0.  1.
         25    2    1    2    0    0 -0.33163714041E+02 -0.41766326385E+02  0.24211777672E+03  0.27769158705E+03  0.12508933515E+03 0.  0.
         23    2    1    2    0    0  0.33163714041E+02  0.41766326385E+02  0.14906183100E+03  0.18262224983E+03  0.91034052564E+02 0.  0.
          5    1    3    3  502    0 -0.55229835884E+02 -0.29079063186E+02  0.24393937219E+03  0.25183291364E+03  0.41800000000E+01 0.  1.
         -5    1    3    3    0  502  0.22066121843E+02 -0.12687263200E+02 -0.18215954717E+01  0.25858673414E+02  0.41800000000E+01 0.  1.
        -11    1    4    4    0    0  0.81012837107E+01 -0.24461730003E+02  0.78642316423E+02  0.82756395311E+02  0.00000000000E+00 0. -1.
         11    1    4    4    0    0  0.25062430330E+02  0.66228056389E+02  0.70419514572E+02  0.99865854523E+02  0.00000000000E+00 0.  1.
</event>
<event>
 8    1  0.3710605E-009  0.7922281E+02  0.7561462E-02  0.1331272E+00
         -2   -1    0    0    0  501 -0.00000000000E+00  0.00000000000E+00  0.41186458712E+02  0.41186458712E+02  0.00000000000E+00 0.  1.
          2   -1    0    0  501    0  0.00000000000E+00 -0.00000000000E+00 -0.35320052727E+03  0.35320052727E+03  0.00000000000E+00 0. -1.
         25    2    1    2    0    0  0.12089487635E+02 -0.47999984651E+02 -0.20542378657E+03  0.24555505256E+03  0.12509275563E+03 0.  0.
         23    2    1    2    0    0 -0.12089487635E+02  0.47999984651E+02 -0.10659028199E+03  0.14883193342E+03  0.91319778548E+02 0.  0.
          5    1    3    3  502    0  0.49783847443E+02 -0.23464913885E+02 -0.26891998030E+02  0.61397765496E+02  0.41800000000E+01 0.  1.
         -5    1    3    3    0  502 -0.37694359808E+02 -0.24535070765E+02 -0.17853178854E+03  0.18415728706E+03  0.41800000000E+01 0.  1.
        -11    1    4    4    0    0 -0.22308200483E+02  0.35607548818E+02 -0.12048007879E+03  0.12759703259E+03  0.00000000000E+00 0. -1.
         11    1    4    4    0    0  0.10218712849E+02  0.12392435833E+02  0.13889796799E+02  0.21234900830E+02  0.00000000000E+00 0.  1.
</event>
<event>
 8    1  0.3710605E-009  0.1102935E+03  0.7561462E-02  0.1260027E+00
         -1   -1    0    0    0  501 -0.00000000000E+00  0.00000000000E+00  0.30013175937E+02  0.30013175937E+02  0.00000000000E+00 0.  1.
          1   -1    0    0  501    0  0.00000000000E+00 -0.00000000000E+00 -0.45327617487E+03  0.45327617487E+03  0.00000000000E+00 0. -1.
         25    2    1    2    0    0 -0.33786279642E+02 -0.30357900714E+02 -0.22875950428E+03  0.26465510404E+03  0.12509315916E+03 0.  0.
         23    2    1    2    0    0  0.33786279642E+02  0.30357900714E+02 -0.19450349465E+03  0.21863424677E+03  0.88916869035E+02 0.  0.
          5    1    3    3  502    0 -0.69008783239E+02 -0.47618439460E+02 -0.10312545309E+03  0.13297390502E+03  0.41800000000E+01 0. -1.
         -5    1    3    3    0  502  0.35222503597E+02  0.17260538746E+02 -0.12563405119E+03  0.13168119902E+03  0.41800000000E+01 0. -1.
        -11    1    4    4    0    0  0.35415079253E+02  0.58833779260E+02 -0.11239538026E+03  0.13171318432E+03  0.00000000000E+00 0.  1.
         11    1    4    4    0    0 -0.16287996111E+01 -0.28475878547E+02 -0.82108114395E+02  0.86921062446E+02  0.00000000000E+00 0. -1.
</event>
<event>
 8    1  0.3710605E-009  0.2118864E+03  0.7561462E-02  0.1140081E+00
          1   -1    0    0  501    0  0.00000000000E+00  0.00000000000E+00  0.89883788719E+03  0.89883788719E+03  0.00000000000E+00 0. -1.
         -1   -1    0    0    0  501 -0.00000000000E+00 -0.00000000000E+00 -0.58639118096E+02  0.58639118096E+02  0.00000000000E+00 0.  1.
         25    2    1    2    0    0  0.16272000907E+03  0.91490349831E+02  0.27727407412E+03  0.35689932536E+03  0.12509168956E+03 0.  0.
         23    2    1    2    0    0 -0.16272000907E+03 -0.91490349831E+02  0.56292469497E+03  0.60057767992E+03  0.94662832986E+02 0.  0.
          5    1    3    3  502    0  0.87112223195E+01  0.62332997332E+02  0.48592678434E+02  0.79624171884E+02  0.41800000000E+01 0.  1.
         -5    1    3    3    0  502  0.15400878675E+03  0.29157352499E+02  0.22868139569E+03  0.27727515348E+03  0.41800000000E+01 0.  1.
        -11    1    4    4    0    0  0.15029625582E+01 -0.27664036218E+02  0.39136118484E+02  0.47949906843E+02  0.00000000000E+00 0.  1.
         11    1    4    4    0    0 -0.16422297163E+03 -0.63826313613E+02  0.52378857649E+03  0.55262777308E+03  0.00000000000E+00 0. -1.
</event>
<event>
 8    1  0.3710605E-009  0.2115704E+03  0.7561462E-02  0.1140328E+00
         -1   -1    0    0    0  501 -0.00000000000E+00  0.00000000000E+00  0.74352750015E+02  0.74352750015E+02  0.00000000000E+00 0. -1.
          1   -1    0    0  501    0  0.00000000000E+00 -0.00000000000E+00 -0.22998505966E+04  0.22998505966E+04  0.00000000000E+00 0.  1.
         25    2    1    2    0    0 -0.52243478923E+01  0.20389151842E+03 -0.21081482651E+04  0.21216819935E+04  0.12508528617E+03 0.  0.
         23    2    1    2    0    0  0.52243478923E+01 -0.20389151842E+03 -0.11734958147E+03  0.25252135310E+03  0.91635497520E+02 0.  0.
          5    1    3    3  502    0 -0.27713283920E+02  0.21399878851E+02 -0.78742761932E+03  0.78821679061E+03  0.41800000000E+01 0. -1.
         -5    1    3    3    0  502  0.22488936028E+02  0.18249163957E+03 -0.13207206458E+04  0.13334652029E+04  0.41800000000E+01 0. -1.
        -11    1    4    4    0    0  0.46749109738E+01 -0.18144800361E+03 -0.13311499031E+03  0.22508850137E+03  0.00000000000E+00 0.  1.
         11    1    4    4    0    0  0.54943691853E+00 -0.22443514813E+02  0.15765408837E+02  0.27432851727E+02  0.00000000000E+00 0. -1.
</event>
<event>
 8    1  0.3710605E-009  0.9599043E+02  0.7561462E-02  0.1288961E+00
          2   -1    0    0  501    0  0.00000000000E+00  0.00000000000E+00  0.20635196907E+03  0.20635196907E+03  0.00000000000E+00 0. -1.
         -2   -1    0    0    0  501 -0.00000000000E+00 -0.00000000000E+00 -0.10444531314E+03  0.10444531314E+03  0.00000000000E+00 0.  1.
         25    2    1    2    0    0 -0.76749951755E+02 -0.32095043619E+02 -0.14627138824E+01  0.15023091953E+03  0.12508614124E+03 0.  0.
         23    2    1    2    0    0  0.76749951755E+02  0.32095043619E+02  0.10336936981E+03  0.16056636269E+03  0.90419485134E+02 0.  0.
          5    1    3    3  502    0 -0.59597647066E+02 -0.26333036306E+02  0.58372997067E+02  0.87579606778E+02  0.41800000000E+01 0.  1.
         -5    1    3    3    0  502 -0.17152304689E+02 -0.57620073131E+01 -0.59835710949E+02  0.62651312749E+02  0.41800000000E+01 0.  1.
        -11    1    4    4    0    0  0.27724527717E+02 -0.21795650258E+02  0.14633054861E+01  0.35296473907E+02  0.00000000000E+00 0.  1.
         11    1    4    4    0    0  0.49025424037E+02  0.53890693877E+02  0.10190606433E+03  0.12526988878E+03  0.00000000000E+00 0. -1.
</event>
<event>
 8    1  0.3710605E-009  0.8041954E+02  0.7561462E-02  0.1327865E+00
         -1   -1    0    0    0  501 -0.00000000000E+00  0.00000000000E+00  0.27909559181E+03  0.27909559181E+03  0.00000000000E+00 0.  1.
          1   -1    0    0  501    0  0.00000000000E+00 -0.00000000000E+00 -0.53007968535E+02  0.53007968535E+02  0.00000000000E+00 0. -1.
         25    2    1    2    0    0  0.80631228762E+01  0.25881485872E+02  0.19193415018E+03  0.23069618003E+03  0.12508854549E+03 0.  0.
         23    2    1    2    0    0 -0.80631228762E+01 -0.25881485872E+02  0.34153473099E+02  0.10140738032E+03  0.91553982966E+02 0.  0.
          5    1    3    3  502    0  0.28720148481E+01  0.50917525542E+02  0.19764913284E+03  0.20416536188E+03  0.41800000000E+01 0. -1.
         -5    1    3    3    0  502  0.51911080281E+01 -0.25036039670E+02 -0.57149826652E+01  0.26530818151E+02  0.41800000000E+01 0. -1.
        -11    1    4    4    0    0 -0.42965178030E+01 -0.54614265651E+02  0.44559781786E+02  0.70616940112E+02  0.00000000000E+00 0.  1.
         11    1    4    4    0    0 -0.37666050732E+01  0.28732779779E+02 -0.10406308688E+02  0.30790440207E+02  0.00000000000E+00 0. -1.
</event>
<event>
 8    1  0.3710605E-009  0.1239399E+03  0.7561462E-02  0.1236735E+00
         -2   -1    0    0    0  501 -0.00000000000E+00  0.00000000000E+00  0.31691083490E+02  0.31691083490E+02  0.00000000000E+00 0.  1.
          2   -1    0    0  501    0  0.00000000000E+00 -0.00000000000E+00 -0.66611816422E+03  0.66611816422E+03  0.00000000000E+00 0. -1.
         25    2    1    2    0    0 -0.99256170047E+02  0.21158546434E+02 -0.36628886511E+03  0.40014167248E+03  0.12508538672E+03 0.  0.
         23    2    1    2    0    0  0.99256170047E+02 -0.21158546434E+02 -0.26813821562E+03  0.29766757523E+03  0.80052553293E+02 0.  0.
          5    1    3    3  502    0 -0.11286017840E+03  0.10388361856E+00 -0.18260354553E+03  0.21470667875E+03  0.41800000000E+01 0. -1.
         -5    1    3    3    0  502  0.13604008354E+02  0.21054662815E+02 -0.18368531958E+03  0.18543499373E+03  0.41800000000E+01 0. -1.
        -11    1    4    4    0    0  0.50702097779E+02  0.10214443165E+02 -0.20766522557E+03  0.21400907336E+03  0.00000000000E+00 0. -1.
         11    1    4    4    0    0  0.48554072268E+02 -0.31372989599E+02 -0.60472990050E+02  0.83658501873E+02  0.00000000000E+00 0.  1.
</event>
<event>
 8    1  0.3710605E-009  0.1395063E+03  0.7561462E-02  0.1213995E+00
         -2   -1    0    0    0  501 -0.00000000000E+00  0.00000000000E+00  0.11241423476E+03  0.11241423476E+03  0.00000000000E+00 0.  1.
          2   -1    0    0  501    0  0.00000000000E+00 -0.00000000000E+00 -0.21588715299E+03  0.21588715299E+03  0.00000000000E+00 0. -1.
         25    2    1    2    0    0  0.15269166856E+02 -0.10161852481E+03 -0.10367204128E+02  0.16221566665E+03  0.12508785530E+03 0.  0.
         23    2    1    2    0    0 -0.15269166856E+02  0.10161852481E+03 -0.93105714099E+02  0.16608572110E+03  0.91412913273E+02 0.  0.
          5    1    3    3  502    0 -0.33038877813E+02  0.11245684128E+02  0.12422468516E+02  0.37280329702E+02  0.41800000000E+01 0.  1.
         -5    1    3    3    0  502  0.48308044669E+02 -0.11286420894E+03 -0.22789672644E+02  0.12493533695E+03  0.41800000000E+01 0.  1.
        -11    1    4    4    0    0 -0.40245621076E+02  0.69823020513E+02 -0.20782493678E+02  0.83227857432E+02  0.00000000000E+00 0.  1.
         11    1    4    4    0    0  0.24976454220E+02  0.31795504300E+02 -0.72323220421E+02  0.82857863665E+02  0.00000000000E+00 0. -1.
</event>
<event>
 8    1  0.3710605E-009  0.1181006E+03  0.7561462E-02  0.1246264E+00
          2   -1    0    0  501    0  0.00000000000E+00  0.00000000000E+00  0.35310442346E+03  0.35310442346E+03  0.00000000000E+00 0. -1.
         -2   -1    0    0    0  501 -0.00000000000E+00 -0.00000000000E+00 -0.62402145637E+02  0.62402145637E+02  0.00000000000E+00 0.  1.
         25    2    1    2    0    0 -0.29309002785E+02  0.74163898833E+02  0.24788584460E+03  0.28888430872E+03  0.12508976911E+03 0.  0.
         23    2    1    2    0    0  0.29309002785E+02 -0.74163898833E+02  0.42816433226E+02  0.12662226038E+03  0.88547435509E+02 0.  0.
          5    1    3    3  502    0  0.13612724925E+02 -0.31231095124E+02  0.52136767971E+02  0.62421170743E+02  0.41800000000E+01 0.  1.
         -5    1    3    3    0  502 -0.42921727710E+02  0.10539499396E+03  0.19574907663E+03  0.22646313797E+03  0.41800000000E+01 0.  1.
        -11    1    4    4    0    0  0.28955428364E+02 -0.23382568683E+02 -0.22802852650E+02  0.43647811388E+02  0.00000000000E+00 0.  1.
         11    1    4    4    0    0  0.35357442095E+00 -0.50781330149E+02  0.65619285876E+02  0.82974448992E+02  0.00000000000E+00 0. -1.
</event>
<event>
 8    1  0.3710605E-009  0.1204134E+03  0.7561462E-02  0.1242417E+00
         -3   -1    0    0    0  501 -0.00000000000E+00  0.00000000000E+00  0.64963264659E+03  0.64963264659E+03  0.00000000000E+00 0.  1.
          3   -1    0    0  501    0  0.00000000000E+00 -0.00000000000E+00 -0.35440764533E+02  0.35440764533E+02  0.00000000000E+00 0. -1.
         25    2    1    2    0    0  0.17137798867E+02  0.90832358046E+02  0.22206178514E+03  0.27111443284E+03  0.12508947941E+03 0.  0.
         23    2    1    2    0    0 -0.17137798867E+02 -0.90832358046E+02  0.39213009692E+03  0.41395897828E+03  0.95140955265E+02 0.  0.
          5    1    3    3  502    0  0.38182731936E+01  0.11729092487E+03  0.13431829980E+03  0.17841137388E+03  0.41800000000E+01 0.  1.
         -5    1    3    3    0  502  0.13319525674E+02 -0.26458566827E+02  0.87743485336E+02  0.92703058966E+02  0.41800000000E+01 0.  1.
        -11    1    4    4    0    0 -0.19083919240E+02 -0.69806918106E+02  0.38489376451E+03  0.39163811324E+03  0.00000000000E+00 0. -1.
         11    1    4    4    0    0  0.19461203728E+01 -0.21025439940E+02  0.72363324161E+01  0.22320865037E+02  0.00000000000E+00 0.  1.
</event>
<event>
 8    1  0.3710605E-009  0.1087011E+03  0.7561462E-02  0.1262994E+00
         -2   -1    0    0    0  501 -0.00000000000E+00  0.00000000000E+00  0.16561832885E+03  0.16561832885E+03  0.00000000000E+00 0.  1.
          2   -1    0    0  501    0  0.00000000000E+00 -0.00000000000E+00 -0.10698228404E+03  0.10698228404E+03  0.00000000000E+00 0. -1.
         25    2    1    2    0    0 -0.62687082347E+02 -0.41452566414E+02  0.15299905913E+02  0.14673908177E+03  0.12510110088E+03 0.  0.
         23    2    1    2    0    0  0.62687082347E+02  0.41452566414E+02  0.43336138895E+02  0.12586153113E+03  0.91187271743E+02 0.  0.
          5    1    3    3  502    0 -0.72017638841E+02  0.72324651917E+01 -0.30934762298E+02  0.78824366635E+02  0.41800000000E+01 0.  1.
         -5    1    3    3    0  502  0.93305564946E+01 -0.48685031606E+02  0.46234668211E+02  0.67914715133E+02  0.41800000000E+01 0.  1.
        -11    1    4    4    0    0 -0.94198146011E+01  0.16226713803E+02  0.45732611795E+02  0.49431881712E+02  0.00000000000E+00 0.  1.
         11    1    4    4    0    0  0.72106896948E+02  0.25225852612E+02 -0.23964728999E+01  0.76429649416E+02  0.00000000000E+00 0. -1.
</event>
<event>
 8    1  0.3710605E-009  0.8558620E+02  0.7561462E-02  0.1313907E+00
         -1   -1    0    0    0  501 -0.00000000000E+00  0.00000000000E+00  0.86579631321E+02  0.86579631321E+02  0.00000000000E+00 0.  1.
          1   -1    0    0  501    0  0.00000000000E+00 -0.00000000000E+00 -0.13919098561E+03  0.13919098561E+03  0.00000000000E+00 0. -1.
         25    2    1    2    0    0  0.17342964228E+02  0.16500986692E+01 -0.25309571871E+02  0.12880537817E+03  0.12508696888E+03 0.  0.
         23    2    1    2    0    0 -0.17342964228E+02 -0.16500986692E+01 -0.27301782418E+02  0.96965238757E+02  0.91396766738E+02 0.  0.
          5    1    3    3  502    0 -0.41151349568E+02  0.99029556560E+01 -0.49121495771E+02  0.64976117526E+02  0.41800000000E+01 0. -1.
         -5    1    3    3    0  502  0.58494313796E+02 -0.82528569868E+01  0.23811923900E+02  0.63829260647E+02  0.41800000000E+01 0. -1.
        -11    1    4    4    0    0 -0.14326779328E+02 -0.34017522546E+02 -0.46378053286E+02  0.59273706419E+02  0.00000000000E+00 0.  1.
         11    1    4    4    0    0 -0.30161849000E+01  0.32367423876E+02  0.19076270868E+02  0.37691532338E+02  0.00000000000E+00 0. -1.
</event>
<event>
 8    1  0.3710605E-009  0.1528289E+03  0.7561462E-02  0.1197039E+00
          2   -1    0    0  501    0  0.00000000000E+00  0.00000000000E+00  0.12007775525E+04  0.12007775525E+04  0.00000000000E+00 0. -1.
         -2   -1    0    0    0  501 -0.00000000000E+00 -0.00000000000E+00 -0.21486284807E+02  0.21486284807E+02  0.00000000000E+00 0.  1.
         25    2    1    2    0    0  0.84039482567E+02 -0.77791135999E+02  0.72854470284E+03  0.74802340790E+03  0.12509012453E+03 0.  0.
         23    2    1    2    0    0 -0.84039482567E+02  0.77791135999E+02  0.45074656485E+03  0.47424042941E+03  0.92830079661E+02 0.  0.
          5    1    3    3  502    0  0.11283084735E+03 -0.51172062426E+02  0.45235926777E+03  0.46903705570E+03  0.41800000000E+01 0.  1.
         -5    1    3    3    0  502 -0.28791364787E+02 -0.26619073573E+02  0.27618543507E+03  0.27898635219E+03  0.41800000000E+01 0.  1.
        -11    1    4    4    0    0 -0.10059470154E+03  0.56784555775E+02  0.30671629130E+03  0.32774786514E+03  0.00000000000E+00 0.  1.
         11    1    4    4    0    0  0.16555218971E+02  0.21006580224E+02  0.14403027355E+03  0.14649256427E+03  0.00000000000E+00 0. -1.
</event>
<event>
 8    1  0.3710605E-009  0.2106005E+03  0.7561462E-02  0.1141091E+00
          3   -1    0    0  501    0  0.00000000000E+00  0.00000000000E+00  0.13933114455E+04  0.13933114455E+04  0.00000000000E+00 0. -1.
         -3   -1    0    0    0  501 -0.00000000000E+00 -0.00000000000E+00 -0.37076316212E+02  0.37076316212E+02  0.00000000000E+00 0.  1.
         25    2    1    2    0    0 -0.16080513787E+03 -0.91337147440E+02  0.46906150906E+03  0.51948738323E+03  0.12509066787E+03 0.  0.
         23    2    1    2    0    0  0.16080513787E+03  0.91337147440E+02  0.88717362026E+03  0.91090037851E+03  0.91987500331E+02 0.  0.
          5    1    3    3  502    0 -0.16775696805E+03 -0.10877346068E+03  0.44988521927E+03  0.49232941106E+03  0.41800000000E+01 0. -1.
         -5    1    3    3    0  502  0.69518301779E+01  0.17436313242E+02  0.19176289786E+02  0.27157972168E+02  0.41800000000E+01 0. -1.
        -11    1    4    4    0    0  0.94846234167E+02  0.97156335586E+02  0.67927202714E+03  0.69270892050E+03  0.00000000000E+00 0.  1.
         11    1    4    4    0    0  0.65958903704E+02 -0.58191881455E+01  0.20790159311E+03  0.21819145801E+03  0.00000000000E+00 0. -1.
</event>
<event>
 8    1  0.3710605E-009  0.1377781E+03  0.7561462E-02  0.1216350E+00
         -3   -1    0    0    0  501 -0.00000000000E+00  0.00000000000E+00  0.79621357128E+02  0.79621357128E+02  0.00000000000E+00 0.  1.
          3   -1    0    0  501    0  0.00000000000E+00 -0.00000000000E+00 -0.32414172775E+03  0.32414172775E+03  0.00000000000E+00 0. -1.
         25    2    1    2    0    0  0.41409781665E+01  0.95321069862E+02 -0.40081456510E+02  0.16235002945E+03  0.12509098627E+03 0.  0.
         23    2    1    2    0    0 -0.41409781665E+01 -0.95321069862E+02 -0.20443891412E+03  0.24141305543E+03  0.85917051091E+02 0.  0.
          5    1    3    3  502    0  0.33316310871E+02 -0.18048340607E+02 -0.21445237779E+02  0.43738881926E+02  0.41800000000E+01 0. -1.
         -5    1    3    3    0  502 -0.29175332705E+02  0.11336941047E+03 -0.18636218731E+02  0.11861114752E+03  0.41800000000E+01 0. -1.
        -11    1    4    4    0    0  0.83781318501E+01  0.10671923641E+02 -0.36978317997E+01  0.14062610267E+02  0.00000000000E+00 0.  1.
         11    1    4    4    0    0 -0.12519110017E+02 -0.10599299350E+03 -0.20074108232E+03  0.22735044517E+03  0.00000000000E+00 0. -1.
</event>
<event>
 8    1  0.3710605E-009  0.1248555E+03  0.7561462E-02  0.1235295E+00
         -2   -1    0    0    0  501 -0.00000000000E+00  0.00000000000E+00  0.14923261077E+03  0.14923261077E+03  0.00000000000E+00 0.  1.
          2   -1    0    0  501    0  0.00000000000E+00 -0.00000000000E+00 -0.16487550769E+03  0.16487550769E+03  0.00000000000E+00 0. -1.
         25    2    1    2    0    0  0.42464633440E+02 -0.52573779954E+02  0.85629668587E+02  0.16597472997E+03  0.12509166006E+03 0.  0.
         23    2    1    2    0    0 -0.42464633440E+02  0.52573779954E+02 -0.10127256550E+03  0.14813338848E+03  0.84380808416E+02 0.  0.
          5    1    3    3  502    0 -0.29657727744E+02 -0.62336931369E+02  0.45112472769E+02  0.82571674482E+02  0.41800000000E+01 0. -1.
         -5    1    3    3    0  502  0.72122361185E+02  0.97631514146E+01  0.40517195818E+02  0.83403055492E+02  0.41800000000E+01 0. -1.
        -11    1    4    4    0    0  0.21652133252E+02  0.35024765784E+02 -0.32229557312E+02  0.52290471953E+02  0.00000000000E+00 0.  1.
         11    1    4    4    0    0 -0.64116766692E+02  0.17549014170E+02 -0.69043008189E+02  0.95842916531E+02  0.00000000000E+00 0. -1.
</event>
<event>
 8    1  0.3710605E-009  0.1371810E+03  0.7561462E-02  0.1217173E+00
          1   -1    0    0  501    0  0.00000000000E+00  0.00000000000E+00  0.30759467918E+03  0.30759467918E+03  0.00000000000E+00 0. -1.
         -1   -1    0    0    0  501 -0.00000000000E+00 -0.00000000000E+00 -0.64172036238E+02  0.64172036238E+02  0.00000000000E+00 0.  1.
         25    2    1    2    0    0  0.69785983689E+02  0.49856654825E+02  0.10246315396E+03  0.18303548126E+03  0.12509004729E+03 0.  0.
         23    2    1    2    0    0 -0.69785983689E+02 -0.49856654825E+02  0.14095948898E+03  0.18873123416E+03  0.91619493908E+02 0.  0.
          5    1    3    3  502    0  0.10363417699E+02 -0.39896820826E+02  0.44133563330E+02  0.60534292352E+02  0.41800000000E+01 0. -1.
         -5    1    3    3    0  502  0.59422565989E+02  0.89753475652E+02  0.58329590635E+02  0.12250118891E+03  0.41800000000E+01 0. -1.
        -11    1    4    4    0    0 -0.60906664873E+02 -0.76117356873E+02  0.10422398021E+03  0.14270988716E+03  0.00000000000E+00 0. -1.
         11    1    4    4    0    0 -0.88793188157E+01  0.26260702048E+02  0.36735508769E+02  0.46021346995E+02  0.00000000000E+00 0.  1.
</event>
<event>
 8    1  0.3710605E-009  0.7297216E+02  0.7561462E-02  0.1350268E+00
          1   -1    0    0  501    0  0.00000000000E+00  0.00000000000E+00  0.38591826415E+02  0.38591826415E+02  0.00000000000E+00 0. -1.
         -1   -1    0    0    0  501 -0.00000000000E+00 -0.00000000000E+00 -0.47621255748E+03  0.47621255748E+03  0.00000000000E+00 0.  1.
         25    2    1    2    0    0  0.64675671003E+02 -0.24339452727E+02 -0.32016290252E+03  0.35060953877E+03  0.12508962048E+03 0.  0.
         23    2    1    2    0    0 -0.64675671003E+02  0.24339452727E+02 -0.11745782855E+03  0.16419484512E+03  0.91587413431E+02 0.  0.
          5    1    3    3  502    0  0.28840428229E+02 -0.76820811719E+01 -0.30739784766E+03  0.30887164619E+03  0.41800000000E+01 0. -1.
         -5    1    3    3    0  502  0.35835242774E+02 -0.16657371555E+02 -0.12765054854E+02  0.41737892583E+02  0.41800000000E+01 0. -1.
        -11    1    4    4    0    0 -0.21733579117E+02  0.24994345032E+02  0.58386888937E+01  0.33632663184E+02  0.00000000000E+00 0. -1.
         11    1    4    4    0    0 -0.42942091886E+02 -0.65489230514E+00 -0.12329651744E+03  0.13056218194E+03  0.00000000000E+00 0.  1.
</event>
<event>
 8    1  0.3710605E-009  0.8434228E+02  0.7561462E-02  0.1317162E+00
          4   -1    0    0  501    0  0.00000000000E+00  0.00000000000E+00  0.99998577772E+02  0.99998577772E+02  0.00000000000E+00 0.  1.
         -4   -1    0    0    0  501 -0.00000000000E+00 -0.00000000000E+00 -0.17301095615E+03  0.17301095615E+03  0.00000000000E+00 0. -1.
         25    2    1    2    0    0 -0.53050909207E+02 -0.26041745196E+02  0.62397147199E+01  0.13849166767E+03  0.12509371093E+03 0.  0.
         23    2    1    2    0    0  0.53050909207E+02  0.26041745196E+02 -0.79252093099E+02  0.13451786625E+03  0.91222752753E+02 0.  0.
          5    1    3    3  502    0 -0.29118007054E+02 -0.54847955506E+01  0.65061157301E+02  0.71612623932E+02  0.41800000000E+01 0. -1.
         -5    1    3    3    0  502 -0.23932902153E+02 -0.20556949645E+02 -0.58821442582E+02  0.66879043740E+02  0.41800000000E+01 0. -1.
        -11    1    4    4    0    0  0.53250239811E+01 -0.31631306082E+02 -0.13208322230E+02  0.34689410214E+02  0.00000000000E+00 0.  1.
         11    1    4    4    0    0  0.47725885226E+02  0.57673051278E+02 -0.66043770868E+02  0.99828456038E+02  0.00000000000E+00 0. -1.
</event>
<event>
 8    1  0.3710605E-009  0.1405468E+03  0.7561462E-02  0.1212595E+00
          1   -1    0    0  501    0  0.00000000000E+00  0.00000000000E+00  0.66874723485E+03  0.66874723485E+03  0.00000000000E+00 0. -1.
         -1   -1    0    0    0  501 -0.00000000000E+00 -0.00000000000E+00 -0.35814941601E+02  0.35814941601E+02  0.00000000000E+00 0.  1.
         25    2    1    2    0    0 -0.99404450494E+02  0.48982004355E+02  0.31764704330E+03  0.35892562987E+03  0.12508989618E+03 0.  0.
         23    2    1    2    0    0  0.99404450494E+02 -0.48982004355E+02  0.31528524994E+03  0.34563654658E+03  0.88200634760E+02 0.  0.
          5    1    3    3  502    0  0.19534143768E+02  0.24823073534E+02  0.14104524733E+03  0.14459945348E+03  0.41800000000E+01 0. -1.
         -5    1    3    3    0  502 -0.11893859426E+03  0.24158930821E+02  0.17660179597E+03  0.21432617639E+03  0.41800000000E+01 0. -1.
        -11    1    4    4    0    0  0.42727634948E+02 -0.56263681444E+02  0.97032864393E+02  0.12002761936E+03  0.00000000000E+00 0.  1.
         11    1    4    4    0    0  0.56676815547E+02  0.72816770890E+01  0.21825238555E+03  0.22560892722E+03  0.00000000000E+00 0. -1.
</event>
<event>
 8    1  0.3710605E-009  0.2994031E+03  0.7561462E-02  0.1085539E+00
          2   -1    0    0  501    0  0.00000000000E+00  0.00000000000E+00  0.74630830003E+03  0.74630830003E+03  0.00000000000E+00 0.  1.
         -2   -1    0    0    0  501 -0.00000000000E+00 -0.00000000000E+00 -0.16576919444E+03  0.16576919444E+03  0.00000000000E+00 0. -1.
         25    2    1    2    0    0  0.38741609420E+02  0.28382176289E+03  0.51836309773E+03  0.60531318587E+03  0.12509215204E+03 0.  0.
         23    2    1    2    0    0 -0.38741609420E+02 -0.28382176289E+03  0.62176007860E+02  0.30676430861E+03  0.90458718176E+02 0.  0.
          5    1    3    3  502    0  0.70425679566E+02  0.94459269743E+02  0.23634216689E+03  0.26411630436E+03  0.41800000000E+01 0. -1.
         -5    1    3    3    0  502 -0.31684070146E+02  0.18936249314E+03  0.28202093085E+03  0.34119688150E+03  0.41800000000E+01 0. -1.
        -11    1    4    4    0    0 -0.28449683955E+02 -0.27070512711E+03  0.78644695395E+02  0.28332955806E+03  0.00000000000E+00 0.  1.
         11    1    4    4    0    0 -0.10291925464E+02 -0.13116635780E+02 -0.16468687535E+02  0.23434750544E+02  0.00000000000E+00 0. -1.
</event>
<event>
 8    1  0.3710605E-009  0.2255484E+03  0.7561462E-02  0.1129813E+00
         -1   -1    0    0    0  501 -0.00000000000E+00  0.00000000000E+00  0.58722778614E+02  0.58722778614E+02  0.00000000000E+00 0.  1.
          1   -1    0    0  501    0  0.00000000000E+00 -0.00000000000E+00 -0.15102122019E+04  0.15102122019E+04  0.00000000000E+00 0. -1.
         25    2    1    2    0    0  0.60492127331E+02 -0.20373104756E+03 -0.11967801073E+04  0.12219210198E+04  0.12507084427E+03 0.  0.
         23    2    1    2    0    0 -0.60492127331E+02  0.20373104756E+03 -0.25470931596E+03  0.34701396073E+03  0.10186371335E+03 0.  0.
          5    1    3    3  502    0  0.81780890783E+02 -0.18545639319E+03 -0.84418023499E+03  0.86818196792E+03  0.41800000000E+01 0.  1.
         -5    1    3    3    0  502 -0.21288763452E+02 -0.18274654369E+02 -0.35259987236E+03  0.35373905189E+03  0.41800000000E+01 0.  1.
        -11    1    4    4    0    0 -0.20669478722E+02  0.15805945339E+03 -0.12071467156E+03  0.19995512019E+03  0.00000000000E+00 0. -1.
         11    1    4    4    0    0 -0.39822648610E+02  0.45671594162E+02 -0.13399464439E+03  0.14705884054E+03  0.00000000000E+00 0.  1.
</event>
<event>
 8    1  0.3710605E-009  0.9364142E+02  0.7561462E-02  0.1294266E+00
         -2   -1    0    0    0  501 -0.00000000000E+00  0.00000000000E+00  0.19789344093E+02  0.19789344093E+02  0.00000000000E+00 0.  1.
          2   -1    0    0  501    0  0.00000000000E+00 -0.00000000000E+00 -0.77920841529E+03  0.77920841529E+03  0.00000000000E+00 0. -1.
         25    2    1    2    0    0  0.35528042265E+02  0.48152053681E+01 -0.55820767243E+03  0.57317358303E+03  0.12508686076E+03 0.  0.
         23    2    1    2    0    0 -0.35528042265E+02 -0.48152053681E+01 -0.20121139877E+03  0.22582417635E+03  0.96047403097E+02 0.  0.
          5    1    3    3  502    0 -0.43803415140E+02 -0.94577307355E+01 -0.13402779283E+03  0.14138284726E+03  0.41800000000E+01 0.  1.
         -5    1    3    3    0  502  0.79331457404E+02  0.14272936104E+02 -0.42417987960E+03  0.43179073577E+03  0.41800000000E+01 0.  1.
        -11    1    4    4    0    0 -0.41976377395E+02 -0.18927442608E+02 -0.20478858278E+03  0.20990147208E+03  0.00000000000E+00 0. -1.
         11    1    4    4    0    0  0.64483351308E+01  0.14112237240E+02  0.35771840163E+01  0.15922704273E+02  0.00000000000E+00 0.  1.
</event>
<event>
 8    1  0.3710605E-009  0.3664572E+03  0.7561462E-02  0.1056056E+00
         -2   -1    0    0    0  501 -0.00000000000E+00  0.00000000000E+00  0.75227824972E+02  0.75227824972E+02  0.00000000000E+00 0.  1.
          2   -1    0    0  501    0  0.00000000000E+00 -0.00000000000E+00 -0.22201051354E+04  0.22201051354E+04  0.00000000000E+00 0. -1.
         25    2    1    2    0    0 -0.26636026635E+03  0.25104392033E+03 -0.14916666395E+04  0.15410022876E+04  0.12509134791E+03 0.  0.
         23    2    1    2    0    0  0.26636026635E+03 -0.25104392033E+03 -0.65321067091E+03  0.75433067284E+03  0.91431624533E+02 0.  0.
          5    1    3    3  502    0 -0.24009060645E+03  0.22428023387E+03 -0.14400714938E+04  0.14770810751E+04  0.41800000000E+01 0.  1.
         -5    1    3    3    0  502 -0.26269659898E+02  0.26763686460E+02 -0.51595145698E+02  0.63921212470E+02  0.41800000000E+01 0.  1.
        -11    1    4    4    0    0  0.53647550708E+02 -0.62407240425E+02 -0.81465595385E+02  0.11579881945E+03  0.00000000000E+00 0.  1.
         11    1    4    4    0    0  0.21271271564E+03 -0.18863667990E+03 -0.57174507553E+03  0.63853185339E+03  0.00000000000E+00 0. -1.
</event>
<event>
 8    1  0.3710605E-009  0.1333587E+03  0.7561462E-02  0.1222555E+00
          1   -1    0    0  501    0  0.00000000000E+00  0.00000000000E+00  0.26457499773E+03  0.26457499773E+03  0.00000000000E+00 0. -1.
         -1   -1    0    0    0  501 -0.00000000000E+00 -0.00000000000E+00 -0.97387401674E+02  0.97387401674E+02  0.00000000000E+00 0.  1.
         25    2    1    2    0    0  0.22097048409E+02 -0.96706827376E+02  0.16154204180E+03  0.22712354814E+03  0.12509510318E+03 0.  0.
         23    2    1    2    0    0 -0.22097048409E+02  0.96706827376E+02  0.56455542480E+01  0.13483885126E+03  0.91154558397E+02 0.  0.
          5    1    3    3  502    0  0.84276181112E+00  0.24871459090E+02  0.19196112920E+01  0.25307252562E+02  0.41800000000E+01 0.  1.
         -5    1    3    3    0  502  0.21254286597E+02 -0.12157828647E+03  0.15962243051E+03  0.20181629558E+03  0.41800000000E+01 0.  1.
        -11    1    4    4    0    0 -0.34401263880E+02  0.99580187120E+02  0.28131512253E+02  0.10904605727E+03  0.00000000000E+00 0. -1.
         11    1    4    4    0    0  0.12304215472E+02 -0.28733597443E+01 -0.22485958005E+02  0.25792793994E+02  0.00000000000E+00 0.  1.
</event>
<event>
 8    1  0.3710605E-009  0.1126267E+03  0.7561462E-02  0.1255782E+00
         -1   -1    0    0    0  501 -0.00000000000E+00  0.00000000000E+00  0.36116628457E+02  0.36116628457E+02  0.00000000000E+00 0.  1.
          1   -1    0    0  501    0  0.00000000000E+00 -0.00000000000E+00 -0.48028331510E+03  0.48028331510E+03  0.00000000000E+00 0. -1.
         25    2    1    2    0    0 -0.38914410041E+02  0.45140359960E+02 -0.16145977611E+03  0.21276490512E+03  0.12509061573E+03 0.  0.
         23    2    1    2    0    0  0.38914410041E+02 -0.45140359960E+02 -0.28270691053E+03  0.30363503843E+03  0.93375884989E+02 0.  0.
          5    1    3    3  502    0 -0.65688428748E+02  0.57684883161E+02 -0.16059010273E+03  0.18289113951E+03  0.41800000000E+01 0.  1.
         -5    1    3    3    0  502  0.26774018708E+02 -0.12544523201E+02 -0.86967338497E+00  0.29873765613E+02  0.41800000000E+01 0.  1.
        -11    1    4    4    0    0  0.42648640913E+02  0.16785227858E+02 -0.15537843270E+03  0.16199724626E+03  0.00000000000E+00 0. -1.
         11    1    4    4    0    0 -0.37342308721E+01 -0.61925587818E+02 -0.12732847782E+03  0.14163779217E+03  0.00000000000E+00 0.  1.
</event>
<event>
 8    1  0.3710605E-009  0.3303939E+03  0.7561462E-02  0.1070963E+00
          4   -1    0    0  501    0  0.00000000000E+00  0.00000000000E+00  0.40579610839E+03  0.40579610839E+03  0.00000000000E+00 0. -1.
         -4   -1    0    0    0  501 -0.00000000000E+00 -0.00000000000E+00 -0.28020884400E+03  0.28020884400E+03  0.00000000000E+00 0.  1.
         25    2    1    2    0    0 -0.19083178894E+03  0.25511777875E+03  0.32241771820E+02  0.34378844369E+03  0.12509640066E+03 0.  0.
         23    2    1    2    0    0  0.19083178894E+03 -0.25511777875E+03  0.93345492571E+02  0.34221650870E+03  0.83047607628E+02 0.  0.
          5    1    3    3  502    0 -0.35831215642E+02  0.14812352098E+03  0.30051618524E+02  0.15538669717E+03  0.41800000000E+01 0. -1.
         -5    1    3    3    0  502 -0.15500057330E+03  0.10699425778E+03  0.21901532958E+01  0.18840174652E+03  0.41800000000E+01 0. -1.
        -11    1    4    4    0    0  0.15578746508E+03 -0.18740101480E+03  0.34982897822E+02  0.24619642110E+03  0.00000000000E+00 0.  1.
         11    1    4    4    0    0  0.35044323865E+02 -0.67716763956E+02  0.58362594749E+02  0.96020087595E+02  0.00000000000E+00 0. -1.
</event>
<event>
 8    1  0.3710605E-009  0.3179009E+03  0.7561462E-02  0.1076619E+00
         -1   -1    0    0    0  501 -0.00000000000E+00  0.00000000000E+00  0.11182164153E+03  0.11182164153E+03  0.00000000000E+00 0.  1.
          1   -1    0    0  501    0  0.00000000000E+00 -0.00000000000E+00 -0.94945619120E+03  0.94945619120E+03  0.00000000000E+00 0. -1.
         25    2    1    2    0    0  0.30187015120E+03 -0.20710906803E+02 -0.51261906930E+03  0.60825992748E+03  0.12508916551E+03 0.  0.
         23    2    1    2    0    0 -0.30187015120E+03  0.20710906803E+02 -0.32501548038E+03  0.45301790524E+03  0.89641676366E+02 0.  0.
          5    1    3    3  502    0  0.24447532198E+03 -0.65601043915E+02 -0.37442609288E+03  0.45197793248E+03  0.41800000000E+01 0. -1.
         -5    1    3    3    0  502  0.57394829220E+02  0.44890137111E+02 -0.13819297642E+03  0.15628199500E+03  0.41800000000E+01 0. -1.
        -11    1    4    4    0    0 -0.12601223102E+03 -0.23835135310E+02 -0.17868855692E+03  0.21994725826E+03  0.00000000000E+00 0. -1.
         11    1    4    4    0    0 -0.17585792018E+03  0.44546042113E+02 -0.14632692346E+03  0.23307064698E+03  0.00000000000E+00 0.  1.
</event>
<event>
 8    1  0.3710605E-009  0.1466836E+03  0.7561462E-02  0.1204608E+00
         -1   -1    0    0    0  501 -0.00000000000E+00  0.00000000000E+00  0.39203131644E+02  0.39203131644E+02  0.00000000000E+00 0.  1.
          1   -1    0    0  501    0  0.00000000000E+00 -0.00000000000E+00 -0.71373007676E+03  0.71373007676E+03  0.00000000000E+00 0. -1.
         25    2    1    2    0    0 -0.96360939825E+02  0.77626718073E+02 -0.29402659008E+03  0.34265228109E+03  0.12509041520E+03 0.  0.
         23    2    1    2    0    0  0.96360939825E+02 -0.77626718073E+02 -0.38050035504E+03  0.41028092732E+03  0.90766629649E+02 0.  0.
          5    1    3    3  502    0  0.66293238595E+01 -0.17424857141E+02 -0.10814192466E+03  0.10981676489E+03  0.41800000000E+01 0. -1.
         -5    1    3    3    0  502 -0.10299026368E+03  0.95051575213E+02 -0.18588466542E+03  0.23283551620E+03  0.41800000000E+01 0. -1.
        -11    1    4    4    0    0  0.50887112045E+02 -0.72088509860E+02 -0.14023020429E+03  0.16568271370E+03  0.00000000000E+00 0.  1.
         11    1    4    4    0    0  0.45473827780E+02 -0.55382082130E+01 -0.24027015075E+03  0.24459821362E+03  0.00000000000E+00 0. -1.
</event>
<event>
 8    1  0.3710605E-009  0.6741275E+02  0.7561462E-02  0.1369119E+00
         -1   -1    0    0    0  501 -0.00000000000E+00  0.00000000000E+00  0.14918131037E+04  0.14918131037E+04  0.00000000000E+00 0.  1.
          1   -1    0    0  501    0  0.00000000000E+00 -0.00000000000E+00 -0.16579606344E+02  0.16579606344E+02  0.00000000000E+00 0. -1.
         25    2    1    2    0    0 -0.13936100395E+02 -0.41312581980E+02  0.12953771341E+04  0.13021330270E+04  0.12509019110E+03 0.  0.
         23    2    1    2    0    0  0.13936100395E+02  0.41312581980E+02  0.17985636324E+03  0.20625968311E+03  0.91070308860E+02 0.  0.
          5    1    3    3  502    0 -0.42790021312E+02 -0.16433477647E+02  0.11728146001E+04  0.11737174292E+04  0.41800000000E+01 0.  1.
         -5    1    3    3    0  502  0.28853920917E+02 -0.24879104333E+02  0.12256253408E+03  0.12841559775E+03  0.41800000000E+01 0.  1.
        -11    1    4    4    0    0  0.20921762626E+02  0.24216417271E+02  0.18446874695E+03  0.18722412670E+03  0.00000000000E+00 0.  1.
         11    1    4    4    0    0 -0.69856622306E+01  0.17096164709E+02 -0.46123837088E+01  0.19035556415E+02  0.00000000000E+00 0. -1.
</event>
<event>
 8    1  0.3710605E-009  0.1848663E+03  0.7561462E-02  0.1163175E+00
         -1   -1    0    0    0  501 -0.00000000000E+00  0.00000000000E+00  0.22729841820E+03  0.22729841820E+03  0.00000000000E+00 0.  1.
          1   -1    0    0  501    0  0.00000000000E+00 -0.00000000000E+00 -0.19189569734E+03  0.19189569734E+03  0.00000000000E+00 0. -1.
         25    2    1    2    0    0 -0.34469784856E+02  0.15119897404E+03  0.10185739513E+03  0.22376762210E+03  0.12509086272E+03 0.  0.
         23    2    1    2    0    0  0.34469784856E+02 -0.15119897404E+03 -0.66454674270E+02  0.19542649344E+03  0.98620458270E+02 0.  0.
          5    1    3    3  502    0 -0.70506961306E+02  0.68279704884E+02  0.88605683237E+02  0.13229432790E+03  0.41800000000E+01 0. -1.
         -5    1    3    3    0  502  0.36037176450E+02  0.82919269153E+02  0.13251711897E+02  0.91473294199E+02  0.41800000000E+01 0. -1.
        -11    1    4    4    0    0 -0.18656867798E+02 -0.11545772868E+03 -0.58907683338E+02  0.13095297241E+03  0.00000000000E+00 0.  1.
         11    1    4    4    0    0  0.53126652654E+02 -0.35741245361E+02 -0.75469909317E+01  0.64473521032E+02  0.00000000000E+00 0. -1.
</event>
<event>
 8    1  0.3710605E-009  0.1072181E+03  0.7561462E-02  0.1265810E+00
          2   -1    0    0  501    0  0.00000000000E+00  0.00000000000E+00  0.10905734363E+03  0.10905734363E+03  0.00000000000E+00 0. -1.
         -2   -1    0    0    0  501 -0.00000000000E+00 -0.00000000000E+00 -0.12144644612E+03  0.12144644612E+03  0.00000000000E+00 0.  1.
         25    2    1    2    0    0 -0.24316825141E+02  0.58513886601E+00  0.23839477455E+02  0.12964396218E+03  0.12509031086E+03 0.  0.
         23    2    1    2    0    0  0.24316825141E+02 -0.58513886601E+00 -0.36228579945E+02  0.10085982757E+03  0.90931537109E+02 0.  0.
          5    1    3    3  502    0  0.49524510069E+02  0.89628749295E+01 -0.28204275752E+01  0.50580998767E+02  0.41800000000E+01 0.  1.
         -5    1    3    3    0  502 -0.73841335210E+02 -0.83777360635E+01  0.26659905030E+02  0.79062963411E+02  0.41800000000E+01 0.  1.
        -11    1    4    4    0    0  0.37044396236E+02  0.35456707725E+02 -0.35969199689E+02  0.62635842306E+02  0.00000000000E+00 0.  1.
         11    1    4    4    0    0 -0.12727571095E+02 -0.36041846591E+02 -0.25938025584E+00  0.38223985268E+02  0.00000000000E+00 0. -1.
</event>
<event>
 8    1  0.3710605E-009  0.1064335E+03  0.7561462E-02  0.1267321E+00
         -2   -1    0    0    0  501 -0.00000000000E+00  0.00000000000E+00  0.60764232731E+02  0.60764232731E+02  0.00000000000E+00 0.  1.
          2   -1    0    0  501    0  0.00000000000E+00 -0.00000000000E+00 -0.30421663640E+03  0.30421663640E+03  0.00000000000E+00 0. -1.
         25    2    1    2    0    0 -0.84401214673E+02  0.22741367044E+02 -0.14594563879E+03  0.21115945057E+03  0.12508976486E+03 0.  0.
         23    2    1    2    0    0  0.84401214673E+02 -0.22741367044E+02 -0.97506764876E+02  0.15382141855E+03  0.80701454727E+02 0.  0.
          5    1    3    3  502    0 -0.18215428075E+02 -0.24765923093E+02  0.12099576794E+02  0.33302025843E+02  0.41800000000E+01 0. -1.
         -5    1    3    3    0  502 -0.66185786598E+02  0.47507290138E+02 -0.15804521558E+03  0.17785742473E+03  0.41800000000E+01 0. -1.
        -11    1    4    4    0    0  0.20095243044E+02  0.15559394370E+02 -0.69336991471E+02  0.73848032692E+02  0.00000000000E+00 0. -1.
         11    1    4    4    0    0  0.64305971630E+02 -0.38300761414E+02 -0.28169773404E+02  0.79973385859E+02  0.00000000000E+00 0.  1.
</event>
<event>
 8    1  0.3710605E-009  0.2037559E+03  0.7561462E-02  0.1146608E+00
          1   -1    0    0  501    0  0.00000000000E+00  0.00000000000E+00  0.19286836468E+03  0.19286836468E+03  0.00000000000E+00 0. -1.
         -1   -1    0    0    0  501 -0.00000000000E+00 -0.00000000000E+00 -0.24852685775E+03  0.24852685775E+03  0.00000000000E+00 0.  1.
         25    2    1    2    0    0 -0.67207137277E+02 -0.17556020333E+03 -0.71150570561E+01  0.22590949974E+03  0.12508514597E+03 0.  0.
         23    2    1    2    0    0  0.67207137277E+02  0.17556020333E+03 -0.48543436019E+02  0.21548572269E+03  0.93485010606E+02 0.  0.
          5    1    3    3  502    0 -0.92165866129E+02 -0.97825265169E+02  0.27297558210E+02  0.13721136421E+03  0.41800000000E+01 0. -1.
         -5    1    3    3    0  502  0.24958728852E+02 -0.77734938162E+02 -0.34412615266E+02  0.88698135530E+02  0.41800000000E+01 0. -1.
        -11    1    4    4    0    0  0.64480702622E+02  0.12492821275E+03 -0.73863431213E+02  0.15881003061E+03  0.00000000000E+00 0.  1.
         11    1    4    4    0    0  0.27264346551E+01  0.50631990586E+02  0.25319995194E+02  0.56675692084E+02  0.00000000000E+00 0. -1.
</event>
<event>
 8    1  0.3710605E-009  0.1767416E+03  0.7561462E-02  0.1170994E+00
          1   -1    0    0  501    0  0.00000000000E+00  0.00000000000E+00  0.81791468876E+02  0.81791468876E+02  0.00000000000E+00 0. -1.
         -1   -1    0    0    0  501 -0.00000000000E+00 -0.00000000000E+00 -0.44322187896E+03  0.44322187896E+03  0.00000000000E+00 0.  1.
         25    2    1    2    0    0 -0.10693954086E+03 -0.10677101766E+03 -0.13504394178E+03  0.23815719627E+03  0.12508344541E+03 0.  0.
         23    2    1    2    0    0  0.10693954086E+03  0.10677101766E+03 -0.22638646831E+03  0.28685615156E+03  0.90551107378E+02 0.  0.
          5    1    3    3  502    0 -0.45538431932E+02  0.10337168868E+02 -0.84308195423E+02  0.96467352293E+02  0.41800000000E+01 0.  1.
         -5    1    3    3    0  502 -0.61401108923E+02 -0.11710818653E+03 -0.50735746357E+02  0.14168984398E+03  0.41800000000E+01 0.  1.
        -11    1    4    4    0    0  0.10238373073E+03  0.44115161831E+02 -0.12412681726E+03  0.16684136953E+03  0.00000000000E+00 0. -1.
         11    1    4    4    0    0  0.45558101214E+01  0.62655855828E+02 -0.10225965104E+03  0.12001478203E+03  0.00000000000E+00 0.  1.
</event>
<event>
 8    1  0.3710605E-009  0.2885963E+03  0.7561462E-02  0.1091084E+00
         -2   -1    0    0    0  501 -0.00000000000E+00  0.00000000000E+00  0.87578404771E+02  0.87578404771E+02  0.00000000000E+00 0. -1.
          2   -1    0    0  501    0  0.00000000000E+00 -0.00000000000E+00 -0.10317308248E+04  0.10317308248E+04  0.00000000000E+00 0.  1.
         25    2    1    2    0    0 -0.23493381791E+03 -0.13105200065E+03 -0.33757612470E+03  0.44941543987E+03  0.12509225374E+03 0.  0.
         23    2    1    2    0    0  0.23493381791E+03  0.13105200065E+03 -0.60657629536E+03  0.66989378974E+03  0.91947603386E+02 0.  0.
          5    1    3    3  502    0 -0.63934797543E+02 -0.10049538006E+03 -0.10318968850E+03  0.15764695989E+03  0.41800000000E+01 0.  1.
         -5    1    3    3    0  502 -0.17099902037E+03 -0.30556620584E+02 -0.23438643621E+03  0.29176847997E+03  0.41800000000E+01 0.  1.
        -11    1    4    4    0    0  0.12173383003E+03  0.11929729407E+03 -0.36931007205E+03  0.40674426740E+03  0.00000000000E+00 0.  1.
         11    1    4    4    0    0  0.11319998788E+03  0.11754706573E+02 -0.23726622331E+03  0.26314952234E+03  0.00000000000E+00 0. -1.
</event>
<event>
 8    1  0.3710605E-009  0.9837031E+02  0.7561462E-02  0.1283761E+00
          1   -1    0    0  501    0  0.00000000000E+00  0.00000000000E+00  0.55293486353E+02  0.55293486353E+02  0.00000000000E+00 0. -1.
         -1   -1    0    0    0  501 -0.00000000000E+00 -0.00000000000E+00 -0.35240159108E+03  0.35240159108E+03  0.00000000000E+00 0.  1.
         25    2    1    2    0    0  0.42232644388E+02  0.17235444706E+02 -0.50891671373E+02  0.14254328023E+03  0.12509183713E+03 0.  0.
         23    2    1    2    0    0 -0.42232644388E+02 -0.17235444706E+02 -0.24621643335E+03  0.26515179720E+03  0.87191093010E+02 0.  0.
          5    1    3    3  502    0 -0.27491674153E+02 -0.22406191969E+02  0.14925916024E+02  0.38705102448E+02  0.41800000000E+01 0. -1.
         -5    1    3    3    0  502  0.69724318542E+02  0.39641636675E+02 -0.65817587397E+02  0.10383817778E+03  0.41800000000E+01 0. -1.
        -11    1    4    4    0    0 -0.77175235427E+01 -0.39101790672E+02 -0.46250368361E+02  0.61054129893E+02  0.00000000000E+00 0.  1.
         11    1    4    4    0    0 -0.34515120846E+02  0.21866345967E+02 -0.19996606499E+03  0.20409766731E+03  0.00000000000E+00 0. -1.
</event>
<event>
 8    1  0.3710605E-009  0.1899481E+03  0.7561462E-02  0.1158508E+00
          2   -1    0    0  501    0  0.00000000000E+00  0.00000000000E+00  0.25397741750E+03  0.25397741750E+03  0.00000000000E+00 0. -1.
         -2   -1    0    0    0  501 -0.00000000000E+00 -0.00000000000E+00 -0.14422224712E+03  0.14422224712E+03  0.00000000000E+00 0.  1.
         25    2    1    2    0    0 -0.61029899732E+01 -0.15785728913E+03  0.40442240674E+02  0.20552301509E+03  0.12509182500E+03 0.  0.
         23    2    1    2    0    0  0.61029899732E+01  0.15785728913E+03  0.69312929706E+02  0.19267664953E+03  0.85812812745E+02 0.  0.
          5    1    3    3  502    0  0.22199181812E+02 -0.16865438392E+03  0.27721177398E+02  0.17240371505E+03  0.41800000000E+01 0. -1.
         -5    1    3    3    0  502 -0.28302171786E+02  0.10797094790E+02  0.12721063277E+02  0.33119300031E+02  0.41800000000E+01 0. -1.
        -11    1    4    4    0    0  0.42229356827E+02  0.11817282557E+03  0.41122262043E+02  0.13205747127E+03  0.00000000000E+00 0.  1.
         11    1    4    4    0    0 -0.36126366854E+02  0.39684463556E+02  0.28190667662E+02  0.60619178261E+02  0.00000000000E+00 0. -1.
</event>
<event>
 8    1  0.3710605E-009  0.8249062E+02  0.7561462E-02  0.1322128E+00
          1   -1    0    0  501    0  0.00000000000E+00  0.00000000000E+00  0.33140474864E+03  0.33140474864E+03  0.00000000000E+00 0. -1.
         -1   -1    0    0    0  501 -0.00000000000E+00 -0.00000000000E+00 -0.52750922330E+02  0.52750922330E+02  0.00000000000E+00 0.  1.
         25    2    1    2    0    0 -0.27069692915E+02  0.22300696316E+02  0.24331311864E+03  0.27582517872E+03  0.12509263040E+03 0.  0.
         23    2    1    2    0    0  0.27069692915E+02 -0.22300696316E+02  0.35340707669E+02  0.10833049225E+03  0.96210397581E+02 0.  0.
          5    1    3    3  502    0 -0.44128644671E+01 -0.38217593712E+02  0.18395296309E+03  0.18797931501E+03  0.41800000000E+01 0.  1.
         -5    1    3    3    0  502 -0.22656828448E+02  0.60518290028E+02  0.59360155552E+02  0.87845863707E+02  0.41800000000E+01 0.  1.
        -11    1    4    4    0    0  0.83883824273E+01 -0.36885606996E+02  0.62019220590E+02  0.72645004549E+02  0.00000000000E+00 0.  1.
         11    1    4    4    0    0  0.18681310488E+02  0.14584910680E+02 -0.26678512921E+02  0.35685487705E+02  0.00000000000E+00 0. -1.
</event>
<event>
 8    1  0.3710605E-009  0.1048963E+03  0.7561462E-02  0.1270324E+00
          2   -1    0    0  501    0  0.00000000000E+00  0.00000000000E+00  0.57336377399E+03  0.57336377399E+03  0.00000000000E+00 0. -1.
         -2   -1    0    0    0  501 -0.00000000000E+00 -0.00000000000E+00 -0.29095903965E+02  0.29095903965E+02  0.00000000000E+00 0.  1.
         25    2    1    2    0    0  0.46193665372E+02 -0.15954131756E+02  0.18305746948E+03  0.22703872923E+03  0.12509259930E+03 0.  0.
         23    2    1    2    0    0 -0.46193665372E+02  0.15954131756E+02  0.36121040055E+03  0.37542094872E+03  0.89886296142E+02 0.  0.
          5    1    3    3  502    0  0.45342548785E+02  0.39675980358E+02  0.37342606522E+02  0.71007554595E+02  0.41800000000E+01 0.  1.
         -5    1    3    3    0  502  0.85111658700E+00 -0.55630112115E+02  0.14571486296E+03  0.15603117464E+03  0.41800000000E+01 0.  1.
        -11    1    4    4    0    0  0.20577077198E+02 -0.88166083466E+01  0.35148558256E+02  0.41672171005E+02  0.00000000000E+00 0.  1.
         11    1    4    4    0    0 -0.66770742570E+02  0.24770740103E+02  0.32606184229E+03  0.33374877772E+03  0.00000000000E+00 0. -1.
</event>
<event>
 8    1  0.3710605E-009  0.8932850E+02  0.7561462E-02  0.1304486E+00
         -1   -1    0    0    0  501 -0.00000000000E+00  0.00000000000E+00  0.85618421063E+02  0.85618421063E+02  0.00000000000E+00 0.  1.
          1   -1    0    0  501    0  0.00000000000E+00 -0.00000000000E+00 -0.21649581956E+03  0.21649581956E+03  0.00000000000E+00 0. -1.
         25    2    1    2    0    0 -0.77948649818E+02 -0.12130246592E+01 -0.57315199109E+02  0.15814481713E+03  0.12508911903E+03 0.  0.
         23    2    1    2    0    0  0.77948649818E+02  0.12130246592E+01 -0.73562199389E+02  0.14396942350E+03  0.96116254012E+02 0.  0.
          5    1    3    3  502    0 -0.70685065498E+02 -0.59461652777E+01 -0.95347699646E+02  0.11891337853E+03  0.41800000000E+01 0.  1.
         -5    1    3    3    0  502 -0.72635843198E+01  0.47331406184E+01  0.38032500537E+02  0.39231438597E+02  0.41800000000E+01 0.  1.
        -11    1    4    4    0    0  0.54369156487E+02 -0.27411786685E+02  0.77650124532E+00  0.60893465828E+02  0.00000000000E+00 0.  1.
         11    1    4    4    0    0  0.23579493331E+02  0.28624811344E+02 -0.74338700635E+02  0.83075957667E+02  0.00000000000E+00 0. -1.
</event>
<event>
 8    1  0.3710605E-009  0.1106178E+03  0.7561462E-02  0.1259430E+00
          2   -1    0    0  501    0  0.00000000000E+00  0.00000000000E+00  0.20443655678E+03  0.20443655678E+03  0.00000000000E+00 0. -1.
         -2   -1    0    0    0  501 -0.00000000000E+00 -0.00000000000E+00 -0.71607553975E+02  0.71607553975E+02  0.00000000000E+00 0.  1.
         25    2    1    2    0    0 -0.24539449441E+02  0.30030173315E+02  0.11966439184E+03  0.17740036828E+03  0.12508928053E+03 0.  0.
         23    2    1    2    0    0  0.24539449441E+02 -0.30030173315E+02  0.13164610969E+02  0.98643742474E+02  0.89740097277E+02 0.  0.
          5    1    3    3  502    0  0.97724860998E+01 -0.42628900431E+02  0.70615760553E+02  0.83167197109E+02  0.41800000000E+01 0. -1.
         -5    1    3    3    0  502 -0.34311935540E+02  0.72659073746E+02  0.49048631283E+02  0.94233171170E+02  0.41800000000E+01 0. -1.
        -11    1    4    4    0    0  0.57992576876E+02 -0.13583155752E+02  0.14896392254E+01  0.59580702563E+02  0.00000000000E+00 0.  1.
         11    1    4    4    0    0 -0.33453127435E+02 -0.16447017563E+02  0.11674971743E+02  0.39063039911E+02  0.00000000000E+00 0. -1.
</event>
<event>
 8    1  0.3710605E-009  0.2817361E+03  0.7561462E-02  0.1094744E+00
         -2   -1    0    0    0  501 -0.00000000000E+00  0.00000000000E+00  0.30979592924E+03  0.30979592924E+03  0.00000000000E+00 0.  1.
          2   -1    0    0  501    0  0.00000000000E+00 -0.00000000000E+00 -0.41200809458E+03  0.41200809458E+03  0.00000000000E+00 0. -1.
         25    2    1    2    0    0 -0.27296172664E+03  0.49779549263E+02 -0.25054711137E+03  0.39421781308E+03  0.12509085257E+03 0.  0.
         23    2    1    2    0    0  0.27296172664E+03 -0.49779549263E+02  0.14833494603E+03  0.32758621073E+03  0.91232458649E+02 0.  0.
          5    1    3    3  502    0 -0.19808897808E+03  0.59481305827E+01 -0.23245249825E+03  0.30549346938E+03  0.41800000000E+01 0.  1.
         -5    1    3    3    0  502 -0.74872748565E+02  0.43831418680E+02 -0.18094613126E+02  0.88724343702E+02  0.41800000000E+01 0.  1.
        -11    1    4    4    0    0  0.21553649533E+03 -0.29790606522E+02  0.70303569102E+02  0.22866143725E+03  0.00000000000E+00 0. -1.
         11    1    4    4    0    0  0.57425231313E+02 -0.19988942740E+02  0.78031376931E+02  0.98924773484E+02  0.00000000000E+00 0.  1.
</event>
<event>
 8    1  0.3710605E-009  0.7550129E+02  0.7561462E-02  0.1342326E+00
         -1   -1    0    0    0  501 -0.00000000000E+00  0.00000000000E+00  0.31917771657E+02  0.31917771657E+02  0.00000000000E+00 0.  1.
          1   -1    0    0  501    0  0.00000000000E+00 -0.00000000000E+00 -0.45507596696E+03  0.45507596696E+03  0.00000000000E+00 0. -1.
         25    2    1    2    0    0  0.25461508180E+02 -0.80635568219E-01 -0.15439154750E+03  0.20032732762E+03  0.12508394522E+03 0.  0.
         23    2    1    2    0    0 -0.25461508180E+02  0.80635568219E-01 -0.26876664781E+03  0.28666641100E+03  0.96404488070E+02 0.  0.
          5    1    3    3  502    0  0.14136694230E+02 -0.32966956473E+02 -0.16072102781E+03  0.16472822321E+03  0.41800000000E+01 0. -1.
         -5    1    3    3    0  502  0.11324813950E+02  0.32886320905E+02  0.63294803105E+01  0.35599104408E+02  0.41800000000E+01 0. -1.
        -11    1    4    4    0    0 -0.44982091482E+02  0.22362882909E+02 -0.24060485556E+03  0.24579296899E+03  0.00000000000E+00 0.  1.
         11    1    4    4    0    0  0.19520583302E+02 -0.22282247341E+02 -0.28161792249E+02  0.40873442009E+02  0.00000000000E+00 0. -1.
</event>
<event>
 8    1  0.3710605E-009  0.1952677E+03  0.7561462E-02  0.1153794E+00
         -1   -1    0    0    0  501 -0.00000000000E+00  0.00000000000E+00  0.32153006336E+03  0.32153006336E+03  0.00000000000E+00 0.  1.
          1   -1    0    0  501    0  0.00000000000E+00 -0.00000000000E+00 -0.14329251649E+03  0.14329251649E+03  0.00000000000E+00 0. -1.
         25    2    1    2    0    0  0.12984425834E+03  0.13132318355E+03  0.82725188681E+02  0.23789746932E+03  0.12508572703E+03 0.  0.
         23    2    1    2    0    0 -0.12984425834E+03 -0.13132318355E+03  0.95512358194E+02  0.22692511053E+03  0.90923513229E+02 0.  0.
          5    1    3    3  502    0  0.84317887880E+02  0.85150909308E+02  0.11429850591E+03  0.16565568033E+03  0.41800000000E+01 0. -1.
         -5    1    3    3    0  502  0.45526370463E+02  0.46172274240E+02 -0.31573317230E+02  0.72241788994E+02  0.41800000000E+01 0. -1.
        -11    1    4    4    0    0 -0.14277319170E+03 -0.10813085944E+03  0.79807726405E+02  0.19607585324E+03  0.00000000000E+00 0.  1.
         11    1    4    4    0    0  0.12928933357E+02 -0.23192324108E+02  0.15704631789E+02  0.30849257283E+02  0.00000000000E+00 0. -1.
</event>
<event>
 8    1  0.3710605E-009  0.9967701E+02  0.7561462E-02  0.1280977E+00
          1   -1    0    0  501    0  0.00000000000E+00  0.00000000000E+00  0.47413348361E+03  0.47413348361E+03  0.00000000000E+00 0. -1.
         -1   -1    0    0    0  501 -0.00000000000E+00 -0.00000000000E+00 -0.40115914722E+02  0.40115914722E+02  0.00000000000E+00 0.  1.
         25    2    1    2    0    0 -0.60714297754E+02  0.46280199060E+02  0.30888198253E+03  0.34188527962E+03  0.12509749204E+03 0.  0.
         23    2    1    2    0    0  0.60714297754E+02 -0.46280199060E+02  0.12513558636E+03  0.17236411871E+03  0.90677404396E+02 0.  0.
          5    1    3    3  502    0 -0.42779916108E+02  0.72620605837E+02  0.29507662778E+03  0.30690643896E+03  0.41800000000E+01 0. -1.
         -5    1    3    3    0  502 -0.17934381646E+02 -0.26340406777E+02  0.13805354749E+02  0.34978840661E+02  0.41800000000E+01 0. -1.
        -11    1    4    4    0    0  0.57356932177E+02 -0.27247126044E+02  0.21649746550E+02  0.67089008579E+02  0.00000000000E+00 0.  1.
         11    1    4    4    0    0  0.33573655770E+01 -0.19033073016E+02  0.10348583981E+03  0.10527511013E+03  0.00000000000E+00 0. -1.
</event>
<event>
 8    1  0.3710605E-009  0.7259602E+02  0.7561462E-02  0.1351481E+00
         -1   -1    0    0    0  501 -0.00000000000E+00  0.00000000000E+00  0.51405612069E+03  0.51405612069E+03  0.00000000000E+00 0.  1.
          1   -1    0    0  501    0  0.00000000000E+00 -0.00000000000E+00 -0.25873755479E+02  0.25873755479E+02  0.00000000000E+00 0. -1.
         25    2    1    2    0    0 -0.10904721578E+02 -0.10916574769E+02  0.28788697343E+03  0.31426818402E+03  0.12508995747E+03 0.  0.
         23    2    1    2    0    0  0.10904721578E+02  0.10916574769E+02  0.20029539178E+03  0.22566169215E+03  0.10279528577E+03 0.  0.
          5    1    3    3  502    0 -0.30368268867E+02 -0.18588851818E+02  0.12367108449E+02  0.37923540674E+02  0.41800000000E+01 0. -1.
         -5    1    3    3    0  502  0.19463547289E+02  0.76722770491E+01  0.27551986498E+03  0.27634464335E+03  0.41800000000E+01 0. -1.
        -11    1    4    4    0    0  0.17185747121E+02  0.47694667956E+02  0.51524372248E+02  0.72283415740E+02  0.00000000000E+00 0. -1.
         11    1    4    4    0    0 -0.62810255436E+01 -0.36778093187E+02  0.14877101954E+03  0.15337827641E+03  0.00000000000E+00 0.  1.
</event>
<event>
 8    1  0.3710605E-009  0.9054009E+02  0.7561462E-02  0.1301549E+00
          2   -1    0    0  501    0  0.00000000000E+00  0.00000000000E+00  0.10574394976E+04  0.10574394976E+04  0.00000000000E+00 0.  1.
         -2   -1    0    0    0  501 -0.00000000000E+00 -0.00000000000E+00 -0.17279242665E+02  0.17279242665E+02  0.00000000000E+00 0. -1.
         25    2    1    2    0    0  0.68254233723E+02 -0.40336278458E+02  0.61729697827E+03  0.63481379904E+03  0.12508934522E+03 0.  0.
         23    2    1    2    0    0 -0.68254233723E+02  0.40336278458E+02  0.42286327665E+03  0.43990494122E+03  0.91746121345E+02 0.  0.
          5    1    3    3  502    0  0.25655706201E+01 -0.40445453938E+01 -0.49416635614E+01  0.80518903869E+01  0.41800000000E+01 0.  1.
         -5    1    3    3    0  502  0.65688663103E+02 -0.36291733064E+02  0.62223864183E+03  0.62676190865E+03  0.41800000000E+01 0.  1.
        -11    1    4    4    0    0 -0.57945869279E+02  0.56146524317E+02  0.40794335263E+03  0.41584604713E+03  0.00000000000E+00 0.  1.
         11    1    4    4    0    0 -0.10308364444E+02 -0.15810245859E+02  0.14919924022E+02  0.24058894082E+02  0.00000000000E+00 0. -1.
</event>
<event>
 8    1  0.3710605E-009  0.1082416E+03  0.7561462E-02  0.1263861E+00
          1   -1    0    0  501    0  0.00000000000E+00  0.00000000000E+00  0.69285537573E+03  0.69285537573E+03  0.00000000000E+00 0. -1.
         -1   -1    0    0    0  501 -0.00000000000E+00 -0.00000000000E+00 -0.22936619698E+02  0.22936619698E+02  0.00000000000E+00 0.  1.
         25    2    1    2    0    0  0.58412228123E+02  0.25412459454E+00  0.46473070652E+03  0.48480300418E+03  0.12508904951E+03 0.  0.
         23    2    1    2    0    0 -0.58412228123E+02 -0.25412459454E+00  0.20518804951E+03  0.23098899125E+03  0.88553517384E+02 0.  0.
          5    1    3    3  502    0  0.45802449296E+02 -0.53393052748E+02  0.15619583837E+03  0.17135721393E+03  0.41800000000E+01 0.  1.
         -5    1    3    3    0  502  0.12609778828E+02  0.53647177342E+02  0.30853486815E+03  0.31344579025E+03  0.41800000000E+01 0.  1.
        -11    1    4    4    0    0 -0.55539442504E+02 -0.28450477619E+02  0.74116579078E+02  0.96888217264E+02  0.00000000000E+00 0.  1.
         11    1    4    4    0    0 -0.28727856199E+01  0.28196353024E+02  0.13107147044E+03  0.13410077398E+03  0.00000000000E+00 0. -1.
</event>
<event>
 8    1  0.3710605E-009  0.1398979E+03  0.7561462E-02  0.1213466E+00
         -1   -1    0    0    0  501 -0.00000000000E+00  0.00000000000E+00  0.30458678808E+02  0.30458678808E+02  0.00000000000E+00 0.  1.
          1   -1    0    0  501    0  0.00000000000E+00 -0.00000000000E+00 -0.10740799490E+04  0.10740799490E+04  0.00000000000E+00 0. -1.
         25    2    1    2    0    0 -0.10000683940E+03 -0.36985568950E+02 -0.84703256666E+03  0.86283310201E+03  0.12508993845E+03 0.  0.
         23    2    1    2    0    0  0.10000683940E+03  0.36985568950E+02 -0.19658870351E+03  0.24170552578E+03  0.91679564822E+02 0.  0.
          5    1    3    3  502    0  0.36060085004E+01 -0.49997523686E+02 -0.42880690497E+03  0.43174713644E+03  0.41800000000E+01 0. -1.
         -5    1    3    3    0  502 -0.10361284790E+03  0.13011954736E+02 -0.41822566169E+03  0.43108596557E+03  0.41800000000E+01 0. -1.
        -11    1    4    4    0    0  0.63783998737E+02  0.55278232062E+02 -0.72892474172E+02  0.11152306589E+03  0.00000000000E+00 0. -1.
         11    1    4    4    0    0  0.36222840663E+02 -0.18292663112E+02 -0.12369622934E+03  0.13018245989E+03  0.00000000000E+00 0.  1.
</event>
<event>
 8    1  0.3710605E-009  0.1314566E+03  0.7561462E-02  0.1225310E+00
          4   -1    0    0  501    0  0.00000000000E+00  0.00000000000E+00  0.43496851172E+02  0.43496851172E+02  0.00000000000E+00 0. -1.
         -4   -1    0    0    0  501 -0.00000000000E+00 -0.00000000000E+00 -0.51212558345E+03  0.51212558345E+03  0.00000000000E+00 0.  1.
         25    2    1    2    0    0  0.41911164737E+02  0.74439578760E+02 -0.35412287898E+03  0.38515879858E+03  0.12508593082E+03 0.  0.
         23    2    1    2    0    0 -0.41911164737E+02 -0.74439578760E+02 -0.11450585329E+03  0.17046363604E+03  0.92997119080E+02 0.  0.
          5    1    3    3  502    0  0.75005140234E+02  0.70545268337E+02 -0.17644418013E+03  0.20433410642E+03  0.41800000000E+01 0. -1.
         -5    1    3    3    0  502 -0.33093975497E+02  0.38943104232E+01 -0.17767869885E+03  0.18082469216E+03  0.41800000000E+01 0. -1.
        -11    1    4    4    0    0 -0.69205574155E+02 -0.33036199265E+02 -0.69949824637E+02  0.10379682039E+03  0.00000000000E+00 0.  1.
         11    1    4    4    0    0  0.27294409419E+02 -0.41403379495E+02 -0.44556028654E+02  0.66666815647E+02  0.00000000000E+00 0. -1.
</event>
<event>
 8    1  0.3710605E-009  0.8513803E+02  0.7561462E-02  0.1315072E+00
          1   -1    0    0  501    0  0.00000000000E+00  0.00000000000E+00  0.22645011081E+03  0.22645011081E+03  0.00000000000E+00 0. -1.
         -1   -1    0    0    0  501 -0.00000000000E+00 -0.00000000000E+00 -0.54691094054E+02  0.54691094054E+02  0.00000000000E+00 0.  1.
         25    2    1    2    0    0 -0.95064662025E+01  0.16683286134E+02  0.12106972208E+03  0.17514205479E+03  0.12509259297E+03 0.  0.
         23    2    1    2    0    0  0.95064662025E+01 -0.16683286134E+02  0.50689294676E+02  0.10599915008E+03  0.91091768488E+02 0.  0.
          5    1    3    3  502    0  0.32550350696E+02  0.10641073981E+02 -0.11105138490E+02  0.36242989485E+02  0.41800000000E+01 0. -1.
         -5    1    3    3    0  502 -0.42056816899E+02  0.60422121531E+01  0.13217486057E+03  0.13889906530E+03  0.41800000000E+01 0. -1.
        -11    1    4    4    0    0 -0.14854657670E+02 -0.49801425425E+02  0.27491253588E+02  0.58792957509E+02  0.00000000000E+00 0.  1.
         11    1    4    4    0    0  0.24361123873E+02  0.33118139290E+02  0.23198041088E+02  0.47206192567E+02  0.00000000000E+00 0. -1.
</event>
<event>
 8    1  0.3710605E-009  0.1361170E+03  0.7561462E-02  0.1218651E+00
          3   -1    0    0  501    0  0.00000000000E+00  0.00000000000E+00  0.51180984801E+03  0.51180984801E+03  0.00000000000E+00 0. -1.
         -3   -1    0    0    0  501 -0.00000000000E+00 -0.00000000000E+00 -0.42974916326E+02  0.42974916326E+02  0.00000000000E+00 0.  1.
         25    2    1    2    0    0 -0.98879522626E+02 -0.41783886272E+01  0.26870380027E+03  0.31248096501E+03  0.12509197530E+03 0.  0.
         23    2    1    2    0    0  0.98879522626E+02  0.41783886272E+01  0.20013113141E+03  0.24230379933E+03  0.94149043988E+02 0.  0.
          5    1    3    3  502    0 -0.12452556904E+03  0.17221470387E+02  0.20827075534E+03  0.24330510951E+03  0.41800000000E+01 0.  1.
         -5    1    3    3    0  502  0.25646046416E+02 -0.21399859014E+02  0.60433044938E+02  0.69175855492E+02  0.41800000000E+01 0.  1.
        -11    1    4    4    0    0  0.72274482263E+02 -0.21917435916E+02  0.57604424534E+02  0.94985496311E+02  0.00000000000E+00 0.  1.
         11    1    4    4    0    0  0.26605040363E+02  0.26095824543E+02  0.14252670688E+03  0.14731830302E+03  0.00000000000E+00 0. -1.
</event>
<event>
 8    1  0.3710605E-009  0.7315409E+02  0.7561462E-02  0.1349684E+00
         -1   -1    0    0    0  501 -0.00000000000E+00  0.00000000000E+00  0.30513598855E+03  0.30513598855E+03  0.00000000000E+00 0.  1.
          1   -1    0    0  501    0  0.00000000000E+00 -0.00000000000E+00 -0.50232508081E+02  0.50232508081E+02  0.00000000000E+00 0. -1.
         25    2    1    2    0    0  0.24920288046E+02 -0.64490219397E+01  0.66411301551E+02  0.14394494825E+03  0.12508827488E+03 0.  0.
         23    2    1    2    0    0 -0.24920288046E+02  0.64490219397E+01  0.18849217892E+03  0.21142354839E+03  0.92238845708E+02 0.  0.
          5    1    3    3  502    0 -0.34644778574E+02  0.53202947322E+01 -0.18203135748E+02  0.39716404288E+02  0.41800000000E+01 0. -1.
         -5    1    3    3    0  502  0.59565066621E+02 -0.11769316672E+02  0.84614437299E+02  0.10422854396E+03  0.41800000000E+01 0. -1.
        -11    1    4    4    0    0 -0.30545668427E+02  0.19291827557E+02  0.19326493340E+03  0.19661268258E+03  0.00000000000E+00 0.  1.
         11    1    4    4    0    0  0.56253803802E+01 -0.12842805618E+02 -0.47727544787E+01  0.14810865804E+02  0.00000000000E+00 0. -1.
</event>
<event>
 8    1  0.3710605E-009  0.9309647E+02  0.7561462E-02  0.1295522E+00
         -2   -1    0    0    0  501 -0.00000000000E+00  0.00000000000E+00  0.12614013299E+03  0.12614013299E+03  0.00000000000E+00 0.  1.
          2   -1    0    0  501    0  0.00000000000E+00 -0.00000000000E+00 -0.10804007359E+03  0.10804007359E+03  0.00000000000E+00 0. -1.
         25    2    1    2    0    0 -0.84307950585E+00 -0.55674665722E+01 -0.33133546875E+02  0.12952783643E+03  0.12509165046E+03 0.  0.
         23    2    1    2    0    0  0.84307950585E+00  0.55674665722E+01  0.51233606276E+02  0.10465237015E+03  0.91079793030E+02 0.  0.
          5    1    3    3  502    0  0.52482451434E+02 -0.34547903907E+02 -0.71520093342E+01  0.63376565152E+02  0.41800000000E+01 0. -1.
         -5    1    3    3    0  502 -0.53325530940E+02  0.28980437335E+02 -0.25981537541E+02  0.66151271274E+02  0.41800000000E+01 0. -1.
        -11    1    4    4    0    0  0.21428636000E+02  0.25788792020E+02  0.64651730929E+02  0.72829214926E+02  0.00000000000E+00 0.  1.
         11    1    4    4    0    0 -0.20585556494E+02 -0.20221325448E+02 -0.13418124653E+02  0.31823155221E+02  0.00000000000E+00 0. -1.
</event>
<event>
 8    1  0.3710605E-009  0.8525426E+02  0.7561462E-02  0.1314769E+00
          2   -1    0    0  501    0  0.00000000000E+00  0.00000000000E+00  0.58527303379E+03  0.58527303379E+03  0.00000000000E+00 0. -1.
         -2   -1    0    0    0  501 -0.00000000000E+00 -0.00000000000E+00 -0.23106815041E+02  0.23106815041E+02  0.00000000000E+00 0.  1.
         25    2    1    2    0    0  0.26858672125E+02  0.22139466065E+02  0.33621694176E+03  0.36041755147E+03  0.12508970884E+03 0.  0.
         23    2    1    2    0    0 -0.26858672125E+02 -0.22139466065E+02  0.22594927699E+03  0.24796229736E+03  0.96024376659E+02 0.  0.
          5    1    3    3  502    0  0.46026114899E+02  0.26524428837E+02  0.48666831876E+02  0.72165653206E+02  0.41800000000E+01 0. -1.
         -5    1    3    3    0  502 -0.19167442774E+02 -0.43849627722E+01  0.28755010988E+03  0.28825189827E+03  0.41800000000E+01 0. -1.
        -11    1    4    4    0    0 -0.41418485200E+01  0.35201003640E+02  0.48288822162E+02  0.59900550183E+02  0.00000000000E+00 0.  1.
         11    1    4    4    0    0 -0.22716823605E+02 -0.57340469705E+02  0.17766045483E+03  0.18806174718E+03  0.00000000000E+00 0. -1.
</event>
<event>
 8    1  0.3710605E-009  0.1113705E+03  0.7561462E-02  0.1258053E+00
         -1   -1    0    0    0  501 -0.00000000000E+00  0.00000000000E+00  0.35387615947E+02  0.35387615947E+02  0.00000000000E+00 0.  1.
          1   -1    0    0  501    0  0.00000000000E+00 -0.00000000000E+00 -0.57890491456E+03  0.57890491456E+03  0.00000000000E+00 0. -1.
         25    2    1    2    0    0 -0.35926466261E+02  0.71792375140E+02 -0.40082144767E+03  0.42749269344E+03  0.12508922388E+03 0.  0.
         23    2    1    2    0    0  0.35926466261E+02 -0.71792375140E+02 -0.14269585095E+03  0.18679983706E+03  0.89928956089E+02 0.  0.
          5    1    3    3  502    0 -0.12196468011E+02  0.95469115606E+02 -0.36797052543E+03  0.38037203611E+03  0.41800000000E+01 0.  1.
         -5    1    3    3    0  502 -0.23729998250E+02 -0.23676740466E+02 -0.32850922235E+02  0.47120657335E+02  0.41800000000E+01 0.  1.
        -11    1    4    4    0    0 -0.31883421797E+01 -0.45230964027E+02 -0.10695913865E+02  0.46587640057E+02  0.00000000000E+00 0.  1.
         11    1    4    4    0    0  0.39114808441E+02 -0.26561411113E+02 -0.13199993708E+03  0.14021219701E+03  0.00000000000E+00 0. -1.
</event>
<event>
 8    1  0.3710605E-009  0.1190344E+03  0.7561462E-02  0.1244699E+00
         -1   -1    0    0    0  501 -0.00000000000E+00  0.00000000000E+00  0.19913371912E+03  0.19913371912E+03  0.00000000000E+00 0.  1.
          1   -1    0    0  501    0  0.00000000000E+00 -0.00000000000E+00 -0.14630637913E+03  0.14630637913E+03  0.00000000000E+00 0. -1.
         25    2    1    2    0    0 -0.11631736489E+03 -0.29315087098E+01  0.90049705232E+02  0.19311683059E+03  0.12508732041E+03 0.  0.
         23    2    1    2    0    0  0.11631736489E+03  0.29315087098E+01 -0.37222365245E+02  0.15232326766E+03  0.90986538994E+02 0.  0.
          5    1    3    3  502    0 -0.27029065991E+02  0.53739352101E+01  0.99048599096E+02  0.10289580638E+03  0.41800000000E+01 0. -1.
         -5    1    3    3    0  502 -0.89288298898E+02 -0.83054439199E+01 -0.89988938640E+01  0.90221024210E+02  0.41800000000E+01 0. -1.
        -11    1    4    4    0    0  0.10956197538E+03 -0.54038805065E+01  0.39596183969E+01  0.10976660217E+03  0.00000000000E+00 0.  1.
         11    1    4    4    0    0  0.67553895051E+01  0.83353892163E+01 -0.41181983642E+02  0.42556665488E+02  0.00000000000E+00 0. -1.
</event>
<event>
 8    1  0.3710605E-009  0.1191958E+03  0.7561462E-02  0.1244430E+00
          4   -1    0    0  501    0  0.00000000000E+00  0.00000000000E+00  0.93885696202E+02  0.93885696202E+02  0.00000000000E+00 0. -1.
         -4   -1    0    0    0  501 -0.00000000000E+00 -0.00000000000E+00 -0.18144122069E+03  0.18144122069E+03  0.00000000000E+00 0.  1.
         25    2    1    2    0    0 -0.60709130702E+02 -0.38205588910E+02 -0.60741535993E+02  0.15646930690E+03  0.12509134355E+03 0.  0.
         23    2    1    2    0    0  0.60709130702E+02  0.38205588910E+02 -0.26813988500E+02  0.11885761000E+03  0.90900362489E+02 0.  0.
          5    1    3    3  502    0 -0.86174911326E+02 -0.44675543487E+02 -0.81093897469E+01  0.97494892840E+02  0.41800000000E+01 0. -1.
         -5    1    3    3    0  502  0.25465780624E+02  0.64699545768E+01 -0.52632146246E+02  0.58974414058E+02  0.41800000000E+01 0. -1.
        -11    1    4    4    0    0  0.82997410282E+02  0.40259930631E+02 -0.28118324750E+02  0.96436882543E+02  0.00000000000E+00 0. -1.
         11    1    4    4    0    0 -0.22288279580E+02 -0.20543417214E+01  0.13043362508E+01  0.22420727454E+02  0.00000000000E+00 0.  1.
</event>
<event>
 8    1  0.3710605E-009  0.2265477E+03  0.7561462E-02  0.1129094E+00
          1   -1    0    0  501    0  0.00000000000E+00  0.00000000000E+00  0.11550423257E+04  0.11550423257E+04  0.00000000000E+00 0. -1.
         -1   -1    0    0    0  501 -0.00000000000E+00 -0.00000000000E+00 -0.54527826316E+02  0.54527826316E+02  0.00000000000E+00 0.  1.
         25    2    1    2    0    0  0.19002723229E+02  0.22236059376E+03  0.66161285654E+03  0.70935382264E+03  0.12508371841E+03 0.  0.
         23    2    1    2    0    0 -0.19002723229E+02 -0.22236059376E+03  0.43890164283E+03  0.50021632936E+03  0.88183824644E+02 0.  0.
          5    1    3    3  502    0  0.36371826173E+02  0.14209095308E+03  0.25233043749E+03  0.29189188199E+03  0.41800000000E+01 0.  1.
         -5    1    3    3    0  502 -0.17369102944E+02  0.80269640677E+02  0.40928241904E+03  0.41746194065E+03  0.41800000000E+01 0.  1.
        -11    1    4    4    0    0  0.41506590479E+01 -0.57744440614E+02  0.47188441810E+02  0.74688670043E+02  0.00000000000E+00 0.  1.
         11    1    4    4    0    0 -0.23153382277E+02 -0.16461615315E+03  0.39171320102E+03  0.42552765932E+03  0.00000000000E+00 0. -1.
</event>
<event>
 8    1  0.3710605E-009  0.1210063E+03  0.7561462E-02  0.1241446E+00
          2   -1    0    0  501    0  0.00000000000E+00  0.00000000000E+00  0.78920445796E+03  0.78920445796E+03  0.00000000000E+00 0. -1.
         -2   -1    0    0    0  501 -0.00000000000E+00 -0.00000000000E+00 -0.26360415510E+02  0.26360415510E+02  0.00000000000E+00 0.  1.
         25    2    1    2    0    0  0.32952964938E+02  0.56107605439E+02  0.61700728668E+03  0.63291322901E+03  0.12508877789E+03 0.  0.
         23    2    1    2    0    0 -0.32952964938E+02 -0.56107605439E+02  0.14583675577E+03  0.18265164446E+03  0.88652707823E+02 0.  0.
          5    1    3    3  502    0 -0.40510223113E+02  0.49478975244E+02  0.35269917502E+03  0.35847374747E+03  0.41800000000E+01 0.  1.
         -5    1    3    3    0  502  0.73463188051E+02  0.66286301956E+01  0.26430811166E+03  0.27443948153E+03  0.41800000000E+01 0.  1.
        -11    1    4    4    0    0 -0.47380161668E+02 -0.69665748138E+02  0.13730651506E+03  0.16109399511E+03  0.00000000000E+00 0. -1.
         11    1    4    4    0    0  0.14427196730E+02  0.13558142699E+02  0.85302407140E+01  0.21557649352E+02  0.00000000000E+00 0.  1.
</event>
<event>
 8    1  0.3710605E-009  0.1352295E+03  0.7561462E-02  0.1219896E+00
         -2   -1    0    0    0  501 -0.00000000000E+00  0.00000000000E+00  0.90921406013E+02  0.90921406013E+02  0.00000000000E+00 0.  1.
          2   -1    0    0  501    0  0.00000000000E+00 -0.00000000000E+00 -0.22019118709E+03  0.22019118709E+03  0.00000000000E+00 0. -1.
         25    2    1    2    0    0 -0.18496241168E+02  0.78520368593E+02 -0.27218926822E+02  0.15131514294E+03  0.12509133977E+03 0.  0.
         23    2    1    2    0    0  0.18496241168E+02 -0.78520368593E+02 -0.10205085425E+03  0.15979745016E+03  0.92807806794E+02 0.  0.
          5    1    3    3  502    0  0.88618452075E+01  0.10727556619E+03 -0.28346630163E+02  0.11138933182E+03  0.41800000000E+01 0. -1.
         -5    1    3    3    0  502 -0.27358086375E+02 -0.28755197596E+02  0.11277033414E+01  0.39925811122E+02  0.41800000000E+01 0. -1.
        -11    1    4    4    0    0 -0.15921703992E+02  0.15795386363E+02 -0.15762071045E+02  0.27412365313E+02  0.00000000000E+00 0. -1.
         11    1    4    4    0    0  0.34417945160E+02 -0.94315754957E+02 -0.86288783209E+02  0.13238508485E+03  0.00000000000E+00 0.  1.
</event>
<event>
 8    1  0.3710605E-009  0.9741750E+02  0.7561462E-02  0.1285822E+00
         -1   -1    0    0    0  501 -0.00000000000E+00  0.00000000000E+00  0.12240664492E+03  0.12240664492E+03  0.00000000000E+00 0.  1.
          1   -1    0    0  501    0  0.00000000000E+00 -0.00000000000E+00 -0.18472707278E+03  0.18472707278E+03  0.00000000000E+00 0. -1.
         25    2    1    2    0    0 -0.38929407314E+02 -0.25986393741E+02 -0.12713296729E+03  0.18439414642E+03  0.12509044107E+03 0.  0.
         23    2    1    2    0    0  0.38929407314E+02  0.25986393741E+02  0.64812539430E+02  0.12273957128E+03  0.93131872510E+02 0.  0.
          5    1    3    3  502    0  0.20692795262E+02 -0.43160968675E+02 -0.10977574867E+03  0.11983008132E+03  0.41800000000E+01 0.  1.
         -5    1    3    3    0  502 -0.59622202576E+02  0.17174574934E+02 -0.17357218622E+02  0.64564065102E+02  0.41800000000E+01 0.  1.
        -11    1    4    4    0    0 -0.70787197413E+01 -0.18986503431E+02 -0.11201533394E+02  0.23153184146E+02  0.00000000000E+00 0. -1.
         11    1    4    4    0    0  0.46008127056E+02  0.44972897172E+02  0.76014072824E+02  0.99586387135E+02  0.00000000000E+00 0.  1.
</event>
<event>
 8    1  0.3710605E-009  0.1142289E+03  0.7561462E-02  0.1252933E+00
         -3   -1    0    0    0  501 -0.00000000000E+00  0.00000000000E+00  0.16373173944E+02  0.16373173944E+02  0.00000000000E+00 0.  1.
          3   -1    0    0  501    0  0.00000000000E+00 -0.00000000000E+00 -0.86035496692E+03  0.86035496692E+03  0.00000000000E+00 0. -1.
         25    2    1    2    0    0  0.43973988315E+02 -0.15591495772E+01 -0.40671242361E+03  0.42778317702E+03  0.12508920189E+03 0.  0.
         23    2    1    2    0    0 -0.43973988315E+02  0.15591495772E+01 -0.43726936937E+03  0.44894496384E+03  0.91711158414E+02 0.  0.
          5    1    3    3  502    0  0.67291981090E+02  0.40490916867E+02 -0.18760054270E+03  0.20341868422E+03  0.41800000000E+01 0.  1.
         -5    1    3    3    0  502 -0.23317992775E+02 -0.42050066444E+02 -0.21911188091E+03  0.22436449280E+03  0.41800000000E+01 0.  1.
        -11    1    4    4    0    0 -0.61441868223E+02 -0.27758166453E+02 -0.27772117279E+03  0.28578780378E+03  0.00000000000E+00 0.  1.
         11    1    4    4    0    0  0.17467879908E+02  0.29317316030E+02 -0.15954819658E+03  0.16315716006E+03  0.00000000000E+00 0. -1.
</event>
<event>
 8    1  0.3710605E-009  0.1329674E+03  0.7561462E-02  0.1223118E+00
         -1   -1    0    0    0  501 -0.00000000000E+00  0.00000000000E+00  0.20690781956E+03  0.20690781956E+03  0.00000000000E+00 0.  1.
          1   -1    0    0  501    0  0.00000000000E+00 -0.00000000000E+00 -0.10500941616E+03  0.10500941616E+03  0.00000000000E+00 0. -1.
         25    2    1    2    0    0  0.65186993809E+02  0.68977645824E+02  0.87439431452E+02  0.17972014607E+03  0.12508563844E+03 0.  0.
         23    2    1    2    0    0 -0.65186993809E+02 -0.68977645824E+02  0.14458971942E+02  0.13219708965E+03  0.90883160476E+02 0.  0.
          5    1    3    3  502    0  0.99163216657E+02  0.62227821185E+02  0.46776459337E+02  0.12613942609E+03  0.41800000000E+01 0.  1.
         -5    1    3    3    0  502 -0.33976222848E+02  0.67498246388E+01  0.40662972115E+02  0.53580719973E+02  0.41800000000E+01 0.  1.
        -11    1    4    4    0    0 -0.45352339731E+02 -0.79438866209E+02  0.38567854574E+02  0.99271585009E+02  0.00000000000E+00 0.  1.
         11    1    4    4    0    0 -0.19834654079E+02  0.10461220386E+02 -0.24108882632E+02  0.32925504645E+02  0.00000000000E+00 0. -1.
</event>
<event>
 8    1  0.3710605E-009  0.1637349E+03  0.7561462E-02  0.1184543E+00
          1   -1    0    0  501    0  0.00000000000E+00  0.00000000000E+00  0.31370211058E+03  0.31370211058E+03  0.00000000000E+00 0. -1.
         -1   -1    0    0    0  501 -0.00000000000E+00 -0.00000000000E+00 -0.98028844979E+02  0.98028844979E+02  0.00000000000E+00 0.  1.
         25    2    1    2    0    0 -0.13082238827E+03 -0.16396333784E+02  0.68505252992E+02  0.19422541729E+03  0.12508879247E+03 0.  0.
         23    2    1    2    0    0  0.13082238827E+03  0.16396333784E+02  0.14716801261E+03  0.21750553827E+03  0.90922484608E+02 0.  0.
          5    1    3    3  502    0 -0.13016936687E+03  0.22742562636E+02  0.78305327340E+02  0.15365703666E+03  0.41800000000E+01 0. -1.
         -5    1    3    3    0  502 -0.65302140027E+00 -0.39138896420E+02 -0.98000743480E+01  0.40568380633E+02  0.41800000000E+01 0. -1.
        -11    1    4    4    0    0  0.60488146795E+02 -0.33982343954E+02  0.90697444146E+02  0.11419125176E+03  0.00000000000E+00 0. -1.
         11    1    4    4    0    0  0.70334241472E+02  0.50378677738E+02  0.56470568463E+02  0.10331428651E+03  0.00000000000E+00 0.  1.
</event>
<event>
 8    1  0.3710605E-009  0.8402915E+02  0.7561462E-02  0.1317991E+00
          1   -1    0    0  501    0  0.00000000000E+00  0.00000000000E+00  0.56022868823E+03  0.56022868823E+03  0.00000000000E+00 0. -1.
         -1   -1    0    0    0  501 -0.00000000000E+00 -0.00000000000E+00 -0.26114346667E+02  0.26114346667E+02  0.00000000000E+00 0.  1.
         25    2    1    2    0    0  0.84365018609E+01 -0.51940068476E+02  0.28693506107E+03  0.31740878831E+03  0.12509062454E+03 0.  0.
         23    2    1    2    0    0 -0.84365018609E+01  0.51940068476E+02  0.24717928049E+03  0.26893424659E+03  0.91973295068E+02 0.  0.
          5    1    3    3  502    0 -0.12134624263E+02 -0.45634214655E+01  0.25740744702E+03  0.25776760871E+03  0.41800000000E+01 0. -1.
         -5    1    3    3    0  502  0.20571126124E+02 -0.47376647011E+02  0.29527614051E+02  0.59641179595E+02  0.41800000000E+01 0. -1.
        -11    1    4    4    0    0  0.20206990380E+02  0.67193512036E+02  0.13486740344E+03  0.15202798107E+03  0.00000000000E+00 0.  1.
         11    1    4    4    0    0 -0.28643492240E+02 -0.15253443560E+02  0.11231187706E+03  0.11690626552E+03  0.00000000000E+00 0. -1.
</event>
<event>
 8    1  0.3710605E-009  0.1092290E+03  0.7561462E-02  0.1262004E+00
          1   -1    0    0  501    0  0.00000000000E+00  0.00000000000E+00  0.91970258420E+03  0.91970258420E+03  0.00000000000E+00 0. -1.
         -1   -1    0    0    0  501 -0.00000000000E+00 -0.00000000000E+00 -0.19721134268E+02  0.19721134268E+02  0.00000000000E+00 0.  1.
         25    2    1    2    0    0 -0.34656074984E+02  0.26499507241E+02  0.72973633482E+03  0.74166452261E+03  0.12509147983E+03 0.  0.
         23    2    1    2    0    0  0.34656074984E+02 -0.26499507241E+02  0.17024511512E+03  0.19775919586E+03  0.90675426158E+02 0.  0.
          5    1    3    3  502    0  0.37355384853E+02  0.44297202666E+02  0.33376157483E+03  0.33878005870E+03  0.41800000000E+01 0.  1.
         -5    1    3    3    0  502 -0.72011459837E+02 -0.17797695425E+02  0.39597475999E+03  0.40288446391E+03  0.41800000000E+01 0.  1.
        -11    1    4    4    0    0  0.35657638433E+02 -0.50623675635E+02  0.15993810117E+03  0.17150632618E+03  0.00000000000E+00 0. -1.
         11    1    4    4    0    0 -0.10015634492E+01  0.24124168394E+02  0.10307013947E+02  0.26252869682E+02  0.00000000000E+00 0.  1.
</event>
<event>
 8    1  0.3710605E-009  0.1314047E+03  0.7561462E-02  0.1225386E+00
         -1   -1    0    0    0  501 -0.00000000000E+00  0.00000000000E+00  0.27667912976E+02  0.27667912976E+02  0.00000000000E+00 0.  1.
          1   -1    0    0  501    0  0.00000000000E+00 -0.00000000000E+00 -0.12545064493E+04  0.12545064493E+04  0.00000000000E+00 0. -1.
         25    2    1    2    0    0 -0.35995663147E+01 -0.10395243689E+03 -0.10193739851E+04  0.10322738913E+04  0.12508796542E+03 0.  0.
         23    2    1    2    0    0  0.35995663147E+01  0.10395243689E+03 -0.20746455115E+03  0.24990047093E+03  0.92680307374E+02 0.  0.
          5    1    3    3  502    0  0.25464941233E+02 -0.84348366856E+02 -0.95318004627E+03  0.95725272694E+03  0.41800000000E+01 0.  1.
         -5    1    3    3    0  502 -0.29064507548E+02 -0.19604070030E+02 -0.66193938858E+02  0.75021164362E+02  0.41800000000E+01 0.  1.
        -11    1    4    4    0    0 -0.27003691242E+01 -0.17486181781E+02 -0.24972980746E+02  0.30605690876E+02  0.00000000000E+00 0. -1.
         11    1    4    4    0    0  0.62999354389E+01  0.12143861867E+03 -0.18249157040E+03  0.21929478005E+03  0.00000000000E+00 0.  1.
</event>
<event>
 8    1  0.3710605E-009  0.8632397E+02  0.7561462E-02  0.1312006E+00
          3   -1    0    0  501    0  0.00000000000E+00  0.00000000000E+00  0.82266394392E+02  0.82266394392E+02  0.00000000000E+00 0. -1.
         -3   -1    0    0    0  501 -0.00000000000E+00 -0.00000000000E+00 -0.36533336335E+03  0.36533336335E+03  0.00000000000E+00 0.  1.
         25    2    1    2    0    0  0.24172341020E+02  0.44196026577E+02 -0.31094665012E+03  0.33892921681E+03  0.12509038313E+03 0.  0.
         23    2    1    2    0    0 -0.24172341020E+02 -0.44196026577E+02  0.27879681165E+02  0.10867054093E+03  0.92165172424E+02 0.  0.
          5    1    3    3  502    0  0.28209154174E+02  0.25981479444E+01 -0.37561444086E+01  0.28880577778E+02  0.41800000000E+01 0.  1.
         -5    1    3    3    0  502 -0.40368131537E+01  0.41597878632E+02 -0.30719050572E+03  0.31004863904E+03  0.41800000000E+01 0.  1.
        -11    1    4    4    0    0  0.31050419918E+02  0.36323914798E+00  0.20766710502E+02  0.37356616346E+02  0.00000000000E+00 0. -1.
         11    1    4    4    0    0 -0.55222760938E+02 -0.44559265725E+02  0.71129706629E+01  0.71313924581E+02  0.00000000000E+00 0.  1.
</event>
<event>
 8    1  0.3710605E-009  0.1890539E+03  0.7561462E-02  0.1159317E+00
         -1   -1    0    0    0  501 -0.00000000000E+00  0.00000000000E+00  0.55778343751E+03  0.55778343751E+03  0.00000000000E+00 0.  1.
          1   -1    0    0  501    0  0.00000000000E+00 -0.00000000000E+00 -0.66897266076E+02  0.66897266076E+02  0.00000000000E+00 0. -1.
         25    2    1    2    0    0 -0.26758728892E+02 -0.15361461597E+03  0.30131305560E+03  0.36159446098E+03  0.12509003527E+03 0.  0.
         23    2    1    2    0    0  0.26758728892E+02  0.15361461597E+03  0.18957311584E+03  0.26308624261E+03  0.94672725693E+02 0.  0.
          5    1    3    3  502    0 -0.43516565253E+02 -0.19220833867E+01  0.98127319260E+02  0.10744221257E+03  0.41800000000E+01 0.  1.
         -5    1    3    3    0  502  0.16757836361E+02 -0.15169253258E+03  0.20318573634E+03  0.25415224841E+03  0.41800000000E+01 0.  1.
        -11    1    4    4    0    0 -0.28904448447E+02  0.10109883229E+03  0.12130585071E+03  0.16053520003E+03  0.00000000000E+00 0.  1.
         11    1    4    4    0    0  0.55663177340E+02  0.52515783683E+02  0.68267265123E+02  0.10255104258E+03  0.00000000000E+00 0. -1.
</event>
<event>
 8    1  0.3710605E-009  0.1045763E+03  0.7561462E-02  0.1270957E+00
         -2   -1    0    0    0  501 -0.00000000000E+00  0.00000000000E+00  0.15024318661E+03  0.15024318661E+03  0.00000000000E+00 0.  1.
          2   -1    0    0  501    0  0.00000000000E+00 -0.00000000000E+00 -0.81825775946E+02  0.81825775946E+02  0.00000000000E+00 0. -1.
         25    2    1    2    0    0 -0.12030851798E+02 -0.11149795006E+02  0.28565885321E+02  0.12936748267E+03  0.12510346296E+03 0.  0.
         23    2    1    2    0    0  0.12030851798E+02  0.11149795006E+02  0.39851525346E+02  0.10270147989E+03  0.93222264378E+02 0.  0.
          5    1    3    3  502    0  0.51042251443E+02 -0.13644192576E+02 -0.11837280084E+02  0.54305331444E+02  0.41800000000E+01 0. -1.
         -5    1    3    3    0  502 -0.63073103241E+02  0.24943975695E+01  0.40403165405E+02  0.75062151224E+02  0.41800000000E+01 0. -1.
        -11    1    4    4    0    0  0.11486497014E+02 -0.40062755174E+02  0.27767022079E+02  0.50079651366E+02  0.00000000000E+00 0.  1.
         11    1    4    4    0    0  0.54435478382E+00  0.51212550180E+02  0.12084503267E+02  0.52621828525E+02  0.00000000000E+00 0. -1.
</event>
<event>
 8    1  0.3710605E-009  0.1022440E+03  0.7561462E-02  0.1275647E+00
          1   -1    0    0  501    0  0.00000000000E+00  0.00000000000E+00  0.49129322946E+03  0.49129322946E+03  0.00000000000E+00 0. -1.
         -1   -1    0    0    0  501 -0.00000000000E+00 -0.00000000000E+00 -0.24840785518E+02  0.24840785518E+02  0.00000000000E+00 0.  1.
         25    2    1    2    0    0  0.23483530904E+02  0.40631313308E+01  0.27295640468E+03  0.30120051157E+03  0.12509422072E+03 0.  0.
         23    2    1    2    0    0 -0.23483530904E+02 -0.40631313308E+01  0.19349603926E+03  0.21493350340E+03  0.90485957005E+02 0.  0.
          5    1    3    3  502    0 -0.34200418890E+02 -0.41234705508E+02  0.10822859102E+03  0.12083405938E+03  0.41800000000E+01 0. -1.
         -5    1    3    3    0  502  0.57683949794E+02  0.45297836839E+02  0.16472781365E+03  0.18036645219E+03  0.41800000000E+01 0. -1.
        -11    1    4    4    0    0 -0.44044622655E+02 -0.22690656186E+02  0.17427639928E+03  0.18118238880E+03  0.00000000000E+00 0. -1.
         11    1    4    4    0    0  0.20561091751E+02  0.18627524855E+02  0.19219639977E+02  0.33751114605E+02  0.00000000000E+00 0.  1.
</event>
<event>
 8    1  0.3710605E-009  0.1084119E+03  0.7561462E-02  0.1263539E+00
          2   -1    0    0  501    0  0.00000000000E+00  0.00000000000E+00  0.69220866891E+02  0.69220866891E+02  0.00000000000E+00 0. -1.
         -2   -1    0    0    0  501 -0.00000000000E+00 -0.00000000000E+00 -0.20077084439E+03  0.20077084439E+03  0.00000000000E+00 0.  1.
         25    2    1    2    0    0  0.14832032686E+02 -0.27956026703E+02 -0.10479716418E+03  0.16622065318E+03  0.12508129877E+03 0.  0.
         23    2    1    2    0    0 -0.14832032686E+02  0.27956026703E+02 -0.26752813321E+02  0.10377105810E+03  0.95137746742E+02 0.  0.
          5    1    3    3  502    0  0.55629111965E+02  0.16480645126E+02 -0.84201542076E+02  0.10234051910E+03  0.41800000000E+01 0. -1.
         -5    1    3    3    0  502 -0.40797079279E+02 -0.44436671828E+02 -0.20595622101E+02  0.63880134084E+02  0.41800000000E+01 0. -1.
        -11    1    4    4    0    0 -0.23593654122E+02 -0.30789672256E+02 -0.20968200637E+02  0.44094556018E+02  0.00000000000E+00 0.  1.
         11    1    4    4    0    0  0.87616214358E+01  0.58745698959E+02 -0.57846126842E+01  0.59676502078E+02  0.00000000000E+00 0. -1.
</event>
<event>
 8    1  0.3710605E-009  0.1911763E+03  0.7561462E-02  0.1157405E+00
          1   -1    0    0  501    0  0.00000000000E+00  0.00000000000E+00  0.54567988655E+02  0.54567988655E+02  0.00000000000E+00 0. -1.
         -1   -1    0    0    0  501 -0.00000000000E+00 -0.00000000000E+00 -0.88691495271E+03  0.88691495271E+03  0.00000000000E+00 0.  1.
         25    2    1    2    0    0  0.16144965473E+03 -0.39207167989E+02 -0.63620507382E+03  0.66933315089E+03  0.12508708126E+03 0.  0.
         23    2    1    2    0    0 -0.16144965473E+03  0.39207167989E+02 -0.19614189024E+03  0.27214979047E+03  0.89390571721E+02 0.  0.
          5    1    3    3  502    0  0.15271827193E+03 -0.74508121399E+02 -0.49114781199E+03  0.51972875268E+03  0.41800000000E+01 0.  1.
         -5    1    3    3    0  502  0.87313828071E+01  0.35300953411E+02 -0.14505726183E+03  0.14960439822E+03  0.41800000000E+01 0.  1.
        -11    1    4    4    0    0 -0.14903107650E+03  0.52096199154E+02 -0.13271623638E+03  0.20624712150E+03  0.00000000000E+00 0. -1.
         11    1    4    4    0    0 -0.12418578230E+02 -0.12889031165E+02 -0.63425653861E+02  0.65902668969E+02  0.00000000000E+00 0.  1.
</event>
<event>
 8    1  0.3710605E-009  0.7912265E+02  0.7561462E-02  0.1331560E+00
         -2   -1    0    0    0  501 -0.00000000000E+00  0.00000000000E+00  0.15228499000E+02  0.15228499000E+02  0.00000000000E+00 0.  1.
          2   -1    0    0  501    0  0.00000000000E+00 -0.00000000000E+00 -0.13141818987E+04  0.13141818987E+04  0.00000000000E+00 0. -1.
         25    2    1    2    0    0  0.47820684788E+02  0.42108901456E+01 -0.10755396517E+04  0.10838529455E+04  0.12508843072E+03 0.  0.
         23    2    1    2    0    0 -0.47820684788E+02 -0.42108901456E+01 -0.22341374794E+03  0.24555745219E+03  0.89889988689E+02 0.  0.
          5    1    3    3  502    0  0.61074982346E+02  0.21965532016E+02 -0.10381902061E+04  0.10402254633E+04  0.41800000000E+01 0.  1.
         -5    1    3    3    0  502 -0.13254297558E+02 -0.17754641871E+02 -0.37349445577E+02  0.43627482126E+02  0.41800000000E+01 0.  1.
        -11    1    4    4    0    0  0.10561240713E+02 -0.61933099932E+01  0.22563187749E+01  0.12449412375E+02  0.00000000000E+00 0.  1.
         11    1    4    4    0    0 -0.58381925501E+02  0.19824198477E+01 -0.22567006672E+03  0.23310803982E+03  0.00000000000E+00 0. -1.
</event>
<event>
 8    1  0.3710605E-009  0.1555053E+03  0.7561462E-02  0.1193867E+00
          1   -1    0    0  501    0  0.00000000000E+00  0.00000000000E+00  0.51042392667E+03  0.51042392667E+03  0.00000000000E+00 0. -1.
         -1   -1    0    0    0  501 -0.00000000000E+00 -0.00000000000E+00 -0.85277323847E+02  0.85277323847E+02  0.00000000000E+00 0.  1.
         25    2    1    2    0    0  0.10603305399E+03  0.56679276010E+02  0.35523485425E+02  0.17710131410E+03  0.12508960218E+03 0.  0.
         23    2    1    2    0    0 -0.10603305399E+03 -0.56679276010E+02  0.38962311739E+03  0.41859993641E+03  0.94679376246E+02 0.  0.
          5    1    3    3  502    0  0.11253298828E+03 -0.84089270590E-01  0.62891873008E+01  0.11278611084E+03  0.41800000000E+01 0. -1.
         -5    1    3    3    0  502 -0.64999342927E+01  0.56763365281E+02  0.29234298124E+02  0.64315203262E+02  0.41800000000E+01 0. -1.
        -11    1    4    4    0    0 -0.95868794016E+01 -0.42574989977E+02  0.20743881412E+03  0.21197971514E+03  0.00000000000E+00 0. -1.
         11    1    4    4    0    0 -0.96446174585E+02 -0.14104286033E+02  0.18218430327E+03  0.20662022127E+03  0.00000000000E+00 0.  1.
</event>
<event>
 8    1  0.3710605E-009  0.9324950E+02  0.7561462E-02  0.1295168E+00
         -1   -1    0    0    0  501 -0.00000000000E+00  0.00000000000E+00  0.99246002760E+02  0.99246002760E+02  0.00000000000E+00 0.  1.
          1   -1    0    0  501    0  0.00000000000E+00 -0.00000000000E+00 -0.16876778643E+03  0.16876778643E+03  0.00000000000E+00 0. -1.
         25    2    1    2    0    0  0.21932815078E+02  0.58781224443E+01 -0.10347418401E+03  0.16391947673E+03  0.12508831838E+03 0.  0.
         23    2    1    2    0    0 -0.21932815078E+02 -0.58781224443E+01  0.33952400334E+02  0.10409431247E+03  0.95745807733E+02 0.  0.
          5    1    3    3  502    0  0.29739674010E+02  0.51070811724E+02 -0.10506619153E+02  0.60170902157E+02  0.41800000000E+01 0. -1.
         -5    1    3    3    0  502 -0.78068589314E+01 -0.45192689280E+02 -0.92967564854E+02  0.10374857457E+03  0.41800000000E+01 0. -1.
        -11    1    4    4    0    0  0.10833556566E+02  0.30425374056E+02  0.43589053713E+02  0.54250114635E+02  0.00000000000E+00 0.  1.
         11    1    4    4    0    0 -0.32766371645E+02 -0.36303496501E+02 -0.96366533790E+01  0.49844197830E+02  0.00000000000E+00 0. -1.
</event>
<event>
 8    1  0.3710605E-009  0.1217777E+03  0.7561462E-02  0.1240193E+00
         -3   -1    0    0    0  501 -0.00000000000E+00  0.00000000000E+00  0.83940805003E+02  0.83940805003E+02  0.00000000000E+00 0.  1.
          3   -1    0    0  501    0  0.00000000000E+00 -0.00000000000E+00 -0.19860402743E+03  0.19860402743E+03  0.00000000000E+00 0. -1.
         25    2    1    2    0    0 -0.59580955000E+02  0.22948408401E+02 -0.95281350143E+02  0.16971555074E+03  0.12509321657E+03 0.  0.
         23    2    1    2    0    0  0.59580955000E+02 -0.22948408401E+02 -0.19381872279E+02  0.11282928169E+03  0.90984999785E+02 0.  0.
          5    1    3    3  502    0 -0.12433917161E+02 -0.46525135064E+02 -0.88454171070E+01  0.49141675719E+02  0.41800000000E+01 0. -1.
         -5    1    3    3    0  502 -0.47147037839E+02  0.69473543465E+02 -0.86435933036E+02  0.12057387502E+03  0.41800000000E+01 0. -1.
        -11    1    4    4    0    0 -0.18224875834E+02 -0.27748012432E+02 -0.56324701277E+01  0.33672288500E+02  0.00000000000E+00 0.  1.
         11    1    4    4    0    0  0.77805830834E+02  0.47996040310E+01 -0.13749402152E+02  0.79156993185E+02  0.00000000000E+00 0. -1.
</event>
<event>
 8    1  0.3710605E-009  0.1090293E+03  0.7561462E-02  0.1262378E+00
         -3   -1    0    0    0  501 -0.00000000000E+00  0.00000000000E+00  0.25902936206E+04  0.25902936206E+04  0.00000000000E+00 0.  1.
          3   -1    0    0  501    0  0.00000000000E+00 -0.00000000000E+00 -0.13945019671E+02  0.13945019671E+02  0.00000000000E+00 0. -1.
         25    2    1    2    0    0  0.92906885915E+02 -0.26733023908E+02  0.21856574777E+04  0.21913677021E+04  0.12508977533E+03 0.  0.
         23    2    1    2    0    0 -0.92906885915E+02  0.26733023908E+02  0.39069112324E+03  0.41287093820E+03  0.92067984729E+02 0.  0.
          5    1    3    3  502    0  0.47885383639E+02 -0.70389197687E+01  0.19499946355E+04  0.19505996789E+04  0.41800000000E+01 0.  1.
         -5    1    3    3    0  502  0.45021502276E+02 -0.19694104139E+02  0.23566284222E+03  0.24076802323E+03  0.41800000000E+01 0.  1.
        -11    1    4    4    0    0 -0.46444835551E+02 -0.23231996817E+02  0.26316458179E+03  0.26823953015E+03  0.00000000000E+00 0.  1.
         11    1    4    4    0    0 -0.46462050364E+02  0.49965020724E+02  0.12752654144E+03  0.14463140804E+03  0.00000000000E+00 0. -1.
</event>
<event>
 8    1  0.3710605E-009  0.1196608E+03  0.7561462E-02  0.1243658E+00
          2   -1    0    0  501    0  0.00000000000E+00  0.00000000000E+00  0.10379281649E+03  0.10379281649E+03  0.00000000000E+00 0.  1.
         -2   -1    0    0    0  501 -0.00000000000E+00 -0.00000000000E+00 -0.25089408266E+03  0.25089408266E+03  0.00000000000E+00 0. -1.
         25    2    1    2    0    0  0.81218284308E+02 -0.20808317912E+02  0.14369102029E+02  0.15127365782E+03  0.12509137723E+03 0.  0.
         23    2    1    2    0    0 -0.81218284308E+02  0.20808317912E+02 -0.16147036819E+03  0.20341324132E+03  0.90966318719E+02 0.  0.
          5    1    3    3  502    0  0.88818001109E+02  0.33596799821E+02  0.14691704588E+02  0.96180563852E+02  0.41800000000E+01 0. -1.
         -5    1    3    3    0  502 -0.75997168010E+01 -0.54405117732E+02 -0.32260255906E+00  0.55093093971E+02  0.41800000000E+01 0. -1.
        -11    1    4    4    0    0 -0.26137829287E+02  0.21879655350E+02 -0.13862643937E+01  0.34114911213E+02  0.00000000000E+00 0.  1.
         11    1    4    4    0    0 -0.55080455021E+02 -0.10713374383E+01 -0.16008410380E+03  0.16929833011E+03  0.00000000000E+00 0. -1.
</event>
<event>
 8    1  0.3710605E-009  0.1097447E+03  0.7561462E-02  0.1261043E+00
         -2   -1    0    0    0  501 -0.00000000000E+00  0.00000000000E+00  0.41981948827E+02  0.41981948827E+02  0.00000000000E+00 0.  1.
          2   -1    0    0  501    0  0.00000000000E+00 -0.00000000000E+00 -0.29946221691E+03  0.29946221691E+03  0.00000000000E+00 0. -1.
         25    2    1    2    0    0  0.19031781092E+02 -0.17385091562E+02 -0.16054947005E+03  0.20515585588E+03  0.12509333624E+03 0.  0.
         23    2    1    2    0    0 -0.19031781092E+02  0.17385091562E+02 -0.96930798042E+02  0.13628830986E+03  0.92273905820E+02 0.  0.
          5    1    3    3  502    0  0.61819955132E+02  0.22153925012E+02 -0.10863598079E+03  0.12701083406E+03  0.41800000000E+01 0. -1.
         -5    1    3    3    0  502 -0.42788174041E+02 -0.39539016574E+02 -0.51913489258E+02  0.78145021826E+02  0.41800000000E+01 0. -1.
        -11    1    4    4    0    0 -0.49263023209E+02  0.34869016005E+02 -0.54365052125E+02  0.81229628987E+02  0.00000000000E+00 0.  1.
         11    1    4    4    0    0  0.30231242118E+02 -0.17483924443E+02 -0.42565745918E+02  0.55058680873E+02  0.00000000000E+00 0. -1.
</event>
<event>
 8    1  0.3710605E-009  0.9737547E+02  0.7561462E-02  0.1285914E+00
          2   -1    0    0  501    0  0.00000000000E+00  0.00000000000E+00  0.42135521545E+03  0.42135521545E+03  0.00000000000E+00 0. -1.
         -2   -1    0    0    0  501 -0.00000000000E+00 -0.00000000000E+00 -0.34846253426E+02  0.34846253426E+02  0.00000000000E+00 0.  1.
         25    2    1    2    0    0  0.19516383521E+02 -0.80388067067E+01  0.12247809982E+03  0.17632551353E+03  0.12507713679E+03 0.  0.
         23    2    1    2    0    0 -0.19516383521E+02  0.80388067067E+01  0.26403086221E+03  0.27987595535E+03  0.90403221995E+02 0.  0.
          5    1    3    3  502    0  0.42375999794E+01 -0.60690066108E+02  0.99573586977E+02  0.11676306351E+03  0.41800000000E+01 0.  1.
         -5    1    3    3    0  502  0.15278783542E+02  0.52651259402E+02  0.22904512844E+02  0.59562450014E+02  0.41800000000E+01 0.  1.
        -11    1    4    4    0    0  0.47923078208E+01  0.39073120276E+02  0.57935427453E+02  0.70044191026E+02  0.00000000000E+00 0.  1.
         11    1    4    4    0    0 -0.24308691342E+02 -0.31034313569E+02  0.20609543475E+03  0.20983176433E+03  0.00000000000E+00 0. -1.
</event>
<event>
 8    1  0.3710605E-009  0.1016891E+03  0.7561462E-02  0.1276784E+00
         -2   -1    0    0    0  501 -0.00000000000E+00  0.00000000000E+00  0.14823920148E+02  0.14823920148E+02  0.00000000000E+00 0.  1.
          2   -1    0    0  501    0  0.00000000000E+00 -0.00000000000E+00 -0.11020399568E+04  0.11020399568E+04  0.00000000000E+00 0. -1.
         25    2    1    2    0    0  0.43797176903E+01  0.71875878400E-01 -0.90965086708E+03  0.91822180392E+03  0.12508954447E+03 0.  0.
         23    2    1    2    0    0 -0.43797176903E+01 -0.71875878400E-01 -0.17756516962E+03  0.19864207307E+03  0.88938724059E+02 0.  0.
          5    1    3    3  502    0 -0.28887143874E+02 -0.47763125802E+02 -0.63304763461E+03  0.63551755550E+03  0.41800000000E+01 0. -1.
         -5    1    3    3    0  502  0.33266861565E+02  0.47835001681E+02 -0.27660323247E+03  0.28270424842E+03  0.41800000000E+01 0. -1.
        -11    1    4    4    0    0  0.26236519520E+02  0.34152788648E+02 -0.89556483945E+02  0.99373697453E+02  0.00000000000E+00 0.  1.
         11    1    4    4    0    0 -0.30616237210E+02 -0.34224664526E+02 -0.88008685674E+02  0.99268375614E+02  0.00000000000E+00 0. -1.
</event>
<event>
 8    1  0.3710605E-009  0.1234237E+03  0.7561462E-02  0.1237554E+00
         -2   -1    0    0    0  501 -0.00000000000E+00  0.00000000000E+00  0.99827161906E+02  0.99827161906E+02  0.00000000000E+00 0.  1.
          2   -1    0    0  501    0  0.00000000000E+00 -0.00000000000E+00 -0.23425231450E+03  0.23425231450E+03  0.00000000000E+00 0. -1.
         25    2    1    2    0    0  0.63775314726E+02 -0.56418167099E+01  0.22482083437E+02  0.14230856243E+03  0.12508861659E+03 0.  0.
         23    2    1    2    0    0 -0.63775314726E+02  0.56418167099E+01 -0.15690723603E+03  0.19177091397E+03  0.89761249230E+02 0.  0.
          5    1    3    3  502    0  0.30995871318E+02  0.59400189524E+02  0.16368096114E+02  0.69097854704E+02  0.41800000000E+01 0.  1.
         -5    1    3    3    0  502  0.32779443408E+02 -0.65042006234E+02  0.61139873222E+01  0.73210707728E+02  0.41800000000E+01 0.  1.
        -11    1    4    4    0    0  0.15911331846E+02 -0.17627492079E+02 -0.57810458969E+02  0.62497584948E+02  0.00000000000E+00 0. -1.
         11    1    4    4    0    0 -0.79686646572E+02  0.23269308789E+02 -0.99096777062E+02  0.12927332903E+03  0.00000000000E+00 0.  1.
</event>
<event>
 8    1  0.3710605E-009  0.1086682E+03  0.7561462E-02  0.1263056E+00
          1   -1    0    0  501    0  0.00000000000E+00  0.00000000000E+00  0.30821640675E+03  0.30821640675E+03  0.00000000000E+00 0. -1.
         -1   -1    0    0    0  501 -0.00000000000E+00 -0.00000000000E+00 -0.71702025883E+02  0.71702025883E+02  0.00000000000E+00 0.  1.
         25    2    1    2    0    0  0.99509583957E+01 -0.61065291785E+02  0.23080007740E+03  0.26971103163E+03  0.12508946167E+03 0.  0.
         23    2    1    2    0    0 -0.99509583957E+01  0.61065291785E+02  0.57143034678E+01  0.11020740100E+03  0.91022121147E+02 0.  0.
          5    1    3    3  502    0  0.44261082884E+02  0.16970709750E+02  0.12516456561E+03  0.13390552390E+03  0.41800000000E+01 0.  1.
         -5    1    3    3    0  502 -0.34310124488E+02 -0.78036001535E+02  0.10563551179E+03  0.13580550773E+03  0.41800000000E+01 0.  1.
        -11    1    4    4    0    0 -0.18037574680E+02 -0.42957611384E+01 -0.30015045563E+02  0.35280456689E+02  0.00000000000E+00 0.  1.
         11    1    4    4    0    0  0.80866162839E+01  0.65361052924E+02  0.35729349030E+02  0.74926944315E+02  0.00000000000E+00 0. -1.
</event>
<event>
 8    1  0.3710605E-009  0.1508859E+03  0.7561462E-02  0.1199389E+00
          1   -1    0    0  501    0  0.00000000000E+00  0.00000000000E+00  0.83269468505E+02  0.83269468505E+02  0.00000000000E+00 0. -1.
         -1   -1    0    0    0  501 -0.00000000000E+00 -0.00000000000E+00 -0.30204657456E+03  0.30204657456E+03  0.00000000000E+00 0.  1.
         25    2    1    2    0    0 -0.96441114017E+02 -0.61500664785E+02 -0.13792246169E+03  0.21852488035E+03  0.12508915881E+03 0.  0.
         23    2    1    2    0    0  0.96441114017E+02  0.61500664785E+02 -0.80854644367E+02  0.16679116272E+03  0.90546110919E+02 0.  0.
          5    1    3    3  502    0 -0.85080110975E+02  0.17084695797E+02 -0.92715958685E+02  0.12705996029E+03  0.41800000000E+01 0.  1.
         -5    1    3    3    0  502 -0.11361003042E+02 -0.78585360582E+02 -0.45206503006E+02  0.91464920062E+02  0.41800000000E+01 0.  1.
        -11    1    4    4    0    0  0.74817562348E+02  0.51169270381E+01 -0.75097238497E+02  0.10612938240E+03  0.00000000000E+00 0.  1.
         11    1    4    4    0    0  0.21623551669E+02  0.56383737747E+02 -0.57574058694E+01  0.60661780319E+02  0.00000000000E+00 0. -1.
</event>
<event>
 8    1  0.3710605E-009  0.1410365E+03  0.7561462E-02  0.1211941E+00
         -3   -1    0    0    0  501 -0.00000000000E+00  0.00000000000E+00  0.35960428545E+02  0.35960428545E+02  0.00000000000E+00 0.  1.
          3   -1    0    0  501    0  0.00000000000E+00 -0.00000000000E+00 -0.69860404085E+03  0.69860404085E+03  0.00000000000E+00 0. -1.
         25    2    1    2    0    0 -0.11367433384E+03 -0.15587733900E+02 -0.39001543839E+03  0.42535275234E+03  0.12509232637E+03 0.  0.
         23    2    1    2    0    0  0.11367433384E+03  0.15587733900E+02 -0.27262817392E+03  0.30921171706E+03  0.90116220134E+02 0.  0.
          5    1    3    3  502    0 -0.49434528795E+01  0.20551181343E+02 -0.30534271379E+01  0.21761998949E+02  0.41800000000E+01 0. -1.
         -5    1    3    3    0  502 -0.10873088096E+03 -0.36138915243E+02 -0.38696201125E+03  0.40359075339E+03  0.41800000000E+01 0. -1.
        -11    1    4    4    0    0  0.82761119754E+01 -0.29937681982E+02 -0.60459529334E+02  0.67971416928E+02  0.00000000000E+00 0.  1.
         11    1    4    4    0    0  0.10539822186E+03  0.45525415882E+02 -0.21216864458E+03  0.24124030013E+03  0.00000000000E+00 0. -1.
</event>
<event>
 8    1  0.3710605E-009  0.1091843E+03  0.7561462E-02  0.1262088E+00
          1   -1    0    0  501    0  0.00000000000E+00  0.00000000000E+00  0.50549565617E+03  0.50549565617E+03  0.00000000000E+00 0. -1.
         -1   -1    0    0    0  501 -0.00000000000E+00 -0.00000000000E+00 -0.33524906896E+02  0.33524906896E+02  0.00000000000E+00 0.  1.
         25    2    1    2    0    0 -0.64945150356E+02 -0.27017096526E+02  0.25748263908E+03  0.29477492990E+03  0.12508858384E+03 0.  0.
         23    2    1    2    0    0  0.64945150356E+02  0.27017096526E+02  0.21448811019E+03  0.24424563316E+03  0.93289784267E+02 0.  0.
          5    1    3    3  502    0  0.13473403110E+02 -0.18221864634E+02  0.18843080613E+03  0.18983469136E+03  0.41800000000E+01 0.  1.
         -5    1    3    3    0  502 -0.78418553466E+02 -0.87952318916E+01  0.69051832948E+02  0.10494023854E+03  0.41800000000E+01 0.  1.
        -11    1    4    4    0    0  0.65162802616E+02 -0.20864320113E+02  0.13748241150E+03  0.15356732781E+03  0.00000000000E+00 0. -1.
         11    1    4    4    0    0 -0.21765225968E+00  0.47881416639E+02  0.77005698692E+02  0.90678305360E+02  0.00000000000E+00 0.  1.
</event>
<event>
 8    1  0.3710605E-009  0.2668202E+03  0.7561462E-02  0.1103113E+00
         -1   -1    0    0    0  501 -0.00000000000E+00  0.00000000000E+00  0.32101461849E+04  0.32101461849E+04  0.00000000000E+00 0.  1.
          1   -1    0    0  501    0  0.00000000000E+00 -0.00000000000E+00 -0.24338144097E+02  0.24338144097E+02  0.00000000000E+00 0. -1.
         25    2    1    2    0    0  0.24050957369E+03  0.85721535277E+02  0.18219319811E+04  0.18439842852E+04  0.12509541937E+03 0.  0.
         23    2    1    2    0    0 -0.24050957369E+03 -0.85721535277E+02  0.13638760597E+04  0.13905000437E+04  0.90218782459E+02 0.  0.
          5    1    3    3  502    0  0.21019148376E+03  0.95780802125E+02  0.12515813787E+04  0.12727245742E+04  0.41800000000E+01 0.  1.
         -5    1    3    3    0  502  0.30318089930E+02 -0.10059266848E+02  0.57035060233E+03  0.57125971100E+03  0.41800000000E+01 0.  1.
        -11    1    4    4    0    0 -0.13381907435E+03 -0.93777920759E+02  0.86066405494E+03  0.87603907365E+03  0.00000000000E+00 0.  1.
         11    1    4    4    0    0 -0.10669049934E+03  0.80563854814E+01  0.50321200477E+03  0.51446097009E+03  0.00000000000E+00 0. -1.
</event>
<event>
 8    1  0.3710605E-009  0.9354212E+02  0.7561462E-02  0.1294494E+00
          4   -1    0    0  501    0  0.00000000000E+00  0.00000000000E+00  0.26248698408E+02  0.26248698408E+02  0.00000000000E+00 0.  1.
         -4   -1    0    0    0  501 -0.00000000000E+00 -0.00000000000E+00 -0.48879976706E+03  0.48879976706E+03  0.00000000000E+00 0. -1.
         25    2    1    2    0    0 -0.54310514058E+01  0.32593003054E+02 -0.27835222848E+03  0.30694999080E+03  0.12508610469E+03 0.  0.
         23    2    1    2    0    0  0.54310514058E+01 -0.32593003054E+02 -0.18419884017E+03  0.20809847467E+03  0.91016274757E+02 0.  0.
          5    1    3    3  502    0  0.43396801542E+02 -0.57829834771E+01 -0.20978047513E+03  0.21434095602E+03  0.41800000000E+01 0.  1.
         -5    1    3    3    0  502 -0.48827852948E+02  0.38375986531E+02 -0.68571753355E+02  0.92609034786E+02  0.41800000000E+01 0.  1.
        -11    1    4    4    0    0 -0.13675633755E+02 -0.51915488950E+02 -0.58106895012E+02  0.79111643893E+02  0.00000000000E+00 0. -1.
         11    1    4    4    0    0  0.19106685160E+02  0.19322485896E+02 -0.12609194516E+03  0.12898683077E+03  0.00000000000E+00 0.  1.
</event>
<event>
 8    1  0.3710605E-009  0.1115703E+03  0.7561462E-02  0.1257689E+00
          1   -1    0    0  501    0  0.00000000000E+00  0.00000000000E+00  0.27164177401E+02  0.27164177401E+02  0.00000000000E+00 0. -1.
         -1   -1    0    0    0  501 -0.00000000000E+00 -0.00000000000E+00 -0.81495564625E+03  0.81495564625E+03  0.00000000000E+00 0.  1.
         25    2    1    2    0    0 -0.61695785718E+02  0.59219575953E+02 -0.59132868954E+03  0.61043388641E+03  0.12508630003E+03 0.  0.
         23    2    1    2    0    0  0.61695785718E+02 -0.59219575953E+02 -0.19646277931E+03  0.23168593724E+03  0.88132977416E+02 0.  0.
          5    1    3    3  502    0  0.85339663093E+01  0.65072280205E+02 -0.42020320894E+03  0.42531804504E+03  0.41800000000E+01 0.  1.
         -5    1    3    3    0  502 -0.70229752028E+02 -0.58527042520E+01 -0.17112548060E+03  0.18511584137E+03  0.41800000000E+01 0.  1.
        -11    1    4    4    0    0  0.45688968949E+02 -0.34167281752E+02 -0.19358588614E+03  0.20181769085E+03  0.00000000000E+00 0.  1.
         11    1    4    4    0    0  0.16006816769E+02 -0.25052294202E+02 -0.28768931623E+01  0.29868246385E+02  0.00000000000E+00 0. -1.
</event>
<event>
 8    1  0.3710605E-009  0.7341620E+02  0.7561462E-02  0.1348847E+00
          2   -1    0    0  501    0  0.00000000000E+00  0.00000000000E+00  0.20926611666E+03  0.20926611666E+03  0.00000000000E+00 0. -1.
         -2   -1    0    0    0  501 -0.00000000000E+00 -0.00000000000E+00 -0.73184433994E+02  0.73184433994E+02  0.00000000000E+00 0.  1.
         25    2    1    2    0    0 -0.60324455627E+02  0.43057471844E+01  0.63835944833E+02  0.15289047561E+03  0.12507154063E+03 0.  0.
         23    2    1    2    0    0  0.60324455627E+02 -0.43057471844E+01  0.72245737834E+02  0.12956007504E+03  0.88931361193E+02 0.  0.
          5    1    3    3  502    0 -0.16765874067E+02 -0.64020928328E+01 -0.37615512096E+02  0.41886519025E+02  0.41800000000E+01 0.  1.
         -5    1    3    3    0  502 -0.43558581561E+02  0.10707840017E+02  0.10145145693E+03  0.11100395659E+03  0.41800000000E+01 0.  1.
        -11    1    4    4    0    0  0.63268408744E+02  0.14013167223E+02  0.11206927783E+02  0.65763634564E+02  0.00000000000E+00 0.  1.
         11    1    4    4    0    0 -0.29439531169E+01 -0.18318914408E+02  0.61038810051E+02  0.63796440477E+02  0.00000000000E+00 0. -1.
</event>
<event>
 8    1  0.3710605E-009  0.2189602E+03  0.7561462E-02  0.1134661E+00
         -2   -1    0    0    0  501 -0.00000000000E+00  0.00000000000E+00  0.54420185727E+02  0.54420185727E+02  0.00000000000E+00 0.  1.
          2   -1    0    0  501    0  0.00000000000E+00 -0.00000000000E+00 -0.11300379683E+04  0.11300379683E+04  0.00000000000E+00 0. -1.
         25    2    1    2    0    0  0.12486126479E+03  0.17667294157E+03 -0.42755617317E+03  0.49523528416E+03  0.12510012684E+03 0.  0.
         23    2    1    2    0    0 -0.12486126479E+03 -0.17667294157E+03 -0.64806160941E+03  0.68922286987E+03  0.90778031695E+02 0.  0.
          5    1    3    3  502    0  0.39900834787E+02  0.28239662697E+02 -0.22411573031E+03  0.22942294597E+03  0.41800000000E+01 0.  1.
         -5    1    3    3    0  502  0.84960430004E+02  0.14843327887E+03 -0.20344044286E+03  0.26581233819E+03  0.41800000000E+01 0.  1.
        -11    1    4    4    0    0 -0.96277366170E+02 -0.15248018662E+03 -0.60888325161E+03  0.63502626138E+03  0.00000000000E+00 0. -1.
         11    1    4    4    0    0 -0.28583898621E+02 -0.24192754951E+02 -0.39178357794E+02  0.54196608490E+02  0.00000000000E+00 0.  1.
</event>
<event>
 8    1  0.3710605E-009  0.2128015E+03  0.7561462E-02  0.1139367E+00
          1   -1    0    0  501    0  0.00000000000E+00  0.00000000000E+00  0.91845515298E+03  0.91845515298E+03  0.00000000000E+00 0. -1.
         -1   -1    0    0    0  501 -0.00000000000E+00 -0.00000000000E+00 -0.57742318293E+02  0.57742318293E+02  0.00000000000E+00 0.  1.
         25    2    1    2    0    0  0.18291793807E+03 -0.60510751372E+02  0.31128935780E+03  0.38686754796E+03  0.12507962380E+03 0.  0.
         23    2    1    2    0    0 -0.18291793807E+03  0.60510751372E+02  0.54942347689E+03  0.58932992331E+03  0.91230907344E+02 0.  0.
          5    1    3    3  502    0  0.37709290866E+02  0.32845728624E+02  0.11476282241E+03  0.12525498120E+03  0.41800000000E+01 0.  1.
         -5    1    3    3    0  502  0.14520864720E+03 -0.93356479996E+02  0.19652653539E+03  0.26161256677E+03  0.41800000000E+01 0.  1.
        -11    1    4    4    0    0 -0.14764421612E+03  0.19948578105E+02  0.47289709886E+03  0.49581087769E+03  0.00000000000E+00 0. -1.
         11    1    4    4    0    0 -0.35273721949E+02  0.40562173267E+02  0.76526378024E+02  0.93519045621E+02  0.00000000000E+00 0.  1.
</event>
<event>
 8    1  0.3710605E-009  0.9036984E+02  0.7561462E-02  0.1301959E+00
          1   -1    0    0  501    0  0.00000000000E+00  0.00000000000E+00  0.32602861884E+03  0.32602861884E+03  0.00000000000E+00 0. -1.
         -1   -1    0    0    0  501 -0.00000000000E+00 -0.00000000000E+00 -0.56255147033E+02  0.56255147033E+02  0.00000000000E+00 0.  1.
         25    2    1    2    0    0 -0.35621654586E+02 -0.77956248172E+01  0.24840596477E+03  0.28050349579E+03  0.12508802411E+03 0.  0.
         23    2    1    2    0    0  0.35621654586E+02  0.77956248172E+01  0.21367507040E+02  0.10178027008E+03  0.92590382759E+02 0.  0.
          5    1    3    3  502    0 -0.47533050448E+02 -0.54157939173E+02  0.92311921442E+02  0.11718121223E+03  0.41800000000E+01 0. -1.
         -5    1    3    3    0  502  0.11911395862E+02  0.46362314356E+02  0.15609404333E+03  0.16332228355E+03  0.41800000000E+01 0. -1.
        -11    1    4    4    0    0 -0.16196108663E+01 -0.16152099098E+02 -0.29910678942E+02  0.34031781608E+02  0.00000000000E+00 0.  1.
         11    1    4    4    0    0  0.37241265452E+02  0.23947723915E+02  0.51278185982E+02  0.67748488476E+02  0.00000000000E+00 0. -1.
</event>
<event>
 8    1  0.3710605E-009  0.1153007E+03  0.7561462E-02  0.1251057E+00
          2   -1    0    0  501    0  0.00000000000E+00  0.00000000000E+00  0.14109206592E+04  0.14109206592E+04  0.00000000000E+00 0. -1.
         -2   -1    0    0    0  501 -0.00000000000E+00 -0.00000000000E+00 -0.20355893553E+02  0.20355893553E+02  0.00000000000E+00 0.  1.
         25    2    1    2    0    0 -0.17757610810E+02 -0.97945467399E+02  0.10886903389E+04  0.11003651934E+04  0.12509299587E+03 0.  0.
         23    2    1    2    0    0  0.17757610810E+02  0.97945467399E+02  0.30187442680E+03  0.33091135936E+03  0.92008210881E+02 0.  0.
          5    1    3    3  502    0 -0.26079618926E+02 -0.83160626046E+02  0.32600532520E+03  0.33748004490E+03  0.41800000000E+01 0. -1.
         -5    1    3    3    0  502  0.83220081165E+01 -0.14784841354E+02  0.76268501369E+03  0.76288514854E+03  0.41800000000E+01 0. -1.
        -11    1    4    4    0    0  0.48088398964E+02  0.67690629159E+02  0.13386259951E+03  0.15752368374E+03  0.00000000000E+00 0.  1.
         11    1    4    4    0    0 -0.30330788154E+02  0.30254838240E+02  0.16801182729E+03  0.17338767562E+03  0.00000000000E+00 0. -1.
</event>
<event>
 8    1  0.3710605E-009  0.1441995E+03  0.7561462E-02  0.1207787E+00
         -2   -1    0    0    0  501 -0.00000000000E+00  0.00000000000E+00  0.10734712881E+03  0.10734712881E+03  0.00000000000E+00 0. -1.
          2   -1    0    0  501    0  0.00000000000E+00 -0.00000000000E+00 -0.23248869375E+03  0.23248869375E+03  0.00000000000E+00 0.  1.
         25    2    1    2    0    0 -0.76822871488E+02 -0.78422424224E+02 -0.35369139047E+02  0.17014676229E+03  0.12508842678E+03 0.  0.
         23    2    1    2    0    0  0.76822871488E+02  0.78422424224E+02 -0.89772425889E+02  0.16968906028E+03  0.93185076720E+02 0.  0.
          5    1    3    3  502    0  0.96028259929E+01 -0.62475990039E+02 -0.50320298237E+02  0.80901597098E+02  0.41800000000E+01 0.  1.
         -5    1    3    3    0  502 -0.86425697481E+02 -0.15946434185E+02  0.14951159190E+02  0.89245165188E+02  0.41800000000E+01 0.  1.
        -11    1    4    4    0    0  0.63285068714E+02  0.95937447293E+02 -0.92304097174E+02  0.14740773409E+03  0.00000000000E+00 0. -1.
         11    1    4    4    0    0  0.13537802774E+02 -0.17515023070E+02  0.25316712849E+01  0.22281326185E+02  0.00000000000E+00 0.  1.
</event>
<event>
 8    1  0.3710605E-009  0.9581145E+02  0.7561462E-02  0.1289359E+00
         -2   -1    0    0    0  501 -0.00000000000E+00  0.00000000000E+00  0.25927217516E+02  0.25927217516E+02  0.00000000000E+00 0.  1.
          2   -1    0    0  501    0  0.00000000000E+00 -0.00000000000E+00 -0.47075050569E+03  0.47075050569E+03  0.00000000000E+00 0. -1.
         25    2    1    2    0    0  0.21365525667E+02 -0.20095378491E+01 -0.25893662328E+03  0.28836693294E+03  0.12508712648E+03 0.  0.
         23    2    1    2    0    0 -0.21365525667E+02  0.20095378491E+01 -0.18588666489E+03  0.20831079026E+03  0.91536928204E+02 0.  0.
          5    1    3    3  502    0 -0.42018848857E+02 -0.29130873158E+02 -0.67021011822E+02  0.84400710043E+02  0.41800000000E+01 0.  1.
         -5    1    3    3    0  502  0.63384374524E+02  0.27121335309E+02 -0.19191561146E+03  0.20396622290E+03  0.41800000000E+01 0.  1.
        -11    1    4    4    0    0 -0.29663741542E+02  0.29921854603E+02 -0.16999151974E+03  0.17513529550E+03  0.00000000000E+00 0. -1.
         11    1    4    4    0    0  0.82982158748E+01 -0.27912316754E+02 -0.15895145146E+02  0.33175494759E+02  0.00000000000E+00 0.  1.
</event>
<event>
 8    1  0.3710605E-009  0.1513955E+03  0.7561462E-02  0.1198769E+00
          1   -1    0    0  501    0  0.00000000000E+00  0.00000000000E+00  0.41166543104E+03  0.41166543104E+03  0.00000000000E+00 0.  1.
         -1   -1    0    0    0  501 -0.00000000000E+00 -0.00000000000E+00 -0.76924783263E+02  0.76924783263E+02  0.00000000000E+00 0. -1.
         25    2    1    2    0    0  0.12912926821E+03  0.27752578587E+02  0.10987573192E+03  0.21252051965E+03  0.12509085211E+03 0.  0.
         23    2    1    2    0    0 -0.12912926821E+03 -0.27752578587E+02  0.22486491585E+03  0.27606969465E+03  0.90585166525E+02 0.  0.
          5    1    3    3  502    0  0.14119415335E+03  0.12170374192E+01  0.57665059121E+02  0.15257785411E+03  0.41800000000E+01 0.  1.
         -5    1    3    3    0  502 -0.12064885140E+02  0.26535541168E+02  0.52210672800E+02  0.59942665545E+02  0.41800000000E+01 0.  1.
        -11    1    4    4    0    0 -0.89712780617E+02 -0.18793598626E+02  0.21606179683E+03  0.23470040990E+03  0.00000000000E+00 0.  1.
         11    1    4    4    0    0 -0.39416487594E+02 -0.89589799610E+01  0.88031190184E+01  0.41369284749E+02  0.00000000000E+00 0. -1.
</event>
<event>
 8    1  0.3710605E-009  0.1331081E+03  0.7561462E-02  0.1222915E+00
         -1   -1    0    0    0  501 -0.00000000000E+00  0.00000000000E+00  0.73197439835E+03  0.73197439835E+03  0.00000000000E+00 0.  1.
          1   -1    0    0  501    0  0.00000000000E+00 -0.00000000000E+00 -0.24302885333E+02  0.24302885333E+02  0.00000000000E+00 0. -1.
         25    2    1    2    0    0  0.44969218356E+01  0.82203822430E+02  0.40319810139E+03  0.43011055286E+03  0.12509471607E+03 0.  0.
         23    2    1    2    0    0 -0.44969218356E+01 -0.82203822430E+02  0.30447341163E+03  0.32616673082E+03  0.83084217392E+02 0.  0.
          5    1    3    3  502    0  0.48101676638E+02  0.92614984608E+02  0.29359895532E+03  0.31162337145E+03  0.41800000000E+01 0. -1.
         -5    1    3    3    0  502 -0.43604754802E+02 -0.10411162178E+02  0.10959914608E+03  0.11848718142E+03  0.41800000000E+01 0. -1.
        -11    1    4    4    0    0  0.32688020203E+02 -0.70588058242E+02  0.21207564119E+03  0.22589213846E+03  0.00000000000E+00 0.  1.
         11    1    4    4    0    0 -0.37184942039E+02 -0.11615764188E+02  0.92397770436E+02  0.10027459236E+03  0.00000000000E+00 0. -1.
</event>
<event>
 8    1  0.3710605E-009  0.1183620E+03  0.7561462E-02  0.1245824E+00
          1   -1    0    0  501    0  0.00000000000E+00  0.00000000000E+00  0.17230423006E+03  0.17230423006E+03  0.00000000000E+00 0. -1.
         -1   -1    0    0    0  501 -0.00000000000E+00 -0.00000000000E+00 -0.10736676900E+03  0.10736676900E+03  0.00000000000E+00 0.  1.
         25    2    1    2    0    0 -0.41746124287E+02 -0.62033696717E+02  0.58331466209E+02  0.15698557245E+03  0.12510392315E+03 0.  0.
         23    2    1    2    0    0  0.41746124287E+02  0.62033696717E+02  0.66059948565E+01  0.12268542661E+03  0.97042033741E+02 0.  0.
          5    1    3    3  502    0 -0.41160978512E+02  0.10048039794E+02 -0.22866104837E+02  0.48327222207E+02  0.41800000000E+01 0.  1.
         -5    1    3    3    0  502 -0.58514577433E+00 -0.72081736511E+02  0.81197571046E+02  0.10865835024E+03  0.41800000000E+01 0.  1.
        -11    1    4    4    0    0 -0.11109682377E+02  0.67863756368E+02 -0.21101086112E+01  0.68799469687E+02  0.00000000000E+00 0.  1.
         11    1    4    4    0    0  0.52855806663E+02 -0.58300596513E+01  0.87161034678E+01  0.53885956920E+02  0.00000000000E+00 0. -1.
</event>
<event>
 8    1  0.3710605E-009  0.1879987E+03  0.7561462E-02  0.1160279E+00
         -1   -1    0    0    0  501 -0.00000000000E+00  0.00000000000E+00  0.92066235244E+03  0.92066235244E+03  0.00000000000E+00 0.  1.
          1   -1    0    0  501    0  0.00000000000E+00 -0.00000000000E+00 -0.91156649438E+02  0.91156649438E+02  0.00000000000E+00 0. -1.
         25    2    1    2    0    0  0.11615233979E+03  0.11617454241E+03  0.79380909451E+03  0.82022519851E+03  0.12509439397E+03 0.  0.
         23    2    1    2    0    0 -0.11615233979E+03 -0.11617454241E+03  0.35696608496E+02  0.19159380337E+03  0.91902379143E+02 0.  0.
          5    1    3    3  502    0  0.88986174061E+02  0.21662323338E+01  0.33010798547E+03  0.34192394799E+03  0.41800000000E+01 0.  1.
         -5    1    3    3    0  502  0.27166165725E+02  0.11400831007E+03  0.46370110904E+03  0.47830125052E+03  0.41800000000E+01 0.  1.
        -11    1    4    4    0    0 -0.31873565217E+02 -0.87114744114E+01 -0.25697674446E+02  0.41859101973E+02  0.00000000000E+00 0. -1.
         11    1    4    4    0    0 -0.84278774569E+02 -0.10746306799E+03  0.61394282942E+02  0.14973470140E+03  0.00000000000E+00 0.  1.
</event>
<event>
 8    1  0.3710605E-009  0.1840548E+03  0.7561462E-02  0.1163935E+00
          1   -1    0    0  501    0  0.00000000000E+00  0.00000000000E+00  0.11112007776E+03  0.11112007776E+03  0.00000000000E+00 0. -1.
         -1   -1    0    0    0  501 -0.00000000000E+00 -0.00000000000E+00 -0.37416142241E+03  0.37416142241E+03  0.00000000000E+00 0.  1.
         25    2    1    2    0    0  0.96317276789E+02 -0.13330198604E+03 -0.20128752410E+03  0.28846271296E+03  0.12509049573E+03 0.  0.
         23    2    1    2    0    0 -0.96317276789E+02  0.13330198604E+03 -0.61753820550E+02  0.19681878722E+03  0.88756201803E+02 0.  0.
          5    1    3    3  502    0  0.90040890068E+02 -0.24944751794E+02 -0.63658776459E+02  0.11313494043E+03  0.41800000000E+01 0.  1.
         -5    1    3    3    0  502  0.62763867207E+01 -0.10835723425E+03 -0.13762874764E+03  0.17532777253E+03  0.41800000000E+01 0.  1.
        -11    1    4    4    0    0 -0.37859975887E+02  0.34807970447E+02 -0.64197480380E+02  0.82257456002E+02  0.00000000000E+00 0.  1.
         11    1    4    4    0    0 -0.58457300902E+02  0.98494015592E+02  0.24436598291E+01  0.11456133121E+03  0.00000000000E+00 0. -1.
</event>
<event>
 8    1  0.3710605E-009  0.1365719E+03  0.7561462E-02  0.1218018E+00
          3   -1    0    0  501    0  0.00000000000E+00  0.00000000000E+00  0.35842255867E+02  0.35842255867E+02  0.00000000000E+00 0. -1.
         -3   -1    0    0    0  501 -0.00000000000E+00 -0.00000000000E+00 -0.62762926765E+03  0.62762926765E+03  0.00000000000E+00 0.  1.
         25    2    1    2    0    0 -0.86353241792E+02 -0.29194635796E+02 -0.42734515037E+03  0.45451198099E+03  0.12509218275E+03 0.  0.
         23    2    1    2    0    0  0.86353241792E+02  0.29194635796E+02 -0.16444186141E+03  0.20895954253E+03  0.91179797671E+02 0.  0.
          5    1    3    3  502    0 -0.84078392557E+02  0.34330181929E+02 -0.24085880014E+03  0.25744547285E+03  0.41800000000E+01 0. -1.
         -5    1    3    3    0  502 -0.22748492346E+01 -0.63524817724E+02 -0.18648635023E+03  0.19706650814E+03  0.41800000000E+01 0. -1.
        -11    1    4    4    0    0  0.19261462394E+02 -0.25506762124E+02 -0.87454420016E+02  0.93112160473E+02  0.00000000000E+00 0.  1.
         11    1    4    4    0    0  0.67091779398E+02  0.54701397920E+02 -0.76987441393E+02  0.11584738206E+03  0.00000000000E+00 0. -1.
</event>
<event>
 8    1  0.3710605E-009  0.1314055E+03  0.7561462E-02  0.1225385E+00
         -3   -1    0    0    0  501 -0.00000000000E+00  0.00000000000E+00  0.52988930065E+02  0.52988930065E+02  0.00000000000E+00 0.  1.
          3   -1    0    0  501    0  0.00000000000E+00 -0.00000000000E+00 -0.46877918437E+03  0.46877918437E+03  0.00000000000E+00 0. -1.
         25    2    1    2    0    0 -0.89169389238E+02  0.69349259626E+02 -0.18978806396E+03  0.25382700328E+03  0.12509252008E+03 0.  0.
         23    2    1    2    0    0  0.89169389238E+02 -0.69349259626E+02 -0.22600219034E+03  0.26794111116E+03  0.89190522042E+02 0.  0.
          5    1    3    3  502    0 -0.10601067781E+03  0.45030349556E+02 -0.80638631369E+02  0.14066292141E+03  0.41800000000E+01 0. -1.
         -5    1    3    3    0  502  0.16841288576E+02  0.24318910071E+02 -0.10914943259E+03  0.11316408186E+03  0.41800000000E+01 0. -1.
        -11    1    4    4    0    0  0.47797129408E+02 -0.57244369878E+02 -0.57937941639E+02  0.94436690665E+02  0.00000000000E+00 0.  1.
         11    1    4    4    0    0  0.41372259830E+02 -0.12104889748E+02 -0.16806424870E+03  0.17350442049E+03  0.00000000000E+00 0. -1.
</event>
<event>
 8    1  0.3710605E-009  0.1297056E+03  0.7561462E-02  0.1227893E+00
          1   -1    0    0  501    0  0.00000000000E+00  0.00000000000E+00  0.34944609404E+03  0.34944609404E+03  0.00000000000E+00 0. -1.
         -1   -1    0    0    0  501 -0.00000000000E+00 -0.00000000000E+00 -0.58388330318E+02  0.58388330318E+02  0.00000000000E+00 0.  1.
         25    2    1    2    0    0  0.12647567819E+02  0.80875585818E+02  0.10443079054E+03  0.18235771775E+03  0.12509087040E+03 0.  0.
         23    2    1    2    0    0 -0.12647567819E+02 -0.80875585818E+02  0.18662697319E+03  0.22547670661E+03  0.96484696981E+02 0.  0.
          5    1    3    3  502    0  0.59453187478E+02  0.37650673562E+02  0.14346671309E+02  0.71941323998E+02  0.41800000000E+01 0. -1.
         -5    1    3    3    0  502 -0.46805619659E+02  0.43224912256E+02  0.90084119229E+02  0.11041639375E+03  0.41800000000E+01 0. -1.
        -11    1    4    4    0    0 -0.43021444052E+02 -0.49678520542E+01  0.48989592869E+02  0.65387341373E+02  0.00000000000E+00 0. -1.
         11    1    4    4    0    0  0.30373876233E+02 -0.75907733764E+02  0.13763738032E+03  0.16008936524E+03  0.00000000000E+00 0.  1.
</event>
<event>
 8    1  0.3710605E-009  0.9367739E+02  0.7561462E-02  0.1294183E+00
          1   -1    0    0  501    0  0.00000000000E+00  0.00000000000E+00  0.42267951669E+03  0.42267951669E+03  0.00000000000E+00 0. -1.
         -1   -1    0    0    0  501 -0.00000000000E+00 -0.00000000000E+00 -0.34029720636E+02  0.34029720636E+02  0.00000000000E+00 0.  1.
         25    2    1    2    0    0 -0.24434356451E+02  0.45443148185E+01  0.13257444715E+03  0.18394988846E+03  0.12507553261E+03 0.  0.
         23    2    1    2    0    0  0.24434356451E+02 -0.45443148185E+01  0.25607534891E+03  0.27275934887E+03  0.90583605042E+02 0.  0.
          5    1    3    3  502    0  0.35154900963E+02  0.24875240124E+02  0.10780140635E+03  0.11616049347E+03  0.41800000000E+01 0. -1.
         -5    1    3    3    0  502 -0.59589257413E+02 -0.20330925305E+02  0.24773040799E+02  0.67789394991E+02  0.41800000000E+01 0. -1.
        -11    1    4    4    0    0  0.52274649006E+02 -0.81752347312E+01  0.90593010185E+02  0.10491218655E+03  0.00000000000E+00 0. -1.
         11    1    4    4    0    0 -0.27840292555E+02  0.36309199127E+01  0.16548233873E+03  0.16784716232E+03  0.00000000000E+00 0.  1.
</event>
<event>
 8    1  0.3710605E-009  0.8469481E+02  0.7561462E-02  0.1316233E+00
         -1   -1    0    0    0  501 -0.00000000000E+00  0.00000000000E+00  0.13352240638E+03  0.13352240638E+03  0.00000000000E+00 0.  1.
          1   -1    0    0  501    0  0.00000000000E+00 -0.00000000000E+00 -0.10476555545E+03  0.10476555545E+03  0.00000000000E+00 0. -1.
         25    2    1    2    0    0  0.12124376193E+02  0.27053368824E+02  0.50867447649E+02  0.13824895385E+03  0.12508553373E+03 0.  0.
         23    2    1    2    0    0 -0.12124376193E+02 -0.27053368824E+02 -0.22110596716E+02  0.10003900798E+03  0.92951812078E+02 0.  0.
          5    1    3    3  502    0 -0.55502099827E+02  0.15511925553E+02  0.35518975563E+02  0.67824574783E+02  0.41800000000E+01 0. -1.
         -5    1    3    3    0  502  0.67626476019E+02  0.11541443271E+02  0.15348472087E+02  0.70424379067E+02  0.41800000000E+01 0. -1.
        -11    1    4    4    0    0  0.77377639056E+01 -0.20581187881E+02  0.33817368591E+02  0.40336989268E+02  0.00000000000E+00 0.  1.
         11    1    4    4    0    0 -0.19862140098E+02 -0.64721809431E+01 -0.55927965306E+02  0.59702018716E+02  0.00000000000E+00 0. -1.
</event>
<event>
 8    1  0.3710605E-009  0.1100560E+03  0.7561462E-02  0.1260466E+00
         -1   -1    0    0    0  501 -0.00000000000E+00  0.00000000000E+00  0.29481349317E+02  0.29481349317E+02  0.00000000000E+00 0.  1.
          1   -1    0    0  501    0  0.00000000000E+00 -0.00000000000E+00 -0.70615451143E+03  0.70615451143E+03  0.00000000000E+00 0. -1.
         25    2    1    2    0    0 -0.10322616770E+02 -0.54838562077E+02 -0.56441343637E+03  0.58079589877E+03  0.12509006584E+03 0.  0.
         23    2    1    2    0    0  0.10322616770E+02  0.54838562077E+02 -0.11225972575E+03  0.15483996198E+03  0.90880930300E+02 0.  0.
          5    1    3    3  502    0  0.35719750116E+02  0.24068082045E+02 -0.13555297956E+03  0.14229285221E+03  0.41800000000E+01 0. -1.
         -5    1    3    3    0  502 -0.46042366886E+02 -0.78906644122E+02 -0.42886045680E+03  0.43850304656E+03  0.41800000000E+01 0. -1.
        -11    1    4    4    0    0  0.96552029530E+01 -0.13745516288E+02 -0.74854079473E+02  0.76715678814E+02  0.00000000000E+00 0. -1.
         11    1    4    4    0    0  0.66741381683E+00  0.68584078365E+02 -0.37405646275E+02  0.78124283163E+02  0.00000000000E+00 0.  1.
</event>
<event>
 8    1  0.3710605E-009  0.1407016E+03  0.7561462E-02  0.1212388E+00
          1   -1    0    0  501    0  0.00000000000E+00  0.00000000000E+00  0.34084366273E+02  0.34084366273E+02  0.00000000000E+00 0. -1.
         -1   -1    0    0    0  501 -0.00000000000E+00 -0.00000000000E+00 -0.75144008606E+03  0.75144008606E+03  0.00000000000E+00 0.  1.
         25    2    1    2    0    0 -0.74891438583E+02 -0.86391864214E+02 -0.31729413385E+03  0.35971569154E+03  0.12509008589E+03 0.  0.
         23    2    1    2    0    0  0.74891438583E+02  0.86391864214E+02 -0.40006158594E+03  0.42580876080E+03  0.90507162431E+02 0.  0.
          5    1    3    3  502    0 -0.90633002254E+02 -0.28756037052E+02 -0.25983200320E+03  0.27671536468E+03  0.41800000000E+01 0.  1.
         -5    1    3    3    0  502  0.15741563671E+02 -0.57635827162E+02 -0.57462130651E+02  0.83000326857E+02  0.41800000000E+01 0.  1.
        -11    1    4    4    0    0  0.47738575847E+02  0.15138496456E+02 -0.27353310241E+03  0.27808003131E+03  0.00000000000E+00 0. -1.
         11    1    4    4    0    0  0.27152862736E+02  0.71253367758E+02 -0.12652848353E+03  0.14772872949E+03  0.00000000000E+00 0.  1.
</event>
<event>
 8    1  0.3710605E-009  0.1788295E+03  0.7561462E-02  0.1168941E+00
          2   -1    0    0  501    0  0.00000000000E+00  0.00000000000E+00  0.14074487920E+04  0.14074487920E+04  0.00000000000E+00 0. -1.
         -2   -1    0    0    0  501 -0.00000000000E+00 -0.00000000000E+00 -0.27447164093E+02  0.27447164093E+02  0.00000000000E+00 0.  1.
         25    2    1    2    0    0  0.16018567886E+03  0.10866403268E+02  0.83716795894E+03  0.86155418263E+03  0.12509151726E+03 0.  0.
         23    2    1    2    0    0 -0.16018567886E+03 -0.10866403268E+02  0.54283366898E+03  0.57334177348E+03  0.90966293801E+02 0.  0.
          5    1    3    3  502    0 -0.55935379127E+01 -0.20358647427E+01  0.27984620552E+03  0.27994071436E+03  0.41800000000E+01 0. -1.
         -5    1    3    3    0  502  0.16577921677E+03  0.12902268011E+02  0.55732175342E+03  0.58161346827E+03  0.41800000000E+01 0. -1.
        -11    1    4    4    0    0 -0.38753326261E+02  0.36949296395E+02  0.17730467137E+03  0.18521343712E+03  0.00000000000E+00 0.  1.
         11    1    4    4    0    0 -0.12143235260E+03 -0.47815699663E+02  0.36552899761E+03  0.38812833636E+03  0.00000000000E+00 0. -1.
</event>
<event>
 8    1  0.3710605E-009  0.9311782E+02  0.7561462E-02  0.1295472E+00
          1   -1    0    0  501    0  0.00000000000E+00  0.00000000000E+00  0.10295807980E+04  0.10295807980E+04  0.00000000000E+00 0. -1.
         -1   -1    0    0    0  501 -0.00000000000E+00 -0.00000000000E+00 -0.25438347909E+02  0.25438347909E+02  0.00000000000E+00 0.  1.
         25    2    1    2    0    0  0.20832043198E+02  0.37426910020E+02  0.90000247276E+03  0.90966306321E+03  0.12509072703E+03 0.  0.
         23    2    1    2    0    0 -0.20832043198E+02 -0.37426910020E+02  0.10413997732E+03  0.14535608268E+03  0.91915767303E+02 0.  0.
          5    1    3    3  502    0 -0.17554393299E+00 -0.33854015564E+02  0.89990149067E+02  0.96238373399E+02  0.41800000000E+01 0.  1.
         -5    1    3    3    0  502  0.21007587131E+02  0.71280925584E+02  0.81001232369E+03  0.81342468981E+03  0.41800000000E+01 0.  1.
        -11    1    4    4    0    0  0.16152934065E+02 -0.37367720301E+02  0.68610849136E+01  0.41283632175E+02  0.00000000000E+00 0.  1.
         11    1    4    4    0    0 -0.36984977263E+02 -0.59189719303E-01  0.97278892407E+02  0.10407245051E+03  0.00000000000E+00 0. -1.
</event>
<event>
 8    1  0.3710605E-009  0.1453211E+03  0.7561462E-02  0.1206343E+00
          2   -1    0    0  501    0  0.00000000000E+00  0.00000000000E+00  0.15584966962E+03  0.15584966962E+03  0.00000000000E+00 0. -1.
         -2   -1    0    0    0  501 -0.00000000000E+00 -0.00000000000E+00 -0.15125166934E+03  0.15125166934E+03  0.00000000000E+00 0.  1.
         25    2    1    2    0    0  0.37217445850E+02 -0.10258938099E+03  0.90176779751E+00  0.16600631055E+03  0.12509021780E+03 0.  0.
         23    2    1    2    0    0 -0.37217445850E+02  0.10258938099E+03  0.36962324825E+01  0.14109502841E+03  0.89355612812E+02 0.  0.
          5    1    3    3  502    0  0.23727591217E+02 -0.12825362051E+03  0.18547920459E+02  0.13180852595E+03  0.41800000000E+01 0. -1.
         -5    1    3    3    0  502  0.13489854634E+02  0.25664239519E+02 -0.17646152661E+02  0.34197784605E+02  0.41800000000E+01 0. -1.
        -11    1    4    4    0    0  0.10884638369E+02  0.74206051819E+02  0.28170666005E+02  0.80116165049E+02  0.00000000000E+00 0. -1.
         11    1    4    4    0    0 -0.48102084219E+02  0.28383329173E+02 -0.24474433522E+02  0.60978863366E+02  0.00000000000E+00 0.  1.
</event>
<event>
 8    1  0.3710605E-009  0.1510294E+03  0.7561462E-02  0.1199214E+00
          3   -1    0    0  501    0  0.00000000000E+00  0.00000000000E+00  0.24588662203E+03  0.24588662203E+03  0.00000000000E+00 0. -1.
         -3   -1    0    0    0  501 -0.00000000000E+00 -0.00000000000E+00 -0.12161794300E+03  0.12161794300E+03  0.00000000000E+00 0.  1.
         25    2    1    2    0    0 -0.84131637690E+02 -0.10547258465E+03  0.69267645696E+02  0.19659424776E+03  0.12509473585E+03 0.  0.
         23    2    1    2    0    0  0.84131637690E+02  0.10547258465E+03  0.55001033331E+02  0.17091031727E+03  0.89345533224E+02 0.  0.
          5    1    3    3  502    0  0.97029684603E+00 -0.27200809910E+02 -0.32436265300E+02  0.42548904126E+02  0.41800000000E+01 0.  1.
         -5    1    3    3    0  502 -0.85101934536E+02 -0.78271774741E+02  0.10170391100E+03  0.15404534363E+03  0.41800000000E+01 0.  1.
        -11    1    4    4    0    0  0.51799366631E+02  0.11414402337E+03  0.29351090484E+02  0.12873817991E+03  0.00000000000E+00 0. -1.
         11    1    4    4    0    0  0.32332271058E+02 -0.86714387153E+01  0.25649942847E+02  0.42172137357E+02  0.00000000000E+00 0.  1.
</event>
<event>
 8    1  0.3710605E-009  0.2972779E+03  0.7561462E-02  0.1086609E+00
         -2   -1    0    0    0  501 -0.00000000000E+00  0.00000000000E+00  0.84054354542E+02  0.84054354542E+02  0.00000000000E+00 0.  1.
          2   -1    0    0  501    0  0.00000000000E+00 -0.00000000000E+00 -0.12088619872E+04  0.12088619872E+04  0.00000000000E+00 0. -1.
         25    2    1    2    0    0 -0.25026712938E+03 -0.15497690369E+03 -0.46224466281E+03  0.56211099275E+03  0.12508862117E+03 0.  0.
         23    2    1    2    0    0  0.25026712938E+03  0.15497690369E+03 -0.66256296982E+03  0.73080534897E+03  0.91843847775E+02 0.  0.
          5    1    3    3  502    0 -0.14943386761E+03 -0.11243860872E+03 -0.18098294576E+03  0.26027912052E+03  0.41800000000E+01 0.  1.
         -5    1    3    3    0  502 -0.10083326177E+03 -0.42538294971E+02 -0.28126171705E+03  0.30183187223E+03  0.41800000000E+01 0.  1.
        -11    1    4    4    0    0  0.20371611008E+03  0.10323853381E+03 -0.41553232757E+03  0.47415774129E+03  0.00000000000E+00 0.  1.
         11    1    4    4    0    0  0.46551019304E+02  0.51738369883E+02 -0.24703064225E+03  0.25664760767E+03  0.00000000000E+00 0. -1.
</event>
<event>
 8    1  0.3710605E-009  0.1005451E+03  0.7561462E-02  0.1279154E+00
         -1   -1    0    0    0  501 -0.00000000000E+00  0.00000000000E+00  0.18056303247E+02  0.18056303247E+02  0.00000000000E+00 0.  1.
          1   -1    0    0  501    0  0.00000000000E+00 -0.00000000000E+00 -0.98047520012E+03  0.98047520012E+03  0.00000000000E+00 0. -1.
         25    2    1    2    0    0  0.43167444081E+02 -0.53651460076E+02 -0.67785277487E+03  0.69272952005E+03  0.12509155107E+03 0.  0.
         23    2    1    2    0    0 -0.43167444081E+02  0.53651460076E+02 -0.28456612200E+03  0.30580198332E+03  0.88289681238E+02 0.  0.
          5    1    3    3  502    0 -0.44849127800E+01  0.86465356813E+01 -0.26318966807E+00  0.10602768069E+02  0.41800000000E+01 0.  1.
         -5    1    3    3    0  502  0.47652356861E+02 -0.62297995758E+02 -0.67758958520E+03  0.68212675198E+03  0.41800000000E+01 0.  1.
        -11    1    4    4    0    0 -0.69566912958E+02  0.27555535581E+02 -0.19308026592E+03  0.20707209374E+03  0.00000000000E+00 0. -1.
         11    1    4    4    0    0  0.26399468878E+02  0.26095924495E+02 -0.91485856085E+02  0.98729889577E+02  0.00000000000E+00 0.  1.
</event>
<event>
 8    1  0.3710605E-009  0.1809173E+03  0.7561462E-02  0.1166918E+00
         -2   -1    0    0    0  501 -0.00000000000E+00  0.00000000000E+00  0.47824241554E+02  0.47824241554E+02  0.00000000000E+00 0.  1.
          2   -1    0    0  501    0  0.00000000000E+00 -0.00000000000E+00 -0.74413351427E+03  0.74413351427E+03  0.00000000000E+00 0. -1.
         25    2    1    2    0    0 -0.15275128709E+03 -0.73428209090E+01 -0.33231684979E+03  0.38660886682E+03  0.12508019236E+03 0.  0.
         23    2    1    2    0    0  0.15275128709E+03  0.73428209090E+01 -0.36399242293E+03  0.40534888901E+03  0.91817019909E+02 0.  0.
          5    1    3    3  502    0 -0.74976382802E+02  0.47466571887E+02 -0.23130671410E+03  0.24777974455E+03  0.41800000000E+01 0. -1.
         -5    1    3    3    0  502 -0.77774904288E+02 -0.54809392796E+02 -0.10101013569E+03  0.13882912226E+03  0.41800000000E+01 0. -1.
        -11    1    4    4    0    0  0.53144642932E+02 -0.40922090428E+02 -0.15396400077E+03  0.16794012055E+03  0.00000000000E+00 0. -1.
         11    1    4    4    0    0  0.99606644159E+02  0.48264911337E+02 -0.21002842216E+03  0.23740876846E+03  0.00000000000E+00 0.  1.
</event>
<event>
 8    1  0.3710605E-009  0.1277829E+03  0.7561462E-02  0.1230783E+00
         -2   -1    0    0    0  501 -0.00000000000E+00  0.00000000000E+00  0.44086968722E+02  0.44086968722E+02  0.00000000000E+00 0.  1.
          2   -1    0    0  501    0  0.00000000000E+00 -0.00000000000E+00 -0.40632140968E+03  0.40632140968E+03  0.00000000000E+00 0. -1.
         25    2    1    2    0    0 -0.67419669804E+02  0.37376160520E+02 -0.21600703563E+03  0.26124529382E+03  0.12509066653E+03 0.  0.
         23    2    1    2    0    0  0.67419669804E+02 -0.37376160520E+02 -0.14622740533E+03  0.18916308458E+03  0.91966457178E+02 0.  0.
          5    1    3    3  502    0 -0.76875188868E+02 -0.26787959770E+02 -0.11021575995E+03  0.13708528584E+03  0.41800000000E+01 0.  1.
         -5    1    3    3    0  502  0.94555190636E+01  0.64164120290E+02 -0.10579127568E+03  0.12416000798E+03  0.41800000000E+01 0.  1.
        -11    1    4    4    0    0  0.35903758397E+02  0.21806445941E+02 -0.97837825438E+02  0.10647460278E+03  0.00000000000E+00 0. -1.
         11    1    4    4    0    0  0.31515911407E+02 -0.59182606460E+02 -0.48389579892E+02  0.82688481794E+02  0.00000000000E+00 0.  1.
</event>
<event>
 8    1  0.3710605E-009  0.1110166E+03  0.7561462E-02  0.1258699E+00
          1   -1    0    0  501    0  0.00000000000E+00  0.00000000000E+00  0.52665921170E+03  0.52665921170E+03  0.00000000000E+00 0. -1.
         -1   -1    0    0    0  501 -0.00000000000E+00 -0.00000000000E+00 -0.24661539608E+02  0.24661539608E+02  0.00000000000E+00 0.  1.
         25    2    1    2    0    0 -0.48320226925E+01  0.28805988802E+02  0.30839769367E+03  0.33408201906E+03  0.12509406286E+03 0.  0.
         23    2    1    2    0    0  0.48320226925E+01 -0.28805988802E+02  0.19359997842E+03  0.21723873225E+03  0.94120038836E+02 0.  0.
          5    1    3    3  502    0 -0.34621438610E+02  0.69469543882E+02  0.17894591054E+03  0.19509939220E+03  0.41800000000E+01 0.  1.
         -5    1    3    3    0  502  0.29789415918E+02 -0.40663555080E+02  0.12945178313E+03  0.13898262686E+03  0.41800000000E+01 0.  1.
        -11    1    4    4    0    0  0.20440692283E+02  0.28080438076E+02  0.41596532462E+02  0.54190445804E+02  0.00000000000E+00 0.  1.
         11    1    4    4    0    0 -0.15608669590E+02 -0.56886426878E+02  0.15200344596E+03  0.16304828644E+03  0.00000000000E+00 0. -1.
</event>
<event>
 8    1  0.3710605E-009  0.1113097E+03  0.7561462E-02  0.1258164E+00
          4   -1    0    0  501    0  0.00000000000E+00  0.00000000000E+00  0.69213360744E+02  0.69213360744E+02  0.00000000000E+00 0.  1.
         -4   -1    0    0    0  501 -0.00000000000E+00 -0.00000000000E+00 -0.35569248342E+03  0.35569248342E+03  0.00000000000E+00 0. -1.
         25    2    1    2    0    0 -0.69878650321E+02 -0.25684291078E+02 -0.26759172046E+03  0.30462462058E+03  0.12509245391E+03 0.  0.
         23    2    1    2    0    0  0.69878650321E+02  0.25684291078E+02 -0.18887402208E+02  0.12028122358E+03  0.92564195047E+02 0.  0.
          5    1    3    3  502    0 -0.37214805728E+02  0.40265120853E+02 -0.48001034051E+02  0.72991735099E+02  0.41800000000E+01 0.  1.
         -5    1    3    3    0  502 -0.32663844593E+02 -0.65949411931E+02 -0.21959068641E+03  0.23163288548E+03  0.41800000000E+01 0.  1.
        -11    1    4    4    0    0  0.41024111515E+02  0.43669617218E+02  0.24864493053E+02  0.64871073741E+02  0.00000000000E+00 0.  1.
         11    1    4    4    0    0  0.28854538806E+02 -0.17985326140E+02 -0.43751895261E+02  0.55410149838E+02  0.00000000000E+00 0. -1.
</event>
<event>
 8    1  0.3710605E-009  0.1522635E+03  0.7561462E-02  0.1197719E+00
         -4   -1    0    0    0  501 -0.00000000000E+00  0.00000000000E+00  0.51997527656E+03  0.51997527656E+03  0.00000000000E+00 0.  1.
          4   -1    0    0  501    0  0.00000000000E+00 -0.00000000000E+00 -0.54733356348E+02  0.54733356348E+02  0.00000000000E+00 0. -1.
         25    2    1    2    0    0 -0.91843045004E+02 -0.89797466992E+02  0.23164554244E+03  0.29292639106E+03  0.12508990070E+03 0.  0.
         23    2    1    2    0    0  0.91843045004E+02  0.89797466992E+02  0.23359637777E+03  0.28178224184E+03  0.91297503341E+02 0.  0.
          5    1    3    3  502    0 -0.11397028535E+03 -0.80095815904E+02  0.13801355521E+03  0.19613714460E+03  0.41800000000E+01 0. -1.
         -5    1    3    3    0  502  0.22127240350E+02 -0.97016510875E+01  0.93631987227E+02  0.96789246466E+02  0.41800000000E+01 0. -1.
        -11    1    4    4    0    0  0.21745532159E+02  0.61181282072E+02  0.46261126532E+02  0.79725211024E+02  0.00000000000E+00 0. -1.
         11    1    4    4    0    0  0.70097512845E+02  0.28616184920E+02  0.18733525124E+03  0.20205703082E+03  0.00000000000E+00 0.  1.
</event>
<event>
 8    1  0.3710605E-009  0.1052313E+03  0.7561462E-02  0.1269665E+00
         -1   -1    0    0    0  501 -0.00000000000E+00  0.00000000000E+00  0.81955720874E+02  0.81955720874E+02  0.00000000000E+00 0.  1.
          1   -1    0    0  501    0  0.00000000000E+00 -0.00000000000E+00 -0.16703447175E+03  0.16703447175E+03  0.00000000000E+00 0. -1.
         25    2    1    2    0    0  0.41275328399E+02 -0.13871114770E+02 -0.46540205239E+02  0.14039175364E+03  0.12509113968E+03 0.  0.
         23    2    1    2    0    0 -0.41275328399E+02  0.13871114770E+02 -0.38538545635E+02  0.10859843899E+03  0.91718814269E+02 0.  0.
          5    1    3    3  502    0 -0.10060624435E+02  0.44335456991E+02 -0.42799400283E+02  0.62578830088E+02  0.41800000000E+01 0. -1.
         -5    1    3    3    0  502  0.51335952834E+02 -0.58206571761E+02 -0.37408049567E+01  0.77812923550E+02  0.41800000000E+01 0. -1.
        -11    1    4    4    0    0  0.16539098306E+02  0.23232084443E+02  0.12287248433E+02  0.31052342816E+02  0.00000000000E+00 0.  1.
         11    1    4    4    0    0 -0.57814426705E+02 -0.93609696730E+01 -0.50825794067E+02  0.77546096169E+02  0.00000000000E+00 0. -1.
</event>
<event>
 8    1  0.3710605E-009  0.9991219E+02  0.7561462E-02  0.1280481E+00
          2   -1    0    0  501    0  0.00000000000E+00  0.00000000000E+00  0.42976594141E+02  0.42976594141E+02  0.00000000000E+00 0. -1.
         -2   -1    0    0    0  501 -0.00000000000E+00 -0.00000000000E+00 -0.34375547684E+03  0.34375547684E+03  0.00000000000E+00 0.  1.
         25    2    1    2    0    0 -0.99767266488E+01 -0.17928596146E+02 -0.24978672233E+03  0.28011020626E+03  0.12508937350E+03 0.  0.
         23    2    1    2    0    0  0.99767266488E+01  0.17928596146E+02 -0.50992160371E+02  0.10662186472E+03  0.91362202160E+02 0.  0.
          5    1    3    3  502    0 -0.48161413999E+02 -0.49373752989E+02 -0.19129401379E+03  0.20339164534E+03  0.41800000000E+01 0. -1.
         -5    1    3    3    0  502  0.38184687351E+02  0.31445156842E+02 -0.58492708539E+02  0.76718560917E+02  0.41800000000E+01 0. -1.
        -11    1    4    4    0    0 -0.23744337207E+02 -0.19484490486E+02 -0.46934200102E+02  0.56091515028E+02  0.00000000000E+00 0.  1.
         11    1    4    4    0    0  0.33721063856E+02  0.37413086632E+02 -0.40579602689E+01  0.50530349696E+02  0.00000000000E+00 0. -1.
</event>
<event>
 8    1  0.3710605E-009  0.1043168E+03  0.7561462E-02  0.1271472E+00
         -3   -1    0    0    0  501 -0.00000000000E+00  0.00000000000E+00  0.13455090716E+02  0.13455090716E+02  0.00000000000E+00 0.  1.
          3   -1    0    0  501    0  0.00000000000E+00 -0.00000000000E+00 -0.89209856886E+03  0.89209856886E+03  0.00000000000E+00 0. -1.
         25    2    1    2    0    0 -0.78673472249E+00 -0.12263785454E+02 -0.53896021663E+03  0.55342260431E+03  0.12508974564E+03 0.  0.
         23    2    1    2    0    0  0.78673472249E+00  0.12263785454E+02 -0.33968326151E+03  0.35213105526E+03  0.91981207570E+02 0.  0.
          5    1    3    3  502    0 -0.56959327466E+02 -0.16347721302E+02 -0.38241504174E+03  0.38700174357E+03  0.41800000000E+01 0.  1.
         -5    1    3    3    0  502  0.56172592744E+02  0.40839358481E+01 -0.15654517489E+03  0.16642086074E+03  0.41800000000E+01 0.  1.
        -11    1    4    4    0    0  0.13979355282E+02 -0.38155135500E+02 -0.15438465289E+03  0.15964290710E+03  0.00000000000E+00 0.  1.
         11    1    4    4    0    0 -0.13192620559E+02  0.50418920954E+02 -0.18529860862E+03  0.19248814816E+03  0.00000000000E+00 0. -1.
</event>
<event>
 8    1  0.3710605E-009  0.2444800E+03  0.7561462E-02  0.1116844E+00
          1   -1    0    0  501    0  0.00000000000E+00  0.00000000000E+00  0.33540961079E+03  0.33540961079E+03  0.00000000000E+00 0. -1.
         -1   -1    0    0    0  501 -0.00000000000E+00 -0.00000000000E+00 -0.27688362358E+03  0.27688362358E+03  0.00000000000E+00 0.  1.
         25    2    1    2    0    0  0.22969838574E+03 -0.70409904876E+02  0.18299439091E+03  0.32688145913E+03  0.12508252517E+03 0.  0.
         23    2    1    2    0    0 -0.22969838574E+03  0.70409904876E+02 -0.12446840370E+03  0.28541177525E+03  0.90821775022E+02 0.  0.
          5    1    3    3  502    0  0.18649986189E+03 -0.39387975878E+02  0.19444042689E+03  0.27231996463E+03  0.41800000000E+01 0.  1.
         -5    1    3    3    0  502  0.43198523849E+02 -0.31021928998E+02 -0.11446035986E+02  0.54561494493E+02  0.41800000000E+01 0.  1.
        -11    1    4    4    0    0 -0.53463461655E+02  0.38424278062E+02 -0.74572657691E+02  0.99477877700E+02  0.00000000000E+00 0.  1.
         11    1    4    4    0    0 -0.17623492408E+03  0.31985626814E+02 -0.49895746006E+02  0.18593389755E+03  0.00000000000E+00 0. -1.
</event>
<event>
 8    1  0.3710605E-009  0.1006406E+03  0.7561462E-02  0.1278955E+00
          1   -1    0    0  501    0  0.00000000000E+00  0.00000000000E+00  0.67893659802E+02  0.67893659802E+02  0.00000000000E+00 0. -1.
         -1   -1    0    0    0  501 -0.00000000000E+00 -0.00000000000E+00 -0.19492417192E+03  0.19492417192E+03  0.00000000000E+00 0.  1.
         25    2    1    2    0    0  0.35110736935E+02 -0.11657665880E+02 -0.66963229063E+02  0.14663037934E+03  0.12509088327E+03 0.  0.
         23    2    1    2    0    0 -0.35110736935E+02  0.11657665880E+02 -0.60067283049E+02  0.11618745237E+03  0.92318906916E+02 0.  0.
          5    1    3    3  502    0  0.42154800217E+02 -0.53890066872E+02 -0.76342648847E+02  0.10260038461E+03  0.41800000000E+01 0. -1.
         -5    1    3    3    0  502 -0.70440632823E+01  0.42232400992E+02  0.93794197832E+01  0.44029994737E+02  0.41800000000E+01 0. -1.
        -11    1    4    4    0    0 -0.58412391353E+02 -0.83453916417E+01 -0.13704156641E+02  0.60576042579E+02  0.00000000000E+00 0. -1.
         11    1    4    4    0    0  0.23301654419E+02  0.20003057521E+02 -0.46363126409E+02  0.55611409794E+02  0.00000000000E+00 0.  1.
</event>
<event>
 8    1  0.3710605E-009  0.1915159E+03  0.7561462E-02  0.1157101E+00
          2   -1    0    0  501    0  0.00000000000E+00  0.00000000000E+00  0.24092387327E+04  0.24092387327E+04  0.00000000000E+00 0. -1.
         -2   -1    0    0    0  501 -0.00000000000E+00 -0.00000000000E+00 -0.19446945389E+02  0.19446945389E+02  0.00000000000E+00 0.  1.
         25    2    1    2    0    0 -0.85312880006E+02  0.14028641301E+03  0.17386675447E+04  0.17508772494E+04  0.12509095276E+03 0.  0.
         23    2    1    2    0    0  0.85312880006E+02 -0.14028641301E+03  0.65112424258E+03  0.67780842861E+03  0.92211287016E+02 0.  0.
          5    1    3    3  502    0 -0.10227863727E+03  0.74372596232E+02  0.82249104522E+03  0.83216656661E+03  0.41800000000E+01 0. -1.
         -5    1    3    3    0  502  0.16965757263E+02  0.65913816776E+02  0.91617649949E+03  0.91871068284E+03  0.41800000000E+01 0. -1.
        -11    1    4    4    0    0  0.36149771246E+02  0.35327634099E+01  0.12598148822E+03  0.13111301138E+03  0.00000000000E+00 0.  1.
         11    1    4    4    0    0  0.49163108760E+02 -0.14381917642E+03  0.52514275436E+03  0.54669541723E+03  0.00000000000E+00 0. -1.
</event>
<event>
 8    1  0.3710605E-009  0.1202262E+03  0.7561462E-02  0.1242724E+00
          1   -1    0    0  501    0  0.00000000000E+00  0.00000000000E+00  0.18740604173E+03  0.18740604173E+03  0.00000000000E+00 0. -1.
         -1   -1    0    0    0  501 -0.00000000000E+00 -0.00000000000E+00 -0.95380973260E+02  0.95380973260E+02  0.00000000000E+00 0.  1.
         25    2    1    2    0    0  0.14840889757E+02 -0.71820545297E+02  0.79222546529E+02  0.16523626780E+03  0.12509344340E+03 0.  0.
         23    2    1    2    0    0 -0.14840889757E+02  0.71820545297E+02  0.12802521945E+02  0.11755074719E+03  0.90971593711E+02 0.  0.
          5    1    3    3  502    0 -0.54863944220E+02 -0.27421968083E+02  0.42292825500E+02  0.74620186261E+02  0.41800000000E+01 0. -1.
         -5    1    3    3    0  502  0.69704833976E+02 -0.44398577213E+02  0.36929721029E+02  0.90616081539E+02  0.41800000000E+01 0. -1.
        -11    1    4    4    0    0  0.22525391359E+02  0.11556177717E+02  0.35047241513E+02  0.43234796599E+02  0.00000000000E+00 0. -1.
         11    1    4    4    0    0 -0.37366281116E+02  0.60264367580E+02 -0.22244719567E+02  0.74315950595E+02  0.00000000000E+00 0.  1.
</event>
<event>
 8    1  0.3710605E-009  0.1184841E+03  0.7561462E-02  0.1245619E+00
          2   -1    0    0  501    0  0.00000000000E+00  0.00000000000E+00  0.32471286618E+03  0.32471286618E+03  0.00000000000E+00 0. -1.
         -2   -1    0    0    0  501 -0.00000000000E+00 -0.00000000000E+00 -0.79648971934E+02  0.79648971934E+02  0.00000000000E+00 0.  1.
         25    2    1    2    0    0  0.18953790733E+02  0.63960340882E+02  0.25479686808E+03  0.29158177859E+03  0.12509323815E+03 0.  0.
         23    2    1    2    0    0 -0.18953790733E+02 -0.63960340882E+02 -0.97329738315E+01  0.11278005953E+03  0.90412607853E+02 0.  0.
          5    1    3    3  502    0 -0.49829821620E+02  0.18562909050E+02  0.61505540475E+02  0.81412509015E+02  0.41800000000E+01 0. -1.
         -5    1    3    3    0  502  0.68783612353E+02  0.45397431832E+02  0.19329132761E+03  0.21016926957E+03  0.41800000000E+01 0. -1.
        -11    1    4    4    0    0 -0.10025297900E+02 -0.81135033588E+02 -0.27752308264E+02  0.86334181453E+02  0.00000000000E+00 0.  1.
         11    1    4    4    0    0 -0.89284928328E+01  0.17174692706E+02  0.18019334432E+02  0.26445878075E+02  0.00000000000E+00 0. -1.
</event>
<event>
 8    1  0.3710605E-009  0.9143307E+02  0.7561462E-02  0.1299418E+00
         -4   -1    0    0    0  501 -0.00000000000E+00  0.00000000000E+00  0.11959707718E+03  0.11959707718E+03  0.00000000000E+00 0.  1.
          4   -1    0    0  501    0  0.00000000000E+00 -0.00000000000E+00 -0.12214885826E+03  0.12214885826E+03  0.00000000000E+00 0. -1.
         25    2    1    2    0    0  0.39681020269E+02 -0.24247837505E+02  0.16110732245E+02  0.13442349079E+03  0.12509028015E+03 0.  0.
         23    2    1    2    0    0 -0.39681020269E+02  0.24247837505E+02 -0.18662513322E+02  0.10732244465E+03  0.94906673782E+02 0.  0.
          5    1    3    3  502    0 -0.26984478530E+02 -0.95329654398E+01  0.50249844773E+02  0.57978951451E+02  0.41800000000E+01 0.  1.
         -5    1    3    3    0  502  0.66665498799E+02 -0.14714872065E+02 -0.34139112528E+02  0.76444539335E+02  0.41800000000E+01 0.  1.
        -11    1    4    4    0    0 -0.59559008800E+02  0.27152809382E+02 -0.41033904617E+02  0.77254979870E+02  0.00000000000E+00 0. -1.
         11    1    4    4    0    0  0.19877988531E+02 -0.29049718773E+01  0.22371391295E+02  0.30067464777E+02  0.00000000000E+00 0.  1.
</event>
<event>
 8    1  0.3710605E-009  0.9282606E+02  0.7561462E-02  0.1296149E+00
          2   -1    0    0  501    0  0.00000000000E+00  0.00000000000E+00  0.25751117169E+03  0.25751117169E+03  0.00000000000E+00 0. -1.
         -2   -1    0    0    0  501 -0.00000000000E+00 -0.00000000000E+00 -0.52083105523E+02  0.52083105523E+02  0.00000000000E+00 0.  1.
         25    2    1    2    0    0  0.26820324241E+02  0.18012127963E+02  0.10230681493E+03  0.16479939251E+03  0.12509352039E+03 0.  0.
         23    2    1    2    0    0 -0.26820324241E+02 -0.18012127963E+02  0.10312125124E+03  0.14479488471E+03  0.96373230897E+02 0.  0.
          5    1    3    3  502    0  0.60354732972E+02  0.50031718698E+02  0.83441813772E+02  0.11456821267E+03  0.41800000000E+01 0. -1.
         -5    1    3    3    0  502 -0.33534408731E+02 -0.32019590735E+02  0.18865001156E+02  0.50231179843E+02  0.41800000000E+01 0. -1.
        -11    1    4    4    0    0 -0.29470704567E+02  0.11001102289E+02 -0.58498998353E+01  0.31996374910E+02  0.00000000000E+00 0.  1.
         11    1    4    4    0    0  0.26503803268E+01 -0.29013230252E+02  0.10897115108E+03  0.11279850980E+03  0.00000000000E+00 0. -1.
</event>
<event>
 8    1  0.3710605E-009  0.1483259E+03  0.7561462E-02  0.1202545E+00
          2   -1    0    0  501    0  0.00000000000E+00  0.00000000000E+00  0.13091363209E+04  0.13091363209E+04  0.00000000000E+00 0. -1.
         -2   -1    0    0    0  501 -0.00000000000E+00 -0.00000000000E+00 -0.18573575223E+02  0.18573575223E+02  0.00000000000E+00 0.  1.
         25    2    1    2    0    0  0.14309984252E+02  0.11065125743E+03  0.73824915792E+03  0.75703840048E+03  0.12508734634E+03 0.  0.
         23    2    1    2    0    0 -0.14309984252E+02 -0.11065125743E+03  0.55231358778E+03  0.57067149566E+03  0.90372453190E+02 0.  0.
          5    1    3    3  502    0 -0.18716422618E+02  0.11772164233E+03  0.40904376136E+03  0.42607858507E+03  0.41800000000E+01 0. -1.
         -5    1    3    3    0  502  0.33026406871E+02 -0.70703848982E+01  0.32920539656E+03  0.33095981541E+03  0.41800000000E+01 0. -1.
        -11    1    4    4    0    0  0.31120453738E+02 -0.86429802740E+02  0.33800647489E+03  0.35026699888E+03  0.00000000000E+00 0.  1.
         11    1    4    4    0    0 -0.45430437991E+02 -0.24221454690E+02  0.21430711289E+03  0.22040449678E+03  0.00000000000E+00 0. -1.
</event>
<event>
 8    1  0.3710605E-009  0.1645759E+03  0.7561462E-02  0.1183625E+00
          1   -1    0    0  501    0  0.00000000000E+00  0.00000000000E+00  0.27414335710E+03  0.27414335710E+03  0.00000000000E+00 0. -1.
         -1   -1    0    0    0  501 -0.00000000000E+00 -0.00000000000E+00 -0.13694019159E+03  0.13694019159E+03  0.00000000000E+00 0.  1.
         25    2    1    2    0    0 -0.68551790454E+02 -0.13513389928E+03  0.12628734527E+03  0.23358070987E+03  0.12510369994E+03 0.  0.
         23    2    1    2    0    0  0.68551790454E+02  0.13513389928E+03  0.10915820235E+02  0.17750283881E+03  0.91801873318E+02 0.  0.
          5    1    3    3  502    0 -0.64301732799E+01  0.11562845313E+02  0.58974916916E+02  0.60585144593E+02  0.41800000000E+01 0.  1.
         -5    1    3    3    0  502 -0.62121617174E+02 -0.14669674460E+03  0.67312428358E+02  0.17299556528E+03  0.41800000000E+01 0.  1.
        -11    1    4    4    0    0  0.17089133062E+02  0.74263456945E+02 -0.36776918334E+02  0.84614663200E+02  0.00000000000E+00 0.  1.
         11    1    4    4    0    0  0.51462657392E+02  0.60870442338E+02  0.47692738568E+02  0.92888175611E+02  0.00000000000E+00 0. -1.
</event>
<event>
 8    1  0.3710605E-009  0.9494240E+02  0.7561462E-02  0.1291306E+00
         -2   -1    0    0    0  501 -0.00000000000E+00  0.00000000000E+00  0.35915395419E+02  0.35915395419E+02  0.00000000000E+00 0.  1.
          2   -1    0    0  501    0  0.00000000000E+00 -0.00000000000E+00 -0.44033104557E+03  0.44033104557E+03  0.00000000000E+00 0. -1.
         25    2    1    2    0    0 -0.17179743405E+02 -0.53206473574E+02 -0.27524032695E+03  0.30745831571E+03  0.12508919180E+03 0.  0.
         23    2    1    2    0    0  0.17179743405E+02  0.53206473574E+02 -0.12917532319E+03  0.16878812527E+03  0.93150924295E+02 0.  0.
          5    1    3    3  502    0 -0.27998891319E+02  0.15931986765E+02 -0.20731391807E+03  0.20984351108E+03  0.41800000000E+01 0. -1.
         -5    1    3    3    0  502  0.10819147914E+02 -0.69138460339E+02 -0.67926408883E+02  0.97614804632E+02  0.41800000000E+01 0. -1.
        -11    1    4    4    0    0 -0.23115360239E+02  0.36133709020E+01  0.13769875162E+01  0.23436561669E+02  0.00000000000E+00 0. -1.
         11    1    4    4    0    0  0.40295103644E+02  0.49593102672E+02 -0.13055231071E+03  0.14535156360E+03  0.00000000000E+00 0.  1.
</event>
<event>
 8    1  0.3710605E-009  0.9921735E+02  0.7561462E-02  0.1281950E+00
          1   -1    0    0  501    0  0.00000000000E+00  0.00000000000E+00  0.35242472198E+03  0.35242472198E+03  0.00000000000E+00 0. -1.
         -1   -1    0    0    0  501 -0.00000000000E+00 -0.00000000000E+00 -0.35589548005E+02  0.35589548005E+02  0.00000000000E+00 0.  1.
         25    2    1    2    0    0 -0.11485038466E+02  0.10223414816E+02  0.22454078411E+03  0.25748880711E+03  0.12508196409E+03 0.  0.
         23    2    1    2    0    0  0.11485038466E+02 -0.10223414816E+02  0.92294389866E+02  0.13052546287E+03  0.91006690623E+02 0.  0.
          5    1    3    3  502    0 -0.56147797667E+01 -0.52879956025E+02  0.15191897522E+03  0.16101137517E+03  0.41800000000E+01 0. -1.
         -5    1    3    3    0  502 -0.58702586988E+01  0.63103370841E+02  0.72621808883E+02  0.96477431942E+02  0.41800000000E+01 0. -1.
        -11    1    4    4    0    0 -0.15131384936E+02 -0.39328902946E+02  0.16829838111E+02  0.45375818096E+02  0.00000000000E+00 0.  1.
         11    1    4    4    0    0  0.26616423402E+02  0.29105488130E+02  0.75464551755E+02  0.85149644776E+02  0.00000000000E+00 0. -1.
</event>
<event>
 8    1  0.3710605E-009  0.1143272E+03  0.7561462E-02  0.1252760E+00
         -3   -1    0    0    0  501 -0.00000000000E+00  0.00000000000E+00  0.27104797260E+03  0.27104797260E+03  0.00000000000E+00 0.  1.
          3   -1    0    0  501    0  0.00000000000E+00 -0.00000000000E+00 -0.66577727678E+02  0.66577727678E+02  0.00000000000E+00 0. -1.
         25    2    1    2    0    0  0.56569218126E+02  0.53983631293E+02  0.10143767365E+03  0.17902780802E+03  0.12508815100E+03 0.  0.
         23    2    1    2    0    0 -0.56569218126E+02 -0.53983631293E+02  0.10303257128E+03  0.15859789226E+03  0.91778384163E+02 0.  0.
          5    1    3    3  502    0  0.74447622128E+02  0.37712855178E+02  0.12141517153E+03  0.14739004093E+03  0.41800000000E+01 0. -1.
         -5    1    3    3    0  502 -0.17878404002E+02  0.16270776115E+02 -0.19977497881E+02  0.31637767093E+02  0.41800000000E+01 0. -1.
        -11    1    4    4    0    0  0.84532302158E+01 -0.54886454665E+02  0.46463108841E+02  0.72407185347E+02  0.00000000000E+00 0.  1.
         11    1    4    4    0    0 -0.65022448341E+02  0.90282337247E+00  0.56569462434E+02  0.86190706915E+02  0.00000000000E+00 0. -1.
</event>
<event>
 8    1  0.3710605E-009  0.1457847E+03  0.7561462E-02  0.1205750E+00
          1   -1    0    0  501    0  0.00000000000E+00  0.00000000000E+00  0.57534027708E+03  0.57534027708E+03  0.00000000000E+00 0. -1.
         -1   -1    0    0    0  501 -0.00000000000E+00 -0.00000000000E+00 -0.37783540673E+02  0.37783540673E+02  0.00000000000E+00 0.  1.
         25    2    1    2    0    0 -0.32348853124E+02  0.92997823984E+02  0.25745231872E+03  0.30269408619E+03  0.12508784846E+03 0.  0.
         23    2    1    2    0    0  0.32348853124E+02 -0.92997823984E+02  0.28010441768E+03  0.31042973156E+03  0.90626099272E+02 0.  0.
          5    1    3    3  502    0 -0.44139787446E+02  0.12064163210E+03  0.20043695317E+03  0.23810747327E+03  0.41800000000E+01 0.  1.
         -5    1    3    3    0  502  0.11790934322E+02 -0.27643808112E+02  0.57015365559E+02  0.64586612924E+02  0.41800000000E+01 0.  1.
        -11    1    4    4    0    0  0.42034146895E+02 -0.29595886658E+01  0.71077899816E+02  0.82629876634E+02  0.00000000000E+00 0.  1.
         11    1    4    4    0    0 -0.96852937712E+01 -0.90038235318E+02  0.20902651787E+03  0.22779985493E+03  0.00000000000E+00 0. -1.
</event>
<event>
 8    1  0.3710605E-009  0.2524007E+03  0.7561462E-02  0.1111797E+00
         -2   -1    0    0    0  501 -0.00000000000E+00  0.00000000000E+00  0.32417953724E+02  0.32417953724E+02  0.00000000000E+00 0.  1.
          2   -1    0    0  501    0  0.00000000000E+00 -0.00000000000E+00 -0.22884355031E+04  0.22884355031E+04  0.00000000000E+00 0. -1.
         25    2    1    2    0    0 -0.27705425130E+02 -0.24158507006E+03 -0.92857898450E+03  0.96800713909E+03  0.12509178315E+03 0.  0.
         23    2    1    2    0    0  0.27705425130E+02  0.24158507006E+03 -0.13274385649E+04  0.13528463177E+04  0.94705222879E+02 0.  0.
          5    1    3    3  502    0 -0.15261005814E+02 -0.61911308673E+02 -0.90514583643E+02  0.11079833344E+03  0.41800000000E+01 0. -1.
         -5    1    3    3    0  502 -0.12444419316E+02 -0.17967376138E+03 -0.83806440086E+03  0.85720880565E+03  0.41800000000E+01 0. -1.
        -11    1    4    4    0    0  0.56913699876E+02  0.90822876964E+02 -0.57269423502E+03  0.58263766703E+03  0.00000000000E+00 0. -1.
         11    1    4    4    0    0 -0.29208274746E+02  0.15076219309E+03 -0.75474432985E+03  0.77020865071E+03  0.00000000000E+00 0.  1.
</event>
<event>
 8    1  0.3710605E-009  0.1104815E+03  0.7561462E-02  0.1259681E+00
         -2   -1    0    0    0  501 -0.00000000000E+00  0.00000000000E+00  0.74184809132E+02  0.74184809132E+02  0.00000000000E+00 0.  1.
          2   -1    0    0  501    0  0.00000000000E+00 -0.00000000000E+00 -0.30732974169E+03  0.30732974169E+03  0.00000000000E+00 0. -1.
         25    2    1    2    0    0  0.91797610472E+02  0.44297596129E+02 -0.84897120851E+02  0.18233143817E+03  0.12509258133E+03 0.  0.
         23    2    1    2    0    0 -0.91797610472E+02 -0.44297596129E+02 -0.14824781171E+03  0.19918311265E+03  0.85483450911E+02 0.  0.
          5    1    3    3  502    0  0.18010102055E+02  0.89204888717E+01  0.32936504297E+02  0.38810109676E+02  0.41800000000E+01 0. -1.
         -5    1    3    3    0  502  0.73787508417E+02  0.35377107257E+02 -0.11783362515E+03  0.14352132849E+03  0.41800000000E+01 0. -1.
        -11    1    4    4    0    0 -0.42057931413E+02  0.11645602420E+02 -0.14634362860E+02  0.46028841249E+02  0.00000000000E+00 0.  1.
         11    1    4    4    0    0 -0.49739679060E+02 -0.55943198549E+02 -0.13361344885E+03  0.15315427141E+03  0.00000000000E+00 0. -1.
</event>
<event>
 8    1  0.3710605E-009  0.1117695E+03  0.7561462E-02  0.1257328E+00
          1   -1    0    0  501    0  0.00000000000E+00  0.00000000000E+00  0.18543149677E+03  0.18543149677E+03  0.00000000000E+00 0. -1.
         -1   -1    0    0    0  501 -0.00000000000E+00 -0.00000000000E+00 -0.11878185535E+03  0.11878185535E+03  0.00000000000E+00 0.  1.
         25    2    1    2    0    0  0.10293740656E+02 -0.45913595246E+02 -0.55568165458E+02  0.14474193619E+03  0.12509351604E+03 0.  0.
         23    2    1    2    0    0 -0.10293740656E+02  0.45913595246E+02  0.12221780687E+03  0.15947141592E+03  0.90994070432E+02 0.  0.
          5    1    3    3  502    0 -0.36211274968E+02 -0.61842239120E+02 -0.18540644096E+01  0.71809671556E+02  0.41800000000E+01 0.  1.
         -5    1    3    3    0  502  0.46505015624E+02  0.15928643874E+02 -0.53714101048E+02  0.72932264639E+02  0.41800000000E+01 0.  1.
        -11    1    4    4    0    0 -0.49227696275E+02  0.39159053070E+02  0.73473415842E+02  0.96721974511E+02  0.00000000000E+00 0.  1.
         11    1    4    4    0    0  0.38933955619E+02  0.67545421755E+01  0.48744391032E+02  0.62749441410E+02  0.00000000000E+00 0. -1.
</event>
<event>
 8    1  0.3710605E-009  0.1361732E+03  0.7561462E-02  0.1218573E+00
         -4   -1    0    0    0  501 -0.00000000000E+00  0.00000000000E+00  0.46288266273E+02  0.46288266273E+02  0.00000000000E+00 0.  1.
          4   -1    0    0  501    0  0.00000000000E+00 -0.00000000000E+00 -0.49820594565E+03  0.49820594565E+03  0.00000000000E+00 0. -1.
         25    2    1    2    0    0 -0.97720834885E+02 -0.84650231300E+01 -0.17087117540E+03  0.23337775813E+03  0.12508877335E+03 0.  0.
         23    2    1    2    0    0  0.97720834885E+02  0.84650231300E+01 -0.28104650397E+03  0.31111645379E+03  0.90472604896E+02 0.  0.
          5    1    3    3  502    0 -0.12721263499E+02 -0.56525707260E+02 -0.42218703135E+02  0.71811401745E+02  0.41800000000E+01 0.  1.
         -5    1    3    3    0  502 -0.84999571387E+02  0.48060684130E+02 -0.12865247227E+03  0.16156635638E+03  0.41800000000E+01 0.  1.
        -11    1    4    4    0    0  0.50385725464E+02 -0.27195210325E+02 -0.62873841522E+02  0.85037760688E+02  0.00000000000E+00 0.  1.
         11    1    4    4    0    0  0.47335109422E+02  0.35660233455E+02 -0.21817266245E+03  0.22607869310E+03  0.00000000000E+00 0. -1.
</event>
<event>
 8    1  0.3710605E-009  0.1371614E+03  0.7561462E-02  0.1217200E+00
          1   -1    0    0  501    0  0.00000000000E+00  0.00000000000E+00  0.11997108641E+03  0.11997108641E+03  0.00000000000E+00 0. -1.
         -1   -1    0    0    0  501 -0.00000000000E+00 -0.00000000000E+00 -0.25048649587E+03  0.25048649587E+03  0.00000000000E+00 0.  1.
         25    2    1    2    0    0  0.37047162136E+02  0.11454125592E+03 -0.25740852966E+01  0.17363205321E+03  0.12509705215E+03 0.  0.
         23    2    1    2    0    0 -0.37047162136E+02 -0.11454125592E+03 -0.12794132416E+03  0.19682552906E+03  0.88764378739E+02 0.  0.
          5    1    3    3  502    0 -0.21676126422E+02  0.24638368355E+02 -0.46893699675E+02  0.57388109580E+02  0.41800000000E+01 0.  1.
         -5    1    3    3    0  502  0.58723288558E+02  0.89902887567E+02  0.44319614379E+02  0.11624394363E+03  0.41800000000E+01 0.  1.
        -11    1    4    4    0    0 -0.29862911873E+00 -0.89057148864E+02 -0.12296729986E+03  0.15182958137E+03  0.00000000000E+00 0.  1.
         11    1    4    4    0    0 -0.36748533017E+02 -0.25484107058E+02 -0.49740243006E+01  0.44995947697E+02  0.00000000000E+00 0. -1.
</event>
<event>
 8    1  0.3710605E-009  0.1210273E+03  0.7561462E-02  0.1241412E+00
          2   -1    0    0  501    0  0.00000000000E+00  0.00000000000E+00  0.64601001757E+03  0.64601001757E+03  0.00000000000E+00 0. -1.
         -2   -1    0    0    0  501 -0.00000000000E+00 -0.00000000000E+00 -0.24871401682E+02  0.24871401682E+02  0.00000000000E+00 0.  1.
         25    2    1    2    0    0 -0.21549401641E+02  0.50871980546E+02  0.43987427665E+03  0.46064045990E+03  0.12509164213E+03 0.  0.
         23    2    1    2    0    0  0.21549401641E+02 -0.50871980546E+02  0.18126433924E+03  0.21024095935E+03  0.91061326539E+02 0.  0.
          5    1    3    3  502    0 -0.44536304177E+02 -0.29137970987E+02  0.17475555584E+03  0.18272788632E+03  0.41800000000E+01 0.  1.
         -5    1    3    3    0  502  0.22986902536E+02  0.80009951533E+02  0.26511872081E+03  0.27791257358E+03  0.41800000000E+01 0.  1.
        -11    1    4    4    0    0  0.20775253047E+02  0.23256981016E+02  0.40140603005E+02  0.50830761501E+02  0.00000000000E+00 0. -1.
         11    1    4    4    0    0  0.77414859393E+00 -0.74128961562E+02  0.14112373624E+03  0.15941019785E+03  0.00000000000E+00 0.  1.
</event>
<event>
 8    1  0.3710605E-009  0.1018261E+03  0.7561462E-02  0.1276502E+00
         -1   -1    0    0    0  501 -0.00000000000E+00  0.00000000000E+00  0.81015040588E+02  0.81015040588E+02  0.00000000000E+00 0.  1.
          1   -1    0    0  501    0  0.00000000000E+00 -0.00000000000E+00 -0.17414001740E+03  0.17414001740E+03  0.00000000000E+00 0. -1.
         25    2    1    2    0    0 -0.79906377416E+01  0.23554254013E+02 -0.94170932525E+01  0.12788751794E+03  0.12509149621E+03 0.  0.
         23    2    1    2    0    0  0.79906377416E+01 -0.23554254013E+02 -0.83707883557E+02  0.12726754005E+03  0.92581660209E+02 0.  0.
          5    1    3    3  502    0  0.15232359307E+02 -0.42276561685E+02  0.23175188290E+02  0.50733560788E+02  0.41800000000E+01 0.  1.
         -5    1    3    3    0  502 -0.23222997049E+02  0.65830815698E+02 -0.32592281543E+02  0.77153957148E+02  0.41800000000E+01 0.  1.
        -11    1    4    4    0    0  0.44931196319E+02 -0.28758310625E+00 -0.18054047973E+02  0.48423586762E+02  0.00000000000E+00 0.  1.
         11    1    4    4    0    0 -0.36940558577E+02 -0.23266670907E+02 -0.65653835584E+02  0.78843953287E+02  0.00000000000E+00 0. -1.
</event>
<event>
 8    1  0.3710605E-009  0.1354835E+03  0.7561462E-02  0.1219539E+00
         -1   -1    0    0    0  501 -0.00000000000E+00  0.00000000000E+00  0.47216970638E+03  0.47216970638E+03  0.00000000000E+00 0.  1.
          1   -1    0    0  501    0  0.00000000000E+00 -0.00000000000E+00 -0.40680196559E+02  0.40680196559E+02  0.00000000000E+00 0. -1.
         25    2    1    2    0    0  0.39438285335E+02  0.74675484635E+02  0.21168202177E+03  0.25997774410E+03  0.12508933900E+03 0.  0.
         23    2    1    2    0    0 -0.39438285335E+02 -0.74675484635E+02  0.21980748805E+03  0.25287215884E+03  0.92180206974E+02 0.  0.
          5    1    3    3  502    0  0.61782450938E+02 -0.99520245294E+01  0.77192371128E+02  0.99459783815E+02  0.41800000000E+01 0.  1.
         -5    1    3    3    0  502 -0.22344165603E+02  0.84627509164E+02  0.13448965064E+03  0.16051796028E+03  0.41800000000E+01 0.  1.
        -11    1    4    4    0    0 -0.64942361558E+02 -0.35883969839E+02  0.10106226637E+03  0.12537444437E+03  0.00000000000E+00 0. -1.
         11    1    4    4    0    0  0.25504076223E+02 -0.38791514796E+02  0.11874522168E+03  0.12749771447E+03  0.00000000000E+00 0.  1.
</event>
<event>
 8    1  0.3710605E-009  0.1467380E+03  0.7561462E-02  0.1204540E+00
          2   -1    0    0  501    0  0.00000000000E+00  0.00000000000E+00  0.10082260257E+03  0.10082260257E+03  0.00000000000E+00 0. -1.
         -2   -1    0    0    0  501 -0.00000000000E+00 -0.00000000000E+00 -0.24830568680E+03  0.24830568680E+03  0.00000000000E+00 0.  1.
         25    2    1    2    0    0 -0.11340794350E+03  0.15013750106E+02 -0.61550137361E+02  0.18033928892E+03  0.12508823037E+03 0.  0.
         23    2    1    2    0    0  0.11340794350E+03 -0.15013750106E+02 -0.85932946877E+02  0.16878900046E+03  0.89545971294E+02 0.  0.
          5    1    3    3  502    0 -0.11629232648E+03  0.45174773569E+02 -0.76386096525E+02  0.14634539114E+03  0.41800000000E+01 0. -1.
         -5    1    3    3    0  502  0.28843829853E+01 -0.30161023463E+02  0.14835959164E+02  0.33993897774E+02  0.41800000000E+01 0. -1.
        -11    1    4    4    0    0  0.14236856679E+02 -0.34206315592E+02 -0.48571539810E+02  0.61089725764E+02  0.00000000000E+00 0.  1.
         11    1    4    4    0    0  0.99171086820E+02  0.19192565486E+02 -0.37361407067E+02  0.10769927469E+03  0.00000000000E+00 0. -1.
</event>
<event>
 8    1  0.3710605E-009  0.1355791E+03  0.7561462E-02  0.1219405E+00
         -2   -1    0    0    0  501 -0.00000000000E+00  0.00000000000E+00  0.10643349491E+03  0.10643349491E+03  0.00000000000E+00 0.  1.
          2   -1    0    0  501    0  0.00000000000E+00 -0.00000000000E+00 -0.21396466575E+03  0.21396466575E+03  0.00000000000E+00 0. -1.
         25    2    1    2    0    0  0.72510079785E+02  0.70108202580E+02 -0.28748802922E+02  0.16324439666E+03  0.12509743256E+03 0.  0.
         23    2    1    2    0    0 -0.72510079785E+02 -0.70108202580E+02 -0.78782367926E+02  0.15715376400E+03  0.91201821817E+02 0.  0.
          5    1    3    3  502    0 -0.52778140905E+00 -0.31796184801E+02  0.69501315440E+01  0.32818480306E+02  0.41800000000E+01 0.  1.
         -5    1    3    3    0  502  0.73037861194E+02  0.10190438738E+03 -0.35698934466E+02  0.13042591636E+03  0.41800000000E+01 0.  1.
        -11    1    4    4    0    0 -0.13309760925E+02 -0.49019832595E+02  0.65093716317E+01  0.51210015061E+02  0.00000000000E+00 0.  1.
         11    1    4    4    0    0 -0.59200318860E+02 -0.21088369986E+02 -0.85291739557E+02  0.10594374894E+03  0.00000000000E+00 0. -1.
</event>
<event>
 8    1  0.3710605E-009  0.8576167E+02  0.7561462E-02  0.1313453E+00
          2   -1    0    0  501    0  0.00000000000E+00  0.00000000000E+00  0.79125306680E+03  0.79125306680E+03  0.00000000000E+00 0. -1.
         -2   -1    0    0    0  501 -0.00000000000E+00 -0.00000000000E+00 -0.22324959990E+02  0.22324959990E+02  0.00000000000E+00 0.  1.
         25    2    1    2    0    0 -0.22281532227E+02 -0.13114989128E+02  0.64560731381E+03  0.65812211480E+03  0.12508974666E+03 0.  0.
         23    2    1    2    0    0  0.22281532227E+02  0.13114989128E+02  0.12332079299E+03  0.15545591199E+03  0.91049728000E+02 0.  0.
          5    1    3    3  502    0 -0.54901063556E+02 -0.65615493013E+00  0.58839387769E+03  0.59096479169E+03  0.41800000000E+01 0.  1.
         -5    1    3    3    0  502  0.32619531329E+02 -0.12458834198E+02  0.57213436126E+02  0.67157323108E+02  0.41800000000E+01 0.  1.
        -11    1    4    4    0    0 -0.91361925763E+01  0.39328075575E+02  0.21547212935E+02  0.45765160641E+02  0.00000000000E+00 0.  1.
         11    1    4    4    0    0  0.31417724803E+02 -0.26213086447E+02  0.10177358006E+03  0.10969075134E+03  0.00000000000E+00 0. -1.
</event>
<event>
 8    1  0.3710605E-009  0.1543554E+03  0.7561462E-02  0.1195221E+00
         -1   -1    0    0    0  501 -0.00000000000E+00  0.00000000000E+00  0.10713824587E+03  0.10713824587E+03  0.00000000000E+00 0.  1.
          1   -1    0    0  501    0  0.00000000000E+00 -0.00000000000E+00 -0.29509852906E+03  0.29509852906E+03  0.00000000000E+00 0. -1.
         25    2    1    2    0    0  0.49941616514E+02 -0.10787230095E+03 -0.18281069318E+03  0.25139217188E+03  0.12509067179E+03 0.  0.
         23    2    1    2    0    0 -0.49941616514E+02  0.10787230095E+03 -0.51495900095E+01  0.15084460304E+03  0.92719887929E+02 0.  0.
          5    1    3    3  502    0  0.26238066770E+02 -0.13196234400E+03 -0.12187220907E+03  0.18158415164E+03  0.41800000000E+01 0. -1.
         -5    1    3    3    0  502  0.23703549744E+02  0.24090043053E+02 -0.60938484106E+02  0.69808020240E+02  0.41800000000E+01 0. -1.
        -11    1    4    4    0    0 -0.21155109839E+02  0.10919915953E+03  0.19496904323E+02  0.11292530449E+03  0.00000000000E+00 0.  1.
         11    1    4    4    0    0 -0.28786506676E+02 -0.13268585817E+01 -0.24646494332E+02  0.37919298558E+02  0.00000000000E+00 0. -1.
</event>
<event>
 8    1  0.3710605E-009  0.9381319E+02  0.7561462E-02  0.1293872E+00
         -1   -1    0    0    0  501 -0.00000000000E+00  0.00000000000E+00  0.15050940534E+02  0.15050940534E+02  0.00000000000E+00 0.  1.
          1   -1    0    0  501    0  0.00000000000E+00 -0.00000000000E+00 -0.89744394285E+03  0.89744394285E+03  0.00000000000E+00 0. -1.
         25    2    1    2    0    0 -0.78521447970E+01 -0.25326330408E+02 -0.63075019179E+03  0.64358073497E+03  0.12508908343E+03 0.  0.
         23    2    1    2    0    0  0.78521447970E+01  0.25326330408E+02 -0.25164281053E+03  0.26891414842E+03  0.91036453893E+02 0.  0.
          5    1    3    3  502    0 -0.37986206727E+02  0.25529701600E+02 -0.47023436116E+03  0.47247491402E+03  0.41800000000E+01 0. -1.
         -5    1    3    3    0  502  0.30134061930E+02 -0.50856032007E+02 -0.16051583063E+03  0.17110582095E+03  0.41800000000E+01 0. -1.
        -11    1    4    4    0    0 -0.34660960519E+02  0.18689719357E+02 -0.55152973026E+02  0.67768268587E+02  0.00000000000E+00 0.  1.
         11    1    4    4    0    0  0.42513105316E+02  0.66366110508E+01 -0.19648983750E+03  0.20114587983E+03  0.00000000000E+00 0. -1.
</event>
<event>
 8    1  0.3710605E-009  0.9787131E+02  0.7561462E-02  0.1284837E+00
          2   -1    0    0  501    0  0.00000000000E+00  0.00000000000E+00  0.74719020548E+03  0.74719020548E+03  0.00000000000E+00 0. -1.
         -2   -1    0    0    0  501 -0.00000000000E+00 -0.00000000000E+00 -0.21177925739E+02  0.21177925739E+02  0.00000000000E+00 0.  1.
         25    2    1    2    0    0 -0.54564187776E+02  0.30746806422E+02  0.38197891170E+03  0.40679047734E+03  0.12509191335E+03 0.  0.
         23    2    1    2    0    0  0.54564187776E+02 -0.30746806422E+02  0.34403336804E+03  0.36157765387E+03  0.91960995863E+02 0.  0.
          5    1    3    3  502    0  0.54814667850E+01  0.35040005345E+02  0.31345933009E+03  0.31548704010E+03  0.41800000000E+01 0.  1.
         -5    1    3    3    0  502 -0.60045654561E+02 -0.42931989226E+01  0.68519581609E+02  0.91303437243E+02  0.41800000000E+01 0.  1.
        -11    1    4    4    0    0  0.37112776723E+02 -0.57087025446E+02  0.29841981129E+03  0.30608931775E+03  0.00000000000E+00 0. -1.
         11    1    4    4    0    0  0.17451411053E+02  0.26340219024E+02  0.45613556752E+02  0.55488336121E+02  0.00000000000E+00 0.  1.
</event>
<event>
 8    1  0.3710605E-009  0.1315586E+03  0.7561462E-02  0.1225161E+00
          2   -1    0    0  501    0  0.00000000000E+00  0.00000000000E+00  0.79250191075E+02  0.79250191075E+02  0.00000000000E+00 0. -1.
         -2   -1    0    0    0  501 -0.00000000000E+00 -0.00000000000E+00 -0.26522457892E+03  0.26522457892E+03  0.00000000000E+00 0.  1.
         25    2    1    2    0    0 -0.56418030470E+02 -0.55003215035E+02 -0.35414508881E+02  0.15202067201E+03  0.12509096472E+03 0.  0.
         23    2    1    2    0    0  0.56418030470E+02  0.55003215035E+02 -0.15055987897E+03  0.19245409798E+03  0.90343537952E+02 0.  0.
          5    1    3    3  502    0  0.30815885752E+02 -0.45930590141E+02  0.43371298001E+01  0.55637406664E+02  0.41800000000E+01 0.  1.
         -5    1    3    3    0  502 -0.87233916222E+02 -0.90726248946E+01 -0.39751638681E+02  0.96383265351E+02  0.41800000000E+01 0.  1.
        -11    1    4    4    0    0  0.73172445064E+02  0.12596715127E+02 -0.95397085303E+02  0.12088625990E+03  0.00000000000E+00 0.  1.
         11    1    4    4    0    0 -0.16754414594E+02  0.42406499909E+02 -0.55162793662E+02  0.71567838080E+02  0.00000000000E+00 0. -1.
</event>
<event>
 8    1  0.3710605E-009  0.1629145E+03  0.7561462E-02  0.1185445E+00
          1   -1    0    0  501    0  0.00000000000E+00  0.00000000000E+00  0.47274348040E+03  0.47274348040E+03  0.00000000000E+00 0. -1.
         -1   -1    0    0    0  501 -0.00000000000E+00 -0.00000000000E+00 -0.17798985937E+03  0.17798985937E+03  0.00000000000E+00 0.  1.
         25    2    1    2    0    0  0.13822230207E+03  0.44532371988E+02  0.40430102252E+03  0.44743082986E+03  0.12508594548E+03 0.  0.
         23    2    1    2    0    0 -0.13822230207E+03 -0.44532371988E+02 -0.10954740149E+03  0.20330250991E+03  0.90789539151E+02 0.  0.
          5    1    3    3  502    0  0.36274241537E+02 -0.35052531561E+02  0.54095296755E+02  0.74082886681E+02  0.41800000000E+01 0. -1.
         -5    1    3    3    0  502  0.10194806053E+03  0.79584903549E+02  0.35020572576E+03  0.37334794318E+03  0.41800000000E+01 0. -1.
        -11    1    4    4    0    0 -0.15608910086E+02 -0.95794451203E+01 -0.66123050695E+02  0.68612401766E+02  0.00000000000E+00 0.  1.
         11    1    4    4    0    0 -0.12261339198E+03 -0.34952926867E+02 -0.43424350793E+02  0.13469010815E+03  0.00000000000E+00 0. -1.
</event>
<event>
 8    1  0.3710605E-009  0.1603436E+03  0.7561462E-02  0.1188309E+00
         -2   -1    0    0    0  501 -0.00000000000E+00  0.00000000000E+00  0.44020605741E+03  0.44020605741E+03  0.00000000000E+00 0.  1.
          2   -1    0    0  501    0  0.00000000000E+00 -0.00000000000E+00 -0.79738816005E+02  0.79738816005E+02  0.00000000000E+00 0. -1.
         25    2    1    2    0    0 -0.26279491962E+02 -0.11930464949E+03  0.65035080787E+02  0.18654822628E+03  0.12508584216E+03 0.  0.
         23    2    1    2    0    0  0.26279491962E+02  0.11930464949E+03  0.29543216062E+03  0.33339664713E+03  0.94598899058E+02 0.  0.
          5    1    3    3  502    0  0.26164647602E+02  0.13455229810E+02  0.20653790067E+00  0.29717790148E+02  0.41800000000E+01 0. -1.
         -5    1    3    3    0  502 -0.52444139564E+02 -0.13275987930E+03  0.64828542887E+02  0.15683043614E+03  0.41800000000E+01 0. -1.
        -11    1    4    4    0    0  0.46849141174E+02  0.11867381541E+03  0.27992064400E+03  0.30762620732E+03  0.00000000000E+00 0.  1.
         11    1    4    4    0    0 -0.20569649212E+02  0.63083408343E+00  0.15511516619E+02  0.25770439814E+02  0.00000000000E+00 0. -1.
</event>
<event>
 8    1  0.3710605E-009  0.1415148E+03  0.7561462E-02  0.1211305E+00
          2   -1    0    0  501    0  0.00000000000E+00  0.00000000000E+00  0.11119444371E+04  0.11119444371E+04  0.00000000000E+00 0.  1.
         -2   -1    0    0    0  501 -0.00000000000E+00 -0.00000000000E+00 -0.26057810472E+02  0.26057810472E+02  0.00000000000E+00 0. -1.
         25    2    1    2    0    0 -0.76905597717E+02 -0.10066024704E+03  0.50309651635E+03  0.53366702291E+03  0.12508968897E+03 0.  0.
         23    2    1    2    0    0  0.76905597717E+02  0.10066024704E+03  0.58279011031E+03  0.60433522470E+03  0.97620668080E+02 0.  0.
          5    1    3    3  502    0 -0.25422930343E+02 -0.18398227388E+01  0.93246478953E+01  0.27461460145E+02  0.41800000000E+01 0. -1.
         -5    1    3    3    0  502 -0.51482667374E+02 -0.98820424298E+02  0.49377186845E+03  0.50620556276E+03  0.41800000000E+01 0. -1.
        -11    1    4    4    0    0  0.66536947895E+02  0.27817887640E+02  0.41358126107E+03  0.41982193823E+03  0.00000000000E+00 0.  1.
         11    1    4    4    0    0  0.10368649822E+02  0.72842359398E+02  0.16920884924E+03  0.18451328647E+03  0.00000000000E+00 0. -1.
</event>
<event>
 8    1  0.3710605E-009  0.1318754E+03  0.7561462E-02  0.1224699E+00
         -1   -1    0    0    0  501 -0.00000000000E+00  0.00000000000E+00  0.15886659567E+03  0.15886659567E+03  0.00000000000E+00 0.  1.
          1   -1    0    0  501    0  0.00000000000E+00 -0.00000000000E+00 -0.13275165040E+03  0.13275165040E+03  0.00000000000E+00 0. -1.
         25    2    1    2    0    0  0.52764358540E+02 -0.65378458706E+02 -0.31613522325E+02  0.15397280036E+03  0.12509911296E+03 0.  0.
         23    2    1    2    0    0 -0.52764358540E+02  0.65378458706E+02  0.57728467594E+02  0.13764544571E+03  0.92494715309E+02 0.  0.
          5    1    3    3  502    0 -0.41265838270E+02 -0.22612156795E+02 -0.77622040765E+01  0.47873826410E+02  0.41800000000E+01 0. -1.
         -5    1    3    3    0  502  0.94030196810E+02 -0.42766301911E+02 -0.23851318249E+02  0.10609897395E+03  0.41800000000E+01 0. -1.
        -11    1    4    4    0    0  0.19322745258E+02  0.20701189767E+02  0.43120004663E+02  0.51587232375E+02  0.00000000000E+00 0.  1.
         11    1    4    4    0    0 -0.72087103798E+02  0.44677268940E+02  0.14608462931E+02  0.86058213339E+02  0.00000000000E+00 0. -1.
</event>
<event>
 8    1  0.3710605E-009  0.9728298E+02  0.7561462E-02  0.1286115E+00
          1   -1    0    0  501    0  0.00000000000E+00  0.00000000000E+00  0.38349351488E+02  0.38349351488E+02  0.00000000000E+00 0. -1.
         -1   -1    0    0    0  501 -0.00000000000E+00 -0.00000000000E+00 -0.40942259290E+03  0.40942259290E+03  0.00000000000E+00 0.  1.
         25    2    1    2    0    0 -0.18198876890E+02 -0.37209554694E+02 -0.28592275537E+03  0.31482851694E+03  0.12509765369E+03 0.  0.
         23    2    1    2    0    0  0.18198876890E+02  0.37209554694E+02 -0.85150486046E+02  0.13294342746E+03  0.93314519498E+02 0.  0.
          5    1    3    3  502    0  0.44088575480E+01 -0.60798157555E+02 -0.27248844147E+03  0.27925486051E+03  0.41800000000E+01 0. -1.
         -5    1    3    3    0  502 -0.22607734438E+02  0.23588602861E+02 -0.13434313902E+02  0.35573656424E+02  0.41800000000E+01 0. -1.
        -11    1    4    4    0    0 -0.37582998713E+02  0.16015180423E+02 -0.46258366793E+02  0.61715510972E+02  0.00000000000E+00 0.  1.
         11    1    4    4    0    0  0.55781875603E+02  0.21194374271E+02 -0.38892119253E+02  0.71227916483E+02  0.00000000000E+00 0. -1.
</event>
<event>
 8    1  0.3710605E-009  0.1470416E+03  0.7561462E-02  0.1204156E+00
          1   -1    0    0  501    0  0.00000000000E+00  0.00000000000E+00  0.20885188669E+03  0.20885188669E+03  0.00000000000E+00 0. -1.
         -1   -1    0    0    0  501 -0.00000000000E+00 -0.00000000000E+00 -0.10748202566E+03  0.10748202566E+03  0.00000000000E+00 0.  1.
         25    2    1    2    0    0  0.82792169637E+02 -0.60856255323E+02  0.67133100113E+02  0.17524740426E+03  0.12508705930E+03 0.  0.
         23    2    1    2    0    0 -0.82792169637E+02  0.60856255323E+02  0.34236760918E+02  0.14108650809E+03  0.90416922102E+02 0.  0.
          5    1    3    3  502    0  0.11354606961E+03 -0.43164507994E+02  0.68456678401E+02  0.13949793508E+03  0.41800000000E+01 0. -1.
         -5    1    3    3    0  502 -0.30753899975E+02 -0.17691747329E+02 -0.13235782885E+01  0.35749469181E+02  0.41800000000E+01 0. -1.
        -11    1    4    4    0    0 -0.95814824998E+02  0.25523142047E+02  0.26623516987E+02  0.10266802387E+03  0.00000000000E+00 0.  1.
         11    1    4    4    0    0  0.13022655362E+02  0.35333113276E+02  0.76132439311E+01  0.38418484218E+02  0.00000000000E+00 0. -1.
</event>
<event>
 8    1  0.3710605E-009  0.8501541E+02  0.7561462E-02  0.1315392E+00
          1   -1    0    0  501    0  0.00000000000E+00  0.00000000000E+00  0.60365876795E+03  0.60365876795E+03  0.00000000000E+00 0. -1.
         -1   -1    0    0    0  501 -0.00000000000E+00 -0.00000000000E+00 -0.18784676956E+02  0.18784676956E+02  0.00000000000E+00 0.  1.
         25    2    1    2    0    0  0.19022483872E+01 -0.84148144580E+01  0.36236971553E+03  0.38344936481E+03  0.12508867649E+03 0.  0.
         23    2    1    2    0    0 -0.19022483872E+01  0.84148144580E+01  0.22250437546E+03  0.23899408009E+03  0.86807520243E+02 0.  0.
          5    1    3    3  502    0 -0.47997695480E+02 -0.24420902262E+02  0.28393049971E+03  0.28902276780E+03  0.41800000000E+01 0.  1.
         -5    1    3    3    0  502  0.49899943867E+02  0.16006087804E+02  0.78439215822E+02  0.94426597014E+02  0.41800000000E+01 0.  1.
        -11    1    4    4    0    0 -0.11244802236E+01  0.35915647277E+02  0.20069486944E+03  0.20388631341E+03  0.00000000000E+00 0. -1.
         11    1    4    4    0    0 -0.77776816359E+00 -0.27500832819E+02  0.21809506020E+02  0.35107766689E+02  0.00000000000E+00 0.  1.
</event>
<event>
 8    1  0.3710605E-009  0.1463702E+03  0.7561462E-02  0.1205006E+00
         -2   -1    0    0    0  501 -0.00000000000E+00  0.00000000000E+00  0.17377426939E+03  0.17377426939E+03  0.00000000000E+00 0.  1.
          2   -1    0    0  501    0  0.00000000000E+00 -0.00000000000E+00 -0.12942502232E+03  0.12942502232E+03  0.00000000000E+00 0. -1.
         25    2    1    2    0    0 -0.19138607100E+02  0.97740463272E+02 -0.13434453301E+01  0.15990214583E+03  0.12508959570E+03 0.  0.
         23    2    1    2    0    0  0.19138607100E+02 -0.97740463272E+02  0.45692692399E+02  0.14329714588E+03  0.92340486442E+02 0.  0.
          5    1    3    3  502    0 -0.89322065997E+01  0.12617075585E+03 -0.13073899455E+02  0.12722909728E+03  0.41800000000E+01 0.  1.
         -5    1    3    3    0  502 -0.10206400500E+02 -0.28430292583E+02  0.11730454124E+02  0.32673048549E+02  0.41800000000E+01 0.  1.
        -11    1    4    4    0    0  0.48120173343E+02 -0.18912302703E+02  0.20426906652E+02  0.55592128863E+02  0.00000000000E+00 0.  1.
         11    1    4    4    0    0 -0.28981566243E+02 -0.78828160569E+02  0.25265785747E+02  0.87705017017E+02  0.00000000000E+00 0. -1.
</event>
<event>
 8    1  0.3710605E-009  0.1231125E+03  0.7561462E-02  0.1238049E+00
         -2   -1    0    0    0  501 -0.00000000000E+00  0.00000000000E+00  0.75922147248E+02  0.75922147248E+02  0.00000000000E+00 0.  1.
          2   -1    0    0  501    0  0.00000000000E+00 -0.00000000000E+00 -0.27057811310E+03  0.27057811310E+03  0.00000000000E+00 0. -1.
         25    2    1    2    0    0  0.67483513430E+02 -0.46105343014E+02 -0.16193359442E+03  0.22034693593E+03  0.12510218197E+03 0.  0.
         23    2    1    2    0    0 -0.67483513430E+02  0.46105343014E+02 -0.32722371430E+02  0.12615332441E+03  0.90355854427E+02 0.  0.
          5    1    3    3  502    0  0.95321839457E+02 -0.22953801458E+02 -0.67458699106E+02  0.11908517357E+03  0.41800000000E+01 0.  1.
         -5    1    3    3    0  502 -0.27838326028E+02 -0.23151541556E+02 -0.94474895315E+02  0.10126176236E+03  0.41800000000E+01 0.  1.
        -11    1    4    4    0    0 -0.75699787966E+02  0.59256895423E+02 -0.73470183777E+01  0.96414813345E+02  0.00000000000E+00 0.  1.
         11    1    4    4    0    0  0.82162745367E+01 -0.13151552409E+02 -0.25375353053E+02  0.29738511068E+02  0.00000000000E+00 0. -1.
</event>
<event>
 8    1  0.3710605E-009  0.1007443E+03  0.7561462E-02  0.1278739E+00
          2   -1    0    0  501    0  0.00000000000E+00  0.00000000000E+00  0.42703263270E+03  0.42703263270E+03  0.00000000000E+00 0. -1.
         -2   -1    0    0    0  501 -0.00000000000E+00 -0.00000000000E+00 -0.44490931522E+02  0.44490931522E+02  0.00000000000E+00 0.  1.
         25    2    1    2    0    0 -0.58994552035E+02 -0.35389563188E+02  0.29503816523E+03  0.32776139462E+03  0.12508890640E+03 0.  0.
         23    2    1    2    0    0  0.58994552035E+02  0.35389563188E+02  0.87503535944E+02  0.14376216960E+03  0.90983043773E+02 0.  0.
          5    1    3    3  502    0  0.42581939517E+01 -0.42853806960E+02  0.23881172451E+03  0.24269959446E+03  0.41800000000E+01 0.  1.
         -5    1    3    3    0  502 -0.63252745987E+02  0.74642437718E+01  0.56226440725E+02  0.85061800160E+02  0.41800000000E+01 0.  1.
        -11    1    4    4    0    0 -0.11706135771E+02  0.18187817725E+02 -0.85517626930E+01  0.23258610738E+02  0.00000000000E+00 0.  1.
         11    1    4    4    0    0  0.70700687806E+02  0.17201745463E+02  0.96055298637E+02  0.12050355887E+03  0.00000000000E+00 0. -1.
</event>
<event>
 8    1  0.3710605E-009  0.1707842E+03  0.7561462E-02  0.1177032E+00
         -1   -1    0    0    0  501 -0.00000000000E+00  0.00000000000E+00  0.10397907251E+04  0.10397907251E+04  0.00000000000E+00 0.  1.
          1   -1    0    0  501    0  0.00000000000E+00 -0.00000000000E+00 -0.76557902729E+02  0.76557902729E+02  0.00000000000E+00 0. -1.
         25    2    1    2    0    0  0.22958300409E+02  0.14864274411E+03  0.91227816559E+03  0.93301717776E+03  0.12509138124E+03 0.  0.
         23    2    1    2    0    0 -0.22958300409E+02 -0.14864274411E+03  0.50954656831E+02  0.18333145011E+03  0.91609467932E+02 0.  0.
          5    1    3    3  502    0 -0.52810497046E+01  0.16008070729E+03  0.82664706178E+03  0.84203121051E+03  0.41800000000E+01 0. -1.
         -5    1    3    3    0  502  0.28239350114E+02 -0.11437963184E+02  0.85631103811E+02  0.90985967250E+02  0.41800000000E+01 0. -1.
        -11    1    4    4    0    0 -0.19180398683E+02 -0.10130972602E+03  0.77448564744E+02  0.12895669219E+03  0.00000000000E+00 0.  1.
         11    1    4    4    0    0 -0.37779017263E+01 -0.47333018090E+02 -0.26493907913E+02  0.54374757925E+02  0.00000000000E+00 0. -1.
</event>
<event>
 8    1  0.3710605E-009  0.1071929E+03  0.7561462E-02  0.1265858E+00
         -1   -1    0    0    0  501 -0.00000000000E+00  0.00000000000E+00  0.64276968276E+03  0.64276968276E+03  0.00000000000E+00 0.  1.
          1   -1    0    0  501    0  0.00000000000E+00 -0.00000000000E+00 -0.19536103547E+02  0.19536103547E+02  0.00000000000E+00 0. -1.
         25    2    1    2    0    0 -0.38460334978E+01 -0.24752158846E+02  0.31956163258E+03  0.34408110892E+03  0.12507881978E+03 0.  0.
         23    2    1    2    0    0  0.38460334978E+01  0.24752158846E+02  0.30367194664E+03  0.31822467739E+03  0.91775992423E+02 0.  0.
          5    1    3    3  502    0 -0.59480231231E+02 -0.40914071053E+01  0.99051745330E+02  0.11568646495E+03  0.41800000000E+01 0. -1.
         -5    1    3    3    0  502  0.55634197733E+02 -0.20660751740E+02  0.22050988725E+03  0.22839464397E+03  0.41800000000E+01 0. -1.
        -11    1    4    4    0    0  0.31743262076E+01 -0.35112868967E+02  0.11457141520E+03  0.11987326264E+03  0.00000000000E+00 0.  1.
         11    1    4    4    0    0  0.67170729015E+00  0.59865027813E+02  0.18910053143E+03  0.19835141475E+03  0.00000000000E+00 0. -1.
</event>
<event>
 8    1  0.3710605E-009  0.1266763E+03  0.7561462E-02  0.1232473E+00
          3   -1    0    0  501    0  0.00000000000E+00  0.00000000000E+00  0.12577533567E+03  0.12577533567E+03  0.00000000000E+00 0. -1.
         -3   -1    0    0    0  501 -0.00000000000E+00 -0.00000000000E+00 -0.12963540348E+03  0.12963540348E+03  0.00000000000E+00 0.  1.
         25    2    1    2    0    0  0.65452619945E+02 -0.22920330498E+02  0.10344801710E+02  0.14339542835E+03  0.12508335997E+03 0.  0.
         23    2    1    2    0    0 -0.65452619945E+02  0.22920330498E+02 -0.14204869518E+02  0.11201531080E+03  0.86811661245E+02 0.  0.
          5    1    3    3  502    0  0.55302202310E+02 -0.73041969485E+02  0.63794822008E+01  0.91932763908E+02  0.41800000000E+01 0. -1.
         -5    1    3    3    0  502  0.10150417636E+02  0.50121638987E+02  0.39653195089E+01  0.51462664444E+02  0.41800000000E+01 0. -1.
        -11    1    4    4    0    0 -0.56068835389E+02  0.54013420112E+02 -0.16026908842E+02  0.79486009216E+02  0.00000000000E+00 0.  1.
         11    1    4    4    0    0 -0.93837845560E+01 -0.31093089614E+02  0.18220393238E+01  0.32529301585E+02  0.00000000000E+00 0. -1.
</event>
<event>
 8    1  0.3710605E-009  0.1472602E+03  0.7561462E-02  0.1203881E+00
         -2   -1    0    0    0  501 -0.00000000000E+00  0.00000000000E+00  0.28567095612E+02  0.28567095612E+02  0.00000000000E+00 0.  1.
          2   -1    0    0  501    0  0.00000000000E+00 -0.00000000000E+00 -0.80519873037E+03  0.80519873037E+03  0.00000000000E+00 0. -1.
         25    2    1    2    0    0 -0.24141708090E+02 -0.97149919353E+02 -0.51954394215E+03  0.54368593524E+03  0.12509020529E+03 0.  0.
         23    2    1    2    0    0  0.24141708090E+02  0.97149919353E+02 -0.25708769261E+03  0.29007989074E+03  0.89617701482E+02 0.  0.
          5    1    3    3  502    0  0.19153658546E+02 -0.11238591121E+03 -0.36428941964E+03  0.38173512982E+03  0.41800000000E+01 0. -1.
         -5    1    3    3    0  502 -0.43295366636E+02  0.15235991853E+02 -0.15525452250E+03  0.16195080542E+03  0.41800000000E+01 0. -1.
        -11    1    4    4    0    0  0.54877891996E+02  0.85258435270E+02 -0.19547099082E+03  0.22020329713E+03  0.00000000000E+00 0.  1.
         11    1    4    4    0    0 -0.30736183906E+02  0.11891484084E+02 -0.61616701790E+02  0.69876593608E+02  0.00000000000E+00 0. -1.
</event>
<event>
 8    1  0.3710605E-009  0.1461393E+03  0.7561462E-02  0.1205299E+00
          2   -1    0    0  501    0  0.00000000000E+00  0.00000000000E+00  0.21960933871E+03  0.21960933871E+03  0.00000000000E+00 0. -1.
         -2   -1    0    0    0  501 -0.00000000000E+00 -0.00000000000E+00 -0.15830883550E+03  0.15830883550E+03  0.00000000000E+00 0.  1.
         25    2    1    2    0    0  0.45882293146E+02  0.90796416021E+02 -0.81412089852E+02  0.18063623549E+03  0.12510934103E+03 0.  0.
         23    2    1    2    0    0 -0.45882293146E+02 -0.90796416021E+02  0.14271259307E+03  0.19728193872E+03  0.90576515373E+02 0.  0.
          5    1    3    3  502    0  0.13918043674E+02 -0.28918032407E+02 -0.36478591568E+02  0.48766018710E+02  0.41800000000E+01 0. -1.
         -5    1    3    3    0  502  0.31964249472E+02  0.11971444843E+03 -0.44933498285E+02  0.13187021678E+03  0.41800000000E+01 0. -1.
        -11    1    4    4    0    0 -0.61054289240E+02 -0.21085329474E+02  0.61573265694E+02  0.89238357234E+02  0.00000000000E+00 0. -1.
         11    1    4    4    0    0  0.15171996094E+02 -0.69711086547E+02  0.81139327373E+02  0.10804358148E+03  0.00000000000E+00 0.  1.
</event>
<event>
 8    1  0.3710605E-009  0.1729618E+03  0.7561462E-02  0.1174794E+00
          1   -1    0    0  501    0  0.00000000000E+00  0.00000000000E+00  0.59297114753E+03  0.59297114753E+03  0.00000000000E+00 0. -1.
         -1   -1    0    0    0  501 -0.00000000000E+00 -0.00000000000E+00 -0.57448168107E+02  0.57448168107E+02  0.00000000000E+00 0.  1.
         25    2    1    2    0    0 -0.14048600181E+03  0.43315290964E+02  0.24052537051E+03  0.30840310485E+03  0.12508992801E+03 0.  0.
         23    2    1    2    0    0  0.14048600181E+03 -0.43315290964E+02  0.29499760892E+03  0.34201621078E+03  0.91317950235E+02 0.  0.
          5    1    3    3  502    0 -0.75302096972E+02  0.83261923679E+02  0.11092388328E+03  0.15787505827E+03  0.41800000000E+01 0. -1.
         -5    1    3    3    0  502 -0.65183904841E+02 -0.39946632715E+02  0.12960148723E+03  0.15052804658E+03  0.41800000000E+01 0. -1.
        -11    1    4    4    0    0  0.75492610453E+02  0.55616880775E+01  0.71274131330E+02  0.10397147880E+03  0.00000000000E+00 0.  1.
         11    1    4    4    0    0  0.64993391360E+02 -0.48876979042E+02  0.22372347759E+03  0.23804473198E+03  0.00000000000E+00 0. -1.
</event>
<event>
 8    1  0.3710605E-009  0.1611079E+03  0.7561462E-02  0.1187452E+00
          3   -1    0    0  501    0  0.00000000000E+00  0.00000000000E+00  0.58053120483E+03  0.58053120483E+03  0.00000000000E+00 0. -1.
         -3   -1    0    0    0  501 -0.00000000000E+00 -0.00000000000E+00 -0.89070103608E+02  0.89070103608E+02  0.00000000000E+00 0.  1.
         25    2    1    2    0    0  0.12397315028E+03 -0.48177121907E+02  0.36665942191E+02  0.18623231108E+03  0.12509078827E+03 0.  0.
         23    2    1    2    0    0 -0.12397315028E+03  0.48177121907E+02  0.45479515903E+03  0.48336899736E+03  0.95480751277E+02 0.  0.
          5    1    3    3  502    0  0.12968202929E+03 -0.67196639180E+02  0.57614933423E+02  0.15706613254E+03  0.41800000000E+01 0.  1.
         -5    1    3    3    0  502 -0.57088790149E+01  0.19019517273E+02 -0.20948991232E+02  0.29166178539E+02  0.41800000000E+01 0.  1.
        -11    1    4    4    0    0 -0.50940767292E+02  0.63271408449E+02  0.16198084518E+03  0.18120713867E+03  0.00000000000E+00 0.  1.
         11    1    4    4    0    0 -0.73032382984E+02 -0.15094286542E+02  0.29281431385E+03  0.30216185868E+03  0.00000000000E+00 0. -1.
</event>
<event>
 8    1  0.3710605E-009  0.1005849E+03  0.7561462E-02  0.1279071E+00
          1   -1    0    0  501    0  0.00000000000E+00  0.00000000000E+00  0.20199858232E+02  0.20199858232E+02  0.00000000000E+00 0. -1.
         -1   -1    0    0    0  501 -0.00000000000E+00 -0.00000000000E+00 -0.61117528793E+03  0.61117528793E+03  0.00000000000E+00 0.  1.
         25    2    1    2    0    0  0.80923956989E+01 -0.38892000394E+01 -0.42143462479E+03  0.43969852755E+03  0.12508812657E+03 0.  0.
         23    2    1    2    0    0 -0.80923956989E+01  0.38892000394E+01 -0.16954080490E+03  0.19167661861E+03  0.88967571901E+02 0.  0.
          5    1    3    3  502    0  0.62590724621E+02  0.23162997178E+01 -0.14761081641E+03  0.16040383279E+03  0.41800000000E+01 0.  1.
         -5    1    3    3    0  502 -0.54498328922E+02 -0.62054997572E+01 -0.27382380838E+03  0.27929469476E+03  0.41800000000E+01 0.  1.
        -11    1    4    4    0    0  0.34499558512E+02 -0.13946421051E+02 -0.11127511949E+03  0.11733232468E+03  0.00000000000E+00 0.  1.
         11    1    4    4    0    0 -0.42591954211E+02  0.17835621090E+02 -0.58265685410E+02  0.74344293927E+02  0.00000000000E+00 0. -1.
</event>
<event>
 8    1  0.3710605E-009  0.8167760E+02  0.7561462E-02  0.1324357E+00
          1   -1    0    0  501    0  0.00000000000E+00  0.00000000000E+00  0.37769029614E+03  0.37769029614E+03  0.00000000000E+00 0. -1.
         -1   -1    0    0    0  501 -0.00000000000E+00 -0.00000000000E+00 -0.30973739211E+02  0.30973739211E+02  0.00000000000E+00 0.  1.
         25    2    1    2    0    0 -0.37053275995E+01 -0.21431542610E+00  0.22449877481E+03  0.25702288490E+03  0.12508912058E+03 0.  0.
         23    2    1    2    0    0  0.37053275995E+01  0.21431542610E+00  0.12221778212E+03  0.15164115045E+03  0.89688777785E+02 0.  0.
          5    1    3    3  502    0  0.46094047535E+02  0.38410668061E+02  0.13151756667E+03  0.14461806036E+03  0.41800000000E+01 0.  1.
         -5    1    3    3    0  502 -0.49799375134E+02 -0.38624983487E+02  0.92981208142E+02  0.11240482454E+03  0.41800000000E+01 0.  1.
        -11    1    4    4    0    0 -0.16342056293E+02  0.84233591462E+01 -0.76979102494E+01  0.19931723593E+02  0.00000000000E+00 0.  1.
         11    1    4    4    0    0  0.20047383892E+02 -0.82090437201E+01  0.12991569237E+03  0.13170942686E+03  0.00000000000E+00 0. -1.
</event>
<event>
 8    1  0.3710605E-009  0.1315441E+03  0.7561462E-02  0.1225182E+00
         -1   -1    0    0    0  501 -0.00000000000E+00  0.00000000000E+00  0.22629659027E+03  0.22629659027E+03  0.00000000000E+00 0.  1.
          1   -1    0    0  501    0  0.00000000000E+00 -0.00000000000E+00 -0.85202596029E+02  0.85202596029E+02  0.00000000000E+00 0. -1.
         25    2    1    2    0    0 -0.27791763336E+02  0.71824313455E+02  0.33507314613E+02  0.15067067835E+03  0.12509116303E+03 0.  0.
         23    2    1    2    0    0  0.27791763336E+02 -0.71824313455E+02  0.10758667963E+03  0.16082850795E+03  0.91431948593E+02 0.  0.
          5    1    3    3  502    0  0.19426008000E+02 -0.27719859478E+02  0.20140418062E+02  0.39608953988E+02  0.41800000000E+01 0. -1.
         -5    1    3    3    0  502 -0.47217771336E+02  0.99544172933E+02  0.13366896550E+02  0.11106172436E+03  0.41800000000E+01 0. -1.
        -11    1    4    4    0    0  0.53558981374E+02 -0.13903883150E+02  0.59555154302E+02  0.81293904178E+02  0.00000000000E+00 0.  1.
         11    1    4    4    0    0 -0.25767218039E+02 -0.57920430305E+02  0.48031525329E+02  0.79534603775E+02  0.00000000000E+00 0. -1.
</event>
<event>
 8    1  0.3710605E-009  0.1068875E+03  0.7561462E-02  0.1266445E+00
          1   -1    0    0  501    0  0.00000000000E+00  0.00000000000E+00  0.93705984723E+03  0.93705984723E+03  0.00000000000E+00 0. -1.
         -1   -1    0    0    0  501 -0.00000000000E+00 -0.00000000000E+00 -0.19018796027E+02  0.19018796027E+02  0.00000000000E+00 0.  1.
         25    2    1    2    0    0  0.47478901290E+02 -0.51805998577E+02  0.62872601550E+03  0.64488851571E+03  0.12508672020E+03 0.  0.
         23    2    1    2    0    0 -0.47478901290E+02  0.51805998577E+02  0.28931503570E+03  0.31119012755E+03  0.90542796751E+02 0.  0.
          5    1    3    3  502    0  0.56576496056E+02 -0.64585935287E+02  0.22540381997E+03  0.24123970941E+03  0.41800000000E+01 0. -1.
         -5    1    3    3    0  502 -0.90975947657E+01  0.12779936710E+02  0.40332219554E+03  0.40364880630E+03  0.41800000000E+01 0. -1.
        -11    1    4    4    0    0  0.16972693514E+02  0.43373351521E+02  0.86906019101E+02  0.98600081660E+02  0.00000000000E+00 0.  1.
         11    1    4    4    0    0 -0.64451594804E+02  0.84326470551E+01  0.20240901660E+03  0.21259004589E+03  0.00000000000E+00 0. -1.
</event>
<event>
 8    1  0.3710605E-009  0.1367126E+03  0.7561462E-02  0.1217822E+00
          2   -1    0    0  501    0  0.00000000000E+00  0.00000000000E+00  0.26570160582E+04  0.26570160582E+04  0.00000000000E+00 0. -1.
         -2   -1    0    0    0  501 -0.00000000000E+00 -0.00000000000E+00 -0.12158818501E+02  0.12158818501E+02  0.00000000000E+00 0.  1.
         25    2    1    2    0    0  0.11680658637E+03 -0.56717347694E+01  0.19833569311E+04  0.19907355016E+04  0.12508866466E+03 0.  0.
         23    2    1    2    0    0 -0.11680658637E+03  0.56717347694E+01  0.66150030859E+03  0.67843937508E+03  0.94980946525E+02 0.  0.
          5    1    3    3  502    0  0.75907781399E+02  0.13910987730E+02  0.44198984946E+03  0.44869589510E+03  0.41800000000E+01 0.  1.
         -5    1    3    3    0  502  0.40898804972E+02 -0.19582722499E+02  0.15413670816E+04  0.15420396065E+04  0.41800000000E+01 0.  1.
        -11    1    4    4    0    0 -0.47648995180E+02 -0.44472755146E+02  0.27733688346E+03  0.28489296168E+03  0.00000000000E+00 0. -1.
         11    1    4    4    0    0 -0.69157591191E+02  0.50144489916E+02  0.38416342513E+03  0.39354641340E+03  0.00000000000E+00 0.  1.
</event>
<event>
 8    1  0.3710605E-009  0.9426735E+02  0.7561462E-02  0.1292835E+00
          1   -1    0    0  501    0  0.00000000000E+00  0.00000000000E+00  0.12545323632E+02  0.12545323632E+02  0.00000000000E+00 0. -1.
         -1   -1    0    0    0  501 -0.00000000000E+00 -0.00000000000E+00 -0.10002751694E+04  0.10002751694E+04  0.00000000000E+00 0.  1.
         25    2    1    2    0    0 -0.28035617455E+02 -0.26939436677E+01 -0.60416209701E+03  0.61761877146E+03  0.12509138344E+03 0.  0.
         23    2    1    2    0    0  0.28035617455E+02  0.26939436677E+01 -0.38356774872E+03  0.39520172154E+03  0.90922657629E+02 0.  0.
          5    1    3    3  502    0 -0.48905464156E+02 -0.39021810090E+02 -0.16616627560E+03  0.17760391221E+03  0.41800000000E+01 0.  1.
         -5    1    3    3    0  502  0.20869846701E+02  0.36327866423E+02 -0.43799582141E+03  0.44001485924E+03  0.41800000000E+01 0.  1.
        -11    1    4    4    0    0  0.55362450271E+02  0.78518176416E+01 -0.33140358658E+03  0.33608776999E+03  0.00000000000E+00 0.  1.
         11    1    4    4    0    0 -0.27326832815E+02 -0.51578739739E+01 -0.52164162138E+02  0.59113951545E+02  0.00000000000E+00 0. -1.
</event>
<event>
 8    1  0.3710605E-009  0.1332178E+03  0.7561462E-02  0.1222758E+00
          2   -1    0    0  501    0  0.00000000000E+00  0.00000000000E+00  0.12829969732E+04  0.12829969732E+04  0.00000000000E+00 0. -1.
         -2   -1    0    0    0  501 -0.00000000000E+00 -0.00000000000E+00 -0.24663867290E+02  0.24663867290E+02  0.00000000000E+00 0.  1.
         25    2    1    2    0    0 -0.19224318469E+02 -0.11883724836E+03  0.93421940206E+03  0.95021316690E+03  0.12508918956E+03 0.  0.
         23    2    1    2    0    0  0.19224318469E+02  0.11883724836E+03  0.32411370385E+03  0.35744767359E+03  0.90704356635E+02 0.  0.
          5    1    3    3  502    0 -0.37081775412E+02 -0.15829746872E+02  0.56509570538E+03  0.56654767460E+03  0.41800000000E+01 0. -1.
         -5    1    3    3    0  502  0.17857456943E+02 -0.10300750149E+03  0.36912369668E+03  0.38366549230E+03  0.41800000000E+01 0. -1.
        -11    1    4    4    0    0  0.21604259926E+02  0.10156527192E+03  0.32376516584E+03  0.34000901623E+03  0.00000000000E+00 0. -1.
         11    1    4    4    0    0 -0.23799414577E+01  0.17271976449E+02  0.34853800952E+00  0.17438657360E+02  0.00000000000E+00 0.  1.
</event>
<event>
 8    1  0.3710605E-009  0.1126920E+03  0.7561462E-02  0.1255664E+00
          2   -1    0    0  501    0  0.00000000000E+00  0.00000000000E+00  0.31279914739E+03  0.31279914739E+03  0.00000000000E+00 0. -1.
         -2   -1    0    0    0  501 -0.00000000000E+00 -0.00000000000E+00 -0.68160801203E+02  0.68160801203E+02  0.00000000000E+00 0.  1.
         25    2    1    2    0    0 -0.95118328360E+02 -0.14904406358E+02  0.11319724282E+03  0.19424328289E+03  0.12508876627E+03 0.  0.
         23    2    1    2    0    0  0.95118328360E+02  0.14904406358E+02  0.13144110337E+03  0.18671666570E+03  0.91196008014E+02 0.  0.
          5    1    3    3  502    0  0.48483153458E+01 -0.15996048941E+02 -0.20800024385E+02  0.27009131009E+02  0.41800000000E+01 0.  1.
         -5    1    3    3    0  502 -0.99966643706E+02  0.10916425829E+01  0.13399726721E+03  0.16723415188E+03  0.41800000000E+01 0.  1.
        -11    1    4    4    0    0  0.58866812143E+02  0.33098315624E+02  0.12956878296E+03  0.14611252372E+03  0.00000000000E+00 0. -1.
         11    1    4    4    0    0  0.36251516217E+02 -0.18193909266E+02  0.18723204019E+01  0.40604141981E+02  0.00000000000E+00 0.  1.
</event>
<event>
 8    1  0.3710605E-009  0.1006600E+03  0.7561462E-02  0.1278914E+00
          2   -1    0    0  501    0  0.00000000000E+00  0.00000000000E+00  0.35274445798E+03  0.35274445798E+03  0.00000000000E+00 0.  1.
         -2   -1    0    0    0  501 -0.00000000000E+00 -0.00000000000E+00 -0.42527192663E+02  0.42527192663E+02  0.00000000000E+00 0. -1.
         25    2    1    2    0    0  0.37298040128E+02  0.13822903615E+02  0.10855413235E+03  0.17033354903E+03  0.12508917545E+03 0.  0.
         23    2    1    2    0    0 -0.37298040128E+02 -0.13822903615E+02  0.20166313297E+03  0.22493810161E+03  0.91361446432E+02 0.  0.
          5    1    3    3  502    0  0.51604269547E+02 -0.27221272974E+02  0.11218270959E+03  0.12651652489E+03  0.41800000000E+01 0. -1.
         -5    1    3    3    0  502 -0.14306229419E+02  0.41044176589E+02 -0.36285772495E+01  0.43817024145E+02  0.41800000000E+01 0. -1.
        -11    1    4    4    0    0 -0.34578452142E+02  0.35619588093E+02  0.89877107179E+02  0.10267579463E+03  0.00000000000E+00 0. -1.
         11    1    4    4    0    0 -0.27195879865E+01 -0.49442491707E+02  0.11178602580E+03  0.12226230698E+03  0.00000000000E+00 0.  1.
</event>
<event>
 8    1  0.3710605E-009  0.1036805E+03  0.7561462E-02  0.1272741E+00
          1   -1    0    0  501    0  0.00000000000E+00  0.00000000000E+00  0.17066512703E+04  0.17066512703E+04  0.00000000000E+00 0. -1.
         -1   -1    0    0    0  501 -0.00000000000E+00 -0.00000000000E+00 -0.13455624357E+02  0.13455624357E+02  0.00000000000E+00 0.  1.
         25    2    1    2    0    0  0.71261914359E+02 -0.23458930625E+02  0.13323388451E+04  0.13402996202E+04  0.12509073443E+03 0.  0.
         23    2    1    2    0    0 -0.71261914359E+02  0.23458930625E+02  0.36085680080E+03  0.37980727443E+03  0.91691619907E+02 0.  0.
          5    1    3    3  502    0 -0.19723396653E+02 -0.14938161524E+02  0.78254849284E+03  0.78295068624E+03  0.41800000000E+01 0.  1.
         -5    1    3    3    0  502  0.90985311012E+02 -0.85207691015E+01  0.54979035228E+03  0.55734893396E+03  0.41800000000E+01 0.  1.
        -11    1    4    4    0    0 -0.48942862863E+02  0.39836793314E+02  0.33819165160E+03  0.34402902078E+03  0.00000000000E+00 0. -1.
         11    1    4    4    0    0 -0.22319051496E+02 -0.16377862688E+02  0.22665149200E+02  0.35778253649E+02  0.00000000000E+00 0.  1.
</event>
<event>
 8    1  0.3710605E-009  0.9996450E+02  0.7561462E-02  0.1280371E+00
         -2   -1    0    0    0  501 -0.00000000000E+00  0.00000000000E+00  0.14803465899E+02  0.14803465899E+02  0.00000000000E+00 0.  1.
          2   -1    0    0  501    0  0.00000000000E+00 -0.00000000000E+00 -0.10095229265E+04  0.10095229265E+04  0.00000000000E+00 0. -1.
         25    2    1    2    0    0  0.55438296824E+02 -0.14779667926E+02 -0.59115957150E+03  0.60696686828E+03  0.12508915568E+03 0.  0.
         23    2    1    2    0    0 -0.55438296824E+02  0.14779667926E+02 -0.40355988910E+03  0.41735952412E+03  0.89646778783E+02 0.  0.
          5    1    3    3  502    0  0.74164604514E+02 -0.56972387721E+01 -0.57620192127E+03  0.58099825608E+03  0.41800000000E+01 0.  1.
         -5    1    3    3    0  502 -0.18726307690E+02 -0.90824291543E+01 -0.14957650233E+02  0.25968612199E+02  0.41800000000E+01 0.  1.
        -11    1    4    4    0    0 -0.54416597987E+01 -0.33950697995E+02 -0.95907309609E+02  0.10188460920E+03  0.00000000000E+00 0.  1.
         11    1    4    4    0    0 -0.49996637025E+02  0.48730365921E+02 -0.30765257949E+03  0.31547491492E+03  0.00000000000E+00 0. -1.
</event>
<event>
 8    1  0.3710605E-009  0.5510151E+02  0.7561462E-02  0.1419619E+00
         -1   -1    0    0    0  501 -0.00000000000E+00  0.00000000000E+00  0.60408564654E+02  0.60408564654E+02  0.00000000000E+00 0.  1.
          1   -1    0    0  501    0  0.00000000000E+00 -0.00000000000E+00 -0.26475984597E+03  0.26475984597E+03  0.00000000000E+00 0. -1.
         25    2    1    2    0    0 -0.22537145729E+02  0.10195047711E+02 -0.19606510760E+03  0.23388510442E+03  0.12509537847E+03 0.  0.
         23    2    1    2    0    0  0.22537145729E+02 -0.10195047711E+02 -0.82861737101E+01  0.91283306202E+02  0.87476393278E+02 0.  0.
          5    1    3    3  502    0 -0.17288612352E+02  0.20717789476E+02  0.87629185003E+01  0.28677239380E+02  0.41800000000E+01 0. -1.
         -5    1    3    3    0  502 -0.52485333777E+01 -0.10522741765E+02 -0.20482802610E+03  0.20520786504E+03  0.41800000000E+01 0. -1.
        -11    1    4    4    0    0  0.10948920892E+02 -0.38397027520E+02  0.24233021873E+02  0.46705994692E+02  0.00000000000E+00 0.  1.
         11    1    4    4    0    0  0.11588224837E+02  0.28201979809E+02 -0.32519195583E+02  0.44577311510E+02  0.00000000000E+00 0. -1.
</event>
<event>
 8    1  0.3710605E-009  0.7524142E+02  0.7561462E-02  0.1343125E+00
         -1   -1    0    0    0  501 -0.00000000000E+00  0.00000000000E+00  0.71231743708E+02  0.71231743708E+02  0.00000000000E+00 0.  1.
          1   -1    0    0  501    0  0.00000000000E+00 -0.00000000000E+00 -0.24742669469E+03  0.24742669469E+03  0.00000000000E+00 0. -1.
         25    2    1    2    0    0 -0.39946012125E+01  0.42251636657E+02 -0.17272183640E+03  0.21744357165E+03  0.12509083277E+03 0.  0.
         23    2    1    2    0    0  0.39946012125E+01 -0.42251636657E+02 -0.34731145805E+01  0.10121486675E+03  0.91821724483E+02 0.  0.
          5    1    3    3  502    0 -0.16190001041E+02  0.25719145089E+02 -0.18864144643E+03  0.19111948689E+03  0.41800000000E+01 0. -1.
         -5    1    3    3    0  502  0.12195399829E+02  0.16532491569E+02  0.15919610035E+02  0.26324084753E+02  0.41800000000E+01 0. -1.
        -11    1    4    4    0    0 -0.10871123801E+02  0.26425179492E+02 -0.10843047262E+02  0.30562119001E+02  0.00000000000E+00 0.  1.
         11    1    4    4    0    0  0.14865725014E+02 -0.68676816150E+02  0.73699326817E+01  0.70652747748E+02  0.00000000000E+00 0. -1.
</event>
<event>
 8    1  0.3710605E-009  0.1193396E+03  0.7561462E-02  0.1244190E+00
          3   -1    0    0  501    0  0.00000000000E+00  0.00000000000E+00  0.35837990232E+03  0.35837990232E+03  0.00000000000E+00 0. -1.
         -3   -1    0    0    0  501 -0.00000000000E+00 -0.00000000000E+00 -0.85210769279E+02  0.85210769279E+02  0.00000000000E+00 0.  1.
         25    2    1    2    0    0  0.10203883332E+03 -0.20157608846E+02  0.25626686678E+03  0.30354321698E+03  0.12509006702E+03 0.  0.
         23    2    1    2    0    0 -0.10203883332E+03  0.20157608846E+02  0.16902266262E+02  0.14004745462E+03  0.92246139430E+02 0.  0.
          5    1    3    3  502    0  0.58165647630E+02  0.53111312155E+01  0.24434552384E+03  0.25126412020E+03  0.41800000000E+01 0.  1.
         -5    1    3    3    0  502  0.43873185692E+02 -0.25468740061E+02  0.11921342942E+02  0.52279096785E+02  0.41800000000E+01 0.  1.
        -11    1    4    4    0    0 -0.88400108583E+02 -0.16661473066E+02  0.35365998501E+02  0.96658873013E+02  0.00000000000E+00 0. -1.
         11    1    4    4    0    0 -0.13638724740E+02  0.36819081912E+02 -0.18463732239E+02  0.43388581604E+02  0.00000000000E+00 0.  1.
</event>
<event>
 8    1  0.3710605E-009  0.7643873E+02  0.7561462E-02  0.1339473E+00
          1   -1    0    0  501    0  0.00000000000E+00  0.00000000000E+00  0.32594896799E+02  0.32594896799E+02  0.00000000000E+00 0. -1.
         -1   -1    0    0    0  501 -0.00000000000E+00 -0.00000000000E+00 -0.40866461639E+03  0.40866461639E+03  0.00000000000E+00 0.  1.
         25    2    1    2    0    0 -0.11002993187E+02  0.39772615383E+02 -0.19467781837E+03  0.23505289541E+03  0.12508990320E+03 0.  0.
         23    2    1    2    0    0  0.11002993187E+02 -0.39772615383E+02 -0.18139190123E+03  0.20620661778E+03  0.88967525501E+02 0.  0.
          5    1    3    3  502    0 -0.18833732230E+02  0.53087367516E+01  0.13316891088E+02  0.24035476777E+02  0.41800000000E+01 0. -1.
         -5    1    3    3    0  502  0.78307390430E+01  0.34463878632E+02 -0.20799470945E+03  0.21101741863E+03  0.41800000000E+01 0. -1.
        -11    1    4    4    0    0  0.23062671329E+02 -0.65188471151E+02 -0.11643897412E+03  0.13542325603E+03  0.00000000000E+00 0. -1.
         11    1    4    4    0    0 -0.12059678142E+02  0.25415855768E+02 -0.64952927111E+02  0.70783361757E+02  0.00000000000E+00 0.  1.
</event>
<event>
 8    1  0.3710605E-009  0.2765950E+03  0.7561462E-02  0.1097563E+00
          2   -1    0    0  501    0  0.00000000000E+00  0.00000000000E+00  0.61843601679E+03  0.61843601679E+03  0.00000000000E+00 0. -1.
         -2   -1    0    0    0  501 -0.00000000000E+00 -0.00000000000E+00 -0.13372918423E+03  0.13372918423E+03  0.00000000000E+00 0.  1.
         25    2    1    2    0    0  0.66018117018E+02 -0.25572109958E+03  0.20498991865E+03  0.35696042067E+03  0.12509277610E+03 0.  0.
         23    2    1    2    0    0 -0.66018117018E+02  0.25572109958E+03  0.27971691391E+03  0.39520478035E+03  0.90518472912E+02 0.  0.
          5    1    3    3  502    0  0.86093969277E+01 -0.20982986696E+03  0.11100139226E+03  0.23757414899E+03  0.41800000000E+01 0.  1.
         -5    1    3    3    0  502  0.57408720091E+02 -0.45891232621E+02  0.93988526384E+02  0.11938627168E+03  0.41800000000E+01 0.  1.
        -11    1    4    4    0    0 -0.73652671506E+02  0.19712753348E+03  0.25635490361E+03  0.33166521838E+03  0.00000000000E+00 0.  1.
         11    1    4    4    0    0  0.76345544872E+01  0.58593566100E+02  0.23362010303E+02  0.63539561974E+02  0.00000000000E+00 0. -1.
</event>
<event>
 8    1  0.3710605E-009  0.9006638E+02  0.7561462E-02  0.1302691E+00
          1   -1    0    0  501    0  0.00000000000E+00  0.00000000000E+00  0.30209476489E+03  0.30209476489E+03  0.00000000000E+00 0. -1.
         -1   -1    0    0    0  501 -0.00000000000E+00 -0.00000000000E+00 -0.69780860996E+02  0.69780860996E+02  0.00000000000E+00 0.  1.
         25    2    1    2    0    0  0.84391080366E+01  0.54871888919E+02  0.24776701949E+02  0.13908131529E+03  0.12509030564E+03 0.  0.
         23    2    1    2    0    0 -0.84391080366E+01 -0.54871888919E+02  0.20753720195E+03  0.23279431060E+03  0.89662467718E+02 0.  0.
          5    1    3    3  502    0 -0.16123560330E+01 -0.10630125144E+02  0.61928703032E+02  0.62993935516E+02  0.41800000000E+01 0.  1.
         -5    1    3    3    0  502  0.10051464070E+02  0.65502014063E+02 -0.37152001083E+02  0.76087379773E+02  0.41800000000E+01 0.  1.
        -11    1    4    4    0    0  0.37490956662E+02 -0.11993761074E+02  0.53382898094E+02  0.66326133198E+02  0.00000000000E+00 0.  1.
         11    1    4    4    0    0 -0.45930064699E+02 -0.42878127845E+02  0.15415430385E+03  0.16646817740E+03  0.00000000000E+00 0. -1.
</event>
<event>
 8    1  0.3710605E-009  0.6699671E+02  0.7561462E-02  0.1370614E+00
         -1   -1    0    0    0  501 -0.00000000000E+00  0.00000000000E+00  0.60990827240E+02  0.60990827240E+02  0.00000000000E+00 0. -1.
          1   -1    0    0  501    0  0.00000000000E+00 -0.00000000000E+00 -0.25292062356E+03  0.25292062356E+03  0.00000000000E+00 0.  1.
         25    2    1    2    0    0  0.55192411564E+02 -0.45884256266E+01 -0.72350051015E+02  0.15475621048E+03  0.12509076248E+03 0.  0.
         23    2    1    2    0    0 -0.55192411564E+02  0.45884256266E+01 -0.11957974530E+03  0.15915524032E+03  0.89240232460E+02 0.  0.
          5    1    3    3  502    0  0.45897305718E+02  0.20593335862E+02  0.23101620672E+02  0.55514011131E+02  0.41800000000E+01 0. -1.
         -5    1    3    3    0  502  0.92951058458E+01 -0.25181761489E+02 -0.95451671687E+02  0.99242199352E+02  0.41800000000E+01 0. -1.
        -11    1    4    4    0    0 -0.41200378480E+02 -0.11720742798E+01 -0.13280796751E+03  0.13905682715E+03  0.00000000000E+00 0.  1.
         11    1    4    4    0    0 -0.13992033084E+02  0.57604999064E+01  0.13228222203E+02  0.20098413162E+02  0.00000000000E+00 0. -1.
</event>
<event>
 8    1  0.3710605E-009  0.8667415E+02  0.7561462E-02  0.1311112E+00
         -4   -1    0    0    0  501 -0.00000000000E+00  0.00000000000E+00  0.18861542852E+03  0.18861542852E+03  0.00000000000E+00 0.  1.
          4   -1    0    0  501    0  0.00000000000E+00 -0.00000000000E+00 -0.82325287853E+02  0.82325287853E+02  0.00000000000E+00 0. -1.
         25    2    1    2    0    0 -0.39758028728E+02  0.32814391058E+02  0.60880473160E+02  0.14836307090E+03  0.12509070184E+03 0.  0.
         23    2    1    2    0    0  0.39758028728E+02 -0.32814391058E+02  0.45409667507E+02  0.12257764547E+03  0.10151727024E+03 0.  0.
          5    1    3    3  502    0 -0.64962930446E+02  0.48125887691E+01  0.82127721299E+02  0.10490842840E+03  0.41800000000E+01 0. -1.
         -5    1    3    3    0  502  0.25204901718E+02  0.28001802288E+02 -0.21247248139E+02  0.43454642508E+02  0.41800000000E+01 0. -1.
        -11    1    4    4    0    0 -0.23579741716E+01 -0.27633552823E+02 -0.26964294682E+02  0.38681345265E+02  0.00000000000E+00 0. -1.
         11    1    4    4    0    0  0.42116002899E+02 -0.51808382347E+01  0.72373962189E+02  0.83896300205E+02  0.00000000000E+00 0.  1.
</event>
<event>
 8    1  0.3710605E-009  0.1055331E+03  0.7561462E-02  0.1269073E+00
          1   -1    0    0  501    0  0.00000000000E+00  0.00000000000E+00  0.27415002118E+02  0.27415002118E+02  0.00000000000E+00 0. -1.
         -1   -1    0    0    0  501 -0.00000000000E+00 -0.00000000000E+00 -0.52307678536E+03  0.52307678536E+03  0.00000000000E+00 0.  1.
         25    2    1    2    0    0 -0.50182481387E+01  0.42000887261E+02 -0.21178908852E+03  0.24958214845E+03  0.12508946184E+03 0.  0.
         23    2    1    2    0    0  0.50182481387E+01 -0.42000887261E+02 -0.28387269472E+03  0.30090963903E+03  0.90408222560E+02 0.  0.
          5    1    3    3  502    0  0.49139230797E+02  0.43143706349E+02 -0.61857767476E+02  0.90110483285E+02  0.41800000000E+01 0. -1.
         -5    1    3    3    0  502 -0.54157478935E+02 -0.11428190878E+01 -0.14993132104E+03  0.15947166516E+03  0.41800000000E+01 0. -1.
        -11    1    4    4    0    0 -0.31812941408E+02  0.42400966091E+01 -0.16564860611E+03  0.16872907979E+03  0.00000000000E+00 0.  1.
         11    1    4    4    0    0  0.36831189547E+02 -0.46240983870E+02 -0.11822408861E+03  0.13218055924E+03  0.00000000000E+00 0. -1.
</event>
<event>
 8    1  0.3710605E-009  0.1171023E+03  0.7561462E-02  0.1247955E+00
          1   -1    0    0  501    0  0.00000000000E+00  0.00000000000E+00  0.58838104775E+02  0.58838104775E+02  0.00000000000E+00 0. -1.
         -1   -1    0    0    0  501 -0.00000000000E+00 -0.00000000000E+00 -0.36866664315E+03  0.36866664315E+03  0.00000000000E+00 0.  1.
         25    2    1    2    0    0 -0.61986952072E+02 -0.11742085819E+02 -0.27808174879E+03  0.31138396494E+03  0.12510098243E+03 0.  0.
         23    2    1    2    0    0  0.61986952072E+02  0.11742085819E+02 -0.31746789583E+02  0.11612078298E+03  0.92173308420E+02 0.  0.
          5    1    3    3  502    0  0.22672614377E+02 -0.32465877327E+02 -0.34645836538E+02  0.52781502656E+02  0.41800000000E+01 0.  1.
         -5    1    3    3    0  502 -0.84659566449E+02  0.20723791508E+02 -0.24343591225E+03  0.25860246228E+03  0.41800000000E+01 0.  1.
        -11    1    4    4    0    0  0.33843295858E+02 -0.37435025411E+02 -0.31442564908E+02  0.59459100986E+02  0.00000000000E+00 0.  1.
         11    1    4    4    0    0  0.28143656214E+02  0.49177111230E+02 -0.30422467500E+00  0.56661681996E+02  0.00000000000E+00 0. -1.
</event>
<event>
 8    1  0.3710605E-009  0.1896651E+03  0.7561462E-02  0.1158764E+00
         -1   -1    0    0    0  501 -0.00000000000E+00  0.00000000000E+00  0.10107342084E+03  0.10107342084E+03  0.00000000000E+00 0.  1.
          1   -1    0    0  501    0  0.00000000000E+00 -0.00000000000E+00 -0.40938360311E+03  0.40938360311E+03  0.00000000000E+00 0. -1.
         25    2    1    2    0    0  0.14377764381E+03 -0.89944867914E+02 -0.11970848492E+03  0.24236071682E+03  0.12508599271E+03 0.  0.
         23    2    1    2    0    0 -0.14377764381E+03  0.89944867914E+02 -0.18860169735E+03  0.26809630714E+03  0.86850098060E+02 0.  0.
          5    1    3    3  502    0  0.27417700429E+02 -0.84768798166E+02 -0.26267130396E+02  0.92978029548E+02  0.41800000000E+01 0.  1.
         -5    1    3    3    0  502  0.11635994338E+03 -0.51760697482E+01 -0.93441354519E+02  0.14938268727E+03  0.41800000000E+01 0.  1.
        -11    1    4    4    0    0 -0.40864668747E+02  0.46438369157E+02 -0.12515527161E+03  0.13960761188E+03  0.00000000000E+00 0. -1.
         11    1    4    4    0    0 -0.10291297506E+03  0.43506498757E+02 -0.63446425740E+02  0.12848869526E+03  0.00000000000E+00 0.  1.
</event>
<event>
 8    1  0.3710605E-009  0.5554318E+02  0.7561462E-02  0.1417548E+00
          1   -1    0    0  501    0  0.00000000000E+00  0.00000000000E+00  0.18617294257E+03  0.18617294257E+03  0.00000000000E+00 0. -1.
         -1   -1    0    0    0  501 -0.00000000000E+00 -0.00000000000E+00 -0.96217076066E+02  0.96217076066E+02  0.00000000000E+00 0.  1.
         25    2    1    2    0    0  0.19989292228E+02 -0.46919618785E+02  0.11268698704E+03  0.17591904188E+03  0.12509248505E+03 0.  0.
         23    2    1    2    0    0 -0.19989292228E+02  0.46919618785E+02 -0.22731120531E+02  0.10647097676E+03  0.90655074990E+02 0.  0.
          5    1    3    3  502    0  0.10388537481E+02 -0.48248394333E+02  0.13900359425E+03  0.14756456513E+03  0.41800000000E+01 0. -1.
         -5    1    3    3    0  502  0.96007547473E+01  0.13287755485E+01 -0.26316607216E+02  0.28354476746E+02  0.41800000000E+01 0. -1.
        -11    1    4    4    0    0 -0.14293829241E+02  0.33669079874E+02 -0.57885093754E+02  0.68473385872E+02  0.00000000000E+00 0.  1.
         11    1    4    4    0    0 -0.56954629875E+01  0.13250538910E+02  0.35153973223E+02  0.37997590890E+02  0.00000000000E+00 0. -1.
</event>
<event>
 8    1  0.3710605E-009  0.1111864E+03  0.7561462E-02  0.1258388E+00
         -1   -1    0    0    0  501 -0.00000000000E+00  0.00000000000E+00  0.13214886286E+02  0.13214886286E+02  0.00000000000E+00 0.  1.
          1   -1    0    0  501    0  0.00000000000E+00 -0.00000000000E+00 -0.18375773805E+04  0.18375773805E+04  0.00000000000E+00 0. -1.
         25    2    1    2    0    0 -0.33513391964E+02 -0.23427212360E+02 -0.15943813573E+04  0.15998035935E+04  0.12509054084E+03 0.  0.
         23    2    1    2    0    0  0.33513391964E+02  0.23427212360E+02 -0.22998113692E+03  0.25098867334E+03  0.91825971732E+02 0.  0.
          5    1    3    3  502    0  0.43511521098E+02  0.13583103776E+02 -0.60578591924E+03  0.60751280277E+03  0.41800000000E+01 0. -1.
         -5    1    3    3    0  502 -0.77024913062E+02 -0.37010316136E+02 -0.98859543808E+03  0.99229079070E+03  0.41800000000E+01 0. -1.
        -11    1    4    4    0    0  0.48342036061E+02 -0.14375965974E+02 -0.17811135185E+03  0.18511422016E+03  0.00000000000E+00 0. -1.
         11    1    4    4    0    0 -0.14828644097E+02  0.37803178334E+02 -0.51869785069E+02  0.65874453174E+02  0.00000000000E+00 0.  1.
</event>
<event>
 8    1  0.3710605E-009  0.1018540E+03  0.7561462E-02  0.1276445E+00
         -1   -1    0    0    0  501 -0.00000000000E+00  0.00000000000E+00  0.57687921769E+02  0.57687921769E+02  0.00000000000E+00 0.  1.
          1   -1    0    0  501    0  0.00000000000E+00 -0.00000000000E+00 -0.26868806076E+03  0.26868806076E+03  0.00000000000E+00 0. -1.
         25    2    1    2    0    0 -0.48582480282E+02  0.18817646198E+02 -0.76493129962E+02  0.15560546891E+03  0.12508997492E+03 0.  0.
         23    2    1    2    0    0  0.48582480282E+02 -0.18817646198E+02 -0.13450700903E+03  0.17077051361E+03  0.91411550932E+02 0.  0.
          5    1    3    3  502    0  0.15129770444E+02  0.52919681594E+02 -0.76786710503E+01  0.55730037169E+02  0.41800000000E+01 0.  1.
         -5    1    3    3    0  502 -0.63712250726E+02 -0.34102035396E+02 -0.68814458911E+02  0.99875431744E+02  0.41800000000E+01 0.  1.
        -11    1    4    4    0    0  0.33171086454E+02  0.16896504223E+02 -0.12541677855E+03  0.13082500210E+03  0.00000000000E+00 0. -1.
         11    1    4    4    0    0  0.15411393828E+02 -0.35714150422E+02 -0.90902304724E+01  0.39945511514E+02  0.00000000000E+00 0.  1.
</event>
<event>
 8    1  0.3710605E-009  0.2422690E+03  0.7561462E-02  0.1118290E+00
         -2   -1    0    0    0  501 -0.00000000000E+00  0.00000000000E+00  0.81716145571E+02  0.81716145571E+02  0.00000000000E+00 0.  1.
          2   -1    0    0  501    0  0.00000000000E+00 -0.00000000000E+00 -0.10966985643E+04  0.10966985643E+04  0.00000000000E+00 0. -1.
         25    2    1    2    0    0 -0.59670238226E+02 -0.21433255607E+03 -0.84811949855E+03  0.88569403140E+03  0.12509297141E+03 0.  0.
         23    2    1    2    0    0  0.59670238226E+02  0.21433255607E+03 -0.16686292021E+03  0.29272067851E+03  0.91341007027E+02 0.  0.
          5    1    3    3  502    0  0.24158260135E+02 -0.96744152245E+02 -0.47946926750E+03  0.48974616221E+03  0.41800000000E+01 0.  1.
         -5    1    3    3    0  502 -0.83828498360E+02 -0.11758840383E+03 -0.36865023105E+03  0.39594786918E+03  0.41800000000E+01 0.  1.
        -11    1    4    4    0    0 -0.24406686366E+02  0.52468329743E+02 -0.45854935191E+02  0.73832831767E+02  0.00000000000E+00 0. -1.
         11    1    4    4    0    0  0.84076924591E+02  0.16186422633E+03 -0.12100798502E+03  0.21888784675E+03  0.00000000000E+00 0.  1.
</event>
<event>
 8    1  0.3710605E-009  0.9519069E+02  0.7561462E-02  0.1290747E+00
          1   -1    0    0  501    0  0.00000000000E+00  0.00000000000E+00  0.24895908931E+03  0.24895908931E+03  0.00000000000E+00 0. -1.
         -1   -1    0    0    0  501 -0.00000000000E+00 -0.00000000000E+00 -0.66769085873E+02  0.66769085873E+02  0.00000000000E+00 0.  1.
         25    2    1    2    0    0  0.58196970732E+02 -0.34360797644E+02  0.10667810185E+03  0.17775087616E+03  0.12509038629E+03 0.  0.
         23    2    1    2    0    0 -0.58196970732E+02  0.34360797644E+02  0.75511901583E+02  0.13797729902E+03  0.93638325210E+02 0.  0.
          5    1    3    3  502    0  0.68889414041E+02 -0.46948936089E+02  0.12653505849E+03  0.15158676524E+03  0.41800000000E+01 0.  1.
         -5    1    3    3    0  502 -0.10692443309E+02  0.12588138445E+02 -0.19856956639E+02  0.26164110923E+02  0.41800000000E+01 0.  1.
        -11    1    4    4    0    0 -0.48521754188E+02 -0.55207585725E+01  0.82962128360E+02  0.96268136715E+02  0.00000000000E+00 0. -1.
         11    1    4    4    0    0 -0.96752165443E+01  0.39881556217E+02 -0.74502267769E+01  0.41709162309E+02  0.00000000000E+00 0.  1.
</event>
<event>
 8    1  0.3710605E-009  0.9749969E+02  0.7561462E-02  0.1285643E+00
         -2   -1    0    0    0  501 -0.00000000000E+00  0.00000000000E+00  0.16166451919E+02  0.16166451919E+02  0.00000000000E+00 0.  1.
          2   -1    0    0  501    0  0.00000000000E+00 -0.00000000000E+00 -0.17016251047E+04  0.17016251047E+04  0.00000000000E+00 0. -1.
         25    2    1    2    0    0 -0.34389824168E+02 -0.59758198572E+02 -0.14437201300E+04  0.14507682270E+04  0.12508769867E+03 0.  0.
         23    2    1    2    0    0  0.34389824168E+02  0.59758198572E+02 -0.24173852281E+03  0.26702332966E+03  0.90056886863E+02 0.  0.
          5    1    3    3  502    0  0.42091163701E+01 -0.75516389613E+02 -0.12623632857E+04  0.12646339309E+04  0.41800000000E+01 0.  1.
         -5    1    3    3    0  502 -0.38598940538E+02  0.15758191042E+02 -0.18135684430E+03  0.18613429606E+03  0.41800000000E+01 0.  1.
        -11    1    4    4    0    0  0.28898871360E+02  0.15579242274E+02 -0.15247853151E+02  0.36198820167E+02  0.00000000000E+00 0.  1.
         11    1    4    4    0    0  0.54909528077E+01  0.44178956297E+02 -0.22649066966E+03  0.23082450949E+03  0.00000000000E+00 0. -1.
</event>
<event>
 8    1  0.3710605E-009  0.1536080E+03  0.7561462E-02  0.1196108E+00
          2   -1    0    0  501    0  0.00000000000E+00  0.00000000000E+00  0.58440242138E+03  0.58440242138E+03  0.00000000000E+00 0. -1.
         -2   -1    0    0    0  501 -0.00000000000E+00 -0.00000000000E+00 -0.54826600656E+02  0.54826600656E+02  0.00000000000E+00 0.  1.
         25    2    1    2    0    0 -0.77067401742E+02  0.11866862122E+03  0.28694977121E+03  0.34352634076E+03  0.12509416265E+03 0.  0.
         23    2    1    2    0    0  0.77067401742E+02 -0.11866862122E+03  0.24262604951E+03  0.29570268127E+03  0.92471886177E+02 0.  0.
          5    1    3    3  502    0 -0.57710919883E+02  0.11582520523E+03  0.12374058596E+03  0.17909559864E+03  0.41800000000E+01 0.  1.
         -5    1    3    3    0  502 -0.19356481859E+02  0.28434159911E+01  0.16320918525E+03  0.16443074212E+03  0.41800000000E+01 0.  1.
        -11    1    4    4    0    0  0.57321439853E+02 -0.25920842036E+02  0.47747043415E+02  0.78977323793E+02  0.00000000000E+00 0.  1.
         11    1    4    4    0    0  0.19745961888E+02 -0.92747779186E+02  0.19487900610E+03  0.21672535748E+03  0.00000000000E+00 0. -1.
</event>
<event>
 8    1  0.3710605E-009  0.1356952E+03  0.7561462E-02  0.1219242E+00
         -1   -1    0    0    0  501 -0.00000000000E+00  0.00000000000E+00  0.25369085629E+02  0.25369085629E+02  0.00000000000E+00 0.  1.
          1   -1    0    0  501    0  0.00000000000E+00 -0.00000000000E+00 -0.86931862632E+03  0.86931862632E+03  0.00000000000E+00 0. -1.
         25    2    1    2    0    0  0.96640339805E+02  0.27118611095E+02 -0.43468345597E+03  0.46333221906E+03  0.12510900840E+03 0.  0.
         23    2    1    2    0    0 -0.96640339805E+02 -0.27118611095E+02 -0.40926608473E+03  0.43135549289E+03  0.92163218230E+02 0.  0.
          5    1    3    3  502    0 -0.28776571690E+02  0.17667487523E+02 -0.77915906215E+02  0.85021126992E+02  0.41800000000E+01 0. -1.
         -5    1    3    3    0  502  0.12541691150E+03  0.94511235718E+01 -0.35676754975E+03  0.37831109207E+03  0.41800000000E+01 0. -1.
        -11    1    4    4    0    0 -0.79752236666E+02 -0.40989397120E+02 -0.39547582719E+03  0.40551409325E+03  0.00000000000E+00 0.  1.
         11    1    4    4    0    0 -0.16888103139E+02  0.13870786024E+02 -0.13790257531E+02  0.25841399640E+02  0.00000000000E+00 0. -1.
</event>
<event>
 8    1  0.3710605E-009  0.1489736E+03  0.7561462E-02  0.1201740E+00
         -2   -1    0    0    0  501 -0.00000000000E+00  0.00000000000E+00  0.29021947982E+02  0.29021947982E+02  0.00000000000E+00 0.  1.
          2   -1    0    0  501    0  0.00000000000E+00 -0.00000000000E+00 -0.10436391426E+04  0.10436391426E+04  0.00000000000E+00 0. -1.
         25    2    1    2    0    0 -0.76927883777E+02 -0.11146754067E+03 -0.52044218048E+03  0.55213318216E+03  0.12509226873E+03 0.  0.
         23    2    1    2    0    0  0.76927883777E+02  0.11146754067E+03 -0.49417501417E+03  0.52052790845E+03  0.91637584647E+02 0.  0.
          5    1    3    3  502    0 -0.55377748310E+02 -0.10492753314E+03 -0.51511253985E+03  0.52861600745E+03  0.41800000000E+01 0. -1.
         -5    1    3    3    0  502 -0.21550135467E+02 -0.65400075331E+01 -0.53296406251E+01  0.23517174710E+02  0.41800000000E+01 0. -1.
        -11    1    4    4    0    0 -0.50348964641E+01  0.58543033678E+02 -0.26523419497E+03  0.27166489496E+03  0.00000000000E+00 0. -1.
         11    1    4    4    0    0  0.81962780241E+02  0.52924506996E+02 -0.22894081920E+03  0.24886301349E+03  0.00000000000E+00 0.  1.
</event>
<event>
 8    1  0.3710605E-009  0.9849576E+02  0.7561462E-02  0.1283491E+00
          2   -1    0    0  501    0  0.00000000000E+00  0.00000000000E+00  0.32923988372E+03  0.32923988372E+03  0.00000000000E+00 0. -1.
         -2   -1    0    0    0  501 -0.00000000000E+00 -0.00000000000E+00 -0.50681693167E+02  0.50681693167E+02  0.00000000000E+00 0.  1.
         25    2    1    2    0    0  0.40961532285E+02 -0.49994616961E+02  0.14757667427E+03  0.20396900913E+03  0.12508866073E+03 0.  0.
         23    2    1    2    0    0 -0.40961532285E+02  0.49994616961E+02  0.13098151628E+03  0.17595256775E+03  0.98111363462E+02 0.  0.
          5    1    3    3  502    0 -0.28517070868E+02 -0.29854831960E+02  0.22239133596E+01  0.41556618160E+02  0.41800000000E+01 0.  1.
         -5    1    3    3    0  502  0.69478603153E+02 -0.20139785001E+02  0.14535276091E+03  0.16241239097E+03  0.41800000000E+01 0.  1.
        -11    1    4    4    0    0 -0.25806807003E+02  0.59699932306E+02  0.14105613897E+03  0.15532838615E+03  0.00000000000E+00 0. -1.
         11    1    4    4    0    0 -0.15154725282E+02 -0.97053153449E+01 -0.10074622689E+02  0.20624181599E+02  0.00000000000E+00 0.  1.
</event>
<event>
 8    1  0.3710605E-009  0.8651656E+02  0.7561462E-02  0.1311514E+00
         -1   -1    0    0    0  501 -0.00000000000E+00  0.00000000000E+00  0.13630688795E+03  0.13630688795E+03  0.00000000000E+00 0.  1.
          1   -1    0    0  501    0  0.00000000000E+00 -0.00000000000E+00 -0.94881489590E+02  0.94881489590E+02  0.00000000000E+00 0. -1.
         25    2    1    2    0    0  0.79491306374E+01 -0.29012690180E+02  0.51128832241E+02  0.13844390843E+03  0.12509050094E+03 0.  0.
         23    2    1    2    0    0 -0.79491306374E+01  0.29012690180E+02 -0.97034338782E+01  0.92744469115E+02  0.87192058428E+02 0.  0.
          5    1    3    3  502    0 -0.80084222396E+01  0.47739375490E+02  0.92215757928E+01  0.49453944828E+02  0.41800000000E+01 0. -1.
         -5    1    3    3    0  502  0.15957552877E+02 -0.76752065670E+02  0.41907256448E+02  0.88989963599E+02  0.41800000000E+01 0. -1.
        -11    1    4    4    0    0 -0.20874083999E+02  0.10506876255E+02  0.35336382011E+02  0.42364864276E+02  0.00000000000E+00 0.  1.
         11    1    4    4    0    0  0.12924953362E+02  0.18505813924E+02 -0.45039815889E+02  0.50379604839E+02  0.00000000000E+00 0. -1.
</event>
<event>
 8    1  0.3710605E-009  0.2406217E+03  0.7561462E-02  0.1119379E+00
          4   -1    0    0  501    0  0.00000000000E+00  0.00000000000E+00  0.53072845386E+03  0.53072845386E+03  0.00000000000E+00 0. -1.
         -4   -1    0    0    0  501 -0.00000000000E+00 -0.00000000000E+00 -0.11259141518E+03  0.11259141518E+03  0.00000000000E+00 0.  1.
         25    2    1    2    0    0 -0.16591976437E+03 -0.13858925555E+03  0.26552478544E+03  0.36453690449E+03  0.12508954030E+03 0.  0.
         23    2    1    2    0    0  0.16591976437E+03  0.13858925555E+03  0.15261225324E+03  0.27878296455E+03  0.87710270316E+02 0.  0.
          5    1    3    3  502    0 -0.24912679189E+02  0.23688240517E+02  0.40749561667E+02  0.53476850124E+02  0.41800000000E+01 0.  1.
         -5    1    3    3    0  502 -0.14100708518E+03 -0.16227749607E+03  0.22477522377E+03  0.31106005437E+03  0.41800000000E+01 0.  1.
        -11    1    4    4    0    0  0.90067063418E+02  0.22360949649E+02  0.77889632729E+02  0.12115643965E+03  0.00000000000E+00 0.  1.
         11    1    4    4    0    0  0.75852700950E+02  0.11622830590E+03  0.74722620513E+02  0.15762652490E+03  0.00000000000E+00 0. -1.
</event>
<event>
 8    1  0.3710605E-009  0.2004065E+03  0.7561462E-02  0.1149396E+00
          1   -1    0    0  501    0  0.00000000000E+00  0.00000000000E+00  0.70066968435E+03  0.70066968435E+03  0.00000000000E+00 0. -1.
         -1   -1    0    0    0  501 -0.00000000000E+00 -0.00000000000E+00 -0.63595317205E+02  0.63595317205E+02  0.00000000000E+00 0.  1.
         25    2    1    2    0    0 -0.16986259689E+03  0.15574701876E+02  0.23231106748E+03  0.31418413168E+03  0.12508942148E+03 0.  0.
         23    2    1    2    0    0  0.16986259689E+03 -0.15574701876E+02  0.40476329966E+03  0.45008086987E+03  0.98201769361E+02 0.  0.
          5    1    3    3  502    0 -0.42870002403E+02 -0.46131894488E+02  0.11235626629E+03  0.12886966970E+03  0.41800000000E+01 0.  1.
         -5    1    3    3    0  502 -0.12699259449E+03  0.61706596364E+02  0.11995480119E+03  0.18531446198E+03  0.41800000000E+01 0.  1.
        -11    1    4    4    0    0  0.10013155024E+03  0.39446687295E+02  0.23554215426E+03  0.25896423483E+03  0.00000000000E+00 0.  1.
         11    1    4    4    0    0  0.69731046658E+02 -0.55021389172E+02  0.16922114541E+03  0.19111663504E+03  0.00000000000E+00 0. -1.
</event>
<event>
 8    1  0.3710605E-009  0.1228953E+03  0.7561462E-02  0.1238396E+00
          2   -1    0    0  501    0  0.00000000000E+00  0.00000000000E+00  0.97473095972E+03  0.97473095972E+03  0.00000000000E+00 0. -1.
         -2   -1    0    0    0  501 -0.00000000000E+00 -0.00000000000E+00 -0.20083339204E+02  0.20083339204E+02  0.00000000000E+00 0.  1.
         25    2    1    2    0    0  0.81648916683E+02 -0.22506959482E+02  0.61063284407E+03  0.62904230469E+03  0.12509453233E+03 0.  0.
         23    2    1    2    0    0 -0.81648916683E+02  0.22506959482E+02  0.34401477645E+03  0.36577199423E+03  0.90938861487E+02 0.  0.
          5    1    3    3  502    0  0.41792155138E+02 -0.59653067244E+02  0.16944544356E+03  0.18448388387E+03  0.41800000000E+01 0.  1.
         -5    1    3    3    0  502  0.39856761545E+02  0.37146107761E+02  0.44118740051E+03  0.44455842083E+03  0.41800000000E+01 0.  1.
        -11    1    4    4    0    0 -0.95150667141E+02  0.39368492143E+01  0.22119093324E+03  0.24082063281E+03  0.00000000000E+00 0. -1.
         11    1    4    4    0    0  0.13501750458E+02  0.18570110268E+02  0.12282384321E+03  0.12495136142E+03  0.00000000000E+00 0.  1.
</event>
<event>
 8    1  0.3710605E-009  0.1818198E+03  0.7561462E-02  0.1166053E+00
         -2   -1    0    0    0  501 -0.00000000000E+00  0.00000000000E+00  0.21114864491E+03  0.21114864491E+03  0.00000000000E+00 0.  1.
          2   -1    0    0  501    0  0.00000000000E+00 -0.00000000000E+00 -0.18001191063E+03  0.18001191063E+03  0.00000000000E+00 0. -1.
         25    2    1    2    0    0 -0.23161538628E+02 -0.15108907008E+03  0.60047942065E+02  0.20644055161E+03  0.12509029552E+03 0.  0.
         23    2    1    2    0    0  0.23161538628E+02  0.15108907008E+03 -0.28911207778E+02  0.18472000393E+03  0.99605511639E+02 0.  0.
          5    1    3    3  502    0 -0.12763371920E+01  0.14008669470E+02  0.35028152409E+02  0.37977831931E+02  0.41800000000E+01 0.  1.
         -5    1    3    3    0  502 -0.21885201436E+02 -0.16509773955E+03  0.25019789655E+02  0.16846271968E+03  0.41800000000E+01 0.  1.
        -11    1    4    4    0    0 -0.38528846968E+02  0.41622638769E+02 -0.11413056680E+02  0.57854766178E+02  0.00000000000E+00 0. -1.
         11    1    4    4    0    0  0.61690385596E+02  0.10946643131E+03 -0.17498151098E+02  0.12686523775E+03  0.00000000000E+00 0.  1.
</event>
<event>
 8    1  0.3710605E-009  0.2272083E+03  0.7561462E-02  0.1128620E+00
          2   -1    0    0  501    0  0.00000000000E+00  0.00000000000E+00  0.82475817347E+03  0.82475817347E+03  0.00000000000E+00 0. -1.
         -2   -1    0    0    0  501 -0.00000000000E+00 -0.00000000000E+00 -0.80830740395E+02  0.80830740395E+02  0.00000000000E+00 0.  1.
         25    2    1    2    0    0  0.19636017741E+03  0.80005727551E+02  0.55514425761E+03  0.60728556811E+03  0.12510946715E+03 0.  0.
         23    2    1    2    0    0 -0.19636017741E+03 -0.80005727551E+02  0.18878317547E+03  0.29830334575E+03  0.91583639561E+02 0.  0.
          5    1    3    3  502    0  0.19271364544E+03  0.36337657027E+02  0.39243898617E+03  0.43873090241E+03  0.41800000000E+01 0. -1.
         -5    1    3    3    0  502  0.36465319663E+01  0.43668070524E+02  0.16270527144E+03  0.16855466571E+03  0.41800000000E+01 0. -1.
        -11    1    4    4    0    0 -0.16667558611E+03 -0.79230457622E+02  0.11175217027E+03  0.21574699066E+03  0.00000000000E+00 0.  1.
         11    1    4    4    0    0 -0.29684591300E+02 -0.77526992954E+00  0.77031005200E+02  0.82556355093E+02  0.00000000000E+00 0. -1.
</event>
<event>
 8    1  0.3710605E-009  0.9652747E+02  0.7561462E-02  0.1287772E+00
          2   -1    0    0  501    0  0.00000000000E+00  0.00000000000E+00  0.45522742404E+03  0.45522742404E+03  0.00000000000E+00 0. -1.
         -2   -1    0    0    0  501 -0.00000000000E+00 -0.00000000000E+00 -0.43553366679E+02  0.43553366679E+02  0.00000000000E+00 0.  1.
         25    2    1    2    0    0 -0.73011214284E+02 -0.29995460830E+02  0.29761862267E+03  0.33234581352E+03  0.12508609085E+03 0.  0.
         23    2    1    2    0    0  0.73011214284E+02  0.29995460830E+02  0.11405543469E+03  0.16643497720E+03  0.91986924997E+02 0.  0.
          5    1    3    3  502    0  0.17605043643E+02 -0.53833138005E+01 -0.13731555683E+01  0.18928169097E+02  0.41800000000E+01 0.  1.
         -5    1    3    3    0  502 -0.90616257928E+02 -0.24612147030E+02  0.29899177823E+03  0.31341764442E+03  0.41800000000E+01 0.  1.
        -11    1    4    4    0    0  0.23871466834E+02  0.28379326848E+01 -0.13142096881E+02  0.27397363033E+02  0.00000000000E+00 0.  1.
         11    1    4    4    0    0  0.49139747451E+02  0.27157528145E+02  0.12719753157E+03  0.13903761416E+03  0.00000000000E+00 0. -1.
</event>
<event>
 8    1  0.3710605E-009  0.1549035E+03  0.7561462E-02  0.1194574E+00
          2   -1    0    0  501    0  0.00000000000E+00  0.00000000000E+00  0.98273019794E+02  0.98273019794E+02  0.00000000000E+00 0.  1.
         -2   -1    0    0    0  501 -0.00000000000E+00 -0.00000000000E+00 -0.28363237059E+03  0.28363237059E+03  0.00000000000E+00 0. -1.
         25    2    1    2    0    0  0.12059640117E+03 -0.34106713995E+02 -0.86153584382E+02  0.19691662911E+03  0.12508780438E+03 0.  0.
         23    2    1    2    0    0 -0.12059640117E+03  0.34106713995E+02 -0.99205766416E+02  0.18498876128E+03  0.93125172722E+02 0.  0.
          5    1    3    3  502    0  0.11375807931E+03  0.25649482152E+02 -0.53818512533E+02  0.12850175576E+03  0.41800000000E+01 0.  1.
         -5    1    3    3    0  502  0.68383218570E+01 -0.59756196146E+02 -0.32335071850E+02  0.68414873348E+02  0.41800000000E+01 0.  1.
        -11    1    4    4    0    0 -0.41472159544E+00  0.10302188627E+02 -0.53087833186E+02  0.54079803226E+02  0.00000000000E+00 0. -1.
         11    1    4    4    0    0 -0.12018167957E+03  0.23804525368E+02 -0.46117933229E+02  0.13090895805E+03  0.00000000000E+00 0.  1.
</event>
<event>
 8    1  0.3710605E-009  0.9850676E+02  0.7561462E-02  0.1283468E+00
         -2   -1    0    0    0  501 -0.00000000000E+00  0.00000000000E+00  0.16601469227E+02  0.16601469227E+02  0.00000000000E+00 0.  1.
          2   -1    0    0  501    0  0.00000000000E+00 -0.00000000000E+00 -0.93761889804E+03  0.93761889804E+03  0.00000000000E+00 0. -1.
         25    2    1    2    0    0  0.49836273491E+01 -0.22314012576E+02 -0.72430529303E+03  0.73538320053E+03  0.12509013717E+03 0.  0.
         23    2    1    2    0    0 -0.49836273491E+01  0.22314012576E+02 -0.19671213578E+03  0.21883716673E+03  0.93119758810E+02 0.  0.
          5    1    3    3  502    0  0.13989511539E+02 -0.71225457198E+02 -0.52062382878E+03  0.52567615095E+03  0.41800000000E+01 0. -1.
         -5    1    3    3    0  502 -0.90058841898E+01  0.48911444622E+02 -0.20368146425E+03  0.20970704958E+03  0.41800000000E+01 0. -1.
        -11    1    4    4    0    0 -0.37944146227E+02  0.13565606549E+02 -0.34403524136E+02  0.52984775048E+02  0.00000000000E+00 0.  1.
         11    1    4    4    0    0  0.32960518878E+02  0.87484060272E+01 -0.16230861165E+03  0.16585239169E+03  0.00000000000E+00 0. -1.
</event>
<event>
 8    1  0.3710605E-009  0.9914701E+02  0.7561462E-02  0.1282100E+00
          3   -1    0    0  501    0  0.00000000000E+00  0.00000000000E+00  0.20610815577E+03  0.20610815577E+03  0.00000000000E+00 0. -1.
         -3   -1    0    0    0  501 -0.00000000000E+00 -0.00000000000E+00 -0.11241184203E+03  0.11241184203E+03  0.00000000000E+00 0.  1.
         25    2    1    2    0    0  0.45249399539E+02 -0.26380084210E+02 -0.46163909816E+02  0.14325355509E+03  0.12508819878E+03 0.  0.
         23    2    1    2    0    0 -0.45249399539E+02  0.26380084210E+02  0.13986022355E+03  0.17526644272E+03  0.91728004496E+02 0.  0.
          5    1    3    3  502    0 -0.14703606817E+02  0.37169556950E+02 -0.38161844573E+02  0.55421753838E+02  0.41800000000E+01 0.  1.
         -5    1    3    3    0  502  0.59953006356E+02 -0.63549641159E+02 -0.80020652437E+01  0.87831801250E+02  0.41800000000E+01 0.  1.
        -11    1    4    4    0    0 -0.21705486527E+02  0.38469900546E+02  0.14200210138E+03  0.14871334234E+03  0.00000000000E+00 0. -1.
         11    1    4    4    0    0 -0.23543913012E+02 -0.12089816336E+02 -0.21418778288E+01  0.26553100376E+02  0.00000000000E+00 0.  1.
</event>
<event>
 8    1  0.3710605E-009  0.1021467E+03  0.7561462E-02  0.1275845E+00
          1   -1    0    0  501    0  0.00000000000E+00  0.00000000000E+00  0.18878047557E+03  0.18878047557E+03  0.00000000000E+00 0. -1.
         -1   -1    0    0    0  501 -0.00000000000E+00 -0.00000000000E+00 -0.96382479640E+02  0.96382479640E+02  0.00000000000E+00 0.  1.
         25    2    1    2    0    0 -0.38904759975E+02  0.55473170000E+02  0.93541449915E+02  0.17026041413E+03  0.12509097821E+03 0.  0.
         23    2    1    2    0    0  0.38904759975E+02 -0.55473170000E+02 -0.11434539876E+01  0.11490254107E+03  0.92792421669E+02 0.  0.
          5    1    3    3  502    0 -0.54238915475E+02  0.47068684963E+02  0.11902403829E+03  0.13907377591E+03  0.41800000000E+01 0. -1.
         -5    1    3    3    0  502  0.15334155499E+02  0.84044850376E+01 -0.25482588371E+02  0.31186638224E+02  0.41800000000E+01 0. -1.
        -11    1    4    4    0    0  0.68144012672E+02 -0.50269635020E+02  0.39432384974E+01  0.84771409083E+02  0.00000000000E+00 0. -1.
         11    1    4    4    0    0 -0.29239252696E+02 -0.52035349803E+01 -0.50866924850E+01  0.30131131990E+02  0.00000000000E+00 0.  1.
</event>
<event>
 8    1  0.3710605E-009  0.1044700E+03  0.7561462E-02  0.1271167E+00
         -2   -1    0    0    0  501 -0.00000000000E+00  0.00000000000E+00  0.39191144334E+02  0.39191144334E+02  0.00000000000E+00 0.  1.
          2   -1    0    0  501    0  0.00000000000E+00 -0.00000000000E+00 -0.48803669326E+03  0.48803669326E+03  0.00000000000E+00 0. -1.
         25    2    1    2    0    0  0.84886028594E+02 -0.37789499486E+01 -0.22833384154E+03  0.27386756882E+03  0.12508870350E+03 0.  0.
         23    2    1    2    0    0 -0.84886028594E+02  0.37789499486E+01 -0.22051170738E+03  0.25336026878E+03  0.91356961352E+02 0.  0.
          5    1    3    3  502    0  0.70145989030E+02  0.11661439018E+02 -0.35093835290E+02  0.79407169779E+02  0.41800000000E+01 0.  1.
         -5    1    3    3    0  502  0.14740039564E+02 -0.15440388967E+02 -0.19324000625E+03  0.19446039904E+03  0.41800000000E+01 0.  1.
        -11    1    4    4    0    0 -0.95942509157E+02  0.18333789483E+02 -0.13940815315E+03  0.17022257801E+03  0.00000000000E+00 0.  1.
         11    1    4    4    0    0  0.11056480563E+02 -0.14554839534E+02 -0.81103554232E+02  0.83137690762E+02  0.00000000000E+00 0. -1.
</event>
<event>
 8    1  0.3710605E-009  0.1085155E+03  0.7561462E-02  0.1263344E+00
         -1   -1    0    0    0  501 -0.00000000000E+00  0.00000000000E+00  0.36496977639E+02  0.36496977639E+02  0.00000000000E+00 0.  1.
          1   -1    0    0  501    0  0.00000000000E+00 -0.00000000000E+00 -0.56666581069E+03  0.56666581069E+03  0.00000000000E+00 0. -1.
         25    2    1    2    0    0  0.91336061037E+02  0.12925531361E+02 -0.26215772436E+03  0.30476457919E+03  0.12508169683E+03 0.  0.
         23    2    1    2    0    0 -0.91336061037E+02 -0.12925531361E+02 -0.26801110869E+03  0.29839820914E+03  0.93285537081E+02 0.  0.
          5    1    3    3  502    0  0.10384801994E+03 -0.14271769756E+01 -0.26537664354E+03  0.28500646206E+03  0.41800000000E+01 0. -1.
         -5    1    3    3    0  502 -0.12511958902E+02  0.14352708337E+02  0.32189191739E+01  0.19758117137E+02  0.41800000000E+01 0. -1.
        -11    1    4    4    0    0 -0.14999411043E+02 -0.82422547504E+01  0.24883026786E+01  0.17294760630E+02  0.00000000000E+00 0.  1.
         11    1    4    4    0    0 -0.76336649993E+02 -0.46832766105E+01 -0.27049941137E+03  0.28110344851E+03  0.00000000000E+00 0. -1.
</event>
<event>
 8    1  0.3710605E-009  0.1169409E+03  0.7561462E-02  0.1248231E+00
          2   -1    0    0  501    0  0.00000000000E+00  0.00000000000E+00  0.62162431957E+03  0.62162431957E+03  0.00000000000E+00 0. -1.
         -2   -1    0    0    0  501 -0.00000000000E+00 -0.00000000000E+00 -0.36088879289E+02  0.36088879289E+02  0.00000000000E+00 0.  1.
         25    2    1    2    0    0  0.16520338828E+02  0.85552571732E+02  0.43614106590E+03  0.46201493678E+03  0.12508640340E+03 0.  0.
         23    2    1    2    0    0 -0.16520338828E+02 -0.85552571732E+02  0.14939437438E+03  0.19569826208E+03  0.91580383055E+02 0.  0.
          5    1    3    3  502    0  0.16986516875E+02  0.11439876481E+03  0.39492073447E+03  0.41152822267E+03  0.41800000000E+01 0. -1.
         -5    1    3    3    0  502 -0.46617804717E+00 -0.28846193082E+02  0.41220331432E+02  0.50486714101E+02  0.41800000000E+01 0. -1.
        -11    1    4    4    0    0 -0.15084097678E+02 -0.31448283877E+02 -0.19841467667E+01  0.34935102690E+02  0.00000000000E+00 0.  1.
         11    1    4    4    0    0 -0.14362411501E+01 -0.54104287855E+02  0.15137852115E+03  0.16076315939E+03  0.00000000000E+00 0. -1.
</event>
<event>
 8    1  0.3710605E-009  0.2486742E+03  0.7561462E-02  0.1114146E+00
         -1   -1    0    0    0  501 -0.00000000000E+00  0.00000000000E+00  0.98310551091E+03  0.98310551091E+03  0.00000000000E+00 0.  1.
          1   -1    0    0  501    0  0.00000000000E+00 -0.00000000000E+00 -0.74069013474E+02  0.74069013474E+02  0.00000000000E+00 0. -1.
         25    2    1    2    0    0 -0.20075796737E+03  0.10971174242E+03  0.64991113197E+03  0.70026614004E+03  0.12509100505E+03 0.  0.
         23    2    1    2    0    0  0.20075796737E+03 -0.10971174242E+03  0.25912536547E+03  0.35690838435E+03  0.88866258521E+02 0.  0.
          5    1    3    3  502    0 -0.54299940541E+02 -0.20319669839E+02  0.22474295575E+03  0.23213840933E+03  0.41800000000E+01 0. -1.
         -5    1    3    3    0  502 -0.14645802683E+03  0.13003141225E+03  0.42516817621E+03  0.46812773071E+03  0.41800000000E+01 0. -1.
        -11    1    4    4    0    0  0.15701404459E+03 -0.12090529870E+03  0.19138955278E+03  0.27550220029E+03  0.00000000000E+00 0. -1.
         11    1    4    4    0    0  0.43743922774E+02  0.11193556282E+02  0.67735812692E+02  0.81406184058E+02  0.00000000000E+00 0.  1.
</event>
<event>
 8    1  0.3710605E-009  0.1377231E+03  0.7561462E-02  0.1216426E+00
          1   -1    0    0  501    0  0.00000000000E+00  0.00000000000E+00  0.12564932684E+04  0.12564932684E+04  0.00000000000E+00 0. -1.
         -1   -1    0    0    0  501 -0.00000000000E+00 -0.00000000000E+00 -0.24594510740E+02  0.24594510740E+02  0.00000000000E+00 0.  1.
         25    2    1    2    0    0  0.13549966101E+03 -0.13891104536E+02  0.57331696022E+03  0.60240603765E+03  0.12509027301E+03 0.  0.
         23    2    1    2    0    0 -0.13549966101E+03  0.13891104536E+02  0.65858179745E+03  0.67868174150E+03  0.91245829475E+02 0.  0.
          5    1    3    3  502    0  0.70255020860E+02  0.66443586782E+01  0.48743490214E+03  0.49253443706E+03  0.41800000000E+01 0.  1.
         -5    1    3    3    0  502  0.65244640147E+02 -0.20535463214E+02  0.85882058075E+02  0.10987160059E+03  0.41800000000E+01 0.  1.
        -11    1    4    4    0    0 -0.13077509555E+02  0.19699525472E+01  0.58488079095E+01  0.14460654313E+02  0.00000000000E+00 0. -1.
         11    1    4    4    0    0 -0.12242215145E+03  0.11921151989E+02  0.65273298954E+03  0.66422108719E+03  0.00000000000E+00 0.  1.
</event>
<event>
 8    1  0.3710605E-009  0.5572526E+02  0.7561462E-02  0.1416700E+00
          1   -1    0    0  501    0  0.00000000000E+00  0.00000000000E+00  0.15884184751E+03  0.15884184751E+03  0.00000000000E+00 0. -1.
         -1   -1    0    0    0  501 -0.00000000000E+00 -0.00000000000E+00 -0.89891292867E+02  0.89891292867E+02  0.00000000000E+00 0.  1.
         25    2    1    2    0    0  0.20507853526E+02  0.36633972965E+02  0.18323849517E+02  0.13321818838E+03  0.12509477296E+03 0.  0.
         23    2    1    2    0    0 -0.20507853526E+02 -0.36633972965E+02  0.50626705126E+02  0.11551495200E+03  0.94963260437E+02 0.  0.
          5    1    3    3  502    0  0.15586864619E+02  0.54300584098E+01 -0.52695405340E+02  0.55377920031E+02  0.41800000000E+01 0.  1.
         -5    1    3    3    0  502  0.49209889061E+01  0.31203914555E+02  0.71019254858E+02  0.77840268344E+02  0.41800000000E+01 0.  1.
        -11    1    4    4    0    0 -0.40117217752E+01  0.11233695715E+02 -0.23146345889E+02  0.26039261876E+02  0.00000000000E+00 0.  1.
         11    1    4    4    0    0 -0.16496131750E+02 -0.47867668680E+02  0.73773051015E+02  0.89475690127E+02  0.00000000000E+00 0. -1.
</event>
<event>
 8    1  0.3710605E-009  0.1867586E+03  0.7561462E-02  0.1161418E+00
         -1   -1    0    0    0  501 -0.00000000000E+00  0.00000000000E+00  0.86419626361E+02  0.86419626361E+02  0.00000000000E+00 0.  1.
          1   -1    0    0  501    0  0.00000000000E+00 -0.00000000000E+00 -0.48531439405E+03  0.48531439405E+03  0.00000000000E+00 0. -1.
         25    2    1    2    0    0 -0.14078742683E+03 -0.65322548270E+02 -0.10094600502E+03  0.22343918451E+03  0.12508732301E+03 0.  0.
         23    2    1    2    0    0  0.14078742683E+03  0.65322548270E+02 -0.29794876266E+03  0.34829483590E+03  0.91911330509E+02 0.  0.
          5    1    3    3  502    0 -0.16277966873E+03 -0.48901034606E+02 -0.95969137330E+02  0.19523339739E+03  0.41800000000E+01 0.  1.
         -5    1    3    3    0  502  0.21992241902E+02 -0.16421513663E+02 -0.49768676908E+01  0.28205787117E+02  0.41800000000E+01 0.  1.
        -11    1    4    4    0    0  0.13228510522E+03  0.25125637034E+02 -0.19070644921E+03  0.23345148633E+03  0.00000000000E+00 0. -1.
         11    1    4    4    0    0  0.85023216098E+01  0.40196911235E+02 -0.10724231345E+03  0.11484334957E+03  0.00000000000E+00 0.  1.
</event>
<event>
 8    1  0.3710605E-009  0.1676899E+03  0.7561462E-02  0.1180279E+00
          2   -1    0    0  501    0  0.00000000000E+00  0.00000000000E+00  0.83882386473E+03  0.83882386473E+03  0.00000000000E+00 0.  1.
         -2   -1    0    0    0  501 -0.00000000000E+00 -0.00000000000E+00 -0.41306397827E+02  0.41306397827E+02  0.00000000000E+00 0. -1.
         25    2    1    2    0    0  0.13008379374E+01 -0.13543561264E+03  0.26199505945E+03  0.32036469794E+03  0.12509049189E+03 0.  0.
         23    2    1    2    0    0 -0.13008379374E+01  0.13543561264E+03  0.53552240745E+03  0.55976556461E+03  0.90602103132E+02 0.  0.
          5    1    3    3  502    0 -0.48763202364E+02 -0.32569000380E+02  0.41622253147E+02  0.72031063074E+02  0.41800000000E+01 0.  1.
         -5    1    3    3    0  502  0.50064040302E+02 -0.10286661226E+03  0.22037280630E+03  0.24833363487E+03  0.41800000000E+01 0.  1.
        -11    1    4    4    0    0 -0.45192209232E+02  0.69937772036E+02  0.30334741238E+03  0.31456840326E+03  0.00000000000E+00 0. -1.
         11    1    4    4    0    0  0.43891371295E+02  0.65497840604E+02  0.23217499507E+03  0.24519716135E+03  0.00000000000E+00 0.  1.
</event>
<event>
 8    1  0.3710605E-009  0.1007283E+03  0.7561462E-02  0.1278772E+00
         -1   -1    0    0    0  501 -0.00000000000E+00  0.00000000000E+00  0.27114957435E+02  0.27114957435E+02  0.00000000000E+00 0.  1.
          1   -1    0    0  501    0  0.00000000000E+00 -0.00000000000E+00 -0.52644794618E+03  0.52644794618E+03  0.00000000000E+00 0. -1.
         25    2    1    2    0    0  0.94050638811E+01 -0.63487359865E+01 -0.39634682576E+03  0.41577271513E+03  0.12508949868E+03 0.  0.
         23    2    1    2    0    0 -0.94050638811E+01  0.63487359865E+01 -0.10298616298E+03  0.13779018848E+03  0.90836251579E+02 0.  0.
          5    1    3    3  502    0 -0.30583498649E+02  0.42996352745E+02 -0.10538607134E+03  0.11793105261E+03  0.41800000000E+01 0.  1.
         -5    1    3    3    0  502  0.39988562530E+02 -0.49345088731E+02 -0.29096075442E+03  0.29784166251E+03  0.41800000000E+01 0.  1.
        -11    1    4    4    0    0  0.16408936641E+02  0.39550828175E+02 -0.26082611610E+02  0.50138047822E+02  0.00000000000E+00 0. -1.
         11    1    4    4    0    0 -0.25814000522E+02 -0.33202092189E+02 -0.76903551370E+02  0.87652140658E+02  0.00000000000E+00 0.  1.
</event>
<event>
 8    1  0.3710605E-009  0.9643744E+02  0.7561462E-02  0.1287971E+00
         -1   -1    0    0    0  501 -0.00000000000E+00  0.00000000000E+00  0.57486762487E+02  0.57486762487E+02  0.00000000000E+00 0.  1.
          1   -1    0    0  501    0  0.00000000000E+00 -0.00000000000E+00 -0.28820205360E+03  0.28820205360E+03  0.00000000000E+00 0. -1.
         25    2    1    2    0    0  0.54024171339E+02  0.41897561516E+02 -0.11022921185E+03  0.18019607801E+03  0.12508449398E+03 0.  0.
         23    2    1    2    0    0 -0.54024171339E+02 -0.41897561516E+02 -0.12048607926E+03  0.16549273807E+03  0.90536922360E+02 0.  0.
          5    1    3    3  502    0  0.71454263556E+01  0.30482377743E+02 -0.12550184538E+03  0.12941567936E+03  0.41800000000E+01 0. -1.
         -5    1    3    3    0  502  0.46878744983E+02  0.11415183773E+02  0.15272633531E+02  0.50780398647E+02  0.41800000000E+01 0. -1.
        -11    1    4    4    0    0 -0.51854021260E+02 -0.68642143433E+02 -0.98708280918E+02  0.13093474748E+03  0.00000000000E+00 0. -1.
         11    1    4    4    0    0 -0.21701500786E+01  0.26744581918E+02 -0.21777798341E+02  0.34557990594E+02  0.00000000000E+00 0.  1.
</event>
<event>
 8    1  0.3710605E-009  0.1387160E+03  0.7561462E-02  0.1215067E+00
          2   -1    0    0  501    0  0.00000000000E+00  0.00000000000E+00  0.40738080294E+03  0.40738080294E+03  0.00000000000E+00 0. -1.
         -2   -1    0    0    0  501 -0.00000000000E+00 -0.00000000000E+00 -0.73980491295E+02  0.73980491295E+02  0.00000000000E+00 0.  1.
         25    2    1    2    0    0 -0.13229659408E+03  0.12142322547E+02  0.21312076382E+03  0.28056837563E+03  0.12509327973E+03 0.  0.
         23    2    1    2    0    0  0.13229659408E+03 -0.12142322547E+02  0.12027954782E+03  0.20079291860E+03  0.90558278109E+02 0.  0.
          5    1    3    3  502    0 -0.13666916803E+03  0.14211285870E+02  0.22694715965E+03  0.26533546278E+03  0.41800000000E+01 0. -1.
         -5    1    3    3    0  502  0.43725739510E+01 -0.20689633230E+01 -0.13826395834E+02  0.15232912851E+02  0.41800000000E+01 0. -1.
        -11    1    4    4    0    0  0.18611774029E+02 -0.66073084436E+01 -0.14412923623E+02  0.24449683530E+02  0.00000000000E+00 0.  1.
         11    1    4    4    0    0  0.11368482005E+03 -0.55350141035E+01  0.13469247145E+03  0.17634323507E+03  0.00000000000E+00 0. -1.
</event>
<event>
 8    1  0.3710605E-009  0.1060556E+03  0.7561462E-02  0.1268054E+00
          3   -1    0    0  501    0  0.00000000000E+00  0.00000000000E+00  0.35837635921E+02  0.35837635921E+02  0.00000000000E+00 0. -1.
         -3   -1    0    0    0  501 -0.00000000000E+00 -0.00000000000E+00 -0.49707096701E+03  0.49707096701E+03  0.00000000000E+00 0.  1.
         25    2    1    2    0    0 -0.74610305946E+02 -0.17644290111E+02 -0.26140641809E+03  0.29976510768E+03  0.12509110933E+03 0.  0.
         23    2    1    2    0    0  0.74610305946E+02  0.17644290111E+02 -0.19982691300E+03  0.23314349525E+03  0.92450394774E+02 0.  0.
          5    1    3    3  502    0 -0.84911655365E+02 -0.51665825732E+02 -0.13074170301E+03  0.16428698083E+03  0.41800000000E+01 0. -1.
         -5    1    3    3    0  502  0.10301349419E+02  0.34021535621E+02 -0.13066471508E+03  0.13547812684E+03  0.41800000000E+01 0. -1.
        -11    1    4    4    0    0  0.58879948557E+02  0.16034380089E+02 -0.20697986948E+03  0.21578835941E+03  0.00000000000E+00 0.  1.
         11    1    4    4    0    0  0.15730357388E+02  0.16099100219E+01  0.71529564792E+01  0.17355135846E+02  0.00000000000E+00 0. -1.
</event>
<event>
 8    1  0.3710605E-009  0.1115561E+03  0.7561462E-02  0.1257715E+00
         -1   -1    0    0    0  501 -0.00000000000E+00  0.00000000000E+00  0.78135133165E+02  0.78135133165E+02  0.00000000000E+00 0.  1.
          1   -1    0    0  501    0  0.00000000000E+00 -0.00000000000E+00 -0.33566943448E+03  0.33566943448E+03  0.00000000000E+00 0. -1.
         25    2    1    2    0    0 -0.51879762411E+02  0.58834304901E+02 -0.22068693506E+02  0.14928936691E+03  0.12508917882E+03 0.  0.
         23    2    1    2    0    0  0.51879762411E+02 -0.58834304901E+02 -0.23546560781E+03  0.26451520074E+03  0.91494556014E+02 0.  0.
          5    1    3    3  502    0  0.23587242139E+02  0.53327747531E+02 -0.40720365302E+02  0.71244839804E+02  0.41800000000E+01 0. -1.
         -5    1    3    3    0  502 -0.75467004549E+02  0.55065573696E+01  0.18651671796E+02  0.78044527101E+02  0.41800000000E+01 0. -1.
        -11    1    4    4    0    0  0.18613393863E+02 -0.51558561690E+02 -0.44690316313E+02  0.70724593225E+02  0.00000000000E+00 0.  1.
         11    1    4    4    0    0  0.33266368547E+02 -0.72757432113E+01 -0.19077529150E+03  0.19379060751E+03  0.00000000000E+00 0. -1.
</event>
<event>
 8    1  0.3710605E-009  0.1224571E+03  0.7561462E-02  0.1239098E+00
         -2   -1    0    0    0  501 -0.00000000000E+00  0.00000000000E+00  0.82342179186E+02  0.82342179186E+02  0.00000000000E+00 0.  1.
          2   -1    0    0  501    0  0.00000000000E+00 -0.00000000000E+00 -0.26717190071E+03  0.26717190071E+03  0.00000000000E+00 0. -1.
         25    2    1    2    0    0  0.39090432103E+02  0.49686713567E+02 -0.71584211418E+01  0.14033808180E+03  0.12508678117E+03 0.  0.
         23    2    1    2    0    0 -0.39090432103E+02 -0.49686713567E+02 -0.17767130039E+03  0.20917599810E+03  0.90502352527E+02 0.  0.
          5    1    3    3  502    0 -0.30611483038E+02 -0.23369483647E+02 -0.64770956789E+01  0.39276211988E+02  0.41800000000E+01 0.  1.
         -5    1    3    3    0  502  0.69701915141E+02  0.73056197214E+02 -0.68132546293E+00  0.10106186981E+03  0.41800000000E+01 0.  1.
        -11    1    4    4    0    0 -0.25321997214E+02  0.21125952957E+02 -0.88712259930E+02  0.94643407024E+02  0.00000000000E+00 0. -1.
         11    1    4    4    0    0 -0.13768434889E+02 -0.70812666524E+02 -0.88959040456E+02  0.11453259108E+03  0.00000000000E+00 0.  1.
</event>
<event>
 8    1  0.3710605E-009  0.8995339E+02  0.7561462E-02  0.1302965E+00
          1   -1    0    0  501    0  0.00000000000E+00  0.00000000000E+00  0.66295402031E+03  0.66295402031E+03  0.00000000000E+00 0. -1.
         -1   -1    0    0    0  501 -0.00000000000E+00 -0.00000000000E+00 -0.30630019166E+02  0.30630019166E+02  0.00000000000E+00 0.  1.
         25    2    1    2    0    0  0.32352670317E+02 -0.23239673412E+02  0.54215234672E+03  0.55782019729E+03  0.12508967887E+03 0.  0.
         23    2    1    2    0    0 -0.32352670317E+02  0.23239673412E+02  0.90171654425E+02  0.13576384218E+03  0.93349428949E+02 0.  0.
          5    1    3    3  502    0  0.79465538528E+02 -0.43283668231E+01  0.35715482585E+03  0.36593790266E+03  0.41800000000E+01 0.  1.
         -5    1    3    3    0  502 -0.47112868212E+02 -0.18911306589E+02  0.18499752087E+03  0.19188229464E+03  0.41800000000E+01 0.  1.
        -11    1    4    4    0    0 -0.15182530525E+02 -0.52050770615E+01 -0.17107266039E+02  0.23457634401E+02  0.00000000000E+00 0.  1.
         11    1    4    4    0    0 -0.17170139792E+02  0.28444750473E+02  0.10727892046E+03  0.11230620778E+03  0.00000000000E+00 0. -1.
</event>
<event>
 8    1  0.3710605E-009  0.1170092E+03  0.7561462E-02  0.1248114E+00
          2   -1    0    0  501    0  0.00000000000E+00  0.00000000000E+00  0.29536740201E+03  0.29536740201E+03  0.00000000000E+00 0. -1.
         -2   -1    0    0    0  501 -0.00000000000E+00 -0.00000000000E+00 -0.53726479470E+02  0.53726479470E+02  0.00000000000E+00 0.  1.
         25    2    1    2    0    0 -0.47769872089E+02 -0.27302229944E+02  0.10237722212E+03  0.17075193322E+03  0.12509098549E+03 0.  0.
         23    2    1    2    0    0  0.47769872089E+02  0.27302229944E+02  0.13926370043E+03  0.17834194826E+03  0.96871563494E+02 0.  0.
          5    1    3    3  502    0 -0.30022313641E+02  0.49000922257E+02  0.51230944279E+02  0.77100659855E+02  0.41800000000E+01 0. -1.
         -5    1    3    3    0  502 -0.17747558448E+02 -0.76303152201E+02  0.51146277836E+02  0.93651273366E+02  0.41800000000E+01 0. -1.
        -11    1    4    4    0    0 -0.12447256126E+02  0.35087601125E+02  0.15193098877E+02  0.40210747211E+02  0.00000000000E+00 0.  1.
         11    1    4    4    0    0  0.60217128215E+02 -0.77853711809E+01  0.12407060155E+03  0.13813120105E+03  0.00000000000E+00 0. -1.
</event>
<event>
 8    1  0.3710605E-009  0.1021007E+03  0.7561462E-02  0.1275939E+00
          2   -1    0    0  501    0  0.00000000000E+00  0.00000000000E+00  0.39182309642E+03  0.39182309642E+03  0.00000000000E+00 0. -1.
         -2   -1    0    0    0  501 -0.00000000000E+00 -0.00000000000E+00 -0.49022242000E+02  0.49022242000E+02  0.00000000000E+00 0.  1.
         25    2    1    2    0    0  0.52507633424E+02 -0.71869837071E+01  0.29495225240E+03  0.32473563150E+03  0.12509074653E+03 0.  0.
         23    2    1    2    0    0 -0.52507633424E+02  0.71869837071E+01  0.47848602018E+02  0.11610970692E+03  0.91560204363E+02 0.  0.
          5    1    3    3  502    0  0.78953144361E+02 -0.17817579811E+02  0.10514829319E+03  0.13275805481E+03  0.41800000000E+01 0.  1.
         -5    1    3    3    0  502 -0.26445510937E+02  0.10630596104E+02  0.18980395920E+03  0.19197757669E+03  0.41800000000E+01 0.  1.
        -11    1    4    4    0    0 -0.37430717265E+01 -0.31734833803E+02  0.42938099196E+02  0.53523738892E+02  0.00000000000E+00 0. -1.
         11    1    4    4    0    0 -0.48764561697E+02  0.38921817510E+02  0.49105028220E+01  0.62585968026E+02  0.00000000000E+00 0.  1.
</event>
<event>
 8    1  0.3710605E-009  0.1198063E+03  0.7561462E-02  0.1243417E+00
          1   -1    0    0  501    0  0.00000000000E+00  0.00000000000E+00  0.18937712418E+02  0.18937712418E+02  0.00000000000E+00 0. -1.
         -1   -1    0    0    0  501 -0.00000000000E+00 -0.00000000000E+00 -0.96142499170E+03  0.96142499170E+03  0.00000000000E+00 0.  1.
         25    2    1    2    0    0 -0.10485582868E+02  0.77223735113E+02 -0.59420202053E+03  0.61220661987E+03  0.12508977379E+03 0.  0.
         23    2    1    2    0    0  0.10485582868E+02 -0.77223735113E+02 -0.34828525876E+03  0.36815608425E+03  0.90348371244E+02 0.  0.
          5    1    3    3  502    0  0.41279105964E+02  0.84419343167E+02 -0.41268834740E+03  0.42327264803E+03  0.41800000000E+01 0.  1.
         -5    1    3    3    0  502 -0.51764688831E+02 -0.71956080547E+01 -0.18151367312E+03  0.18893397184E+03  0.41800000000E+01 0.  1.
        -11    1    4    4    0    0  0.26795405394E+02 -0.19511203210E+02 -0.31441647468E+02  0.45686518760E+02  0.00000000000E+00 0. -1.
         11    1    4    4    0    0 -0.16309822526E+02 -0.57712531903E+02 -0.31684361129E+03  0.32246956548E+03  0.00000000000E+00 0.  1.
</event>
<event>
 8    1  0.3710605E-009  0.1070409E+03  0.7561462E-02  0.1266150E+00
          4   -1    0    0  501    0  0.00000000000E+00  0.00000000000E+00  0.13093352420E+02  0.13093352420E+02  0.00000000000E+00 0. -1.
         -4   -1    0    0    0  501 -0.00000000000E+00 -0.00000000000E+00 -0.13807859819E+04  0.13807859819E+04  0.00000000000E+00 0.  1.
         25    2    1    2    0    0 -0.54618338629E+02  0.21142723103E+01 -0.10471934828E+04  0.10560539620E+04  0.12509255483E+03 0.  0.
         23    2    1    2    0    0  0.54618338629E+02 -0.21142723103E+01 -0.32049914670E+03  0.33782537229E+03  0.91753180150E+02 0.  0.
          5    1    3    3  502    0 -0.43467828403E+02 -0.44062575342E+02 -0.88024251553E+03  0.88242581626E+03  0.41800000000E+01 0.  1.
         -5    1    3    3    0  502 -0.11150510226E+02  0.46176847652E+02 -0.16695096724E+03  0.17362814576E+03  0.41800000000E+01 0.  1.
        -11    1    4    4    0    0  0.81210612068E+01 -0.42195807061E+02 -0.16861948255E+03  0.17400852756E+03  0.00000000000E+00 0. -1.
         11    1    4    4    0    0  0.46497277422E+02  0.40081534751E+02 -0.15187966415E+03  0.16381684474E+03  0.00000000000E+00 0.  1.
</event>
<event>
 8    1  0.3710605E-009  0.8747713E+02  0.7561462E-02  0.1309079E+00
          4   -1    0    0  501    0  0.00000000000E+00  0.00000000000E+00  0.13045160883E+03  0.13045160883E+03  0.00000000000E+00 0.  1.
         -4   -1    0    0    0  501 -0.00000000000E+00 -0.00000000000E+00 -0.11763772322E+03  0.11763772322E+03  0.00000000000E+00 0. -1.
         25    2    1    2    0    0 -0.16545287569E+02 -0.49228588744E+02 -0.23252285480E+02  0.13742694194E+03  0.12509314570E+03 0.  0.
         23    2    1    2    0    0  0.16545287569E+02  0.49228588744E+02  0.36066171086E+02  0.11066239010E+03  0.90819576061E+02 0.  0.
          5    1    3    3  502    0  0.34496292362E+01 -0.79574376046E+02  0.18541421327E+02  0.81885517461E+02  0.41800000000E+01 0.  1.
         -5    1    3    3    0  502 -0.19994916805E+02  0.30345787303E+02 -0.41793706807E+02  0.55541424484E+02  0.41800000000E+01 0.  1.
        -11    1    4    4    0    0  0.24177143783E+02  0.37940244058E+02  0.64785590947E+02  0.78874388714E+02  0.00000000000E+00 0.  1.
         11    1    4    4    0    0 -0.76318562146E+01  0.11288344686E+02 -0.28719419861E+02  0.31788001387E+02  0.00000000000E+00 0. -1.
</event>
<event>
 8    1  0.3710605E-009  0.1371170E+03  0.7561462E-02  0.1217262E+00
         -1   -1    0    0    0  501 -0.00000000000E+00  0.00000000000E+00  0.21601907053E+03  0.21601907053E+03  0.00000000000E+00 0.  1.
          1   -1    0    0  501    0  0.00000000000E+00 -0.00000000000E+00 -0.42322250254E+03  0.42322250254E+03  0.00000000000E+00 0. -1.
         25    2    1    2    0    0  0.36258512516E+01  0.86842144801E+02 -0.38945078737E+03  0.41818195912E+03  0.12509808248E+03 0.  0.
         23    2    1    2    0    0 -0.36258512516E+01 -0.86842144801E+02  0.18224735536E+03  0.22105961395E+03  0.89991941172E+02 0.  0.
          5    1    3    3  502    0  0.44345854115E+02 -0.11036325414E+02 -0.13089330876E+03  0.13870431116E+03  0.41800000000E+01 0. -1.
         -5    1    3    3    0  502 -0.40720002864E+02  0.97878470215E+02 -0.25855747861E+03  0.27947764796E+03  0.41800000000E+01 0. -1.
        -11    1    4    4    0    0  0.41183690235E+02 -0.43722999703E+02  0.11311478805E+03  0.12807323030E+03  0.00000000000E+00 0.  1.
         11    1    4    4    0    0 -0.44809541487E+02 -0.43119145098E+02  0.69132567306E+02  0.92986383651E+02  0.00000000000E+00 0. -1.
</event>
<event>
 8    1  0.3710605E-009  0.1419633E+03  0.7561462E-02  0.1210711E+00
          1   -1    0    0  501    0  0.00000000000E+00  0.00000000000E+00  0.56320707859E+02  0.56320707859E+02  0.00000000000E+00 0. -1.
         -1   -1    0    0    0  501 -0.00000000000E+00 -0.00000000000E+00 -0.40811042113E+03  0.40811042113E+03  0.00000000000E+00 0.  1.
         25    2    1    2    0    0  0.12908686674E+02  0.10203577777E+03 -0.16699305368E+03  0.23261847895E+03  0.12508694031E+03 0.  0.
         23    2    1    2    0    0 -0.12908686674E+02 -0.10203577777E+03 -0.18479665959E+03  0.23181265003E+03  0.94917675831E+02 0.  0.
          5    1    3    3  502    0  0.50411892704E+02  0.48238496068E+01 -0.88681906475E+02  0.10220851915E+03  0.41800000000E+01 0. -1.
         -5    1    3    3    0  502 -0.37503206030E+02  0.97211928159E+02 -0.78311147207E+02  0.13040995980E+03  0.41800000000E+01 0. -1.
        -11    1    4    4    0    0  0.30973777796E+02 -0.23539112240E+02 -0.10355042372E+03  0.11061715495E+03  0.00000000000E+00 0. -1.
         11    1    4    4    0    0 -0.43882464470E+02 -0.78496665525E+02 -0.81246235864E+02  0.12119549508E+03  0.00000000000E+00 0.  1.
</event>
<event>
 8    1  0.3710605E-009  0.8545931E+02  0.7561462E-02  0.1314236E+00
         -1   -1    0    0    0  501 -0.00000000000E+00  0.00000000000E+00  0.55566133599E+03  0.55566133599E+03  0.00000000000E+00 0.  1.
          1   -1    0    0  501    0  0.00000000000E+00 -0.00000000000E+00 -0.26862129147E+02  0.26862129147E+02  0.00000000000E+00 0. -1.
         25    2    1    2    0    0 -0.24143904039E+02  0.50925964411E+02  0.31261413510E+03  0.34139541195E+03  0.12508736100E+03 0.  0.
         23    2    1    2    0    0  0.24143904039E+02 -0.50925964411E+02  0.21618507174E+03  0.24112805318E+03  0.90721391281E+02 0.  0.
          5    1    3    3  502    0 -0.39629943634E+01  0.65341111348E+02  0.64445959217E+02  0.91956077645E+02  0.41800000000E+01 0.  1.
         -5    1    3    3    0  502 -0.20180909676E+02 -0.14415146936E+02  0.24816817588E+03  0.24943933430E+03  0.41800000000E+01 0.  1.
        -11    1    4    4    0    0 -0.14991960036E+02 -0.34713930348E+02  0.25056138515E+02  0.45361061531E+02  0.00000000000E+00 0. -1.
         11    1    4    4    0    0  0.39135864075E+02 -0.16212034063E+02  0.19112893322E+03  0.19576699165E+03  0.00000000000E+00 0.  1.
</event>
<event>
 8    1  0.3710605E-009  0.1158701E+03  0.7561462E-02  0.1250070E+00
          3   -1    0    0  501    0  0.00000000000E+00  0.00000000000E+00  0.12405284123E+03  0.12405284123E+03  0.00000000000E+00 0. -1.
         -3   -1    0    0    0  501 -0.00000000000E+00 -0.00000000000E+00 -0.14530301959E+03  0.14530301959E+03  0.00000000000E+00 0.  1.
         25    2    1    2    0    0 -0.55684849746E+02 -0.53199031464E+02 -0.56856873683E+01  0.14700694248E+03  0.12509106546E+03 0.  0.
         23    2    1    2    0    0  0.55684849746E+02  0.53199031464E+02 -0.15564490996E+02  0.12234891833E+03  0.93787339218E+02 0.  0.
          5    1    3    3  502    0  0.33351864114E+02 -0.18584173461E+02 -0.29542574250E+02  0.48455695604E+02  0.41800000000E+01 0.  1.
         -5    1    3    3    0  502 -0.89036713860E+02 -0.34614858003E+02  0.23856886882E+02  0.98551246878E+02  0.41800000000E+01 0.  1.
        -11    1    4    4    0    0  0.20310454234E+02 -0.11959743106E+02  0.27807494289E+02  0.36452801607E+02  0.00000000000E+00 0. -1.
         11    1    4    4    0    0  0.35374395512E+02  0.65158774570E+02 -0.43371985284E+02  0.85896116727E+02  0.00000000000E+00 0.  1.
</event>
<event>
 8    1  0.3710605E-009  0.9901755E+02  0.7561462E-02  0.1282376E+00
          1   -1    0    0  501    0  0.00000000000E+00  0.00000000000E+00  0.22231907828E+03  0.22231907828E+03  0.00000000000E+00 0. -1.
         -1   -1    0    0    0  501 -0.00000000000E+00 -0.00000000000E+00 -0.65399817292E+02  0.65399817292E+02  0.00000000000E+00 0.  1.
         25    2    1    2    0    0 -0.21512622116E+02 -0.26832230832E+02  0.13516078383E+03  0.18734555270E+03  0.12508859704E+03 0.  0.
         23    2    1    2    0    0  0.21512622116E+02  0.26832230832E+02  0.21758477157E+02  0.10037334287E+03  0.91753011448E+02 0.  0.
          5    1    3    3  502    0 -0.63739792064E+02 -0.39685582233E+02  0.11774412246E+03  0.13970990410E+03  0.41800000000E+01 0. -1.
         -5    1    3    3    0  502  0.42227169948E+02  0.12853351401E+02  0.17416661368E+02  0.47635648597E+02  0.41800000000E+01 0. -1.
        -11    1    4    4    0    0 -0.26077489612E+02  0.75483645296E+01  0.37834702074E+02  0.46566919080E+02  0.00000000000E+00 0. -1.
         11    1    4    4    0    0  0.47590111729E+02  0.19283866302E+02 -0.16076224917E+02  0.53806423794E+02  0.00000000000E+00 0.  1.
</event>
<event>
 8    1  0.3710605E-009  0.1136019E+03  0.7561462E-02  0.1254041E+00
          1   -1    0    0  501    0  0.00000000000E+00  0.00000000000E+00  0.17002040463E+04  0.17002040463E+04  0.00000000000E+00 0. -1.
         -1   -1    0    0    0  501 -0.00000000000E+00 -0.00000000000E+00 -0.14805610931E+02  0.14805610931E+02  0.00000000000E+00 0.  1.
         25    2    1    2    0    0  0.25402099163E+02  0.51469808459E+02  0.14443124917E+04  0.14508550299E+04  0.12508931371E+03 0.  0.
         23    2    1    2    0    0 -0.25402099163E+02 -0.51469808459E+02  0.24108594371E+03  0.26415462733E+03  0.91437558254E+02 0.  0.
          5    1    3    3  502    0 -0.19729918805E+02  0.75482965003E+02  0.10965731919E+04  0.10993530758E+04  0.41800000000E+01 0.  1.
         -5    1    3    3    0  502  0.45132017968E+02 -0.24013156544E+02  0.34773929978E+03  0.35150195411E+03  0.41800000000E+01 0.  1.
        -11    1    4    4    0    0 -0.25249169026E+02  0.16271628836E+02  0.29951760364E+02  0.42419269093E+02  0.00000000000E+00 0.  1.
         11    1    4    4    0    0 -0.15293013631E+00 -0.67741437295E+02  0.21113418335E+03  0.22173535824E+03  0.00000000000E+00 0. -1.
</event>
<event>
 8    1  0.3710605E-009  0.1010206E+03  0.7561462E-02  0.1278164E+00
          1   -1    0    0  501    0  0.00000000000E+00  0.00000000000E+00  0.12164730213E+04  0.12164730213E+04  0.00000000000E+00 0. -1.
         -1   -1    0    0    0  501 -0.00000000000E+00 -0.00000000000E+00 -0.17218228536E+02  0.17218228536E+02  0.00000000000E+00 0.  1.
         25    2    1    2    0    0 -0.73711799279E+02  0.24770645866E+02  0.87511509538E+03  0.88742366008E+03  0.12508920040E+03 0.  0.
         23    2    1    2    0    0  0.73711799279E+02 -0.24770645866E+02  0.32413969741E+03  0.34626758978E+03  0.93742658632E+02 0.  0.
          5    1    3    3  502    0 -0.43327696652E+02  0.14611657533E+01  0.77664054086E+02  0.89042697621E+02  0.41800000000E+01 0.  1.
         -5    1    3    3    0  502 -0.30384102627E+02  0.23309480113E+02  0.79745104129E+03  0.79838096246E+03  0.41800000000E+01 0.  1.
        -11    1    4    4    0    0  0.94331044624E+02 -0.29450518851E+02  0.24082990991E+03  0.26031658523E+03  0.00000000000E+00 0.  1.
         11    1    4    4    0    0 -0.20619245345E+02  0.46798729846E+01  0.83309787496E+02  0.85951004546E+02  0.00000000000E+00 0. -1.
</event>
<event>
 8    1  0.3710605E-009  0.1662101E+03  0.7561462E-02  0.1181859E+00
          2   -1    0    0  501    0  0.00000000000E+00  0.00000000000E+00  0.76703547121E+03  0.76703547121E+03  0.00000000000E+00 0. -1.
         -2   -1    0    0    0  501 -0.00000000000E+00 -0.00000000000E+00 -0.36358734985E+02  0.36358734985E+02  0.00000000000E+00 0.  1.
         25    2    1    2    0    0 -0.77243014858E+02 -0.99544771540E+02  0.36680138377E+03  0.40751237359E+03  0.12508970624E+03 0.  0.
         23    2    1    2    0    0  0.77243014858E+02  0.99544771540E+02  0.36387535246E+03  0.39588183261E+03  0.91877681608E+02 0.  0.
          5    1    3    3  502    0  0.31417000614E+02 -0.41625559512E+01  0.51471711423E+02  0.60590133491E+02  0.41800000000E+01 0.  1.
         -5    1    3    3    0  502 -0.10866001547E+03 -0.95382215589E+02  0.31532967234E+03  0.34692224010E+03  0.41800000000E+01 0.  1.
        -11    1    4    4    0    0  0.59836273340E+02  0.54121913438E+01  0.13249692771E+03  0.14548232633E+03  0.00000000000E+00 0.  1.
         11    1    4    4    0    0  0.17406741518E+02  0.94132580196E+02  0.23137842475E+03  0.25039950628E+03  0.00000000000E+00 0. -1.
</event>
<event>
 8    1  0.3710605E-009  0.8944697E+02  0.7561462E-02  0.1304196E+00
          2   -1    0    0  501    0  0.00000000000E+00  0.00000000000E+00  0.99041195274E+03  0.99041195274E+03  0.00000000000E+00 0. -1.
         -2   -1    0    0    0  501 -0.00000000000E+00 -0.00000000000E+00 -0.13954685665E+02  0.13954685665E+02  0.00000000000E+00 0.  1.
         25    2    1    2    0    0  0.18761474664E+02  0.64075183692E+01  0.74442562363E+03  0.75512211349E+03  0.12508736126E+03 0.  0.
         23    2    1    2    0    0 -0.18761474664E+02 -0.64075183692E+01  0.23203164344E+03  0.24924452491E+03  0.88831865988E+02 0.  0.
          5    1    3    3  502    0  0.54832936506E+02  0.12800687374E+02  0.16250335673E+03  0.17203290927E+03  0.41800000000E+01 0. -1.
         -5    1    3    3    0  502 -0.36071461842E+02 -0.63931690044E+01  0.58192226690E+03  0.58308920423E+03  0.41800000000E+01 0. -1.
        -11    1    4    4    0    0  0.28748731573E+02 -0.21290146954E+02  0.57229443620E+02  0.67490511492E+02  0.00000000000E+00 0.  1.
         11    1    4    4    0    0 -0.47510206237E+02  0.14882628585E+02  0.17480219982E+03  0.18175401342E+03  0.00000000000E+00 0. -1.
</event>
<event>
 8    1  0.3710605E-009  0.1256758E+03  0.7561462E-02  0.1234017E+00
         -3   -1    0    0    0  501 -0.00000000000E+00  0.00000000000E+00  0.42272949622E+03  0.42272949622E+03  0.00000000000E+00 0.  1.
          3   -1    0    0  501    0  0.00000000000E+00 -0.00000000000E+00 -0.47585378674E+02  0.47585378674E+02  0.00000000000E+00 0. -1.
         25    2    1    2    0    0 -0.50877527086E+02 -0.77444386869E+02  0.21646051789E+03  0.26662554896E+03  0.12509145348E+03 0.  0.
         23    2    1    2    0    0  0.50877527086E+02  0.77444386869E+02  0.15868359966E+03  0.20368932594E+03  0.87878898947E+02 0.  0.
          5    1    3    3  502    0  0.32025829310E+02 -0.63765650592E+02  0.95567606303E+02  0.11934132441E+03  0.41800000000E+01 0.  1.
         -5    1    3    3    0  502 -0.82903356396E+02 -0.13678736277E+02  0.12089291158E+03  0.14728422454E+03  0.41800000000E+01 0.  1.
        -11    1    4    4    0    0  0.84366892025E+01  0.33920235008E+02  0.13053350118E+01  0.34978049791E+02  0.00000000000E+00 0. -1.
         11    1    4    4    0    0  0.42440837884E+02  0.43524151861E+02  0.15737826465E+03  0.16871127615E+03  0.00000000000E+00 0.  1.
</event>
<event>
 8    1  0.3710605E-009  0.2419061E+03  0.7561462E-02  0.1118530E+00
          1   -1    0    0  501    0  0.00000000000E+00  0.00000000000E+00  0.10006454921E+04  0.10006454921E+04  0.00000000000E+00 0. -1.
         -1   -1    0    0    0  501 -0.00000000000E+00 -0.00000000000E+00 -0.64803430587E+02  0.64803430587E+02  0.00000000000E+00 0.  1.
         25    2    1    2    0    0  0.58862756158E+02 -0.22135739558E+03  0.42093203594E+03  0.49527284755E+03  0.12508994363E+03 0.  0.
         23    2    1    2    0    0 -0.58862756158E+02  0.22135739558E+03  0.51491002555E+03  0.57017607511E+03  0.86628526368E+02 0.  0.
          5    1    3    3  502    0  0.82323922597E+02 -0.96368427310E+02  0.15345097399E+03  0.19906977629E+03  0.41800000000E+01 0.  1.
         -5    1    3    3    0  502 -0.23461166439E+02 -0.12498896827E+03  0.26748106195E+03  0.29620307126E+03  0.41800000000E+01 0.  1.
        -11    1    4    4    0    0 -0.16893074604E+02  0.98298775819E+02  0.12970276520E+03  0.16361794705E+03  0.00000000000E+00 0.  1.
         11    1    4    4    0    0 -0.41969681554E+02  0.12305861976E+03  0.38520726035E+03  0.40655812806E+03  0.00000000000E+00 0. -1.
</event>
<event>
 8    1  0.3710605E-009  0.9256246E+02  0.7561462E-02  0.1296762E+00
         -2   -1    0    0    0  501 -0.00000000000E+00  0.00000000000E+00  0.13762620567E+02  0.13762620567E+02  0.00000000000E+00 0.  1.
          2   -1    0    0  501    0  0.00000000000E+00 -0.00000000000E+00 -0.93262185546E+03  0.93262185546E+03  0.00000000000E+00 0. -1.
         25    2    1    2    0    0  0.91803702983E+01  0.14673163376E+02 -0.66225555807E+03  0.67418817652E+03  0.12509073603E+03 0.  0.
         23    2    1    2    0    0 -0.91803702983E+01 -0.14673163376E+02 -0.25660367683E+03  0.27219629951E+03  0.89139203412E+02 0.  0.
          5    1    3    3  502    0  0.23787334995E+02 -0.42392181837E+02 -0.13333259396E+03  0.14197882729E+03  0.41800000000E+01 0.  1.
         -5    1    3    3    0  502 -0.14606964696E+02  0.57065345212E+02 -0.52892296411E+03  0.53220934923E+03  0.41800000000E+01 0.  1.
        -11    1    4    4    0    0  0.32438838174E+02  0.18769864778E+01 -0.42718704424E+02  0.53672050529E+02  0.00000000000E+00 0.  1.
         11    1    4    4    0    0 -0.41619208472E+02 -0.16550149853E+02 -0.21388497241E+03  0.21852424899E+03  0.00000000000E+00 0. -1.
</event>
<event>
 8    1  0.3710605E-009  0.6763248E+02  0.7561462E-02  0.1368334E+00
          2   -1    0    0  501    0  0.00000000000E+00  0.00000000000E+00  0.99301784516E+02  0.99301784516E+02  0.00000000000E+00 0. -1.
         -2   -1    0    0    0  501 -0.00000000000E+00 -0.00000000000E+00 -0.12098617271E+03  0.12098617271E+03  0.00000000000E+00 0.  1.
         25    2    1    2    0    0 -0.23684485420E+01  0.45372561507E+01 -0.13409037976E+01  0.12520179630E+03  0.12508994976E+03 0.  0.
         23    2    1    2    0    0  0.23684485420E+01 -0.45372561507E+01 -0.20343484399E+02  0.95086160932E+02  0.92743325373E+02 0.  0.
          5    1    3    3  502    0  0.45679867710E+02  0.32693858338E+00 -0.41836633076E+02  0.62084889224E+02  0.41800000000E+01 0. -1.
         -5    1    3    3    0  502 -0.48048316252E+02  0.42103175673E+01  0.40495729278E+02  0.63116907073E+02  0.41800000000E+01 0. -1.
        -11    1    4    4    0    0  0.15128566347E+02 -0.17266180973E+02  0.32195489474E+02  0.39541675073E+02  0.00000000000E+00 0. -1.
         11    1    4    4    0    0 -0.12760117805E+02  0.12728924822E+02 -0.52538973874E+02  0.55544485858E+02  0.00000000000E+00 0.  1.
</event>
<event>
 8    1  0.3710605E-009  0.1124014E+03  0.7561462E-02  0.1256186E+00
         -4   -1    0    0    0  501 -0.00000000000E+00  0.00000000000E+00  0.62094158808E+03  0.62094158808E+03  0.00000000000E+00 0.  1.
          4   -1    0    0  501    0  0.00000000000E+00 -0.00000000000E+00 -0.28114155977E+02  0.28114155977E+02  0.00000000000E+00 0. -1.
         25    2    1    2    0    0 -0.76293016796E+01 -0.68772616425E+02  0.23085898458E+03  0.27153569845E+03  0.12509150952E+03 0.  0.
         23    2    1    2    0    0  0.76293016796E+01  0.68772616425E+02  0.36196844752E+03  0.37752004561E+03  0.81928925430E+02 0.  0.
          5    1    3    3  502    0 -0.55976049502E+02  0.69429001690E+00  0.70063894101E+02  0.89778738090E+02  0.41800000000E+01 0.  1.
         -5    1    3    3    0  502  0.48346747823E+02 -0.69466906442E+02  0.16079509048E+03  0.18175696036E+03  0.41800000000E+01 0.  1.
        -11    1    4    4    0    0  0.99009886374E+01 -0.43187692073E+01  0.30449031555E+01  0.11222868559E+02  0.00000000000E+00 0. -1.
         11    1    4    4    0    0 -0.22716869578E+01  0.73091385632E+02  0.35892354437E+03  0.36629717705E+03  0.00000000000E+00 0.  1.
</event>
<event>
 8    1  0.3710605E-009  0.1851010E+03  0.7561462E-02  0.1162956E+00
         -2   -1    0    0    0  501 -0.00000000000E+00  0.00000000000E+00  0.37844747226E+03  0.37844747226E+03  0.00000000000E+00 0.  1.
          2   -1    0    0  501    0  0.00000000000E+00 -0.00000000000E+00 -0.15966299549E+03  0.15966299549E+03  0.00000000000E+00 0. -1.
         25    2    1    2    0    0 -0.17420947303E+03  0.18519189235E+02 -0.32350537618E+02  0.21768228428E+03  0.12508844368E+03 0.  0.
         23    2    1    2    0    0  0.17420947303E+03 -0.18519189235E+02  0.25113501438E+03  0.32042818347E+03  0.94411463527E+02 0.  0.
          5    1    3    3  502    0 -0.74571042993E+02 -0.25634829719E+02  0.38271138269E+02  0.87750426621E+02  0.41800000000E+01 0. -1.
         -5    1    3    3    0  502 -0.99638430040E+02  0.44154018954E+02 -0.70621675887E+02  0.12993185766E+03  0.41800000000E+01 0. -1.
        -11    1    4    4    0    0  0.11733242253E+03  0.11439652612E+02  0.21863988481E+03  0.24839718649E+03  0.00000000000E+00 0.  1.
         11    1    4    4    0    0  0.56877050504E+02 -0.29958841846E+02  0.32495129575E+02  0.72030996972E+02  0.00000000000E+00 0. -1.
</event>
<event>
 8    1  0.3710605E-009  0.1073393E+03  0.7561462E-02  0.1265578E+00
         -1   -1    0    0    0  501 -0.00000000000E+00  0.00000000000E+00  0.86581561429E+01  0.86581561429E+01  0.00000000000E+00 0.  1.
          1   -1    0    0  501    0  0.00000000000E+00 -0.00000000000E+00 -0.29691362550E+04  0.29691362550E+04  0.00000000000E+00 0. -1.
         25    2    1    2    0    0 -0.49302698316E+02  0.74239121579E+02 -0.23079437738E+04  0.23130487735E+04  0.12509181652E+03 0.  0.
         23    2    1    2    0    0  0.49302698316E+02 -0.74239121579E+02 -0.65253432510E+03  0.66474563764E+03  0.90241421141E+02 0.  0.
          5    1    3    3  502    0 -0.10147750084E+01  0.23777486775E+02 -0.70775949672E+02  0.74787071728E+02  0.41800000000E+01 0.  1.
         -5    1    3    3    0  502 -0.48287923308E+02  0.50461634804E+02 -0.22371678241E+04  0.22382617018E+04  0.41800000000E+01 0.  1.
        -11    1    4    4    0    0  0.39727584950E+02 -0.92087898998E+02 -0.60210571963E+03  0.61040131042E+03  0.00000000000E+00 0. -1.
         11    1    4    4    0    0  0.95751133660E+01  0.17848777419E+02 -0.50428605473E+02  0.54344327222E+02  0.00000000000E+00 0.  1.
</event>
<event>
 8    1  0.3710605E-009  0.2902317E+03  0.7561462E-02  0.1090228E+00
          2   -1    0    0  501    0  0.00000000000E+00  0.00000000000E+00  0.95837587732E+03  0.95837587732E+03  0.00000000000E+00 0. -1.
         -2   -1    0    0    0  501 -0.00000000000E+00 -0.00000000000E+00 -0.14056067036E+03  0.14056067036E+03  0.00000000000E+00 0.  1.
         25    2    1    2    0    0 -0.27060753925E+03 -0.44774553525E+02  0.87865927460E+02  0.31400584511E+03  0.12508416612E+03 0.  0.
         23    2    1    2    0    0  0.27060753925E+03  0.44774553525E+02  0.72994927950E+03  0.78493070257E+03  0.89761106575E+02 0.  0.
          5    1    3    3  502    0  0.12491823535E+02  0.17470822455E+01  0.10205842221E+02  0.16754986334E+02  0.41800000000E+01 0.  1.
         -5    1    3    3    0  502 -0.28309936279E+03 -0.46521635770E+02  0.77660085239E+02  0.29725085878E+03  0.41800000000E+01 0.  1.
        -11    1    4    4    0    0  0.97845985175E+02 -0.11578146232E+02  0.17305783774E+03  0.19914041651E+03  0.00000000000E+00 0.  1.
         11    1    4    4    0    0  0.17276155407E+03  0.56352699757E+02  0.55689144176E+03  0.58579028606E+03  0.00000000000E+00 0. -1.
</event>
<event>
 8    1  0.3710605E-009  0.1323991E+03  0.7561462E-02  0.1223939E+00
          2   -1    0    0  501    0  0.00000000000E+00  0.00000000000E+00  0.74808334766E+03  0.74808334766E+03  0.00000000000E+00 0. -1.
         -2   -1    0    0    0  501 -0.00000000000E+00 -0.00000000000E+00 -0.29536603012E+02  0.29536603012E+02  0.00000000000E+00 0.  1.
         25    2    1    2    0    0  0.57594214713E+02 -0.69369566437E+02  0.50663624931E+03  0.52958206325E+03  0.12509053636E+03 0.  0.
         23    2    1    2    0    0 -0.57594214713E+02  0.69369566437E+02  0.21191049534E+03  0.24803788743E+03  0.92127657339E+02 0.  0.
          5    1    3    3  502    0 -0.22242617053E+02  0.10707169057E+02  0.27178367275E+02  0.36952855510E+02  0.41800000000E+01 0. -1.
         -5    1    3    3    0  502  0.79836831766E+02 -0.80076735494E+02  0.47945788204E+03  0.49262920774E+03  0.41800000000E+01 0. -1.
        -11    1    4    4    0    0 -0.58859709934E+02  0.16565456606E+01  0.12207553249E+03  0.13553466431E+03  0.00000000000E+00 0.  1.
         11    1    4    4    0    0  0.12654952211E+01  0.67713020776E+02  0.89834962852E+02  0.11250322312E+03  0.00000000000E+00 0. -1.
</event>
<event>
 8    1  0.3710605E-009  0.1250574E+03  0.7561462E-02  0.1234980E+00
         -2   -1    0    0    0  501 -0.00000000000E+00  0.00000000000E+00  0.48491229313E+03  0.48491229313E+03  0.00000000000E+00 0.  1.
          2   -1    0    0  501    0  0.00000000000E+00 -0.00000000000E+00 -0.44748413042E+02  0.44748413042E+02  0.00000000000E+00 0. -1.
         25    2    1    2    0    0  0.28219040231E+01  0.91599853575E+02  0.31010411350E+03  0.34671422590E+03  0.12509075469E+03 0.  0.
         23    2    1    2    0    0 -0.28219040231E+01 -0.91599853575E+02  0.13005976658E+03  0.18294648027E+03  0.90307117350E+02 0.  0.
          5    1    3    3  502    0 -0.12177650536E+02 -0.12094848485E+02 -0.17041103623E+01  0.17747025795E+02  0.41800000000E+01 0.  1.
         -5    1    3    3    0  502  0.14999554559E+02  0.10369470206E+03  0.31180822386E+03  0.32896720010E+03  0.41800000000E+01 0.  1.
        -11    1    4    4    0    0 -0.40629547360E+02 -0.17165880336E+02  0.56496161345E+02  0.71674568803E+02  0.00000000000E+00 0. -1.
         11    1    4    4    0    0  0.37807643337E+02 -0.74433973239E+02  0.73563605237E+02  0.11127191147E+03  0.00000000000E+00 0.  1.
</event>
<event>
 8    1  0.3710605E-009  0.1543191E+03  0.7561462E-02  0.1195264E+00
          2   -1    0    0  501    0  0.00000000000E+00  0.00000000000E+00  0.10592596710E+04  0.10592596710E+04  0.00000000000E+00 0.  1.
         -2   -1    0    0    0  501 -0.00000000000E+00 -0.00000000000E+00 -0.24949906133E+02  0.24949906133E+02  0.00000000000E+00 0. -1.
         25    2    1    2    0    0 -0.25055358542E+01  0.12015864409E+03  0.51369142366E+03  0.54219008317E+03  0.12508728986E+03 0.  0.
         23    2    1    2    0    0  0.25055358542E+01 -0.12015864409E+03  0.52061834124E+03  0.54201949400E+03  0.91089500917E+02 0.  0.
          5    1    3    3  502    0 -0.14016831527E+01 -0.22022223470E+02  0.14997292487E+03  0.15164528887E+03  0.41800000000E+01 0. -1.
         -5    1    3    3    0  502 -0.11038527015E+01  0.14218086756E+03  0.36371849879E+03  0.39054479429E+03  0.41800000000E+01 0. -1.
        -11    1    4    4    0    0  0.40853775603E+02 -0.64109571267E+02  0.35442172091E+03  0.36248286079E+03  0.00000000000E+00 0. -1.
         11    1    4    4    0    0 -0.38348239749E+02 -0.56049072826E+02  0.16619662033E+03  0.17953663321E+03  0.00000000000E+00 0.  1.
</event>
<event>
 8    1  0.3710605E-009  0.6813422E+02  0.7561462E-02  0.1366555E+00
          2   -1    0    0  501    0  0.00000000000E+00  0.00000000000E+00  0.28516360473E+03  0.28516360473E+03  0.00000000000E+00 0. -1.
         -2   -1    0    0    0  501 -0.00000000000E+00 -0.00000000000E+00 -0.47179084444E+02  0.47179084444E+02  0.00000000000E+00 0.  1.
         25    2    1    2    0    0 -0.31671287096E+02  0.14195339621E+02  0.10463873446E+03  0.16673699748E+03  0.12508950190E+03 0.  0.
         23    2    1    2    0    0  0.31671287096E+02 -0.14195339621E+02  0.13334578583E+03  0.16560569170E+03  0.91867123773E+02 0.  0.
          5    1    3    3  502    0 -0.26746755541E+02 -0.26969688211E+01 -0.24335237232E+02  0.36501215650E+02  0.41800000000E+01 0. -1.
         -5    1    3    3    0  502 -0.49245315541E+01  0.16892308442E+02  0.12897397169E+03  0.13023578183E+03  0.41800000000E+01 0. -1.
        -11    1    4    4    0    0  0.14711687871E+02  0.35521721535E+02  0.88669861694E+02  0.96646628672E+02  0.00000000000E+00 0. -1.
         11    1    4    4    0    0  0.16959599224E+02 -0.49717061155E+02  0.44675924136E+02  0.68959063024E+02  0.00000000000E+00 0.  1.
</event>
<event>
 8    1  0.3710605E-009  0.2049348E+03  0.7561462E-02  0.1145641E+00
         -2   -1    0    0    0  501 -0.00000000000E+00  0.00000000000E+00  0.40674394877E+02  0.40674394877E+02  0.00000000000E+00 0.  1.
          2   -1    0    0  501    0  0.00000000000E+00 -0.00000000000E+00 -0.20131272238E+04  0.20131272238E+04  0.00000000000E+00 0. -1.
         25    2    1    2    0    0 -0.11750265158E+03  0.13748915954E+03 -0.16991047338E+04  0.17132761081E+04  0.12509190269E+03 0.  0.
         23    2    1    2    0    0  0.11750265158E+03 -0.13748915954E+03 -0.27334809516E+03  0.34052551060E+03  0.92348795970E+02 0.  0.
          5    1    3    3  502    0 -0.11047174878E+02  0.10507923406E+03 -0.69177090045E+03  0.69980578492E+03  0.41800000000E+01 0. -1.
         -5    1    3    3    0  502 -0.10645547670E+03  0.32409925475E+02 -0.10073338333E+04  0.10134703232E+04  0.41800000000E+01 0. -1.
        -11    1    4    4    0    0  0.55500826421E+01 -0.50998140083E+02 -0.12703838867E+03  0.13700498496E+03  0.00000000000E+00 0.  1.
         11    1    4    4    0    0  0.11195256894E+03 -0.86491019457E+02 -0.14630970649E+03  0.20352052563E+03  0.00000000000E+00 0. -1.
</event>
<event>
 8    1  0.3710605E-009  0.7022016E+02  0.7561462E-02  0.1359346E+00
         -2   -1    0    0    0  501 -0.00000000000E+00  0.00000000000E+00  0.32906570844E+02  0.32906570844E+02  0.00000000000E+00 0.  1.
          2   -1    0    0  501    0  0.00000000000E+00 -0.00000000000E+00 -0.38930349085E+03  0.38930349085E+03  0.00000000000E+00 0. -1.
         25    2    1    2    0    0 -0.15558835145E+02 -0.22643996468E+02 -0.18559258407E+03  0.22549377849E+03  0.12509200194E+03 0.  0.
         23    2    1    2    0    0  0.15558835145E+02  0.22643996468E+02 -0.17080433593E+03  0.19671628320E+03  0.93639452025E+02 0.  0.
          5    1    3    3  502    0 -0.33274262102E+02 -0.15071613999E+02  0.20447169069E+01  0.36823678988E+02  0.41800000000E+01 0. -1.
         -5    1    3    3    0  502  0.17715426958E+02 -0.75723824695E+01 -0.18763730098E+03  0.18867009951E+03  0.41800000000E+01 0. -1.
        -11    1    4    4    0    0  0.43668108862E+02  0.32215046444E+02 -0.15242010901E+03  0.16179184955E+03  0.00000000000E+00 0. -1.
         11    1    4    4    0    0 -0.28109273717E+02 -0.95710499756E+01 -0.18384226925E+02  0.34924433656E+02  0.00000000000E+00 0.  1.
</event>
<event>
 8    1  0.3710605E-009  0.1135613E+03  0.7561462E-02  0.1254114E+00
          3   -1    0    0  501    0  0.00000000000E+00  0.00000000000E+00  0.70966096946E+02  0.70966096946E+02  0.00000000000E+00 0. -1.
         -3   -1    0    0    0  501 -0.00000000000E+00 -0.00000000000E+00 -0.20136460201E+03  0.20136460201E+03  0.00000000000E+00 0.  1.
         25    2    1    2    0    0 -0.45733913017E+02  0.86035149022E+01 -0.45169534335E+02  0.14090339899E+03  0.12509144554E+03 0.  0.
         23    2    1    2    0    0  0.45733913017E+02 -0.86035149022E+01 -0.85228970725E+02  0.13142729996E+03  0.88563798788E+02 0.  0.
          5    1    3    3  502    0 -0.75418218781E+02  0.38856916126E+02 -0.49133893046E+02  0.98129401816E+02  0.41800000000E+01 0.  1.
         -5    1    3    3    0  502  0.29684305764E+02 -0.30253401224E+02  0.39643587110E+01  0.42773997175E+02  0.41800000000E+01 0.  1.
        -11    1    4    4    0    0  0.10150242616E+02  0.38919579005E+02 -0.40644836228E+02  0.57181848231E+02  0.00000000000E+00 0.  1.
         11    1    4    4    0    0  0.35583670401E+02 -0.47523093908E+02 -0.44584134498E+02  0.74245451731E+02  0.00000000000E+00 0. -1.
</event>
<event>
 8    1  0.3710605E-009  0.9583376E+02  0.7561462E-02  0.1289309E+00
          2   -1    0    0  501    0  0.00000000000E+00  0.00000000000E+00  0.31609931500E+03  0.31609931500E+03  0.00000000000E+00 0.  1.
         -2   -1    0    0    0  501 -0.00000000000E+00 -0.00000000000E+00 -0.56480346165E+02  0.56480346165E+02  0.00000000000E+00 0. -1.
         25    2    1    2    0    0 -0.13736034216E+01 -0.55850691315E+02  0.21976961391E+03  0.25897225779E+03  0.12508701212E+03 0.  0.
         23    2    1    2    0    0  0.13736034216E+01  0.55850691315E+02  0.39849354930E+02  0.11360740338E+03  0.90539960831E+02 0.  0.
          5    1    3    3  502    0  0.14993679182E+02  0.24653319722E+02  0.57881125515E+01  0.29724926167E+02  0.41800000000E+01 0.  1.
         -5    1    3    3    0  502 -0.16367282603E+02 -0.80504011037E+02  0.21398150135E+03  0.22924733162E+03  0.41800000000E+01 0.  1.
        -11    1    4    4    0    0  0.26481492948E+02  0.46403290207E+02  0.59788602871E+02  0.80182366166E+02  0.00000000000E+00 0.  1.
         11    1    4    4    0    0 -0.25107889527E+02  0.94474011084E+01 -0.19939247941E+02  0.33425037212E+02  0.00000000000E+00 0. -1.
</event>
<event>
 8    1  0.3710605E-009  0.9009588E+02  0.7561462E-02  0.1302620E+00
         -1   -1    0    0    0  501 -0.00000000000E+00  0.00000000000E+00  0.10039889155E+03  0.10039889155E+03  0.00000000000E+00 0.  1.
          1   -1    0    0  501    0  0.00000000000E+00 -0.00000000000E+00 -0.14529093312E+03  0.14529093312E+03  0.00000000000E+00 0. -1.
         25    2    1    2    0    0 -0.33925450236E+02 -0.10675009402E+02 -0.68300524503E+02  0.14689341995E+03  0.12509125940E+03 0.  0.
         23    2    1    2    0    0  0.33925450236E+02  0.10675009402E+02  0.23408482931E+02  0.98796404715E+02  0.89150886210E+02 0.  0.
          5    1    3    3  502    0 -0.52074141627E+02 -0.55024953340E+02 -0.62772929147E+02  0.98475249429E+02  0.41800000000E+01 0. -1.
         -5    1    3    3    0  502  0.18148691392E+02  0.44349943938E+02 -0.55275953556E+01  0.48418170525E+02  0.41800000000E+01 0. -1.
        -11    1    4    4    0    0 -0.89155598005E+01  0.99617353772E+01  0.47703149625E+02  0.49541032109E+02  0.00000000000E+00 0.  1.
         11    1    4    4    0    0  0.42841010036E+02  0.71327402475E+00 -0.24294666694E+02  0.49255372606E+02  0.00000000000E+00 0. -1.
</event>
<event>
 8    1  0.3710605E-009  0.8265723E+02  0.7561462E-02  0.1321675E+00
         -2   -1    0    0    0  501 -0.00000000000E+00  0.00000000000E+00  0.91426179183E+02  0.91426179183E+02  0.00000000000E+00 0.  1.
          2   -1    0    0  501    0  0.00000000000E+00 -0.00000000000E+00 -0.17908232923E+03  0.17908232923E+03  0.00000000000E+00 0. -1.
         25    2    1    2    0    0  0.65455000456E+02  0.28257496376E+02 -0.75891263910E+02  0.16275615017E+03  0.12508891755E+03 0.  0.
         23    2    1    2    0    0 -0.65455000456E+02 -0.28257496376E+02 -0.11764886140E+02  0.10775235824E+03  0.79933190698E+02 0.  0.
          5    1    3    3  502    0  0.49984512297E+02  0.39892942650E+02  0.18184393263E+02  0.66618637792E+02  0.41800000000E+01 0. -1.
         -5    1    3    3    0  502  0.15470488159E+02 -0.11635446274E+02 -0.94075657173E+02  0.96137512379E+02  0.41800000000E+01 0. -1.
        -11    1    4    4    0    0 -0.23870420810E+02 -0.31714390634E+02  0.29199988540E+02  0.49277164018E+02  0.00000000000E+00 0.  1.
         11    1    4    4    0    0 -0.41584579646E+02  0.34568942582E+01 -0.40964874679E+02  0.58475194226E+02  0.00000000000E+00 0. -1.
</event>
<event>
 8    1  0.3710605E-009  0.1324105E+03  0.7561462E-02  0.1223922E+00
          1   -1    0    0  501    0  0.00000000000E+00  0.00000000000E+00  0.91005081248E+02  0.91005081248E+02  0.00000000000E+00 0. -1.
         -1   -1    0    0    0  501 -0.00000000000E+00 -0.00000000000E+00 -0.22110194074E+03  0.22110194074E+03  0.00000000000E+00 0.  1.
         25    2    1    2    0    0 -0.68035057464E+02  0.33596527927E+02 -0.20580610429E+02  0.14774323316E+03  0.12508799178E+03 0.  0.
         23    2    1    2    0    0  0.68035057464E+02 -0.33596527927E+02 -0.10951624907E+03  0.16436378883E+03  0.96250457327E+02 0.  0.
          5    1    3    3  502    0 -0.10427352417E+03  0.33876748494E+02 -0.17857868346E+02  0.11116194400E+03  0.41800000000E+01 0. -1.
         -5    1    3    3    0  502  0.36238466705E+02 -0.28022056763E+00 -0.27227420829E+01  0.36581289167E+02  0.41800000000E+01 0. -1.
        -11    1    4    4    0    0  0.15621412514E+02  0.31432828164E+02 -0.52807655465E+02  0.63408987463E+02  0.00000000000E+00 0.  1.
         11    1    4    4    0    0  0.52413644949E+02 -0.65029356091E+02 -0.56708593603E+02  0.10095480137E+03  0.00000000000E+00 0. -1.
</event>
<event>
 8    1  0.3710605E-009  0.1113105E+03  0.7561462E-02  0.1258162E+00
         -3   -1    0    0    0  501 -0.00000000000E+00  0.00000000000E+00  0.16883989746E+03  0.16883989746E+03  0.00000000000E+00 0.  1.
          3   -1    0    0  501    0  0.00000000000E+00 -0.00000000000E+00 -0.11275835619E+03  0.11275835619E+03  0.00000000000E+00 0. -1.
         25    2    1    2    0    0 -0.16610581849E+02  0.59899168427E+02 -0.28018846131E+02  0.14246402349E+03  0.12508845047E+03 0.  0.
         23    2    1    2    0    0  0.16610581849E+02 -0.59899168427E+02  0.84100387396E+02  0.13913423016E+03  0.91769477690E+02 0.  0.
          5    1    3    3  502    0 -0.59793241536E+02  0.23450789229E+02  0.20831518967E+02  0.67650541989E+02  0.41800000000E+01 0. -1.
         -5    1    3    3    0  502  0.43182659687E+02  0.36448379198E+02 -0.48850365098E+02  0.74813481499E+02  0.41800000000E+01 0. -1.
        -11    1    4    4    0    0 -0.23495063678E+02 -0.56683935561E+02  0.22091383859E+02  0.65215916835E+02  0.00000000000E+00 0. -1.
         11    1    4    4    0    0  0.40105645528E+02 -0.32152328668E+01  0.62009003538E+02  0.73918313329E+02  0.00000000000E+00 0.  1.
</event>
<event>
 8    1  0.3710605E-009  0.1123765E+03  0.7561462E-02  0.1256231E+00
          3   -1    0    0  501    0  0.00000000000E+00  0.00000000000E+00  0.24207586487E+03  0.24207586487E+03  0.00000000000E+00 0. -1.
         -3   -1    0    0    0  501 -0.00000000000E+00 -0.00000000000E+00 -0.52681313070E+02  0.52681313070E+02  0.00000000000E+00 0.  1.
         25    2    1    2    0    0  0.12265996895E+02 -0.31466894157E+02  0.11708861971E+03  0.17463670618E+03  0.12509042397E+03 0.  0.
         23    2    1    2    0    0 -0.12265996895E+02  0.31466894157E+02  0.72305932087E+02  0.12012047176E+03  0.89778392803E+02 0.  0.
          5    1    3    3  502    0  0.60715831465E+02  0.14281958605E+02  0.50794154328E+02  0.80547532836E+02  0.41800000000E+01 0.  1.
         -5    1    3    3    0  502 -0.48449834570E+02 -0.45748852762E+02  0.66294465386E+02  0.94089173340E+02  0.41800000000E+01 0.  1.
        -11    1    4    4    0    0 -0.13484532193E+02 -0.30576548733E+02  0.30939314444E+02  0.45541180476E+02  0.00000000000E+00 0.  1.
         11    1    4    4    0    0  0.12185352982E+01  0.62043442890E+02  0.41366617643E+02  0.74579291289E+02  0.00000000000E+00 0. -1.
</event>
<event>
 8    1  0.3710605E-009  0.1485763E+03  0.7561462E-02  0.1202233E+00
          2   -1    0    0  501    0  0.00000000000E+00  0.00000000000E+00  0.14837304277E+04  0.14837304277E+04  0.00000000000E+00 0. -1.
         -2   -1    0    0    0  501 -0.00000000000E+00 -0.00000000000E+00 -0.17676016867E+02  0.17676016867E+02  0.00000000000E+00 0.  1.
         25    2    1    2    0    0  0.34506735373E+02 -0.11541821510E+03  0.74389894935E+03  0.76390100395E+03  0.12508804033E+03 0.  0.
         23    2    1    2    0    0 -0.34506735373E+02  0.11541821510E+03  0.72215546151E+03  0.73750544064E+03  0.88846413688E+02 0.  0.
          5    1    3    3  502    0  0.57277954830E+02 -0.40351247506E+02  0.15969287058E+03  0.17443701614E+03  0.41800000000E+01 0.  1.
         -5    1    3    3    0  502 -0.22771219457E+02 -0.75066967591E+02  0.58420607877E+03  0.58946398782E+03  0.41800000000E+01 0.  1.
        -11    1    4    4    0    0  0.28401614409E+02  0.50955634723E+02  0.33216240505E+03  0.33724618863E+03  0.00000000000E+00 0. -1.
         11    1    4    4    0    0 -0.62908349783E+02  0.64462580374E+02  0.38999305646E+03  0.40025925202E+03  0.00000000000E+00 0.  1.
</event>
<event>
 8    1  0.3710605E-009  0.8369652E+02  0.7561462E-02  0.1318877E+00
          2   -1    0    0  501    0  0.00000000000E+00  0.00000000000E+00  0.34799813389E+03  0.34799813389E+03  0.00000000000E+00 0. -1.
         -2   -1    0    0    0  501 -0.00000000000E+00 -0.00000000000E+00 -0.50286224116E+02  0.50286224116E+02  0.00000000000E+00 0.  1.
         25    2    1    2    0    0  0.12260764658E+02 -0.63460410219E+02  0.10566456329E+03  0.17603892705E+03  0.12508858416E+03 0.  0.
         23    2    1    2    0    0 -0.12260764658E+02  0.63460410219E+02  0.19204734648E+03  0.22224543095E+03  0.91286900893E+02 0.  0.
          5    1    3    3  502    0 -0.28227792401E+01 -0.39596208092E+02 -0.21756883572E+02  0.45460556097E+02  0.41800000000E+01 0. -1.
         -5    1    3    3    0  502  0.15083543898E+02 -0.23864202127E+02  0.12742144687E+03  0.13057837096E+03  0.41800000000E+01 0. -1.
        -11    1    4    4    0    0  0.19090027538E+02  0.64804817135E+02  0.74448435066E+02  0.10053190021E+03  0.00000000000E+00 0.  1.
         11    1    4    4    0    0 -0.31350792197E+02 -0.13444069166E+01  0.11759891141E+03  0.12171353075E+03  0.00000000000E+00 0. -1.
</event>
<event>
 8    1  0.3710605E-009  0.1115900E+03  0.7561462E-02  0.1257653E+00
         -4   -1    0    0    0  501 -0.00000000000E+00  0.00000000000E+00  0.25085370849E+03  0.25085370849E+03  0.00000000000E+00 0.  1.
          4   -1    0    0  501    0  0.00000000000E+00 -0.00000000000E+00 -0.93476730634E+02  0.93476730634E+02  0.00000000000E+00 0. -1.
         25    2    1    2    0    0  0.10738829049E+03 -0.23872400674E+01  0.80281761183E+02  0.18338527583E+03  0.12508818634E+03 0.  0.
         23    2    1    2    0    0 -0.10738829049E+03  0.23872400674E+01  0.77095216673E+02  0.16094516329E+03  0.91769980406E+02 0.  0.
          5    1    3    3  502    0  0.63752113848E+02 -0.19290611212E+02 -0.22456118105E+02  0.70414553477E+02  0.41800000000E+01 0. -1.
         -5    1    3    3    0  502  0.43636176645E+02  0.16903371145E+02  0.10273787929E+03  0.11297072235E+03  0.41800000000E+01 0. -1.
        -11    1    4    4    0    0 -0.21491206672E+02 -0.80116803235E+01  0.70537501836E+02  0.74172758820E+02  0.00000000000E+00 0.  1.
         11    1    4    4    0    0 -0.85897083821E+02  0.10398920391E+02  0.65577148373E+01  0.86772404474E+02  0.00000000000E+00 0. -1.
</event>
<event>
 8    1  0.3710605E-009  0.2819180E+03  0.7561462E-02  0.1094646E+00
         -2   -1    0    0    0  501 -0.00000000000E+00  0.00000000000E+00  0.63420558289E+02  0.63420558289E+02  0.00000000000E+00 0. -1.
          2   -1    0    0  501    0  0.00000000000E+00 -0.00000000000E+00 -0.24444412275E+04  0.24444412275E+04  0.00000000000E+00 0.  1.
         25    2    1    2    0    0 -0.24038669775E+03  0.12064359211E+03 -0.20513645252E+04  0.20727008209E+04  0.12510650135E+03 0.  0.
         23    2    1    2    0    0  0.24038669775E+03 -0.12064359211E+03 -0.32965614393E+03  0.43516096487E+03  0.91385181203E+02 0.  0.
          5    1    3    3  502    0 -0.17151807387E+02 -0.22704433197E+02 -0.13298357854E+03  0.13605800361E+03  0.41800000000E+01 0.  1.
         -5    1    3    3    0  502 -0.22323489037E+03  0.14334802530E+03 -0.19183809467E+04  0.19366428173E+04  0.41800000000E+01 0.  1.
        -11    1    4    4    0    0  0.42651555604E+02 -0.30487453950E+02 -0.12950992080E+03  0.13971921711E+03  0.00000000000E+00 0.  1.
         11    1    4    4    0    0  0.19773514215E+03 -0.90156138155E+02 -0.20014622313E+03  0.29544174776E+03  0.00000000000E+00 0. -1.
</event>
<event>
 8    1  0.3710605E-009  0.1334182E+03  0.7561462E-02  0.1222470E+00
          2   -1    0    0  501    0  0.00000000000E+00  0.00000000000E+00  0.29572137807E+03  0.29572137807E+03  0.00000000000E+00 0. -1.
         -2   -1    0    0    0  501 -0.00000000000E+00 -0.00000000000E+00 -0.70786989633E+02  0.70786989633E+02  0.00000000000E+00 0.  1.
         25    2    1    2    0    0  0.52431030798E+02  0.73030225903E+02  0.16570285061E+03  0.22624693450E+03  0.12509122186E+03 0.  0.
         23    2    1    2    0    0 -0.52431030798E+02 -0.73030225903E+02  0.59231537835E+02  0.14026143320E+03  0.89902545480E+02 0.  0.
          5    1    3    3  502    0 -0.97147125629E+01 -0.26069528070E+02  0.68666635755E+02  0.74206301619E+02  0.41800000000E+01 0.  1.
         -5    1    3    3    0  502  0.62145743361E+02  0.99099753974E+02  0.97036214851E+02  0.15204063289E+03  0.41800000000E+01 0.  1.
        -11    1    4    4    0    0 -0.73808069345E+02 -0.66381248108E+02  0.30520256732E+02  0.10385368203E+03  0.00000000000E+00 0.  1.
         11    1    4    4    0    0  0.21377038546E+02 -0.66489777953E+01  0.28711281102E+02  0.36407751170E+02  0.00000000000E+00 0. -1.
</event>
<event>
 8    1  0.3710605E-009  0.1740544E+03  0.7561462E-02  0.1173685E+00
         -4   -1    0    0    0  501 -0.00000000000E+00  0.00000000000E+00  0.42609051637E+03  0.42609051637E+03  0.00000000000E+00 0.  1.
          4   -1    0    0  501    0  0.00000000000E+00 -0.00000000000E+00 -0.12757527764E+03  0.12757527764E+03  0.00000000000E+00 0. -1.
         25    2    1    2    0    0  0.12516049277E+03 -0.11003494803E+03  0.10370144816E+02  0.20863538662E+03  0.12509334877E+03 0.  0.
         23    2    1    2    0    0 -0.12516049277E+03  0.11003494803E+03  0.28814509392E+03  0.34503040740E+03  0.90805000664E+02 0.  0.
          5    1    3    3  502    0  0.25420031364E+02 -0.29747873431E+02 -0.52758090081E+02  0.65817949202E+02  0.41800000000E+01 0.  1.
         -5    1    3    3    0  502  0.99740461403E+02 -0.80287074595E+02  0.63128234897E+02  0.14281743741E+03  0.41800000000E+01 0.  1.
        -11    1    4    4    0    0 -0.49864502772E+02  0.89743855027E+02  0.21434203299E+03  0.23766138782E+03  0.00000000000E+00 0.  1.
         11    1    4    4    0    0 -0.75295989996E+02  0.20291092999E+02  0.73803060925E+02  0.10736901958E+03  0.00000000000E+00 0. -1.
</event>
<event>
 8    1  0.3710605E-009  0.1344139E+03  0.7561462E-02  0.1221049E+00
         -2   -1    0    0    0  501 -0.00000000000E+00  0.00000000000E+00  0.41824403692E+02  0.41824403692E+02  0.00000000000E+00 0.  1.
          2   -1    0    0  501    0  0.00000000000E+00 -0.00000000000E+00 -0.69228096063E+03  0.69228096063E+03  0.00000000000E+00 0. -1.
         25    2    1    2    0    0 -0.12092665026E+03  0.19649458355E+02 -0.44192257081E+03  0.47534596012E+03  0.12509543256E+03 0.  0.
         23    2    1    2    0    0  0.12092665026E+03 -0.19649458355E+02 -0.20853398613E+03  0.25875940421E+03  0.91981791345E+02 0.  0.
          5    1    3    3  502    0 -0.11976725273E+03  0.27311551587E+02 -0.21051318891E+03  0.24376913419E+03  0.41800000000E+01 0.  1.
         -5    1    3    3    0  502 -0.11593975326E+01 -0.76620932319E+01 -0.23140938190E+03  0.23157682593E+03  0.41800000000E+01 0.  1.
        -11    1    4    4    0    0  0.78754597857E+02 -0.42135432026E+02 -0.74004524658E+02  0.11599289196E+03  0.00000000000E+00 0. -1.
         11    1    4    4    0    0  0.42172052405E+02  0.22485973672E+02 -0.13452946147E+03  0.14276651225E+03  0.00000000000E+00 0.  1.
</event>
<event>
 8    1  0.3710605E-009  0.6992247E+02  0.7561462E-02  0.1360357E+00
         -1   -1    0    0    0  501 -0.00000000000E+00  0.00000000000E+00  0.41893308953E+03  0.41893308953E+03  0.00000000000E+00 0.  1.
          1   -1    0    0  501    0  0.00000000000E+00 -0.00000000000E+00 -0.45151650877E+02  0.45151650877E+02  0.00000000000E+00 0. -1.
         25    2    1    2    0    0 -0.10636896489E+02 -0.28116022531E+02  0.33420114567E+03  0.35811027754E+03  0.12509560673E+03 0.  0.
         23    2    1    2    0    0  0.10636896489E+02  0.28116022531E+02  0.39580292979E+02  0.10597446286E+03  0.93596650029E+02 0.  0.
          5    1    3    3  502    0 -0.38739848355E+02 -0.24051121830E+02  0.32464718244E+03  0.32786048523E+03  0.41800000000E+01 0.  1.
         -5    1    3    3    0  502  0.28102951866E+02 -0.40649007014E+01  0.95539632332E+01  0.30249792310E+02  0.41800000000E+01 0.  1.
        -11    1    4    4    0    0 -0.15014039027E+02 -0.10975403669E+02 -0.21902330275E+02  0.28733132880E+02  0.00000000000E+00 0. -1.
         11    1    4    4    0    0  0.25650935516E+02  0.39091426200E+02  0.61482623254E+02  0.77241329982E+02  0.00000000000E+00 0.  1.
</event>
<event>
 8    1  0.3710605E-009  0.1076893E+03  0.7561462E-02  0.1264910E+00
         -1   -1    0    0    0  501 -0.00000000000E+00  0.00000000000E+00  0.57447826398E+03  0.57447826398E+03  0.00000000000E+00 0.  1.
          1   -1    0    0  501    0  0.00000000000E+00 -0.00000000000E+00 -0.32446120942E+02  0.32446120942E+02  0.00000000000E+00 0. -1.
         25    2    1    2    0    0 -0.35481186643E+02  0.14364421255E+02  0.13510387759E+03  0.18805962649E+03  0.12509242252E+03 0.  0.
         23    2    1    2    0    0  0.35481186643E+02 -0.14364421255E+02  0.40692826545E+03  0.41886475843E+03  0.91606885285E+02 0.  0.
          5    1    3    3  502    0 -0.66987546269E+02  0.42145181483E+02  0.51825364949E+02  0.94693656226E+02  0.41800000000E+01 0.  1.
         -5    1    3    3    0  502  0.31506359626E+02 -0.27780760228E+02  0.83278512642E+02  0.93365970265E+02  0.41800000000E+01 0.  1.
        -11    1    4    4    0    0 -0.20830408348E+02 -0.29023453138E+02  0.93738442136E+02  0.10031531427E+03  0.00000000000E+00 0.  1.
         11    1    4    4    0    0  0.56311594991E+02  0.14659031883E+02  0.31318982331E+03  0.31854944416E+03  0.00000000000E+00 0. -1.
</event>
<event>
 8    1  0.3710605E-009  0.8734996E+02  0.7561462E-02  0.1309399E+00
         -1   -1    0    0    0  501 -0.00000000000E+00  0.00000000000E+00  0.11358049674E+03  0.11358049674E+03  0.00000000000E+00 0.  1.
          1   -1    0    0  501    0  0.00000000000E+00 -0.00000000000E+00 -0.10575656806E+03  0.10575656806E+03  0.00000000000E+00 0. -1.
         25    2    1    2    0    0  0.20667603191E+02 -0.30141966437E+01  0.57325114094E+01  0.12694729123E+03  0.12508604183E+03 0.  0.
         23    2    1    2    0    0 -0.20667603191E+02  0.30141966437E+01  0.20914172781E+01  0.92389773564E+02  0.89973668536E+02 0.  0.
          5    1    3    3  502    0 -0.47301662174E+02 -0.26971602549E+02  0.14227811416E+01  0.54629765648E+02  0.41800000000E+01 0. -1.
         -5    1    3    3    0  502  0.67969265365E+02  0.23957405906E+02  0.43097302678E+01  0.72317525587E+02  0.41800000000E+01 0. -1.
        -11    1    4    4    0    0  0.94324277620E+01  0.13110910873E+02 -0.37976504902E+02  0.41268409249E+02  0.00000000000E+00 0. -1.
         11    1    4    4    0    0 -0.30100030953E+02 -0.10096714230E+02  0.40067922180E+02  0.51121364315E+02  0.00000000000E+00 0.  1.
</event>
<event>
 8    1  0.3710605E-009  0.1138463E+03  0.7561462E-02  0.1253608E+00
          3   -1    0    0  501    0  0.00000000000E+00  0.00000000000E+00  0.39884452125E+02  0.39884452125E+02  0.00000000000E+00 0. -1.
         -3   -1    0    0    0  501 -0.00000000000E+00 -0.00000000000E+00 -0.36544228153E+03  0.36544228153E+03  0.00000000000E+00 0.  1.
         25    2    1    2    0    0  0.34987997449E+02  0.20129734448E+02 -0.12475810465E+03  0.18122136179E+03  0.12508889286E+03 0.  0.
         23    2    1    2    0    0 -0.34987997449E+02 -0.20129734448E+02 -0.20079972475E+03  0.22410537187E+03  0.90957803760E+02 0.  0.
          5    1    3    3  502    0 -0.18781848290E+02 -0.43129966907E+02 -0.34310132758E+02  0.58374733237E+02  0.41800000000E+01 0. -1.
         -5    1    3    3    0  502  0.53769845739E+02  0.63259701355E+02 -0.90447971894E+02  0.12284662855E+03  0.41800000000E+01 0. -1.
        -11    1    4    4    0    0 -0.20820765579E+02  0.34830585203E+02 -0.61439683944E+02  0.73630895065E+02  0.00000000000E+00 0.  1.
         11    1    4    4    0    0 -0.14167231870E+02 -0.54960319651E+02 -0.13936004081E+03  0.15047447680E+03  0.00000000000E+00 0. -1.
</event>
<event>
 8    1  0.3710605E-009  0.1054382E+03  0.7561462E-02  0.1269259E+00
          1   -1    0    0  501    0  0.00000000000E+00  0.00000000000E+00  0.24192767824E+03  0.24192767824E+03  0.00000000000E+00 0. -1.
         -1   -1    0    0    0  501 -0.00000000000E+00 -0.00000000000E+00 -0.12325888753E+03  0.12325888753E+03  0.00000000000E+00 0.  1.
         25    2    1    2    0    0 -0.97480886532E+01  0.88436700184E+02 -0.43903060780E+02  0.15965165950E+03  0.12508036802E+03 0.  0.
         23    2    1    2    0    0  0.97480886532E+01 -0.88436700184E+02  0.16257185149E+03  0.20553490626E+03  0.88875843879E+02 0.  0.
          5    1    3    3  502    0  0.16456907568E+01  0.60158680095E+02 -0.87504993380E+02  0.10628438905E+03  0.41800000000E+01 0. -1.
         -5    1    3    3    0  502 -0.11393779410E+02  0.28278020089E+02  0.43601932600E+02  0.53367270455E+02  0.41800000000E+01 0. -1.
        -11    1    4    4    0    0  0.42051708651E+02 -0.72367512429E+02  0.13958258006E+03  0.16275349370E+03  0.00000000000E+00 0.  1.
         11    1    4    4    0    0 -0.32303619998E+02 -0.16069187754E+02  0.22989271425E+02  0.42781412561E+02  0.00000000000E+00 0. -1.
</event>
<event>
 8    1  0.3710605E-009  0.2215482E+03  0.7561462E-02  0.1132734E+00
          2   -1    0    0  501    0  0.00000000000E+00  0.00000000000E+00  0.23121308692E+03  0.23121308692E+03  0.00000000000E+00 0.  1.
         -2   -1    0    0    0  501 -0.00000000000E+00 -0.00000000000E+00 -0.23098456869E+03  0.23098456869E+03  0.00000000000E+00 0. -1.
         25    2    1    2    0    0 -0.97814428219E+02  0.17792822749E+03  0.23719634554E+02  0.23965927632E+03  0.12509129129E+03 0.  0.
         23    2    1    2    0    0  0.97814428219E+02 -0.17792822749E+03 -0.23491116325E+02  0.22253837928E+03  0.88007847378E+02 0.  0.
          5    1    3    3  502    0 -0.99253978270E+02  0.55334902194E+02 -0.44228974196E+01  0.11379955195E+03  0.41800000000E+01 0. -1.
         -5    1    3    3    0  502  0.14395500511E+01  0.12259332530E+03  0.28142531973E+02  0.12585972437E+03  0.41800000000E+01 0. -1.
        -11    1    4    4    0    0  0.56957551558E+02 -0.13925236119E+03  0.19533118715E+02  0.15171330035E+03  0.00000000000E+00 0.  1.
         11    1    4    4    0    0  0.40856876662E+02 -0.38675866305E+02 -0.43024235040E+02  0.70825078932E+02  0.00000000000E+00 0. -1.
</event>
<event>
 8    1  0.3710605E-009  0.1057729E+03  0.7561462E-02  0.1268604E+00
         -1   -1    0    0    0  501 -0.00000000000E+00  0.00000000000E+00  0.43432657032E+02  0.43432657032E+02  0.00000000000E+00 0.  1.
          1   -1    0    0  501    0  0.00000000000E+00 -0.00000000000E+00 -0.80767565258E+03  0.80767565258E+03  0.00000000000E+00 0. -1.
         25    2    1    2    0    0  0.55140091434E+01 -0.14430080755E+02 -0.74970756006E+03  0.76022901816E+03  0.12509237757E+03 0.  0.
         23    2    1    2    0    0 -0.55140091434E+01  0.14430080755E+02 -0.14535435491E+02  0.90879291446E+02  0.88369311423E+02 0.  0.
          5    1    3    3  502    0  0.62090532914E+02 -0.26206112810E+02 -0.43950312706E+03  0.44465994392E+03  0.41800000000E+01 0. -1.
         -5    1    3    3    0  502 -0.56576523771E+02  0.11776032056E+02 -0.31020443299E+03  0.31556907425E+03  0.41800000000E+01 0. -1.
        -11    1    4    4    0    0 -0.10248739149E+02  0.49573053209E+02  0.41605322847E+01  0.50792069140E+02  0.00000000000E+00 0.  1.
         11    1    4    4    0    0  0.47347300056E+01 -0.35142972454E+02 -0.18695967775E+02  0.40087222306E+02  0.00000000000E+00 0. -1.
</event>
<event>
 8    1  0.3710605E-009  0.1149219E+03  0.7561462E-02  0.1251717E+00
         -2   -1    0    0    0  501 -0.00000000000E+00  0.00000000000E+00  0.81259042187E+02  0.81259042187E+02  0.00000000000E+00 0. -1.
          2   -1    0    0  501    0  0.00000000000E+00 -0.00000000000E+00 -0.29043390241E+03  0.29043390241E+03  0.00000000000E+00 0.  1.
         25    2    1    2    0    0 -0.36420694653E+02  0.69129395129E+02 -0.20410194721E+03  0.25181487414E+03  0.12509110964E+03 0.  0.
         23    2    1    2    0    0  0.36420694653E+02 -0.69129395129E+02 -0.50729130124E+01  0.11987807046E+03  0.90772666928E+02 0.  0.
          5    1    3    3  502    0 -0.59390126612E+02  0.34612542549E+02 -0.34227273230E+02  0.76903796223E+02  0.41800000000E+01 0. -1.
         -5    1    3    3    0  502  0.22969431959E+02  0.34516852580E+02 -0.16987467398E+03  0.17491107791E+03  0.41800000000E+01 0. -1.
        -11    1    4    4    0    0 -0.28112421091E+02 -0.39024263784E+02  0.31290477325E+01  0.48197430670E+02  0.00000000000E+00 0.  1.
         11    1    4    4    0    0  0.64533115744E+02 -0.30105131345E+02 -0.82019607449E+01  0.71680639792E+02  0.00000000000E+00 0. -1.
</event>
<event>
 8    1  0.3710605E-009  0.1394808E+03  0.7561462E-02  0.1214029E+00
          1   -1    0    0  501    0  0.00000000000E+00  0.00000000000E+00  0.55604363792E+02  0.55604363792E+02  0.00000000000E+00 0. -1.
         -1   -1    0    0    0  501 -0.00000000000E+00 -0.00000000000E+00 -0.41023229212E+03  0.41023229212E+03  0.00000000000E+00 0.  1.
         25    2    1    2    0    0 -0.57832975689E+02 -0.67332516638E+02 -0.10720316475E+03  0.18713215065E+03  0.12509037693E+03 0.  0.
         23    2    1    2    0    0  0.57832975689E+02  0.67332516638E+02 -0.24742476358E+03  0.27870450526E+03  0.92622172003E+02 0.  0.
          5    1    3    3  502    0  0.38890355652E+02 -0.84533150476E+01 -0.25853585647E+02  0.47642403265E+02  0.41800000000E+01 0. -1.
         -5    1    3    3    0  502 -0.96723331342E+02 -0.58879201590E+02 -0.81349579105E+02  0.13948974739E+03  0.41800000000E+01 0. -1.
        -11    1    4    4    0    0 -0.23652931463E+02  0.22412965937E+02 -0.41744324575E+02  0.52956499537E+02  0.00000000000E+00 0.  1.
         11    1    4    4    0    0  0.81485907153E+02  0.44919550701E+02 -0.20568043900E+03  0.22574800572E+03  0.00000000000E+00 0. -1.
</event>
<event>
 8    1  0.3710605E-009  0.1757229E+03  0.7561462E-02  0.1172008E+00
         -1   -1    0    0    0  501 -0.00000000000E+00  0.00000000000E+00  0.69878884427E+02  0.69878884427E+02  0.00000000000E+00 0.  1.
          1   -1    0    0  501    0  0.00000000000E+00 -0.00000000000E+00 -0.47363335618E+03  0.47363335618E+03  0.00000000000E+00 0. -1.
         25    2    1    2    0    0  0.13829686298E+03  0.49468918407E+02 -0.21756456389E+03  0.29078305885E+03  0.12508897494E+03 0.  0.
         23    2    1    2    0    0 -0.13829686298E+03 -0.49468918407E+02 -0.18618990786E+03  0.25272918176E+03  0.87362241975E+02 0.  0.
          5    1    3    3  502    0  0.29337785933E+02 -0.40675705028E+02 -0.43876030532E+02  0.66766736615E+02  0.41800000000E+01 0. -1.
         -5    1    3    3    0  502  0.10895907705E+03  0.90144623435E+02 -0.17368853336E+03  0.22401632223E+03  0.41800000000E+01 0. -1.
        -11    1    4    4    0    0 -0.55043921820E+02  0.11776143009E+02 -0.25793739844E+02  0.61917912502E+02  0.00000000000E+00 0.  1.
         11    1    4    4    0    0 -0.83252941164E+02 -0.61245061416E+02 -0.16039616802E+03  0.19081126925E+03  0.00000000000E+00 0. -1.
</event>
<event>
 8    1  0.3710605E-009  0.8338996E+02  0.7561462E-02  0.1319697E+00
         -1   -1    0    0    0  501 -0.00000000000E+00  0.00000000000E+00  0.24824143504E+02  0.24824143504E+02  0.00000000000E+00 0.  1.
          1   -1    0    0  501    0  0.00000000000E+00 -0.00000000000E+00 -0.71393940075E+03  0.71393940075E+03  0.00000000000E+00 0. -1.
         25    2    1    2    0    0  0.10834835660E+02  0.56903723943E+02 -0.51530229412E+03  0.53342215504E+03  0.12508922297E+03 0.  0.
         23    2    1    2    0    0 -0.10834835660E+02 -0.56903723943E+02 -0.17381296313E+03  0.20534138922E+03  0.92729243018E+02 0.  0.
          5    1    3    3  502    0 -0.40136111937E+02  0.34200593111E+02 -0.89530238807E+02  0.10398905765E+03  0.41800000000E+01 0.  1.
         -5    1    3    3    0  502  0.50970947597E+02  0.22703130831E+02 -0.42577205531E+03  0.42943309739E+03  0.41800000000E+01 0.  1.
        -11    1    4    4    0    0 -0.24354543198E+01 -0.13989143475E+02  0.93692493591E+01  0.17012066496E+02  0.00000000000E+00 0.  1.
         11    1    4    4    0    0 -0.83993813399E+01 -0.42914580467E+02 -0.18318221249E+03  0.18832932272E+03  0.00000000000E+00 0. -1.
</event>
<event>
 8    1  0.3710605E-009  0.1002919E+03  0.7561462E-02  0.1279683E+00
         -2   -1    0    0    0  501 -0.00000000000E+00  0.00000000000E+00  0.34380984144E+02  0.34380984144E+02  0.00000000000E+00 0.  1.
          2   -1    0    0  501    0  0.00000000000E+00 -0.00000000000E+00 -0.41440871019E+03  0.41440871019E+03  0.00000000000E+00 0. -1.
         25    2    1    2    0    0 -0.17132120294E+02  0.35600556462E+02 -0.27100479679E+03  0.30108424559E+03  0.12508882399E+03 0.  0.
         23    2    1    2    0    0  0.17132120294E+02 -0.35600556462E+02 -0.10902292926E+03  0.14770544875E+03  0.91487656660E+02 0.  0.
          5    1    3    3  502    0  0.12185943375E+02 -0.39860135126E+02 -0.14765074946E+03  0.15347815416E+03  0.41800000000E+01 0.  1.
         -5    1    3    3    0  502 -0.29318063669E+02  0.75460691589E+02 -0.12335404733E+03  0.14760609143E+03  0.41800000000E+01 0.  1.
        -11    1    4    4    0    0  0.24138071640E+02 -0.53345155746E+02 -0.11385223990E+03  0.12802610935E+03  0.00000000000E+00 0. -1.
         11    1    4    4    0    0 -0.70059513466E+01  0.17744599283E+02  0.48293106472E+01  0.19679339403E+02  0.00000000000E+00 0.  1.
</event>
<event>
 8    1  0.3710605E-009  0.1405950E+03  0.7561462E-02  0.1212531E+00
          2   -1    0    0  501    0  0.00000000000E+00  0.00000000000E+00  0.68320796748E+02  0.68320796748E+02  0.00000000000E+00 0. -1.
         -2   -1    0    0    0  501 -0.00000000000E+00 -0.00000000000E+00 -0.34801101460E+03  0.34801101460E+03  0.00000000000E+00 0.  1.
         25    2    1    2    0    0  0.31797519283E+02 -0.97371124147E+02 -0.20461453557E+03  0.26078043795E+03  0.12508841115E+03 0.  0.
         23    2    1    2    0    0 -0.31797519283E+02  0.97371124147E+02 -0.75075682284E+02  0.15555137340E+03  0.89820118262E+02 0.  0.
          5    1    3    3  502    0  0.14584133820E+02  0.23906612131E+02 -0.85822512082E+01  0.29586322831E+02  0.41800000000E+01 0.  1.
         -5    1    3    3    0  502  0.17213385463E+02 -0.12127773628E+03 -0.19603228436E+03  0.23119411512E+03  0.41800000000E+01 0.  1.
        -11    1    4    4    0    0 -0.58665486385E+02  0.56850421433E+02 -0.24248738752E+02  0.85215086933E+02  0.00000000000E+00 0. -1.
         11    1    4    4    0    0  0.26867967101E+02  0.40520702714E+02 -0.50826943532E+02  0.70336286463E+02  0.00000000000E+00 0.  1.
</event>
<event>
 8    1  0.3710605E-009  0.1245999E+03  0.7561462E-02  0.1235696E+00
         -1   -1    0    0    0  501 -0.00000000000E+00  0.00000000000E+00  0.20191508689E+03  0.20191508689E+03  0.00000000000E+00 0.  1.
          1   -1    0    0  501    0  0.00000000000E+00 -0.00000000000E+00 -0.10131863137E+03  0.10131863137E+03  0.00000000000E+00 0. -1.
         25    2    1    2    0    0  0.28832850683E+02 -0.80320026061E+02  0.15709590192E+02  0.15223209190E+03  0.12508068882E+03 0.  0.
         23    2    1    2    0    0 -0.28832850683E+02  0.80320026061E+02  0.84886865323E+02  0.15100162636E+03  0.91176046159E+02 0.  0.
          5    1    3    3  502    0 -0.43990206522E+02 -0.26216871658E+01  0.10705275291E+02  0.45542143477E+02  0.41800000000E+01 0.  1.
         -5    1    3    3    0  502  0.72823057205E+02 -0.77698338895E+02  0.50043149006E+01  0.10668994843E+03  0.41800000000E+01 0.  1.
        -11    1    4    4    0    0 -0.14370679148E+02  0.82494215603E+02  0.99690553673E+02  0.13019223678E+03  0.00000000000E+00 0.  1.
         11    1    4    4    0    0 -0.14462171535E+02 -0.21741895417E+01 -0.14803688350E+02  0.20809389574E+02  0.00000000000E+00 0. -1.
</event>
<event>
 8    1  0.3710605E-009  0.1732836E+03  0.7561462E-02  0.1174466E+00
         -1   -1    0    0    0  501 -0.00000000000E+00  0.00000000000E+00  0.41277438034E+02  0.41277438034E+02  0.00000000000E+00 0.  1.
          1   -1    0    0  501    0  0.00000000000E+00 -0.00000000000E+00 -0.90595527782E+03  0.90595527782E+03  0.00000000000E+00 0. -1.
         25    2    1    2    0    0 -0.14693434317E+03 -0.19173996457E+02 -0.30892712285E+03  0.36474726771E+03  0.12508900325E+03 0.  0.
         23    2    1    2    0    0  0.14693434317E+03  0.19173996457E+02 -0.55575071694E+03  0.58248544814E+03  0.92049413752E+02 0.  0.
          5    1    3    3  502    0 -0.72160198103E+02  0.41700016859E+02 -0.77015282919E+02  0.11355532484E+03  0.41800000000E+01 0.  1.
         -5    1    3    3    0  502 -0.74774145064E+02 -0.60874013316E+02 -0.23191183993E+03  0.25119194288E+03  0.41800000000E+01 0.  1.
        -11    1    4    4    0    0  0.11362302252E+03 -0.19804242965E+02 -0.45560806320E+03  0.46997990014E+03  0.00000000000E+00 0. -1.
         11    1    4    4    0    0  0.33311320651E+02  0.38978239422E+02 -0.10014265374E+03  0.11250554800E+03  0.00000000000E+00 0.  1.
</event>
<event>
 8    1  0.3710605E-009  0.1364459E+03  0.7561462E-02  0.1218193E+00
          1   -1    0    0  501    0  0.00000000000E+00  0.00000000000E+00  0.50214322961E+02  0.50214322961E+02  0.00000000000E+00 0. -1.
         -1   -1    0    0    0  501 -0.00000000000E+00 -0.00000000000E+00 -0.53322006467E+03  0.53322006467E+03  0.00000000000E+00 0.  1.
         25    2    1    2    0    0  0.58800440418E+02  0.79936336542E+02 -0.13184810143E+03  0.20707258732E+03  0.12509126619E+03 0.  0.
         23    2    1    2    0    0 -0.58800440418E+02 -0.79936336542E+02 -0.35115764028E+03  0.37636180031E+03  0.92136891143E+02 0.  0.
          5    1    3    3  502    0  0.95881950451E+02  0.70641149187E+02 -0.11308050169E+03  0.16428083468E+03  0.41800000000E+01 0.  1.
         -5    1    3    3    0  502 -0.37081510033E+02  0.92951873552E+01 -0.18767599733E+02  0.42791752640E+02  0.41800000000E+01 0.  1.
        -11    1    4    4    0    0 -0.42977136890E+02 -0.10758997673E+02 -0.49330379615E+02  0.66304424280E+02  0.00000000000E+00 0. -1.
         11    1    4    4    0    0 -0.15823303528E+02 -0.69177338869E+02 -0.30182726066E+03  0.31005737603E+03  0.00000000000E+00 0.  1.
</event>
<event>
 8    1  0.3710605E-009  0.2174769E+03  0.7561462E-02  0.1135778E+00
          2   -1    0    0  501    0  0.00000000000E+00  0.00000000000E+00  0.11681202677E+03  0.11681202677E+03  0.00000000000E+00 0. -1.
         -2   -1    0    0    0  501 -0.00000000000E+00 -0.00000000000E+00 -0.44307764293E+03  0.44307764293E+03  0.00000000000E+00 0.  1.
         25    2    1    2    0    0 -0.13999245433E+03 -0.13451222288E+03 -0.11124701577E+03  0.25634972295E+03  0.12509139284E+03 0.  0.
         23    2    1    2    0    0  0.13999245433E+03  0.13451222288E+03 -0.21501860039E+03  0.30353994675E+03  0.90620502041E+02 0.  0.
          5    1    3    3  502    0 -0.11996807836E+03 -0.15833664743E+03 -0.10336287693E+03  0.22397363789E+03  0.41800000000E+01 0.  1.
         -5    1    3    3    0  502 -0.20024375969E+02  0.23824424548E+02 -0.78841388439E+01  0.32376085052E+02  0.41800000000E+01 0.  1.
        -11    1    4    4    0    0  0.13317830980E+03  0.92154237880E+02 -0.12767165674E+03  0.20622540507E+03  0.00000000000E+00 0.  1.
         11    1    4    4    0    0  0.68141445242E+01  0.42357984999E+02 -0.87346943645E+02  0.97314541682E+02  0.00000000000E+00 0. -1.
</event>
<event>
 8    1  0.3710605E-009  0.1151006E+03  0.7561462E-02  0.1251406E+00
          2   -1    0    0  501    0  0.00000000000E+00  0.00000000000E+00  0.80553556123E+03  0.80553556123E+03  0.00000000000E+00 0. -1.
         -2   -1    0    0    0  501 -0.00000000000E+00 -0.00000000000E+00 -0.27975746344E+02  0.27975746344E+02  0.00000000000E+00 0.  1.
         25    2    1    2    0    0  0.52163683151E+01  0.66354818275E+02  0.62962779245E+03  0.64537492308E+03  0.12508981536E+03 0.  0.
         23    2    1    2    0    0 -0.52163683151E+01 -0.66354818275E+02  0.14793202244E+03  0.18813638450E+03  0.95295558674E+02 0.  0.
          5    1    3    3  502    0  0.61851042997E+01  0.92382820725E+02  0.59321011408E+03  0.60040698940E+03  0.41800000000E+01 0. -1.
         -5    1    3    3    0  502 -0.96873598456E+00 -0.26028002450E+02  0.36417678369E+02  0.44967933672E+02  0.41800000000E+01 0. -1.
        -11    1    4    4    0    0  0.42799972951E+01  0.21930060511E+02  0.10924758002E+02  0.24871595612E+02  0.00000000000E+00 0.  1.
         11    1    4    4    0    0 -0.94963656102E+01 -0.88284878786E+02  0.13700726444E+03  0.16326478889E+03  0.00000000000E+00 0. -1.
</event>
<event>
 8    1  0.3710605E-009  0.9637287E+02  0.7561462E-02  0.1288114E+00
          2   -1    0    0  501    0  0.00000000000E+00  0.00000000000E+00  0.20385184179E+03  0.20385184179E+03  0.00000000000E+00 0. -1.
         -2   -1    0    0    0  501 -0.00000000000E+00 -0.00000000000E+00 -0.78931840077E+02  0.78931840077E+02  0.00000000000E+00 0.  1.
         25    2    1    2    0    0  0.14265132970E+02 -0.63326742461E+02  0.56459990763E+02  0.15181824115E+03  0.12508907810E+03 0.  0.
         23    2    1    2    0    0 -0.14265132970E+02  0.63326742461E+02  0.68460010947E+02  0.13096544071E+03  0.90837234839E+02 0.  0.
          5    1    3    3  502    0  0.41842916393E+02 -0.80756770129E+02  0.55635017648E+01  0.91219025021E+02  0.41800000000E+01 0.  1.
         -5    1    3    3    0  502 -0.27577783423E+02  0.17430027668E+02  0.50896488998E+02  0.60599216128E+02  0.41800000000E+01 0.  1.
        -11    1    4    4    0    0 -0.10869944861E+02  0.83057056169E+01  0.74283841590E+02  0.75532970076E+02  0.00000000000E+00 0. -1.
         11    1    4    4    0    0 -0.33951881094E+01  0.55021036844E+02 -0.58238306436E+01  0.55432470638E+02  0.00000000000E+00 0.  1.
</event>
<event>
 8    1  0.3710605E-009  0.1836652E+03  0.7561462E-02  0.1164302E+00
         -1   -1    0    0    0  501 -0.00000000000E+00  0.00000000000E+00  0.43234056477E+02  0.43234056477E+02  0.00000000000E+00 0.  1.
          1   -1    0    0  501    0  0.00000000000E+00 -0.00000000000E+00 -0.79116909814E+03  0.79116909814E+03  0.00000000000E+00 0. -1.
         25    2    1    2    0    0 -0.13290214399E+03  0.65742574178E+02 -0.37280978743E+03  0.42026154296E+03  0.12509021123E+03 0.  0.
         23    2    1    2    0    0  0.13290214399E+03 -0.65742574178E+02 -0.37512525423E+03  0.41414161166E+03  0.93857616696E+02 0.  0.
          5    1    3    3  502    0 -0.15724077208E+03  0.60949720955E+02 -0.32966205233E+03  0.37031617577E+03  0.41800000000E+01 0.  1.
         -5    1    3    3    0  502  0.24338628086E+02  0.47928532221E+01 -0.43147735099E+02  0.49945367186E+02  0.41800000000E+01 0.  1.
        -11    1    4    4    0    0  0.10040289850E+03 -0.88474345881E+02 -0.31336777066E+03  0.34074596343E+03  0.00000000000E+00 0. -1.
         11    1    4    4    0    0  0.32499245490E+02  0.22731771704E+02 -0.61757483566E+02  0.73395648227E+02  0.00000000000E+00 0.  1.
</event>
<event>
 8    1  0.3710605E-009  0.7804642E+02  0.7561462E-02  0.1334689E+00
         -1   -1    0    0    0  501 -0.00000000000E+00  0.00000000000E+00  0.40134248657E+03  0.40134248657E+03  0.00000000000E+00 0. -1.
          1   -1    0    0  501    0  0.00000000000E+00 -0.00000000000E+00 -0.34033530802E+02  0.34033530802E+02  0.00000000000E+00 0.  1.
         25    2    1    2    0    0 -0.10589612067E+02 -0.41199188503E+02  0.19082053264E+03  0.23209522828E+03  0.12508479642E+03 0.  0.
         23    2    1    2    0    0  0.10589612067E+02  0.41199188503E+02  0.17648842313E+03  0.20328078909E+03  0.91462575398E+02 0.  0.
          5    1    3    3  502    0  0.24703690610E+02 -0.34337434648E+02  0.19122937829E+03  0.19589660351E+03  0.41800000000E+01 0. -1.
         -5    1    3    3    0  502 -0.35293302677E+02 -0.68617538551E+01 -0.40884565293E+00  0.36198624761E+02  0.41800000000E+01 0. -1.
        -11    1    4    4    0    0  0.37512773967E+02  0.30767812689E+02  0.37485881863E+02  0.61311155978E+02  0.00000000000E+00 0.  1.
         11    1    4    4    0    0 -0.26923161900E+02  0.10431375814E+02  0.13900254127E+03  0.14196963312E+03  0.00000000000E+00 0. -1.
</event>
<event>
 8    1  0.3710605E-009  0.1190454E+03  0.7561462E-02  0.1244680E+00
         -1   -1    0    0    0  501 -0.00000000000E+00  0.00000000000E+00  0.19362262683E+03  0.19362262683E+03  0.00000000000E+00 0.  1.
          1   -1    0    0  501    0  0.00000000000E+00 -0.00000000000E+00 -0.75276240335E+02  0.75276240335E+02  0.00000000000E+00 0. -1.
         25    2    1    2    0    0  0.34668691623E+02 -0.40328904161E+02  0.54341614924E+02  0.14639103899E+03  0.12509590918E+03 0.  0.
         23    2    1    2    0    0 -0.34668691623E+02  0.40328904161E+02  0.64004771569E+02  0.12250782818E+03  0.89906721056E+02 0.  0.
          5    1    3    3  502    0 -0.38983438667E+02  0.16458559173E+02  0.21697663756E+02  0.47737340446E+02  0.41800000000E+01 0. -1.
         -5    1    3    3    0  502  0.73652130290E+02 -0.56787463334E+02  0.32643951168E+02  0.98653698542E+02  0.41800000000E+01 0. -1.
        -11    1    4    4    0    0 -0.61814530490E+02  0.11499891841E+02  0.50584387530E+02  0.80697360266E+02  0.00000000000E+00 0.  1.
         11    1    4    4    0    0  0.27145838867E+02  0.28829012320E+02  0.13420384039E+02  0.41810467910E+02  0.00000000000E+00 0. -1.
</event>
<event>
 8    1  0.3710605E-009  0.1124527E+03  0.7561462E-02  0.1256094E+00
          1   -1    0    0  501    0  0.00000000000E+00  0.00000000000E+00  0.32573065990E+03  0.32573065990E+03  0.00000000000E+00 0. -1.
         -1   -1    0    0    0  501 -0.00000000000E+00 -0.00000000000E+00 -0.60704323682E+02  0.60704323682E+02  0.00000000000E+00 0.  1.
         25    2    1    2    0    0 -0.31003992507E+02  0.19850874771E+02  0.25584657416E+03  0.28715907885E+03  0.12509021655E+03 0.  0.
         23    2    1    2    0    0  0.31003992507E+02 -0.19850874771E+02  0.91797620588E+01  0.99275904731E+02  0.91739481403E+02 0.  0.
          5    1    3    3  502    0 -0.33369701848E+02  0.71113531012E+02  0.14596489039E+03  0.16581282496E+03  0.41800000000E+01 0. -1.
         -5    1    3    3    0  502  0.23657093404E+01 -0.51262656241E+02  0.10988168378E+03  0.12134625390E+03  0.41800000000E+01 0. -1.
        -11    1    4    4    0    0  0.21323867803E+01 -0.51712596226E+02 -0.91071956420E+01  0.52551695446E+02  0.00000000000E+00 0.  1.
         11    1    4    4    0    0  0.28871605727E+02  0.31861721455E+02  0.18286957701E+02  0.46724209285E+02  0.00000000000E+00 0. -1.
</event>
<event>
 8    1  0.3710605E-009  0.1128288E+03  0.7561462E-02  0.1255419E+00
          2   -1    0    0  501    0  0.00000000000E+00  0.00000000000E+00  0.55769641626E+03  0.55769641626E+03  0.00000000000E+00 0. -1.
         -2   -1    0    0    0  501 -0.00000000000E+00 -0.00000000000E+00 -0.33299214115E+02  0.33299214115E+02  0.00000000000E+00 0.  1.
         25    2    1    2    0    0  0.51752781923E+02  0.45954318535E+02  0.38205435184E+03  0.40792590524E+03  0.12509143286E+03 0.  0.
         23    2    1    2    0    0 -0.51752781923E+02 -0.45954318535E+02  0.14234285030E+03  0.18306972513E+03  0.91993953063E+02 0.  0.
          5    1    3    3  502    0 -0.29354852377E+02 -0.55491626815E+01  0.19777193157E+03  0.20005926592E+03  0.41800000000E+01 0. -1.
         -5    1    3    3    0  502  0.81107634299E+02  0.51503481217E+02  0.18428242027E+03  0.20786663932E+03  0.41800000000E+01 0. -1.
        -11    1    4    4    0    0 -0.22903239997E+02 -0.62151395004E+02  0.44533122405E+02  0.79815745906E+02  0.00000000000E+00 0.  1.
         11    1    4    4    0    0 -0.28849541925E+02  0.16197076469E+02  0.97809727895E+02  0.10325397923E+03  0.00000000000E+00 0. -1.
</event>
<event>
 8    1  0.3710605E-009  0.1297243E+03  0.7561462E-02  0.1227865E+00
         -2   -1    0    0    0  501 -0.00000000000E+00  0.00000000000E+00  0.10741650997E+03  0.10741650997E+03  0.00000000000E+00 0.  1.
          2   -1    0    0  501    0  0.00000000000E+00 -0.00000000000E+00 -0.21219211182E+03  0.21219211182E+03  0.00000000000E+00 0. -1.
         25    2    1    2    0    0 -0.61176596017E+02  0.82042894795E+02 -0.22997666082E+02  0.16324834805E+03  0.12509003961E+03 0.  0.
         23    2    1    2    0    0  0.61176596017E+02 -0.82042894795E+02 -0.81777935763E+02  0.15636027374E+03  0.85365636755E+02 0.  0.
          5    1    3    3  502    0 -0.60954556540E+02  0.10695786408E+03  0.77867520318E+01  0.12342426244E+03  0.41800000000E+01 0. -1.
         -5    1    3    3    0  502 -0.22203947704E+00 -0.24914969286E+02 -0.30784418114E+02  0.39824085610E+02  0.41800000000E+01 0. -1.
        -11    1    4    4    0    0  0.60947714213E+02 -0.49647036258E+02 -0.12121393706E+02  0.79538545765E+02  0.00000000000E+00 0.  1.
         11    1    4    4    0    0  0.22888180427E+00 -0.32395858537E+02 -0.69656542056E+02  0.76821727971E+02  0.00000000000E+00 0. -1.
</event>
<event>
 8    1  0.3710605E-009  0.9336588E+02  0.7561462E-02  0.1294900E+00
         -3   -1    0    0    0  501 -0.00000000000E+00  0.00000000000E+00  0.44541221946E+03  0.44541221946E+03  0.00000000000E+00 0.  1.
          3   -1    0    0  501    0  0.00000000000E+00 -0.00000000000E+00 -0.54452305809E+02  0.54452305809E+02  0.00000000000E+00 0. -1.
         25    2    1    2    0    0  0.29419253612E+02 -0.62367585438E+02  0.34612768442E+03  0.37444195531E+03  0.12508875159E+03 0.  0.
         23    2    1    2    0    0 -0.29419253612E+02  0.62367585438E+02  0.44832229231E+02  0.12542256996E+03  0.94687296306E+02 0.  0.
          5    1    3    3  502    0  0.63488456408E+02 -0.31838203405E+02  0.30365535864E+03  0.31187899019E+03  0.41800000000E+01 0. -1.
         -5    1    3    3    0  502 -0.34069202797E+02 -0.30529382033E+02  0.42472325781E+02  0.62562965113E+02  0.41800000000E+01 0. -1.
        -11    1    4    4    0    0 -0.62979704696E+01  0.24346795510E+02  0.69943449531E+02  0.74327094763E+02  0.00000000000E+00 0.  1.
         11    1    4    4    0    0 -0.23121283142E+02  0.38020789929E+02 -0.25111220300E+02  0.51095475200E+02  0.00000000000E+00 0. -1.
</event>
<event>
 8    1  0.3710605E-009  0.1558953E+03  0.7561462E-02  0.1193410E+00
          1   -1    0    0  501    0  0.00000000000E+00  0.00000000000E+00  0.27993642211E+04  0.27993642211E+04  0.00000000000E+00 0. -1.
         -1   -1    0    0    0  501 -0.00000000000E+00 -0.00000000000E+00 -0.16067394550E+02  0.16067394550E+02  0.00000000000E+00 0.  1.
         25    2    1    2    0    0  0.33858590334E+02  0.11198978629E+03  0.23792742385E+04  0.23854312145E+04  0.12509220782E+03 0.  0.
         23    2    1    2    0    0 -0.33858590334E+02 -0.11198978629E+03  0.40402258802E+03  0.43000040118E+03  0.89319522012E+02 0.  0.
          5    1    3    3  502    0 -0.38274459483E+02  0.26123255338E+01  0.41631529557E+03  0.41810005527E+03  0.41800000000E+01 0.  1.
         -5    1    3    3    0  502  0.72133049817E+02  0.10937746076E+03  0.19629589429E+04  0.19673311592E+04  0.41800000000E+01 0.  1.
        -11    1    4    4    0    0 -0.30135689452E+02 -0.75562158907E-01  0.47017565721E+02  0.55846369396E+02  0.00000000000E+00 0.  1.
         11    1    4    4    0    0 -0.37229008816E+01 -0.11191422413E+03  0.35700502230E+03  0.37415403178E+03  0.00000000000E+00 0. -1.
</event>
<event>
 8    1  0.3710605E-009  0.9526246E+02  0.7561462E-02  0.1290586E+00
         -2   -1    0    0    0  501 -0.00000000000E+00  0.00000000000E+00  0.43866296522E+02  0.43866296522E+02  0.00000000000E+00 0. -1.
          2   -1    0    0  501    0  0.00000000000E+00 -0.00000000000E+00 -0.28269653245E+03  0.28269653245E+03  0.00000000000E+00 0.  1.
         25    2    1    2    0    0  0.64162787565E+01  0.21484535066E+02 -0.11592496948E+03  0.17201304989E+03  0.12508851628E+03 0.  0.
         23    2    1    2    0    0 -0.64162787565E+01 -0.21484535066E+02 -0.12290526645E+03  0.15454977908E+03  0.90978985557E+02 0.  0.
          5    1    3    3  502    0  0.12185066591E+02  0.69123361599E+02 -0.36753544895E+02  0.79339841372E+02  0.41800000000E+01 0. -1.
         -5    1    3    3    0  502 -0.57687878347E+01 -0.47638826534E+02 -0.79171424587E+02  0.92673208522E+02  0.41800000000E+01 0. -1.
        -11    1    4    4    0    0 -0.32135280160E+02  0.77995166300E+01 -0.91614610214E+01  0.34313861028E+02  0.00000000000E+00 0. -1.
         11    1    4    4    0    0  0.25719001403E+02 -0.29284051696E+02 -0.11374380543E+03  0.12023591805E+03  0.00000000000E+00 0.  1.
</event>
<event>
 8    1  0.3710605E-009  0.1558160E+03  0.7561462E-02  0.1193503E+00
          2   -1    0    0  501    0  0.00000000000E+00  0.00000000000E+00  0.59567444215E+03  0.59567444215E+03  0.00000000000E+00 0. -1.
         -2   -1    0    0    0  501 -0.00000000000E+00 -0.00000000000E+00 -0.48381329051E+02  0.48381329051E+02  0.00000000000E+00 0.  1.
         25    2    1    2    0    0  0.51036266302E+02  0.11667981699E+03  0.34755756476E+03  0.39072182026E+03  0.12509356433E+03 0.  0.
         23    2    1    2    0    0 -0.51036266302E+02 -0.11667981699E+03  0.19973554834E+03  0.25333395094E+03  0.89804906649E+02 0.  0.
          5    1    3    3  502    0  0.91849153324E+02  0.67503091109E+02  0.20969116100E+03  0.23870649274E+03  0.41800000000E+01 0.  1.
         -5    1    3    3    0  502 -0.40812887022E+02  0.49176725878E+02  0.13786640375E+03  0.15201532751E+03  0.41800000000E+01 0.  1.
        -11    1    4    4    0    0 -0.55118535769E+02 -0.83220189538E+02  0.77034591346E+02  0.12608719680E+03  0.00000000000E+00 0.  1.
         11    1    4    4    0    0  0.40822694672E+01 -0.33459627449E+02  0.12270095699E+03  0.12724675414E+03  0.00000000000E+00 0. -1.
</event>
<event>
 8    1  0.3710605E-009  0.1022039E+03  0.7561462E-02  0.1275729E+00
         -2   -1    0    0    0  501 -0.00000000000E+00  0.00000000000E+00  0.30028793287E+02  0.30028793287E+02  0.00000000000E+00 0.  1.
          2   -1    0    0  501    0  0.00000000000E+00 -0.00000000000E+00 -0.47783662647E+03  0.47783662647E+03  0.00000000000E+00 0. -1.
         25    2    1    2    0    0 -0.27878325409E+02 -0.40113732726E+02 -0.23230385445E+03  0.26832638128E+03  0.12509058125E+03 0.  0.
         23    2    1    2    0    0  0.27878325409E+02  0.40113732726E+02 -0.21550397873E+03  0.23953903847E+03  0.92469851971E+02 0.  0.
          5    1    3    3  502    0 -0.61990245651E+02 -0.62537262938E+02 -0.12106131282E+03  0.14975651463E+03  0.41800000000E+01 0.  1.
         -5    1    3    3    0  502  0.34111920242E+02  0.22423530212E+02 -0.11124254163E+03  0.11856986665E+03  0.41800000000E+01 0.  1.
        -11    1    4    4    0    0  0.38327190526E+02  0.50836539410E+01 -0.19250829526E+03  0.19635238937E+03  0.00000000000E+00 0. -1.
         11    1    4    4    0    0 -0.10448865117E+02  0.35030078785E+02 -0.22995683473E+02  0.43186649098E+02  0.00000000000E+00 0.  1.
</event>
<event>
 8    1  0.3710605E-009  0.1184934E+03  0.7561462E-02  0.1245603E+00
         -2   -1    0    0    0  501 -0.00000000000E+00  0.00000000000E+00  0.33290165165E+02  0.33290165165E+02  0.00000000000E+00 0.  1.
          2   -1    0    0  501    0  0.00000000000E+00 -0.00000000000E+00 -0.54677330135E+03  0.54677330135E+03  0.00000000000E+00 0. -1.
         25    2    1    2    0    0 -0.53804509722E+02  0.26263970574E+02 -0.16793360398E+03  0.21778522838E+03  0.12507593269E+03 0.  0.
         23    2    1    2    0    0  0.53804509722E+02 -0.26263970574E+02 -0.34554953220E+03  0.36227823813E+03  0.90864301041E+02 0.  0.
          5    1    3    3  502    0 -0.51153073365E+02  0.74165081072E+02 -0.11640289700E+03  0.14725557034E+03  0.41800000000E+01 0. -1.
         -5    1    3    3    0  502 -0.26514363564E+01 -0.47901110498E+02 -0.51530706977E+02  0.70529658040E+02  0.41800000000E+01 0. -1.
        -11    1    4    4    0    0  0.14145989855E+02 -0.50309231032E+02 -0.10486146590E+03  0.11716251443E+03  0.00000000000E+00 0.  1.
         11    1    4    4    0    0  0.39658519867E+02  0.24045260458E+02 -0.24068806630E+03  0.24511572370E+03  0.00000000000E+00 0. -1.
</event>
<event>
 8    1  0.3710605E-009  0.1029386E+03  0.7561462E-02  0.1274235E+00
         -3   -1    0    0    0  501 -0.00000000000E+00  0.00000000000E+00  0.96442643981E+02  0.96442643981E+02  0.00000000000E+00 0.  1.
          3   -1    0    0  501    0  0.00000000000E+00 -0.00000000000E+00 -0.15622100033E+03  0.15622100033E+03  0.00000000000E+00 0. -1.
         25    2    1    2    0    0 -0.44919375116E+02  0.61754758596E+01 -0.70378557872E+02  0.15052002426E+03  0.12508896646E+03 0.  0.
         23    2    1    2    0    0  0.44919375116E+02 -0.61754758596E+01  0.10600201524E+02  0.10214362005E+03  0.90912419847E+02 0.  0.
          5    1    3    3  502    0  0.36812038968E+02 -0.20490090430E+02 -0.42638736187E+02  0.60087471594E+02  0.41800000000E+01 0.  1.
         -5    1    3    3    0  502 -0.81731414084E+02  0.26665566290E+02 -0.27739821685E+02  0.90432552662E+02  0.41800000000E+01 0.  1.
        -11    1    4    4    0    0 -0.11244360883E+02  0.13850120095E+02  0.33754344675E+02  0.38178754075E+02  0.00000000000E+00 0.  1.
         11    1    4    4    0    0  0.56163735998E+02 -0.20025595955E+02 -0.23154143150E+02  0.63964865979E+02  0.00000000000E+00 0. -1.
</event>
<event>
 8    1  0.3710605E-009  0.9713957E+02  0.7561462E-02  0.1286429E+00
          1   -1    0    0  501    0  0.00000000000E+00  0.00000000000E+00  0.85024757975E+03  0.85024757975E+03  0.00000000000E+00 0. -1.
         -1   -1    0    0    0  501 -0.00000000000E+00 -0.00000000000E+00 -0.14816156803E+02  0.14816156803E+02  0.00000000000E+00 0.  1.
         25    2    1    2    0    0 -0.73451993760E+01  0.64182083009E+01  0.60632227116E+03  0.61916881776E+03  0.12509269777E+03 0.  0.
         23    2    1    2    0    0  0.73451993760E+01 -0.64182083009E+01  0.22910915178E+03  0.24589491878E+03  0.88759012508E+02 0.  0.
          5    1    3    3  502    0  0.18600273405E+02 -0.53475619677E+02  0.21253966463E+03  0.21999134872E+03  0.41800000000E+01 0.  1.
         -5    1    3    3    0  502 -0.25945472781E+02  0.59893827978E+02  0.39378260653E+03  0.39917746905E+03  0.41800000000E+01 0.  1.
        -11    1    4    4    0    0 -0.10765694034E+02  0.29757582506E+02  0.33252520764E+02  0.45903638437E+02  0.00000000000E+00 0.  1.
         11    1    4    4    0    0  0.18110893410E+02 -0.36175790807E+02  0.19585663102E+03  0.19999128035E+03  0.00000000000E+00 0. -1.
</event>
<event>
 8    1  0.3710605E-009  0.1150792E+03  0.7561462E-02  0.1251443E+00
         -1   -1    0    0    0  501 -0.00000000000E+00  0.00000000000E+00  0.99827637650E+02  0.99827637650E+02  0.00000000000E+00 0.  1.
          1   -1    0    0  501    0  0.00000000000E+00 -0.00000000000E+00 -0.31971265783E+03  0.31971265783E+03  0.00000000000E+00 0. -1.
         25    2    1    2    0    0  0.30569883953E+02  0.71403414760E+02  0.22222334651E+02  0.14890896020E+03  0.12508829212E+03 0.  0.
         23    2    1    2    0    0 -0.30569883953E+02 -0.71403414760E+02 -0.24210735483E+03  0.27063133528E+03  0.92695107371E+02 0.  0.
          5    1    3    3  502    0 -0.46971263032E+02  0.45100844923E+02  0.94794172738E+01  0.65937224050E+02  0.41800000000E+01 0.  1.
         -5    1    3    3    0  502  0.77541146985E+02  0.26302569837E+02  0.12742917377E+02  0.82971736145E+02  0.41800000000E+01 0.  1.
        -11    1    4    4    0    0  0.20123304078E+01 -0.30768375951E+02 -0.95006144247E+01  0.32264595252E+02  0.00000000000E+00 0.  1.
         11    1    4    4    0    0 -0.32582214360E+02 -0.40635038810E+02 -0.23260674040E+03  0.23836674003E+03  0.00000000000E+00 0. -1.
</event>
<event>
 8    1  0.3710605E-009  0.9336458E+02  0.7561462E-02  0.1294903E+00
          2   -1    0    0  501    0  0.00000000000E+00  0.00000000000E+00  0.23548874776E+03  0.23548874776E+03  0.00000000000E+00 0. -1.
         -2   -1    0    0    0  501 -0.00000000000E+00 -0.00000000000E+00 -0.97635357438E+02  0.97635357438E+02  0.00000000000E+00 0.  1.
         25    2    1    2    0    0 -0.62515606990E+02 -0.39189651277E+02 -0.89451609841E+01  0.14550357801E+03  0.12508895005E+03 0.  0.
         23    2    1    2    0    0  0.62515606990E+02  0.39189651277E+02  0.14679855131E+03  0.18762052719E+03  0.90595903174E+02 0.  0.
          5    1    3    3  502    0 -0.32716853533E+02 -0.41770069749E+02 -0.63678258999E+02  0.82991109771E+02  0.41800000000E+01 0.  1.
         -5    1    3    3    0  502 -0.29798753457E+02  0.25804184725E+01  0.54733098015E+02  0.62512468239E+02  0.41800000000E+01 0.  1.
        -11    1    4    4    0    0  0.93781039367E+01  0.48465910736E+02  0.27065237246E+02  0.56297605669E+02  0.00000000000E+00 0.  1.
         11    1    4    4    0    0  0.53137503054E+02 -0.92762594588E+01  0.11973331406E+03  0.13132292152E+03  0.00000000000E+00 0. -1.
</event>
<event>
 8    1  0.3710605E-009  0.9854078E+02  0.7561462E-02  0.1283395E+00
         -1   -1    0    0    0  501 -0.00000000000E+00  0.00000000000E+00  0.23597510994E+03  0.23597510994E+03  0.00000000000E+00 0.  1.
          1   -1    0    0  501    0  0.00000000000E+00 -0.00000000000E+00 -0.58670889075E+02  0.58670889075E+02  0.00000000000E+00 0. -1.
         25    2    1    2    0    0  0.32977151928E+02 -0.12810383918E+02  0.63249442178E+02  0.14456330731E+03  0.12508580815E+03 0.  0.
         23    2    1    2    0    0 -0.32977151928E+02  0.12810383918E+02  0.11405477869E+03  0.15008269170E+03  0.90910523712E+02 0.  0.
          5    1    3    3  502    0  0.34480518976E+02  0.43821478003E+02 -0.45619198292E+01  0.56102688311E+02  0.41800000000E+01 0. -1.
         -5    1    3    3    0  502 -0.15033670480E+01 -0.56631861921E+02  0.67811362008E+02  0.88460619003E+02  0.41800000000E+01 0. -1.
        -11    1    4    4    0    0  0.22087547324E+02  0.18752570893E+02  0.79953690151E+02  0.85041820481E+02  0.00000000000E+00 0.  1.
         11    1    4    4    0    0 -0.55064699252E+02 -0.59421869754E+01  0.34101088537E+02  0.65040871221E+02  0.00000000000E+00 0. -1.
</event>
<event>
 8    1  0.3710605E-009  0.1132653E+03  0.7561462E-02  0.1254640E+00
         -2   -1    0    0    0  501 -0.00000000000E+00  0.00000000000E+00  0.85064498809E+02  0.85064498809E+02  0.00000000000E+00 0.  1.
          2   -1    0    0  501    0  0.00000000000E+00 -0.00000000000E+00 -0.35417378655E+03  0.35417378655E+03  0.00000000000E+00 0. -1.
         25    2    1    2    0    0  0.71738613930E+02  0.47070987519E+02 -0.27812165163E+03  0.31680342827E+03  0.12510256778E+03 0.  0.
         23    2    1    2    0    0 -0.71738613930E+02 -0.47070987519E+02  0.90123638857E+01  0.12243485709E+03  0.86873269383E+02 0.  0.
          5    1    3    3  502    0 -0.64957804656E+01  0.51249509661E+02 -0.38215842320E+02  0.64394335221E+02  0.41800000000E+01 0.  1.
         -5    1    3    3    0  502  0.78234394396E+02 -0.41785221417E+01 -0.23990580931E+03  0.25240909305E+03  0.41800000000E+01 0.  1.
        -11    1    4    4    0    0 -0.35981301668E+02  0.14038156134E+01  0.40724556576E+02  0.54360962798E+02  0.00000000000E+00 0.  1.
         11    1    4    4    0    0 -0.35757312262E+02 -0.48474803133E+02 -0.31712192690E+02  0.68073894293E+02  0.00000000000E+00 0. -1.
</event>
<event>
 8    1  0.3710605E-009  0.1226564E+03  0.7561462E-02  0.1238778E+00
         -1   -1    0    0    0  501 -0.00000000000E+00  0.00000000000E+00  0.11337944281E+04  0.11337944281E+04  0.00000000000E+00 0.  1.
          1   -1    0    0  501    0  0.00000000000E+00 -0.00000000000E+00 -0.15870418278E+02  0.15870418278E+02  0.00000000000E+00 0. -1.
         25    2    1    2    0    0 -0.27667161661E+02 -0.73879625849E+02  0.64129230482E+03  0.65812249044E+03  0.12508285755E+03 0.  0.
         23    2    1    2    0    0  0.27667161661E+02  0.73879625849E+02  0.47663170499E+03  0.49154235593E+03  0.90622483507E+02 0.  0.
          5    1    3    3  502    0 -0.61958281344E+02 -0.71984951744E+02  0.29122374122E+03  0.30634849723E+03  0.41800000000E+01 0. -1.
         -5    1    3    3    0  502  0.34291119683E+02 -0.18946741042E+01  0.35006856360E+03  0.35177399321E+03  0.41800000000E+01 0. -1.
        -11    1    4    4    0    0  0.48536375501E+02  0.11515795390E+02  0.27407371078E+03  0.27857636696E+03  0.00000000000E+00 0. -1.
         11    1    4    4    0    0 -0.20869213841E+02  0.62363830458E+02  0.20255799421E+03  0.21296598896E+03  0.00000000000E+00 0.  1.
</event>
<event>
 8    1  0.3710605E-009  0.1437879E+03  0.7561462E-02  0.1208321E+00
          2   -1    0    0  501    0  0.00000000000E+00  0.00000000000E+00  0.78354201717E+03  0.78354201717E+03  0.00000000000E+00 0. -1.
         -2   -1    0    0    0  501 -0.00000000000E+00 -0.00000000000E+00 -0.42881769837E+02  0.42881769837E+02  0.00000000000E+00 0.  1.
         25    2    1    2    0    0 -0.12872700605E+03  0.60732450285E+02  0.30451285649E+03  0.35865836737E+03  0.12509465260E+03 0.  0.
         23    2    1    2    0    0  0.12872700605E+03 -0.60732450285E+02  0.43614739084E+03  0.46776541964E+03  0.91218795578E+02 0.  0.
          5    1    3    3  502    0 -0.17406151138E+02  0.19197765060E+02 -0.53336327628E+01  0.26785225763E+02  0.41800000000E+01 0.  1.
         -5    1    3    3    0  502 -0.11132085492E+03  0.41534685225E+02  0.30984648926E+03  0.33187314161E+03  0.41800000000E+01 0.  1.
        -11    1    4    4    0    0  0.50872034503E+02 -0.26927446075E+02  0.31270458377E+03  0.31795787135E+03  0.00000000000E+00 0. -1.
         11    1    4    4    0    0  0.77854971551E+02 -0.33805004210E+02  0.12344280707E+03  0.14980754829E+03  0.00000000000E+00 0.  1.
</event>
<event>
 8    1  0.3710605E-009  0.1030658E+03  0.7561462E-02  0.1273978E+00
          2   -1    0    0  501    0  0.00000000000E+00  0.00000000000E+00  0.29540782399E+03  0.29540782399E+03  0.00000000000E+00 0. -1.
         -2   -1    0    0    0  501 -0.00000000000E+00 -0.00000000000E+00 -0.40884090645E+02  0.40884090645E+02  0.00000000000E+00 0.  1.
         25    2    1    2    0    0  0.10635226645E+02 -0.20389592944E+02  0.14032614584E+03  0.18938301811E+03  0.12508259988E+03 0.  0.
         23    2    1    2    0    0 -0.10635226645E+02  0.20389592944E+02  0.11419758750E+03  0.14690889653E+03  0.89511403419E+02 0.  0.
          5    1    3    3  502    0 -0.20158735258E+02 -0.60752228993E+02  0.36672967942E+02  0.73889017536E+02  0.41800000000E+01 0.  1.
         -5    1    3    3    0  502  0.30793961902E+02  0.40362636049E+02  0.10365317790E+03  0.11549400057E+03  0.41800000000E+01 0.  1.
        -11    1    4    4    0    0 -0.29535960427E+02  0.48729135573E+02  0.83265919830E+02  0.10089655602E+03  0.00000000000E+00 0. -1.
         11    1    4    4    0    0  0.18900733782E+02 -0.28339542630E+02  0.30931667670E+02  0.46012340505E+02  0.00000000000E+00 0.  1.
</event>
<event>
 8    1  0.3710605E-009  0.8034498E+02  0.7561462E-02  0.1328075E+00
          1   -1    0    0  501    0  0.00000000000E+00  0.00000000000E+00  0.16071981969E+04  0.16071981969E+04  0.00000000000E+00 0. -1.
         -1   -1    0    0    0  501 -0.00000000000E+00 -0.00000000000E+00 -0.85125944409E+01  0.85125944409E+01  0.00000000000E+00 0.  1.
         25    2    1    2    0    0  0.19995190368E+02 -0.21303564147E+02  0.11296060994E+04  0.11368867626E+04  0.12509165275E+03 0.  0.
         23    2    1    2    0    0 -0.19995190368E+02  0.21303564147E+02  0.46907950308E+03  0.47882402881E+03  0.91559930483E+02 0.  0.
          5    1    3    3  502    0 -0.20556064510E+02 -0.63967559452E+01  0.99931400409E+03  0.99955461154E+03  0.41800000000E+01 0.  1.
         -5    1    3    3    0  502  0.40551254877E+02 -0.14906808202E+02  0.13029209531E+03  0.13733215102E+03  0.41800000000E+01 0.  1.
        -11    1    4    4    0    0 -0.46761483660E+02 -0.16015459425E+02  0.27295401697E+03  0.27739327078E+03  0.00000000000E+00 0.  1.
         11    1    4    4    0    0  0.26766293293E+02  0.37319023572E+02  0.19612548611E+03  0.20143075803E+03  0.00000000000E+00 0. -1.
</event>
<event>
 8    1  0.3710605E-009  0.6323488E+02  0.7561462E-02  0.1384737E+00
          1   -1    0    0  501    0  0.00000000000E+00  0.00000000000E+00  0.10518274784E+03  0.10518274784E+03  0.00000000000E+00 0. -1.
         -1   -1    0    0    0  501 -0.00000000000E+00 -0.00000000000E+00 -0.14443274717E+03  0.14443274717E+03  0.00000000000E+00 0.  1.
         25    2    1    2    0    0  0.15493519127E+02  0.55332673855E+02 -0.13802306606E+02  0.13834572865E+03  0.12508910039E+03 0.  0.
         23    2    1    2    0    0 -0.15493519127E+02 -0.55332673855E+02 -0.25447692720E+02  0.11126976635E+03  0.91823863503E+02 0.  0.
          5    1    3    3  502    0  0.92766206880E+01  0.17300283229E+02  0.55456761533E+02  0.58976947114E+02  0.41800000000E+01 0.  1.
         -5    1    3    3    0  502  0.62168984387E+01  0.38032390626E+02 -0.69259068139E+02  0.79368781536E+02  0.41800000000E+01 0.  1.
        -11    1    4    4    0    0 -0.24177613665E+02 -0.20381658268E+02 -0.55822478668E+02  0.64156980298E+02  0.00000000000E+00 0.  1.
         11    1    4    4    0    0  0.86840945383E+01 -0.34951015587E+02  0.30374785948E+02  0.47112786055E+02  0.00000000000E+00 0. -1.
</event>
<event>
 8    1  0.3710605E-009  0.1245892E+03  0.7561462E-02  0.1235713E+00
          1   -1    0    0  501    0  0.00000000000E+00  0.00000000000E+00  0.29906293348E+03  0.29906293348E+03  0.00000000000E+00 0. -1.
         -1   -1    0    0    0  501 -0.00000000000E+00 -0.00000000000E+00 -0.72792393320E+02  0.72792393320E+02  0.00000000000E+00 0.  1.
         25    2    1    2    0    0  0.82671083718E+00  0.64920688951E+02  0.26959307887E+02  0.14349199038E+03  0.12509103771E+03 0.  0.
         23    2    1    2    0    0 -0.82671083718E+00 -0.64920688951E+02  0.19931123228E+03  0.22836333642E+03  0.90606107998E+02 0.  0.
          5    1    3    3  502    0 -0.30516485688E+02  0.92568616574E+02  0.95539798913E+01  0.98025280438E+02  0.41800000000E+01 0. -1.
         -5    1    3    3    0  502  0.31343196525E+02 -0.27647927623E+02  0.17405327996E+02  0.45466709941E+02  0.41800000000E+01 0. -1.
        -11    1    4    4    0    0 -0.35864502981E+02 -0.65385459771E+02  0.15378572847E+03  0.17091392923E+03  0.00000000000E+00 0.  1.
         11    1    4    4    0    0  0.35037792143E+02  0.46477081929E+00  0.45525503801E+02  0.57449407191E+02  0.00000000000E+00 0. -1.
</event>
<event>
 8    1  0.3710605E-009  0.1143881E+03  0.7561462E-02  0.1252653E+00
          2   -1    0    0  501    0  0.00000000000E+00  0.00000000000E+00  0.67357554498E+03  0.67357554498E+03  0.00000000000E+00 0. -1.
         -2   -1    0    0    0  501 -0.00000000000E+00 -0.00000000000E+00 -0.31898342998E+02  0.31898342998E+02  0.00000000000E+00 0.  1.
         25    2    1    2    0    0 -0.18387063929E+02 -0.90146612178E+02  0.42905600891E+03  0.45629062916E+03  0.12509030206E+03 0.  0.
         23    2    1    2    0    0  0.18387063929E+02  0.90146612178E+02  0.21262119307E+03  0.24918325882E+03  0.91760715591E+02 0.  0.
          5    1    3    3  502    0 -0.29495266533E+02 -0.10902521875E+03  0.23294263381E+03  0.25891352247E+03  0.41800000000E+01 0.  1.
         -5    1    3    3    0  502  0.11108202604E+02  0.18878606574E+02  0.19611337510E+03  0.19737710669E+03  0.41800000000E+01 0.  1.
        -11    1    4    4    0    0  0.40853992974E+01  0.59448756274E+02  0.36594762243E+02  0.69928690347E+02  0.00000000000E+00 0.  1.
         11    1    4    4    0    0  0.14301664631E+02  0.30697855904E+02  0.17602643083E+03  0.17925456848E+03  0.00000000000E+00 0. -1.
</event>
<event>
 8    1  0.3710605E-009  0.1414398E+03  0.7561462E-02  0.1211405E+00
         -1   -1    0    0    0  501 -0.00000000000E+00  0.00000000000E+00  0.11868953791E+03  0.11868953791E+03  0.00000000000E+00 0.  1.
          1   -1    0    0  501    0  0.00000000000E+00 -0.00000000000E+00 -0.19231624918E+03  0.19231624918E+03  0.00000000000E+00 0. -1.
         25    2    1    2    0    0 -0.96027236901E+02 -0.30965199268E+02 -0.70373129971E+02  0.17544103922E+03  0.12508839686E+03 0.  0.
         23    2    1    2    0    0  0.96027236901E+02  0.30965199268E+02 -0.32535812997E+01  0.13556474787E+03  0.90482823126E+02 0.  0.
          5    1    3    3  502    0 -0.26141988067E+02 -0.73879510350E+02 -0.31108951420E+02  0.84420523856E+02  0.41800000000E+01 0.  1.
         -5    1    3    3    0  502 -0.69885248834E+02  0.42914311082E+02 -0.39264178551E+02  0.91020515366E+02  0.41800000000E+01 0.  1.
        -11    1    4    4    0    0 -0.37517154369E+00  0.25737002957E+02  0.24057482324E+02  0.35232038412E+02  0.00000000000E+00 0.  1.
         11    1    4    4    0    0  0.96402408444E+02  0.52281963112E+01 -0.27311063624E+02  0.10033270946E+03  0.00000000000E+00 0. -1.
</event>
<event>
 8    1  0.3710605E-009  0.1343785E+03  0.7561462E-02  0.1221100E+00
          1   -1    0    0  501    0  0.00000000000E+00  0.00000000000E+00  0.68762516426E+02  0.68762516426E+02  0.00000000000E+00 0. -1.
         -1   -1    0    0    0  501 -0.00000000000E+00 -0.00000000000E+00 -0.33282417980E+03  0.33282417980E+03  0.00000000000E+00 0.  1.
         25    2    1    2    0    0  0.62623328173E+02  0.81432548799E+02 -0.17471403031E+03  0.23816941160E+03  0.12508690978E+03 0.  0.
         23    2    1    2    0    0 -0.62623328173E+02 -0.81432548799E+02 -0.89347633056E+02  0.16341728462E+03  0.90384003809E+02 0.  0.
          5    1    3    3  502    0  0.23021790523E+02 -0.31552285947E+02 -0.25570089184E+02  0.46870581907E+02  0.41800000000E+01 0. -1.
         -5    1    3    3    0  502  0.39601537650E+02  0.11298483475E+03 -0.14914394113E+03  0.19129882969E+03  0.41800000000E+01 0. -1.
        -11    1    4    4    0    0 -0.81203160963E+01 -0.41050341602E+02 -0.85836808206E+02  0.95493600425E+02  0.00000000000E+00 0.  1.
         11    1    4    4    0    0 -0.54503012077E+02 -0.40382207197E+02 -0.35108248499E+01  0.67923684195E+02  0.00000000000E+00 0. -1.
</event>
<event>
 8    1  0.3710605E-009  0.1967644E+03  0.7561462E-02  0.1152498E+00
          2   -1    0    0  501    0  0.00000000000E+00  0.00000000000E+00  0.14055317266E+03  0.14055317266E+03  0.00000000000E+00 0. -1.
         -2   -1    0    0    0  501 -0.00000000000E+00 -0.00000000000E+00 -0.30949667988E+03  0.30949667988E+03  0.00000000000E+00 0.  1.
         25    2    1    2    0    0  0.12511762319E+03 -0.12226770294E+03 -0.12233010169E+03  0.24742080198E+03  0.12509431905E+03 0.  0.
         23    2    1    2    0    0 -0.12511762319E+03  0.12226770294E+03 -0.46613405531E+02  0.20262905055E+03  0.91005009408E+02 0.  0.
          5    1    3    3  502    0  0.32395430337E+02 -0.11502479194E+03 -0.86871950933E+02  0.14779842667E+03  0.41800000000E+01 0. -1.
         -5    1    3    3    0  502  0.92722192853E+02 -0.72429109986E+01 -0.35458150758E+02  0.99622375310E+02  0.41800000000E+01 0. -1.
        -11    1    4    4    0    0 -0.74091456417E+02  0.10173463549E+03  0.66941361456E+01  0.12603289821E+03  0.00000000000E+00 0. -1.
         11    1    4    4    0    0 -0.51026166773E+02  0.20533067454E+02 -0.53307541676E+02  0.76596152346E+02  0.00000000000E+00 0.  1.
</event>
<event>
 8    1  0.3710605E-009  0.3233008E+03  0.7561462E-02  0.1074140E+00
         -2   -1    0    0    0  501 -0.00000000000E+00  0.00000000000E+00  0.10121771133E+03  0.10121771133E+03  0.00000000000E+00 0.  1.
          2   -1    0    0  501    0  0.00000000000E+00 -0.00000000000E+00 -0.10850162276E+04  0.10850162276E+04  0.00000000000E+00 0. -1.
         25    2    1    2    0    0  0.29735047244E+03  0.86789055780E+02 -0.58587664544E+03  0.67442467349E+03  0.12509017900E+03 0.  0.
         23    2    1    2    0    0 -0.29735047244E+03 -0.86789055780E+02 -0.39792187084E+03  0.51180926544E+03  0.87505801150E+02 0.  0.
          5    1    3    3  502    0  0.12423214813E+02  0.38527506812E+02 -0.41740689448E+02  0.58296334388E+02  0.41800000000E+01 0.  1.
         -5    1    3    3    0  502  0.28492725762E+03  0.48261548968E+02 -0.54413595599E+03  0.61612833910E+03  0.41800000000E+01 0.  1.
        -11    1    4    4    0    0 -0.16055854288E+03 -0.12046525206E+02 -0.15719960795E+03  0.22502417915E+03  0.00000000000E+00 0.  1.
         11    1    4    4    0    0 -0.13679192955E+03 -0.74742530573E+02 -0.24072226288E+03  0.28678508628E+03  0.00000000000E+00 0. -1.
</event>
<event>
 8    1  0.3710605E-009  0.8620292E+02  0.7561462E-02  0.1312316E+00
         -2   -1    0    0    0  501 -0.00000000000E+00  0.00000000000E+00  0.30389119832E+02  0.30389119832E+02  0.00000000000E+00 0.  1.
          2   -1    0    0  501    0  0.00000000000E+00 -0.00000000000E+00 -0.45613494490E+03  0.45613494490E+03  0.00000000000E+00 0. -1.
         25    2    1    2    0    0 -0.12349013078E+02 -0.36267947053E+02 -0.20274168563E+03  0.24128776657E+03  0.12509089934E+03 0.  0.
         23    2    1    2    0    0  0.12349013078E+02  0.36267947053E+02 -0.22300413944E+03  0.24523629816E+03  0.94562855401E+02 0.  0.
          5    1    3    3  502    0 -0.20518674846E+02  0.32629539834E+02 -0.15842510181E+02  0.41882698289E+02  0.41800000000E+01 0. -1.
         -5    1    3    3    0  502  0.81696617672E+01 -0.68897486887E+02 -0.18689917545E+03  0.19940506828E+03  0.41800000000E+01 0. -1.
        -11    1    4    4    0    0  0.18214148862E+02 -0.76976756647E+01 -0.20566230023E+01  0.19880621911E+02  0.00000000000E+00 0.  1.
         11    1    4    4    0    0 -0.58651357834E+01  0.43965622718E+02 -0.22094751644E+03  0.22535567625E+03  0.00000000000E+00 0. -1.
</event>
<event>
 8    1  0.3710605E-009  0.1259668E+03  0.7561462E-02  0.1233566E+00
         -1   -1    0    0    0  501 -0.00000000000E+00  0.00000000000E+00  0.11051023185E+03  0.11051023185E+03  0.00000000000E+00 0.  1.
          1   -1    0    0  501    0  0.00000000000E+00 -0.00000000000E+00 -0.16306377265E+03  0.16306377265E+03  0.00000000000E+00 0. -1.
         25    2    1    2    0    0 -0.10800433760E+02  0.66019616008E+02 -0.49624996976E+02  0.15027481301E+03  0.12507853547E+03 0.  0.
         23    2    1    2    0    0  0.10800433760E+02 -0.66019616008E+02 -0.29285438171E+01  0.12329919149E+03  0.10353200078E+03 0.  0.
          5    1    3    3  502    0 -0.16089708971E+02  0.96463715346E+02 -0.62934381864E+02  0.11637154263E+03  0.41800000000E+01 0.  1.
         -5    1    3    3    0  502  0.52892752107E+01 -0.30444099338E+02  0.13309384888E+02  0.33903270385E+02  0.41800000000E+01 0.  1.
        -11    1    4    4    0    0 -0.37335322791E+02 -0.64715562970E+02 -0.66126392560E+01  0.75005049272E+02  0.00000000000E+00 0. -1.
         11    1    4    4    0    0  0.48135756551E+02 -0.13040530384E+01  0.36840954390E+01  0.48294142215E+02  0.00000000000E+00 0.  1.
</event>
<event>
 8    1  0.3710605E-009  0.9125135E+02  0.7561462E-02  0.1299849E+00
          1   -1    0    0  501    0  0.00000000000E+00  0.00000000000E+00  0.65275294266E+03  0.65275294266E+03  0.00000000000E+00 0. -1.
         -1   -1    0    0    0  501 -0.00000000000E+00 -0.00000000000E+00 -0.18553048713E+02  0.18553048713E+02  0.00000000000E+00 0.  1.
         25    2    1    2    0    0  0.17763381231E+02 -0.37664074002E+01  0.36670074206E+03  0.38787490660E+03  0.12509110843E+03 0.  0.
         23    2    1    2    0    0 -0.17763381231E+02  0.37664074002E+01  0.26749915189E+03  0.28343108477E+03  0.91911152838E+02 0.  0.
          5    1    3    3  502    0 -0.14251264211E+02 -0.39025422809E+02  0.31382451653E+03  0.31659024264E+03  0.41800000000E+01 0.  1.
         -5    1    3    3    0  502  0.32014645442E+02  0.35259015409E+02  0.52876225526E+02  0.71284663963E+02  0.41800000000E+01 0.  1.
        -11    1    4    4    0    0 -0.21932309053E+02 -0.41788061437E+02  0.15368258904E+03  0.16076568798E+03  0.00000000000E+00 0. -1.
         11    1    4    4    0    0  0.41689278220E+01  0.45554468837E+02  0.11381656285E+03  0.12266539679E+03  0.00000000000E+00 0.  1.
</event>
<event>
 8    1  0.3710605E-009  0.2575429E+03  0.7561462E-02  0.1108629E+00
          2   -1    0    0  501    0  0.00000000000E+00  0.00000000000E+00  0.16730764293E+04  0.16730764293E+04  0.00000000000E+00 0. -1.
         -2   -1    0    0    0  501 -0.00000000000E+00 -0.00000000000E+00 -0.76675715056E+02  0.76675715056E+02  0.00000000000E+00 0.  1.
         25    2    1    2    0    0  0.24940738934E+03 -0.61255193454E+02  0.26130296144E+03  0.38714985468E+03  0.12509807249E+03 0.  0.
         23    2    1    2    0    0 -0.24940738934E+03  0.61255193454E+02  0.13350977528E+04  0.13626022896E+04  0.90789568180E+02 0.  0.
          5    1    3    3  502    0  0.17575453962E+03 -0.48777283889E+02  0.97034145213E+02  0.20664457254E+03  0.41800000000E+01 0. -1.
         -5    1    3    3    0  502  0.73652849720E+02 -0.12477909566E+02  0.16426881623E+03  0.18050528215E+03  0.41800000000E+01 0. -1.
        -11    1    4    4    0    0 -0.32561093002E+02  0.26939306186E+00  0.65180719357E+02  0.72861673917E+02  0.00000000000E+00 0.  1.
         11    1    4    4    0    0 -0.21684629634E+03  0.60985800392E+02  0.12699170334E+04  0.12897406157E+04  0.00000000000E+00 0. -1.
</event>
<event>
 8    1  0.3710605E-009  0.8021237E+02  0.7561462E-02  0.1328450E+00
          1   -1    0    0  501    0  0.00000000000E+00  0.00000000000E+00  0.10283533861E+03  0.10283533861E+03  0.00000000000E+00 0. -1.
         -1   -1    0    0    0  501 -0.00000000000E+00 -0.00000000000E+00 -0.11710630142E+03  0.11710630142E+03  0.00000000000E+00 0.  1.
         25    2    1    2    0    0 -0.23977603353E+02  0.44477724234E+01 -0.53172024789E+01  0.12755381404E+03  0.12508794783E+03 0.  0.
         23    2    1    2    0    0  0.23977603353E+02 -0.44477724234E+01 -0.89537603361E+01  0.92387825988E+02  0.88660207672E+02 0.  0.
          5    1    3    3  502    0 -0.19208260196E+01  0.35755506706E+02 -0.54336353010E+02  0.65207802376E+02  0.41800000000E+01 0. -1.
         -5    1    3    3    0  502 -0.22056777333E+02 -0.31307734282E+02  0.49019150531E+02  0.62346011668E+02  0.41800000000E+01 0. -1.
        -11    1    4    4    0    0  0.21553950024E+00  0.37574194175E+02  0.12445708515E+02  0.39582346893E+02  0.00000000000E+00 0. -1.
         11    1    4    4    0    0  0.23762063852E+02 -0.42021966598E+02 -0.21399468851E+02  0.52805479094E+02  0.00000000000E+00 0.  1.
</event>
<event>
 8    1  0.3710605E-009  0.1514162E+03  0.7561462E-02  0.1198743E+00
          2   -1    0    0  501    0  0.00000000000E+00  0.00000000000E+00  0.10683146925E+04  0.10683146925E+04  0.00000000000E+00 0. -1.
         -2   -1    0    0    0  501 -0.00000000000E+00 -0.00000000000E+00 -0.22133756793E+02  0.22133756793E+02  0.00000000000E+00 0.  1.
         25    2    1    2    0    0  0.94827580215E+02  0.54599419998E+02  0.55754843744E+03  0.58178891975E+03  0.12507885680E+03 0.  0.
         23    2    1    2    0    0 -0.94827580215E+02 -0.54599419998E+02  0.48863249830E+03  0.50865952958E+03  0.89439543840E+02 0.  0.
          5    1    3    3  502    0  0.11565425401E+03  0.14379415658E+02  0.45308306990E+03  0.46785084663E+03  0.41800000000E+01 0.  1.
         -5    1    3    3    0  502 -0.20826673792E+02  0.40220004340E+02  0.10446536755E+03  0.11393807312E+03  0.41800000000E+01 0.  1.
        -11    1    4    4    0    0 -0.88437030866E+02 -0.77106756236E+02  0.42346872918E+03  0.43942271776E+03  0.00000000000E+00 0. -1.
         11    1    4    4    0    0 -0.63905493490E+01  0.22507336238E+02  0.65163769117E+02  0.69236811820E+02  0.00000000000E+00 0.  1.
</event>
<event>
 8    1  0.3710605E-009  0.2094894E+03  0.7561462E-02  0.1141971E+00
         -2   -1    0    0    0  501 -0.00000000000E+00  0.00000000000E+00  0.33762094271E+02  0.33762094271E+02  0.00000000000E+00 0.  1.
          2   -1    0    0  501    0  0.00000000000E+00 -0.00000000000E+00 -0.14467418299E+04  0.14467418299E+04  0.00000000000E+00 0. -1.
         25    2    1    2    0    0  0.70773098955E+02 -0.16222615046E+03 -0.95225291060E+03  0.97660610234E+03  0.12509083882E+03 0.  0.
         23    2    1    2    0    0 -0.70773098955E+02  0.16222615046E+03 -0.46072682504E+03  0.50389782184E+03  0.10157584415E+03 0.  0.
          5    1    3    3  502    0  0.32877614582E+02  0.14050502071E+02 -0.18125538644E+03  0.18479540487E+03  0.41800000000E+01 0. -1.
         -5    1    3    3    0  502  0.37895484373E+02 -0.17627665253E+03 -0.77099752416E+03  0.79181069747E+03  0.41800000000E+01 0. -1.
        -11    1    4    4    0    0  0.20914939014E+02  0.68048074422E+02 -0.19137126651E+03  0.20418358590E+03  0.00000000000E+00 0.  1.
         11    1    4    4    0    0 -0.91688037968E+02  0.94178076037E+02 -0.26935555854E+03  0.29971423594E+03  0.00000000000E+00 0. -1.
</event>
<event>
 8    1  0.3710605E-009  0.1130492E+03  0.7561462E-02  0.1255025E+00
          2   -1    0    0  501    0  0.00000000000E+00  0.00000000000E+00  0.13134774446E+04  0.13134774446E+04  0.00000000000E+00 0. -1.
         -2   -1    0    0    0  501 -0.00000000000E+00 -0.00000000000E+00 -0.13013904707E+02  0.13013904707E+02  0.00000000000E+00 0.  1.
         25    2    1    2    0    0 -0.57002421666E+02 -0.26131131262E+02  0.91123683255E+03  0.92191875247E+03  0.12509799784E+03 0.  0.
         23    2    1    2    0    0  0.57002421666E+02  0.26131131262E+02  0.38922670738E+03  0.40457259687E+03  0.90826451584E+02 0.  0.
          5    1    3    3  502    0 -0.46363127764E+02 -0.69747341360E+02  0.39986831994E+03  0.40856624547E+03  0.41800000000E+01 0.  1.
         -5    1    3    3    0  502 -0.10639293902E+02  0.43616210098E+02  0.51136851260E+03  0.51335250700E+03  0.41800000000E+01 0.  1.
        -11    1    4    4    0    0  0.58100042078E+02  0.47935338386E+02  0.36159656854E+03  0.36935821357E+03  0.00000000000E+00 0. -1.
         11    1    4    4    0    0 -0.10976204118E+01 -0.21804207123E+02  0.27630138839E+02  0.35214383299E+02  0.00000000000E+00 0.  1.
</event>
<event>
 8    1  0.3710605E-009  0.1187755E+03  0.7561462E-02  0.1245131E+00
         -1   -1    0    0    0  501 -0.00000000000E+00  0.00000000000E+00  0.12214227894E+03  0.12214227894E+03  0.00000000000E+00 0.  1.
          1   -1    0    0  501    0  0.00000000000E+00 -0.00000000000E+00 -0.15098461326E+03  0.15098461326E+03  0.00000000000E+00 0. -1.
         25    2    1    2    0    0  0.48314752327E+02 -0.60989175185E+02 -0.39354141784E+02  0.15247798954E+03  0.12508714577E+03 0.  0.
         23    2    1    2    0    0 -0.48314752327E+02  0.60989175185E+02  0.10511807465E+02  0.12064890265E+03  0.91606030550E+02 0.  0.
          5    1    3    3  502    0  0.24145200121E+02 -0.98988082802E+02 -0.24557432971E+02  0.10489123481E+03  0.41800000000E+01 0. -1.
         -5    1    3    3    0  502  0.24169552206E+02  0.37998907617E+02 -0.14796708814E+02  0.47586754729E+02  0.41800000000E+01 0. -1.
        -11    1    4    4    0    0 -0.11255256917E+02  0.50631669581E+02  0.45232495364E+02  0.68820239825E+02  0.00000000000E+00 0.  1.
         11    1    4    4    0    0 -0.37059495411E+02  0.10357505604E+02 -0.34720687898E+02  0.51828662828E+02  0.00000000000E+00 0. -1.
</event>
<event>
 8    1  0.3710605E-009  0.1729923E+03  0.7561462E-02  0.1174763E+00
         -2   -1    0    0    0  501 -0.00000000000E+00  0.00000000000E+00  0.16699809538E+03  0.16699809538E+03  0.00000000000E+00 0.  1.
          2   -1    0    0  501    0  0.00000000000E+00 -0.00000000000E+00 -0.21032045117E+03  0.21032045117E+03  0.00000000000E+00 0. -1.
         25    2    1    2    0    0  0.15543709869E+02 -0.15011025495E+03 -0.44488592238E+02  0.20100216679E+03  0.12509172897E+03 0.  0.
         23    2    1    2    0    0 -0.15543709869E+02  0.15011025495E+03  0.11662364490E+01  0.17631637975E+03  0.91166935369E+02 0.  0.
          5    1    3    3  502    0  0.31146032409E+02 -0.16096019979E+03 -0.61504835006E+02  0.17515301420E+03  0.41800000000E+01 0.  1.
         -5    1    3    3    0  502 -0.15602322540E+02  0.10849944844E+02  0.17016242768E+02  0.25849152592E+02  0.41800000000E+01 0.  1.
        -11    1    4    4    0    0  0.20436134396E+02  0.91497886602E+02  0.34487977579E+02  0.99894541589E+02  0.00000000000E+00 0.  1.
         11    1    4    4    0    0 -0.35979844266E+02  0.58612368348E+02 -0.33321741130E+02  0.76421838166E+02  0.00000000000E+00 0. -1.
</event>
<event>
 8    1  0.3710605E-009  0.1098613E+03  0.7561462E-02  0.1260827E+00
          1   -1    0    0  501    0  0.00000000000E+00  0.00000000000E+00  0.21277736365E+03  0.21277736365E+03  0.00000000000E+00 0. -1.
         -1   -1    0    0    0  501 -0.00000000000E+00 -0.00000000000E+00 -0.82031543678E+02  0.82031543678E+02  0.00000000000E+00 0.  1.
         25    2    1    2    0    0 -0.72739183540E+02 -0.18363917749E+02  0.60260523363E+02  0.15781932225E+03  0.12508950996E+03 0.  0.
         23    2    1    2    0    0  0.72739183540E+02  0.18363917749E+02  0.70485296609E+02  0.13698958508E+03  0.90386653241E+02 0.  0.
          5    1    3    3  502    0 -0.10297342962E+03 -0.36208599847E+02  0.36291781806E+02  0.11510497703E+03  0.41800000000E+01 0.  1.
         -5    1    3    3    0  502  0.30234246084E+02  0.17844682099E+02  0.23968741557E+02  0.42714345217E+02  0.41800000000E+01 0.  1.
        -11    1    4    4    0    0  0.60213371383E+02  0.13587406116E+02  0.92505689693E+02  0.11120957838E+03  0.00000000000E+00 0. -1.
         11    1    4    4    0    0  0.12525812157E+02  0.47765116324E+01 -0.22020393084E+02  0.25780006694E+02  0.00000000000E+00 0.  1.
</event>
<event>
 8    1  0.3710605E-009  0.1538069E+03  0.7561462E-02  0.1195872E+00
          2   -1    0    0  501    0  0.00000000000E+00  0.00000000000E+00  0.81971301299E+03  0.81971301299E+03  0.00000000000E+00 0. -1.
         -2   -1    0    0    0  501 -0.00000000000E+00 -0.00000000000E+00 -0.32185984076E+02  0.32185984076E+02  0.00000000000E+00 0.  1.
         25    2    1    2    0    0 -0.10593061309E+03 -0.55719201636E+02  0.38789479123E+03  0.42477527079E+03  0.12508292207E+03 0.  0.
         23    2    1    2    0    0  0.10593061309E+03  0.55719201636E+02  0.39963223768E+03  0.42712372627E+03  0.91666940222E+02 0.  0.
          5    1    3    3  502    0  0.48168090632E+01  0.30651501509E+02  0.92755894098E+02  0.97897111726E+02  0.41800000000E+01 0. -1.
         -5    1    3    3    0  502 -0.11074742215E+03 -0.86370703145E+02  0.29513889713E+03  0.32687815906E+03  0.41800000000E+01 0. -1.
        -11    1    4    4    0    0  0.58135440005E+02  0.64898653516E+02  0.33541945675E+03  0.34655126111E+03  0.00000000000E+00 0. -1.
         11    1    4    4    0    0  0.47795173081E+02 -0.91794518804E+01  0.64212780932E+02  0.80572465159E+02  0.00000000000E+00 0.  1.
</event>
<event>
 8    1  0.3710605E-009  0.9047955E+02  0.7561462E-02  0.1301695E+00
         -2   -1    0    0    0  501 -0.00000000000E+00  0.00000000000E+00  0.93077247586E+02  0.93077247586E+02  0.00000000000E+00 0.  1.
          2   -1    0    0  501    0  0.00000000000E+00 -0.00000000000E+00 -0.14189828959E+03  0.14189828959E+03  0.00000000000E+00 0. -1.
         25    2    1    2    0    0 -0.39462429956E+01 -0.36895204852E+02 -0.28124084344E+02  0.13347401518E+03  0.12509004610E+03 0.  0.
         23    2    1    2    0    0  0.39462429956E+01  0.36895204852E+02 -0.20696957659E+02  0.10150152199E+03  0.92181158245E+02 0.  0.
          5    1    3    3  502    0  0.34211406078E+02 -0.17079990652E+02 -0.65757511150E+02  0.76181815804E+02  0.41800000000E+01 0.  1.
         -5    1    3    3    0  502 -0.38157649073E+02 -0.19815214200E+02  0.37633426806E+02  0.57292199380E+02  0.41800000000E+01 0.  1.
        -11    1    4    4    0    0 -0.38431762472E+02  0.41624809881E+02 -0.98638477213E+01  0.57505831497E+02  0.00000000000E+00 0.  1.
         11    1    4    4    0    0  0.42378005467E+02 -0.47296050294E+01 -0.10833109937E+02  0.43995690494E+02  0.00000000000E+00 0. -1.
</event>
<event>
 8    1  0.3710605E-009  0.2695356E+03  0.7561462E-02  0.1101546E+00
          1   -1    0    0  501    0  0.00000000000E+00  0.00000000000E+00  0.19319685192E+03  0.19319685192E+03  0.00000000000E+00 0. -1.
         -1   -1    0    0    0  501 -0.00000000000E+00 -0.00000000000E+00 -0.41073987628E+03  0.41073987628E+03  0.00000000000E+00 0.  1.
         25    2    1    2    0    0  0.25751934905E+03  0.90794562199E+01 -0.76548757150E+02  0.29648875909E+03  0.12508884996E+03 0.  0.
         23    2    1    2    0    0 -0.25751934905E+03 -0.90794562199E+01 -0.14099426721E+03  0.30744796911E+03  0.90808692691E+02 0.  0.
          5    1    3    3  502    0  0.22852581433E+03 -0.18249145834E+02 -0.99910056429E+02  0.25011311624E+03  0.41800000000E+01 0. -1.
         -5    1    3    3    0  502  0.28993534713E+02  0.27328602054E+02  0.23361299279E+02  0.46375642846E+02  0.41800000000E+01 0. -1.
        -11    1    4    4    0    0 -0.23683726006E+03  0.15801218015E+02 -0.13891870953E+03  0.27502722429E+03  0.00000000000E+00 0.  1.
         11    1    4    4    0    0 -0.20682088988E+02 -0.24880674235E+02 -0.20755576779E+01  0.32420744825E+02  0.00000000000E+00 0. -1.
</event>
<event>
 8    1  0.3710605E-009  0.1907333E+03  0.7561462E-02  0.1157802E+00
          2   -1    0    0  501    0  0.00000000000E+00  0.00000000000E+00  0.93867047607E+03  0.93867047607E+03  0.00000000000E+00 0. -1.
         -2   -1    0    0    0  501 -0.00000000000E+00 -0.00000000000E+00 -0.47211096947E+02  0.47211096947E+02  0.00000000000E+00 0.  1.
         25    2    1    2    0    0 -0.13694794768E+03  0.11267307783E+03  0.39193299956E+03  0.44800387845E+03  0.12508411620E+03 0.  0.
         23    2    1    2    0    0  0.13694794768E+03 -0.11267307783E+03  0.49952637956E+03  0.53787769456E+03  0.91300862991E+02 0.  0.
          5    1    3    3  502    0 -0.30316989585E+00  0.28963312449E+02  0.56844874048E+01  0.29811930113E+02  0.41800000000E+01 0.  1.
         -5    1    3    3    0  502 -0.13664477779E+03  0.83709765384E+02  0.38624851215E+03  0.41819194834E+03  0.41800000000E+01 0.  1.
        -11    1    4    4    0    0  0.10603300899E+03 -0.40713617903E+02  0.22003943713E+03  0.24762461826E+03  0.00000000000E+00 0.  1.
         11    1    4    4    0    0  0.30914938691E+02 -0.71959459930E+02  0.27948694243E+03  0.29025307630E+03  0.00000000000E+00 0. -1.
</event>
<event>
 8    1  0.3710605E-009  0.3458426E+03  0.7561462E-02  0.1064334E+00
          1   -1    0    0  501    0  0.00000000000E+00  0.00000000000E+00  0.12949543802E+04  0.12949543802E+04  0.00000000000E+00 0.  1.
         -1   -1    0    0    0  501 -0.00000000000E+00 -0.00000000000E+00 -0.17732320361E+03  0.17732320361E+03  0.00000000000E+00 0. -1.
         25    2    1    2    0    0 -0.28623633095E+03  0.17211651275E+03  0.62882641285E+02  0.36215597550E+03  0.12508953951E+03 0.  0.
         23    2    1    2    0    0  0.28623633095E+03 -0.17211651275E+03  0.10547485353E+04  0.11101216083E+04  0.91215028425E+02 0.  0.
          5    1    3    3  502    0 -0.26818583770E+03  0.11825233812E+03  0.25964833340E+02  0.29427691718E+03  0.41800000000E+01 0.  1.
         -5    1    3    3    0  502 -0.18050493258E+02  0.53864174625E+02  0.36917807945E+02  0.67879058320E+02  0.41800000000E+01 0.  1.
        -11    1    4    4    0    0  0.67061639502E+02 -0.78550372942E+02  0.24109387370E+03  0.26228549430E+03  0.00000000000E+00 0. -1.
         11    1    4    4    0    0  0.21917469145E+03 -0.93566139803E+02  0.81365466163E+03  0.84783611405E+03  0.00000000000E+00 0.  1.
</event>
<event>
 8    1  0.3710605E-009  0.9855386E+02  0.7561462E-02  0.1283367E+00
          2   -1    0    0  501    0  0.00000000000E+00  0.00000000000E+00  0.28982316633E+03  0.28982316633E+03  0.00000000000E+00 0. -1.
         -2   -1    0    0    0  501 -0.00000000000E+00 -0.00000000000E+00 -0.83092115847E+02  0.83092115847E+02  0.00000000000E+00 0.  1.
         25    2    1    2    0    0  0.70882837952E+02  0.19567399267E+02  0.20755885670E+03  0.25324528496E+03  0.12508091592E+03 0.  0.
         23    2    1    2    0    0 -0.70882837952E+02 -0.19567399267E+02 -0.82780622230E+00  0.11966999722E+03  0.94408490827E+02 0.  0.
          5    1    3    3  502    0  0.55699487649E+02  0.57902132856E+02  0.61066194174E+02  0.10100318007E+03  0.41800000000E+01 0. -1.
         -5    1    3    3    0  502  0.15183350303E+02 -0.38334733589E+02  0.14649266253E+03  0.15224210489E+03  0.41800000000E+01 0. -1.
        -11    1    4    4    0    0 -0.50667332902E+02 -0.63609344599E+01  0.44874603238E+02  0.67980659944E+02  0.00000000000E+00 0. -1.
         11    1    4    4    0    0 -0.20215505051E+02 -0.13206464807E+02 -0.45702409461E+02  0.51689337272E+02  0.00000000000E+00 0.  1.
</event>
<event>
 8    1  0.3710605E-009  0.8362201E+02  0.7561462E-02  0.1319076E+00
          1   -1    0    0  501    0  0.00000000000E+00  0.00000000000E+00  0.13978231758E+03  0.13978231758E+03  0.00000000000E+00 0. -1.
         -1   -1    0    0    0  501 -0.00000000000E+00 -0.00000000000E+00 -0.98874208136E+02  0.98874208136E+02  0.00000000000E+00 0.  1.
         25    2    1    2    0    0 -0.28108629753E+02  0.27807533153E+02  0.40168831036E+02  0.13719967543E+03  0.12508741737E+03 0.  0.
         23    2    1    2    0    0  0.28108629753E+02 -0.27807533153E+02  0.73927840799E+00  0.10145685029E+03  0.93432285485E+02 0.  0.
          5    1    3    3  502    0 -0.34850744805E+02  0.71233957339E+02  0.29639505854E+01  0.79467656910E+02  0.41800000000E+01 0. -1.
         -5    1    3    3    0  502  0.67421150519E+01 -0.43426424186E+02  0.37204880450E+02  0.57732018519E+02  0.41800000000E+01 0. -1.
        -11    1    4    4    0    0  0.47584151443E+01 -0.17548350940E+02 -0.45306906540E+02  0.48819083519E+02  0.00000000000E+00 0.  1.
         11    1    4    4    0    0  0.23350214609E+02 -0.10259182213E+02  0.46046184948E+02  0.52637766767E+02  0.00000000000E+00 0. -1.
</event>
<event>
 8    1  0.3710605E-009  0.1491876E+03  0.7561462E-02  0.1201475E+00
         -2   -1    0    0    0  501 -0.00000000000E+00  0.00000000000E+00  0.22307572912E+02  0.22307572912E+02  0.00000000000E+00 0.  1.
          2   -1    0    0  501    0  0.00000000000E+00 -0.00000000000E+00 -0.25470823549E+04  0.25470823549E+04  0.00000000000E+00 0. -1.
         25    2    1    2    0    0 -0.12300549647E+03 -0.42471873588E+02 -0.21988439265E+04  0.22062399801E+04  0.12508406858E+03 0.  0.
         23    2    1    2    0    0  0.12300549647E+03  0.42471873588E+02 -0.32593085545E+03  0.36314994773E+03  0.93342111587E+02 0.  0.
          5    1    3    3  502    0 -0.58905379565E+02 -0.64673336561E+02 -0.17587346520E+04  0.17609138346E+04  0.41800000000E+01 0.  1.
         -5    1    3    3    0  502 -0.64100116907E+02  0.22201462974E+02 -0.44010927448E+03  0.44532614546E+03  0.41800000000E+01 0.  1.
        -11    1    4    4    0    0  0.99492912311E+02  0.57513294106E+02 -0.17298929898E+03  0.20768224806E+03  0.00000000000E+00 0.  1.
         11    1    4    4    0    0  0.23512584162E+02 -0.15041420518E+02 -0.15294155647E+03  0.15546769967E+03  0.00000000000E+00 0. -1.
</event>
<event>
 8    1  0.3710605E-009  0.2782475E+03  0.7561462E-02  0.1096650E+00
          1   -1    0    0  501    0  0.00000000000E+00  0.00000000000E+00  0.65981743530E+03  0.65981743530E+03  0.00000000000E+00 0. -1.
         -1   -1    0    0    0  501 -0.00000000000E+00 -0.00000000000E+00 -0.14573098902E+03  0.14573098902E+03  0.00000000000E+00 0.  1.
         25    2    1    2    0    0  0.27372373919E+03 -0.26002052088E+02  0.14088580037E+03  0.33331196807E+03  0.12508903711E+03 0.  0.
         23    2    1    2    0    0 -0.27372373919E+03  0.26002052088E+02  0.37320064591E+03  0.47223645625E+03  0.90154070292E+02 0.  0.
          5    1    3    3  502    0  0.32651228156E+02 -0.23441465931E+02  0.71961622973E+02  0.82532130749E+02  0.41800000000E+01 0.  1.
         -5    1    3    3    0  502  0.24107251104E+03 -0.25605861575E+01  0.68924177393E+02  0.25077983732E+03  0.41800000000E+01 0.  1.
        -11    1    4    4    0    0 -0.18583241513E+03  0.16850682569E+02  0.31597865357E+03  0.36696068117E+03  0.00000000000E+00 0.  1.
         11    1    4    4    0    0 -0.87891324066E+02  0.91513695193E+01  0.57221992341E+02  0.10527577507E+03  0.00000000000E+00 0. -1.
</event>
<event>
 8    1  0.3710605E-009  0.9833449E+02  0.7561462E-02  0.1283838E+00
          1   -1    0    0  501    0  0.00000000000E+00  0.00000000000E+00  0.22796167121E+02  0.22796167121E+02  0.00000000000E+00 0. -1.
         -1   -1    0    0    0  501 -0.00000000000E+00 -0.00000000000E+00 -0.93871954421E+03  0.93871954421E+03  0.00000000000E+00 0.  1.
         25    2    1    2    0    0 -0.61124667464E+02  0.67666679430E+02 -0.62315855285E+03  0.64209800939E+03  0.12509303417E+03 0.  0.
         23    2    1    2    0    0  0.61124667464E+02 -0.67666679430E+02 -0.29276482424E+03  0.31941770194E+03  0.89450665303E+02 0.  0.
          5    1    3    3  502    0 -0.52966024485E+02  0.76039777392E+02 -0.22011147017E+03  0.23885974796E+03  0.41800000000E+01 0.  1.
         -5    1    3    3    0  502 -0.81586429796E+01 -0.83730979620E+01 -0.40304708268E+03  0.40323826143E+03  0.41800000000E+01 0.  1.
        -11    1    4    4    0    0  0.49572293387E+02 -0.58925231269E+02 -0.29488786654E+03  0.30477606367E+03  0.00000000000E+00 0.  1.
         11    1    4    4    0    0  0.11552374077E+02 -0.87414481615E+01  0.21230422985E+01  0.14641638275E+02  0.00000000000E+00 0. -1.
</event>
<event>
 8    1  0.3710605E-009  0.1901824E+03  0.7561462E-02  0.1158297E+00
         -2   -1    0    0    0  501 -0.00000000000E+00  0.00000000000E+00  0.54821079373E+02  0.54821079373E+02  0.00000000000E+00 0. -1.
          2   -1    0    0  501    0  0.00000000000E+00 -0.00000000000E+00 -0.86635671512E+03  0.86635671512E+03  0.00000000000E+00 0.  1.
         25    2    1    2    0    0 -0.26996967233E+02  0.18618651117E+03 -0.40812590733E+03  0.46648517204E+03  0.12508959315E+03 0.  0.
         23    2    1    2    0    0  0.26996967233E+02 -0.18618651117E+03 -0.40340972841E+03  0.45469262245E+03  0.92799346740E+02 0.  0.
          5    1    3    3  502    0 -0.21987511961E+02  0.12844282323E+03 -0.38035333039E+03  0.40207852201E+03  0.41800000000E+01 0.  1.
         -5    1    3    3    0  502 -0.50094552718E+01  0.57743687932E+02 -0.27772576947E+02  0.64406650033E+02  0.41800000000E+01 0.  1.
        -11    1    4    4    0    0  0.35108795730E+02 -0.17188163471E+03 -0.40148022476E+03  0.43813501887E+03  0.00000000000E+00 0.  1.
         11    1    4    4    0    0 -0.81118284969E+01 -0.14304876455E+02 -0.19295036503E+01  0.16557603579E+02  0.00000000000E+00 0. -1.
</event>
<event>
 8    1  0.3710605E-009  0.9712924E+02  0.7561462E-02  0.1286451E+00
         -2   -1    0    0    0  501 -0.00000000000E+00  0.00000000000E+00  0.94126765137E+01  0.94126765137E+01  0.00000000000E+00 0. -1.
          2   -1    0    0  501    0  0.00000000000E+00 -0.00000000000E+00 -0.23542580628E+04  0.23542580628E+04  0.00000000000E+00 0.  1.
         25    2    1    2    0    0 -0.45198054986E+02 -0.24973476945E+02 -0.19514516026E+04  0.19561378003E+04  0.12508076519E+03 0.  0.
         23    2    1    2    0    0  0.45198054986E+02  0.24973476945E+02 -0.39339378367E+03  0.40753293898E+03  0.93047775884E+02 0.  0.
          5    1    3    3  502    0 -0.11842988061E+02  0.26535768385E+02 -0.15240791157E+04  0.15243618424E+04  0.41800000000E+01 0.  1.
         -5    1    3    3    0  502 -0.33355066925E+02 -0.51509245331E+02 -0.42737248687E+03  0.43177595785E+03  0.41800000000E+01 0.  1.
        -11    1    4    4    0    0  0.70227191288E+02  0.33342566684E+01 -0.21835690527E+03  0.22939641179E+03  0.00000000000E+00 0. -1.
         11    1    4    4    0    0 -0.25029136302E+02  0.21639220277E+02 -0.17503687840E+03  0.17813652719E+03  0.00000000000E+00 0.  1.
</event>
<event>
 8    1  0.3710605E-009  0.2512571E+03  0.7561462E-02  0.1112513E+00
          2   -1    0    0  501    0  0.00000000000E+00  0.00000000000E+00  0.21161526260E+03  0.21161526260E+03  0.00000000000E+00 0. -1.
         -2   -1    0    0    0  501 -0.00000000000E+00 -0.00000000000E+00 -0.33824269123E+03  0.33824269123E+03  0.00000000000E+00 0.  1.
         25    2    1    2    0    0 -0.20687415385E+03  0.12805214109E+03 -0.35970123728E+02  0.27592815440E+03  0.12509288637E+03 0.  0.
         23    2    1    2    0    0  0.20687415385E+03 -0.12805214109E+03 -0.90657304898E+02  0.27392979943E+03  0.87318507293E+02 0.  0.
          5    1    3    3  502    0 -0.49306880766E+02  0.80642541745E+02  0.29018904393E+02  0.98964424124E+02  0.41800000000E+01 0.  1.
         -5    1    3    3    0  502 -0.15756727308E+03  0.47409599344E+02 -0.64989028121E+02  0.17696373028E+03  0.41800000000E+01 0.  1.
        -11    1    4    4    0    0  0.41584403985E+02 -0.26296509402E+02  0.16897776812E+02  0.52022148386E+02  0.00000000000E+00 0. -1.
         11    1    4    4    0    0  0.16528974986E+03 -0.10175563169E+03 -0.10755508171E+03  0.22190765104E+03  0.00000000000E+00 0.  1.
</event>
<event>
 8    1  0.3710605E-009  0.9006308E+02  0.7561462E-02  0.1302699E+00
          1   -1    0    0  501    0  0.00000000000E+00  0.00000000000E+00  0.25767413804E+02  0.25767413804E+02  0.00000000000E+00 0. -1.
         -1   -1    0    0    0  501 -0.00000000000E+00 -0.00000000000E+00 -0.70427306827E+03  0.70427306827E+03  0.00000000000E+00 0.  1.
         25    2    1    2    0    0 -0.42806848342E+02  0.46794789315E+02 -0.25328003586E+03  0.28951472853E+03  0.12508326386E+03 0.  0.
         23    2    1    2    0    0  0.42806848342E+02 -0.46794789315E+02 -0.42522561861E+03  0.44052575355E+03  0.96041315302E+02 0.  0.
          5    1    3    3  502    0 -0.38705828255E+02  0.49144592409E+02 -0.36307069396E+02  0.72450036522E+02  0.41800000000E+01 0.  1.
         -5    1    3    3    0  502 -0.41010200862E+01 -0.23498030939E+01 -0.21697296646E+03  0.21706469200E+03  0.41800000000E+01 0.  1.
        -11    1    4    4    0    0  0.71402007748E+02 -0.39541026712E+02 -0.35671480200E+03  0.36593331287E+03  0.00000000000E+00 0.  1.
         11    1    4    4    0    0 -0.28595159406E+02 -0.72537626027E+01 -0.68510816609E+02  0.74592440674E+02  0.00000000000E+00 0. -1.
</event>
<event>
 8    1  0.3710605E-009  0.1494611E+03  0.7561462E-02  0.1201137E+00
         -1   -1    0    0    0  501 -0.00000000000E+00  0.00000000000E+00  0.68500588442E+02  0.68500588442E+02  0.00000000000E+00 0.  1.
          1   -1    0    0  501    0  0.00000000000E+00 -0.00000000000E+00 -0.48445562919E+03  0.48445562919E+03  0.00000000000E+00 0. -1.
         25    2    1    2    0    0 -0.12316573392E+03 -0.55047108708E+02 -0.29952051712E+03  0.35150980990E+03  0.12508646646E+03 0.  0.
         23    2    1    2    0    0  0.12316573392E+03  0.55047108708E+02 -0.11643452363E+03  0.20144640774E+03  0.93934417050E+02 0.  0.
          5    1    3    3  502    0 -0.12217234676E+02  0.15523648826E+02  0.41080229630E+01  0.20605648465E+02  0.41800000000E+01 0. -1.
         -5    1    3    3    0  502 -0.11094849924E+03 -0.70570757534E+02 -0.30362854008E+03  0.33090416143E+03  0.41800000000E+01 0. -1.
        -11    1    4    4    0    0  0.47157252725E+02 -0.87222457799E+01 -0.84601616932E+02  0.97248741090E+02  0.00000000000E+00 0. -1.
         11    1    4    4    0    0  0.76008481195E+02  0.63769354488E+02 -0.31832906701E+02  0.10419766665E+03  0.00000000000E+00 0.  1.
</event>
<event>
 8    1  0.3710605E-009  0.1167302E+03  0.7561462E-02  0.1248591E+00
         -1   -1    0    0    0  501 -0.00000000000E+00  0.00000000000E+00  0.18061721378E+03  0.18061721378E+03  0.00000000000E+00 0.  1.
          1   -1    0    0  501    0  0.00000000000E+00 -0.00000000000E+00 -0.14900775166E+03  0.14900775166E+03  0.00000000000E+00 0. -1.
         25    2    1    2    0    0  0.29740907969E+02  0.48481249647E+02 -0.92002152233E+02  0.16536752600E+03  0.12508824671E+03 0.  0.
         23    2    1    2    0    0 -0.29740907969E+02 -0.48481249647E+02  0.12361161436E+03  0.16425743944E+03  0.92009358395E+02 0.  0.
          5    1    3    3  502    0 -0.24690391959E+02  0.69504382520E+02 -0.72997006374E+02  0.10385812431E+03  0.41800000000E+01 0. -1.
         -5    1    3    3    0  502  0.54431299928E+02 -0.21023132873E+02 -0.19005145858E+02  0.61509401694E+02  0.41800000000E+01 0. -1.
        -11    1    4    4    0    0 -0.19107432745E+01 -0.67402528657E+02  0.52064093950E+02  0.85190502334E+02  0.00000000000E+00 0. -1.
         11    1    4    4    0    0 -0.27830164694E+02  0.18921279010E+02  0.71547520406E+02  0.79066937101E+02  0.00000000000E+00 0.  1.
</event>
<event>
 8    1  0.3710605E-009  0.7641994E+02  0.7561462E-02  0.1339529E+00
         -2   -1    0    0    0  501 -0.00000000000E+00  0.00000000000E+00  0.41600442159E+03  0.41600442159E+03  0.00000000000E+00 0.  1.
          2   -1    0    0  501    0  0.00000000000E+00 -0.00000000000E+00 -0.35839862158E+02  0.35839862158E+02  0.00000000000E+00 0. -1.
         25    2    1    2    0    0 -0.29738936933E+02 -0.37766686785E+02  0.15955305638E+03  0.20836322880E+03  0.12508928938E+03 0.  0.
         23    2    1    2    0    0  0.29738936933E+02  0.37766686785E+02  0.22061150305E+03  0.24348105494E+03  0.91120040812E+02 0.  0.
          5    1    3    3  502    0 -0.20541415303E+02  0.62522472189E+01 -0.15994800932E+02  0.27098826446E+02  0.41800000000E+01 0.  1.
         -5    1    3    3    0  502 -0.91975216306E+01 -0.44018934004E+02  0.17554785731E+03  0.18126440236E+03  0.41800000000E+01 0.  1.
        -11    1    4    4    0    0 -0.21837735021E+02  0.23939643961E+02  0.25614349267E+02  0.41304819479E+02  0.00000000000E+00 0. -1.
         11    1    4    4    0    0  0.51576671954E+02  0.13827042824E+02  0.19499715378E+03  0.20217623546E+03  0.00000000000E+00 0.  1.
</event>
<event>
 8    1  0.3710605E-009  0.7635577E+02  0.7561462E-02  0.1339723E+00
          1   -1    0    0  501    0  0.00000000000E+00  0.00000000000E+00  0.18105607035E+03  0.18105607035E+03  0.00000000000E+00 0. -1.
         -1   -1    0    0    0  501 -0.00000000000E+00 -0.00000000000E+00 -0.72149168675E+02  0.72149168675E+02  0.00000000000E+00 0.  1.
         25    2    1    2    0    0 -0.35053168682E+02  0.23597230034E+02  0.65709791054E+02  0.14748004594E+03  0.12508810259E+03 0.  0.
         23    2    1    2    0    0  0.35053168682E+02 -0.23597230034E+02  0.43197110625E+02  0.10572519309E+03  0.86754090324E+02 0.  0.
          5    1    3    3  502    0  0.21085735464E+02  0.18164619819E+02 -0.26922967672E+02  0.38947146770E+02  0.41800000000E+01 0. -1.
         -5    1    3    3    0  502 -0.56138904146E+02  0.54326102153E+01  0.92632758726E+02  0.10853289917E+03  0.41800000000E+01 0. -1.
        -11    1    4    4    0    0  0.26533388477E+02 -0.40884603998E+02 -0.94622343193E+01  0.49649828061E+02  0.00000000000E+00 0.  1.
         11    1    4    4    0    0  0.85197802044E+01  0.17287373964E+02  0.52659344944E+02  0.56075365030E+02  0.00000000000E+00 0. -1.
</event>
<event>
 8    1  0.3710605E-009  0.1030917E+03  0.7561462E-02  0.1273926E+00
         -2   -1    0    0    0  501 -0.00000000000E+00  0.00000000000E+00  0.62939901540E+02  0.62939901540E+02  0.00000000000E+00 0.  1.
          2   -1    0    0  501    0  0.00000000000E+00 -0.00000000000E+00 -0.32283787366E+03  0.32283787366E+03  0.00000000000E+00 0. -1.
         25    2    1    2    0    0  0.62842891494E+02  0.58509711722E+02 -0.92482210924E+02  0.17767550263E+03  0.12507201734E+03 0.  0.
         23    2    1    2    0    0 -0.62842891494E+02 -0.58509711722E+02 -0.16741576120E+03  0.20810227257E+03  0.88915147048E+02 0.  0.
          5    1    3    3  502    0  0.36498468090E+02  0.57921800339E+02  0.12182957915E+02  0.69663261415E+02  0.41800000000E+01 0. -1.
         -5    1    3    3    0  502  0.26344423404E+02  0.58791138285E+00 -0.10466516884E+03  0.10801224122E+03  0.41800000000E+01 0. -1.
        -11    1    4    4    0    0  0.10641937097E+02 -0.30445450641E+02 -0.98074040609E+02  0.10324094988E+03  0.00000000000E+00 0. -1.
         11    1    4    4    0    0 -0.73484828591E+02 -0.28064261081E+02 -0.69341720590E+02  0.10486132270E+03  0.00000000000E+00 0.  1.
</event>
<event>
 8    1  0.3710605E-009  0.1931848E+03  0.7561462E-02  0.1155620E+00
          2   -1    0    0  501    0  0.00000000000E+00  0.00000000000E+00  0.11116004297E+04  0.11116004297E+04  0.00000000000E+00 0.  1.
         -2   -1    0    0    0  501 -0.00000000000E+00 -0.00000000000E+00 -0.35639108586E+02  0.35639108586E+02  0.00000000000E+00 0. -1.
         25    2    1    2    0    0  0.11942884235E+03  0.11288807622E+03  0.64274423160E+03  0.67511102255E+03  0.12509108433E+03 0.  0.
         23    2    1    2    0    0 -0.11942884235E+03 -0.11288807622E+03  0.43321708947E+03  0.47212851569E+03  0.90671509194E+02 0.  0.
          5    1    3    3  502    0  0.10336748452E+03  0.14027875321E+03  0.55341207245E+03  0.58021147851E+03  0.41800000000E+01 0.  1.
         -5    1    3    3    0  502  0.16061357830E+02 -0.27390676992E+02  0.89332159147E+02  0.94899544041E+02  0.41800000000E+01 0.  1.
        -11    1    4    4    0    0 -0.12828693731E+03 -0.93552647630E+02  0.41423437173E+03  0.44362117948E+03  0.00000000000E+00 0.  1.
         11    1    4    4    0    0  0.88580949534E+01 -0.19335428588E+02  0.18982717744E+02  0.28507336210E+02  0.00000000000E+00 0. -1.
</event>
<event>
 8    1  0.3710605E-009  0.1118800E+03  0.7561462E-02  0.1257127E+00
         -2   -1    0    0    0  501 -0.00000000000E+00  0.00000000000E+00  0.20400081414E+02  0.20400081414E+02  0.00000000000E+00 0.  1.
          2   -1    0    0  501    0  0.00000000000E+00 -0.00000000000E+00 -0.92384790649E+03  0.92384790649E+03  0.00000000000E+00 0. -1.
         25    2    1    2    0    0 -0.25938855054E+01  0.44600507527E+02 -0.76361666271E+03  0.77508340640E+03  0.12509174950E+03 0.  0.
         23    2    1    2    0    0  0.25938855054E+01 -0.44600507527E+02 -0.13983116237E+03  0.16916458151E+03  0.84071208827E+02 0.  0.
          5    1    3    3  502    0  0.60472952631E+02  0.25817749229E+02 -0.33403594980E+03  0.34047176437E+03  0.41800000000E+01 0.  1.
         -5    1    3    3    0  502 -0.63066838136E+02  0.18782758298E+02 -0.42958071291E+03  0.43461164203E+03  0.41800000000E+01 0.  1.
        -11    1    4    4    0    0 -0.22002202247E+02 -0.59322509397E+02 -0.11492441096E+03  0.13119023309E+03  0.00000000000E+00 0. -1.
         11    1    4    4    0    0  0.24596087752E+02  0.14722001870E+02 -0.24906751416E+02  0.37974348419E+02  0.00000000000E+00 0.  1.
</event>
<event>
 8    1  0.3710605E-009  0.1292484E+03  0.7561462E-02  0.1228575E+00
          1   -1    0    0  501    0  0.00000000000E+00  0.00000000000E+00  0.17275264532E+03  0.17275264532E+03  0.00000000000E+00 0. -1.
         -1   -1    0    0    0  501 -0.00000000000E+00 -0.00000000000E+00 -0.34268674422E+03  0.34268674422E+03  0.00000000000E+00 0.  1.
         25    2    1    2    0    0  0.85924188087E+02 -0.11533011097E+02  0.12326328981E+03  0.19585037996E+03  0.12509019255E+03 0.  0.
         23    2    1    2    0    0 -0.85924188087E+02  0.11533011097E+02 -0.29319738871E+03  0.31958900958E+03  0.93040044370E+02 0.  0.
          5    1    3    3  502    0 -0.24082884571E+02 -0.50378182214E+01 -0.62702302814E+01  0.25732336261E+02  0.41800000000E+01 0.  1.
         -5    1    3    3    0  502  0.11000707266E+03 -0.64951928752E+01  0.12953352009E+03  0.17011804370E+03  0.41800000000E+01 0.  1.
        -11    1    4    4    0    0 -0.31855947879E+02 -0.38241447443E+02 -0.15871944247E+03  0.16634022706E+03  0.00000000000E+00 0.  1.
         11    1    4    4    0    0 -0.54068240208E+02  0.49774458539E+02 -0.13447794624E+03  0.15324878253E+03  0.00000000000E+00 0. -1.
</event>
<event>
 8    1  0.3710605E-009  0.1096709E+03  0.7561462E-02  0.1261181E+00
          1   -1    0    0  501    0  0.00000000000E+00  0.00000000000E+00  0.22994237108E+04  0.22994237108E+04  0.00000000000E+00 0. -1.
         -1   -1    0    0    0  501 -0.00000000000E+00 -0.00000000000E+00 -0.81438375859E+01  0.81438375859E+01  0.00000000000E+00 0.  1.
         25    2    1    2    0    0 -0.84130943073E+01 -0.34289246108E+02  0.19169090654E+04  0.19213107089E+04  0.12509173627E+03 0.  0.
         23    2    1    2    0    0  0.84130943073E+01  0.34289246108E+02  0.37437080777E+03  0.38625683946E+03  0.88285399514E+02 0.  0.
          5    1    3    3  502    0  0.22674459264E+02  0.41247684058E+02  0.81641468376E+03  0.81778108978E+03  0.41800000000E+01 0. -1.
         -5    1    3    3    0  502 -0.31087553571E+02 -0.75536930167E+02  0.11004943817E+04  0.11035296191E+04  0.41800000000E+01 0. -1.
        -11    1    4    4    0    0 -0.25764243187E+02  0.47190337462E+02  0.15990271855E+03  0.16869974386E+03  0.00000000000E+00 0.  1.
         11    1    4    4    0    0  0.34177337494E+02 -0.12901091354E+02  0.21446808922E+03  0.21755709561E+03  0.00000000000E+00 0. -1.
</event>
<event>
 8    1  0.3710605E-009  0.7825662E+02  0.7561462E-02  0.1334073E+00
         -4   -1    0    0    0  501 -0.00000000000E+00  0.00000000000E+00  0.14559658404E+03  0.14559658404E+03  0.00000000000E+00 0.  1.
          4   -1    0    0  501    0  0.00000000000E+00 -0.00000000000E+00 -0.12470644826E+03  0.12470644826E+03  0.00000000000E+00 0. -1.
         25    2    1    2    0    0 -0.19138097181E+01 -0.19528046945E+02 -0.67382977275E+02  0.14343263971E+03  0.12508976466E+03 0.  0.
         23    2    1    2    0    0  0.19138097181E+01  0.19528046945E+02  0.88273113063E+02  0.12687039259E+03  0.88988464083E+02 0.  0.
          5    1    3    3  502    0  0.28254196691E+02 -0.33967009851E+02  0.20811566843E+02  0.49016845098E+02  0.41800000000E+01 0.  1.
         -5    1    3    3    0  502 -0.30168006409E+02  0.14438962907E+02 -0.88194544118E+02  0.94415794615E+02  0.41800000000E+01 0.  1.
        -11    1    4    4    0    0 -0.50001204446E+01  0.48441918371E+02  0.83636986448E+02  0.96782054959E+02  0.00000000000E+00 0.  1.
         11    1    4    4    0    0  0.69139301628E+01 -0.28913871426E+02  0.46361266144E+01  0.30088337627E+02  0.00000000000E+00 0. -1.
</event>
<event>
 8    1  0.3710605E-009  0.1090537E+03  0.7561462E-02  0.1262332E+00
         -1   -1    0    0    0  501 -0.00000000000E+00  0.00000000000E+00  0.19101876533E+03  0.19101876533E+03  0.00000000000E+00 0.  1.
          1   -1    0    0  501    0  0.00000000000E+00 -0.00000000000E+00 -0.86274431611E+02  0.86274431611E+02  0.00000000000E+00 0. -1.
         25    2    1    2    0    0 -0.50455020471E+02 -0.39991705332E+02  0.31535440176E+02  0.14418367338E+03  0.12509757031E+03 0.  0.
         23    2    1    2    0    0  0.50455020471E+02  0.39991705332E+02  0.73208893543E+02  0.13310952356E+03  0.90628679690E+02 0.  0.
          5    1    3    3  502    0 -0.13201694255E+02 -0.75626525522E+02 -0.10417712650E+02  0.77586450045E+02  0.41800000000E+01 0.  1.
         -5    1    3    3    0  502 -0.37253326215E+02  0.35634820190E+02  0.41953152825E+02  0.66597223336E+02  0.41800000000E+01 0.  1.
        -11    1    4    4    0    0  0.12940936427E+02 -0.16942678306E+02  0.59979216862E+02  0.63655546805E+02  0.00000000000E+00 0.  1.
         11    1    4    4    0    0  0.37514084044E+02  0.56934383637E+02  0.13229676681E+02  0.69453976754E+02  0.00000000000E+00 0. -1.
</event>
<event>
 8    1  0.3710605E-009  0.2845022E+03  0.7561462E-02  0.1093255E+00
          1   -1    0    0  501    0  0.00000000000E+00  0.00000000000E+00  0.22910437797E+03  0.22910437797E+03  0.00000000000E+00 0. -1.
         -1   -1    0    0    0  501 -0.00000000000E+00 -0.00000000000E+00 -0.39901733914E+03  0.39901733914E+03  0.00000000000E+00 0.  1.
         25    2    1    2    0    0 -0.12317371775E+03 -0.24749060078E+03 -0.14436054769E+03  0.33602253191E+03  0.12509121472E+03 0.  0.
         23    2    1    2    0    0  0.12317371775E+03  0.24749060078E+03 -0.25552413482E+02  0.29209918521E+03  0.90805539168E+02 0.  0.
          5    1    3    3  502    0 -0.89072274922E+02 -0.21071910910E+03 -0.16451356269E+03  0.28181305472E+03  0.41800000000E+01 0.  1.
         -5    1    3    3    0  502 -0.34101442831E+02 -0.36771491684E+02  0.20153015002E+02  0.54209477192E+02  0.41800000000E+01 0.  1.
        -11    1    4    4    0    0  0.11660284400E+03  0.14008333949E+03 -0.28354074243E+02  0.18445465231E+03  0.00000000000E+00 0. -1.
         11    1    4    4    0    0  0.65708737510E+01  0.10740726129E+03  0.28016607610E+01  0.10764453290E+03  0.00000000000E+00 0.  1.
</event>
<event>
 8    1  0.3710605E-009  0.2038621E+03  0.7561462E-02  0.1146521E+00
          1   -1    0    0  501    0  0.00000000000E+00  0.00000000000E+00  0.32733306573E+03  0.32733306573E+03  0.00000000000E+00 0. -1.
         -1   -1    0    0    0  501 -0.00000000000E+00 -0.00000000000E+00 -0.12884162464E+03  0.12884162464E+03  0.00000000000E+00 0.  1.
         25    2    1    2    0    0  0.62336096914E+02 -0.16052666260E+03  0.11810835470E+03  0.24342403674E+03  0.12510427582E+03 0.  0.
         23    2    1    2    0    0 -0.62336096914E+02  0.16052666260E+03  0.80383086393E+02  0.21275065363E+03  0.95638912886E+02 0.  0.
          5    1    3    3  502    0  0.98479058642E+02 -0.13854444051E+03  0.89102891974E+02  0.19196219614E+03  0.41800000000E+01 0.  1.
         -5    1    3    3    0  502 -0.36142961728E+02 -0.21982222089E+02  0.29005462724E+02  0.51461840604E+02  0.41800000000E+01 0.  1.
        -11    1    4    4    0    0  0.24181501004E+02  0.29069157537E+02  0.46314675834E+01  0.38094768705E+02  0.00000000000E+00 0.  1.
         11    1    4    4    0    0 -0.86517597918E+02  0.13145750506E+03  0.75751618809E+02  0.17465588493E+03  0.00000000000E+00 0. -1.
</event>
<event>
 8    1  0.3710605E-009  0.1118403E+03  0.7561462E-02  0.1257199E+00
         -1   -1    0    0    0  501 -0.00000000000E+00  0.00000000000E+00  0.95725402733E+03  0.95725402733E+03  0.00000000000E+00 0.  1.
          1   -1    0    0  501    0  0.00000000000E+00 -0.00000000000E+00 -0.15598875264E+02  0.15598875264E+02  0.00000000000E+00 0. -1.
         25    2    1    2    0    0 -0.45014135712E+02  0.25951307307E+02  0.61791249426E+03  0.63258417862E+03  0.12508856747E+03 0.  0.
         23    2    1    2    0    0  0.45014135712E+02 -0.25951307307E+02  0.32374265781E+03  0.34026872398E+03  0.90960174071E+02 0.  0.
          5    1    3    3  502    0 -0.61635276278E+02 -0.32234507923E+02  0.24287694328E+03  0.25267499433E+03  0.41800000000E+01 0. -1.
         -5    1    3    3    0  502  0.16621140566E+02  0.58185815230E+02  0.37503555098E+03  0.37990918428E+03  0.41800000000E+01 0. -1.
        -11    1    4    4    0    0  0.39142158061E+02  0.22088726872E+02  0.79936468565E+02  0.91705285557E+02  0.00000000000E+00 0. -1.
         11    1    4    4    0    0  0.58719776507E+01 -0.48040034179E+02  0.24380618925E+03  0.24856343842E+03  0.00000000000E+00 0.  1.
</event>
<event>
 8    1  0.3710605E-009  0.1077453E+03  0.7561462E-02  0.1264803E+00
          1   -1    0    0  501    0  0.00000000000E+00  0.00000000000E+00  0.24048264962E+03  0.24048264962E+03  0.00000000000E+00 0. -1.
         -1   -1    0    0    0  501 -0.00000000000E+00 -0.00000000000E+00 -0.70599399520E+02  0.70599399520E+02  0.00000000000E+00 0.  1.
         25    2    1    2    0    0  0.68130645076E+02 -0.93299606128E+01  0.68433854625E+02  0.15829338040E+03  0.12507905043E+03 0.  0.
         23    2    1    2    0    0 -0.68130645076E+02  0.93299606128E+01  0.10144939548E+03  0.15278866874E+03  0.91233571061E+02 0.  0.
          5    1    3    3  502    0 -0.17133264863E+01  0.23748517836E+02  0.76737431966E+02  0.80455164233E+02  0.41800000000E+01 0.  1.
         -5    1    3    3    0  502  0.69843971562E+02 -0.33078478449E+02 -0.83035773412E+01  0.77838216171E+02  0.41800000000E+01 0.  1.
        -11    1    4    4    0    0 -0.27574254699E+02 -0.40922533064E+02  0.49687138376E+02  0.70027172973E+02  0.00000000000E+00 0.  1.
         11    1    4    4    0    0 -0.40556390377E+02  0.50252493676E+02  0.51762257102E+02  0.82761495765E+02  0.00000000000E+00 0. -1.
</event>
<event>
 8    1  0.3710605E-009  0.1104916E+03  0.7561462E-02  0.1259662E+00
          4   -1    0    0  501    0  0.00000000000E+00  0.00000000000E+00  0.10351598533E+04  0.10351598533E+04  0.00000000000E+00 0. -1.
         -4   -1    0    0    0  501 -0.00000000000E+00 -0.00000000000E+00 -0.19717668152E+02  0.19717668152E+02  0.00000000000E+00 0.  1.
         25    2    1    2    0    0 -0.61441354010E+02 -0.47800070401E+01  0.81074444436E+03  0.82264945654E+03  0.12509071047E+03 0.  0.
         23    2    1    2    0    0  0.61441354010E+02  0.47800070401E+01  0.20469774083E+03  0.23222806495E+03  0.90723870062E+02 0.  0.
          5    1    3    3  502    0 -0.30215944932E+02 -0.64527861519E+02  0.45221112594E+03  0.45780915572E+03  0.41800000000E+01 0.  1.
         -5    1    3    3    0  502 -0.31225409078E+02  0.59747854479E+02  0.35853331841E+03  0.36484030082E+03  0.41800000000E+01 0.  1.
        -11    1    4    4    0    0  0.31488716850E+02 -0.24712863860E+02  0.23927223136E+02  0.46634503707E+02  0.00000000000E+00 0.  1.
         11    1    4    4    0    0  0.29952637160E+02  0.29492870900E+02  0.18077051770E+03  0.18559356124E+03  0.00000000000E+00 0. -1.
</event>
<event>
 8    1  0.3710605E-009  0.1255174E+03  0.7561462E-02  0.1234263E+00
          1   -1    0    0  501    0  0.00000000000E+00  0.00000000000E+00  0.13715803619E+03  0.13715803619E+03  0.00000000000E+00 0. -1.
         -1   -1    0    0    0  501 -0.00000000000E+00 -0.00000000000E+00 -0.17544126707E+03  0.17544126707E+03  0.00000000000E+00 0.  1.
         25    2    1    2    0    0  0.15388748491E+02 -0.10143638087E+03  0.55960236109E+01  0.16187796644E+03  0.12508799941E+03 0.  0.
         23    2    1    2    0    0 -0.15388748491E+02  0.10143638087E+03 -0.43879254489E+02  0.15072133681E+03  0.10131820888E+03 0.  0.
          5    1    3    3  502    0  0.28884890086E+02  0.13681071002E+02  0.29230360207E+02  0.43513158204E+02  0.41800000000E+01 0.  1.
         -5    1    3    3    0  502 -0.13496141595E+02 -0.11511745187E+03 -0.23634336596E+02  0.11836480824E+03  0.41800000000E+01 0.  1.
        -11    1    4    4    0    0 -0.95920984908E+01  0.41025590542E+02  0.32468757905E+02  0.53191424805E+02  0.00000000000E+00 0. -1.
         11    1    4    4    0    0 -0.57966500001E+01  0.60410790327E+02 -0.76348012394E+02  0.97529912005E+02  0.00000000000E+00 0.  1.
</event>
<event>
 8    1  0.3710605E-009  0.1006720E+03  0.7561462E-02  0.1278889E+00
          1   -1    0    0  501    0  0.00000000000E+00  0.00000000000E+00  0.31649849458E+03  0.31649849458E+03  0.00000000000E+00 0. -1.
         -1   -1    0    0    0  501 -0.00000000000E+00 -0.00000000000E+00 -0.52403655422E+02  0.52403655422E+02  0.00000000000E+00 0.  1.
         25    2    1    2    0    0 -0.39957022169E+02  0.49787202178E+02  0.10850876006E+03  0.17747472398E+03  0.12509115685E+03 0.  0.
         23    2    1    2    0    0  0.39957022169E+02 -0.49787202178E+02  0.15558607910E+03  0.19142742602E+03  0.91444531284E+02 0.  0.
          5    1    3    3  502    0 -0.55591268712E+02  0.48188384365E+02  0.13065300340E+03  0.15000063080E+03  0.41800000000E+01 0.  1.
         -5    1    3    3    0  502  0.15634246543E+02  0.15988178125E+01 -0.22144243334E+02  0.27474093183E+02  0.41800000000E+01 0.  1.
        -11    1    4    4    0    0  0.39572885667E+02 -0.75730834651E+02  0.11534377233E+03  0.14354566664E+03  0.00000000000E+00 0.  1.
         11    1    4    4    0    0  0.38413650157E+00  0.25943632474E+02  0.40242306768E+02  0.47881759374E+02  0.00000000000E+00 0. -1.
</event>
<event>
 8    1  0.3710605E-009  0.7412963E+02  0.7561462E-02  0.1346588E+00
         -1   -1    0    0    0  501 -0.00000000000E+00  0.00000000000E+00  0.31826722654E+02  0.31826722654E+02  0.00000000000E+00 0.  1.
          1   -1    0    0  501    0  0.00000000000E+00 -0.00000000000E+00 -0.70094644625E+03  0.70094644625E+03  0.00000000000E+00 0. -1.
         25    2    1    2    0    0 -0.39402539588E+02 -0.66597301723E+01 -0.13202032423E+03  0.18620908164E+03  0.12509014327E+03 0.  0.
         23    2    1    2    0    0  0.39402539588E+02  0.66597301723E+01 -0.53709939936E+03  0.54656408726E+03  0.93057103757E+02 0.  0.
          5    1    3    3  502    0 -0.40752962057E+02 -0.10597723952E+02  0.10474273339E+02  0.43592413002E+02  0.41800000000E+01 0. -1.
         -5    1    3    3    0  502  0.13504224687E+01  0.39379937799E+01 -0.14249459757E+03  0.14261666864E+03  0.41800000000E+01 0. -1.
        -11    1    4    4    0    0  0.68956108611E+02  0.12056456861E+02 -0.41224359624E+03  0.41814481428E+03  0.00000000000E+00 0. -1.
         11    1    4    4    0    0 -0.29553569023E+02 -0.53967266886E+01 -0.12485580312E+03  0.12841927298E+03  0.00000000000E+00 0.  1.
</event>
<event>
 8    1  0.3710605E-009  0.1441370E+03  0.7561462E-02  0.1207868E+00
          1   -1    0    0  501    0  0.00000000000E+00  0.00000000000E+00  0.47441195719E+02  0.47441195719E+02  0.00000000000E+00 0. -1.
         -1   -1    0    0    0  501 -0.00000000000E+00 -0.00000000000E+00 -0.46413549755E+03  0.46413549755E+03  0.00000000000E+00 0.  1.
         25    2    1    2    0    0 -0.97891633500E+02 -0.23599302847E+02 -0.21383598773E+03  0.26741790718E+03  0.12508720329E+03 0.  0.
         23    2    1    2    0    0  0.97891633500E+02  0.23599302847E+02 -0.20285831409E+03  0.24415878608E+03  0.91226740712E+02 0.  0.
          5    1    3    3  502    0  0.27804356852E+01 -0.48381354681E+02 -0.11165584121E+03  0.12179074505E+03  0.41800000000E+01 0. -1.
         -5    1    3    3    0  502 -0.10067206918E+03  0.24782051833E+02 -0.10218014652E+03  0.14562716213E+03  0.41800000000E+01 0. -1.
        -11    1    4    4    0    0  0.11351133928E+03  0.79949906536E+01 -0.17055893584E+03  0.20503437423E+03  0.00000000000E+00 0.  1.
         11    1    4    4    0    0 -0.15619705776E+02  0.15604312194E+02 -0.32299378253E+02  0.39124411857E+02  0.00000000000E+00 0. -1.
</event>
<event>
 8    1  0.3710605E-009  0.8551385E+02  0.7561462E-02  0.1314094E+00
         -1   -1    0    0    0  501 -0.00000000000E+00  0.00000000000E+00  0.59354007028E+02  0.59354007028E+02  0.00000000000E+00 0.  1.
          1   -1    0    0  501    0  0.00000000000E+00 -0.00000000000E+00 -0.23428992098E+03  0.23428992098E+03  0.00000000000E+00 0. -1.
         25    2    1    2    0    0 -0.18442061831E+02 -0.42827166340E+02 -0.11454072243E+03  0.17590270386E+03  0.12509159967E+03 0.  0.
         23    2    1    2    0    0  0.18442061831E+02  0.42827166340E+02 -0.60395191520E+02  0.11774122415E+03  0.89672408711E+02 0.  0.
          5    1    3    3  502    0 -0.17138965464E+02 -0.78889027620E+02 -0.34283296134E+02  0.87806831225E+02  0.41800000000E+01 0. -1.
         -5    1    3    3    0  502 -0.13030963675E+01  0.36061861280E+02 -0.80257426294E+02  0.88095872630E+02  0.41800000000E+01 0. -1.
        -11    1    4    4    0    0 -0.70909312986E+01  0.10477961429E+02 -0.73434109397E+02  0.74516021132E+02  0.00000000000E+00 0. -1.
         11    1    4    4    0    0  0.25532993130E+02  0.32349204911E+02  0.13038917877E+02  0.43225203018E+02  0.00000000000E+00 0.  1.
</event>
<event>
 8    1  0.3710605E-009  0.9089312E+02  0.7561462E-02  0.1300703E+00
          1   -1    0    0  501    0  0.00000000000E+00  0.00000000000E+00  0.34050129570E+02  0.34050129570E+02  0.00000000000E+00 0. -1.
         -1   -1    0    0    0  501 -0.00000000000E+00 -0.00000000000E+00 -0.35337560498E+03  0.35337560498E+03  0.00000000000E+00 0.  1.
         25    2    1    2    0    0  0.48958678100E+01  0.46014829159E+01 -0.16306003894E+03  0.20562514052E+03  0.12509188202E+03 0.  0.
         23    2    1    2    0    0 -0.48958678100E+01 -0.46014829159E+01 -0.15626543647E+03  0.18180059403E+03  0.92668366704E+02 0.  0.
          5    1    3    3  502    0 -0.12376757052E+02  0.45680810892E+02 -0.15237264782E+03  0.15960832310E+03  0.41800000000E+01 0.  1.
         -5    1    3    3    0  502  0.17272624862E+02 -0.41079327976E+02 -0.10687391120E+02  0.46016817421E+02  0.41800000000E+01 0.  1.
        -11    1    4    4    0    0 -0.29872560789E+02  0.32912381355E+02 -0.10198080514E+03  0.11124603072E+03  0.00000000000E+00 0.  1.
         11    1    4    4    0    0  0.24976692979E+02 -0.37513864271E+02 -0.54284631330E+02  0.70554563307E+02  0.00000000000E+00 0. -1.
</event>
<event>
 8    1  0.3710605E-009  0.1100136E+03  0.7561462E-02  0.1260545E+00
          1   -1    0    0  501    0  0.00000000000E+00  0.00000000000E+00  0.35059842385E+02  0.35059842385E+02  0.00000000000E+00 0. -1.
         -1   -1    0    0    0  501 -0.00000000000E+00 -0.00000000000E+00 -0.43589462948E+03  0.43589462948E+03  0.00000000000E+00 0.  1.
         25    2    1    2    0    0  0.29307946019E+02  0.45468958478E+02 -0.17722169523E+03  0.22355988565E+03  0.12508041943E+03 0.  0.
         23    2    1    2    0    0 -0.29307946019E+02 -0.45468958478E+02 -0.22361309187E+03  0.24739458622E+03  0.90966392428E+02 0.  0.
          5    1    3    3  502    0  0.25182682111E+02 -0.29619631650E+02 -0.12737353942E+03  0.13324031298E+03  0.41800000000E+01 0. -1.
         -5    1    3    3    0  502  0.41252639086E+01  0.75088590128E+02 -0.49848155806E+02  0.90319572669E+02  0.41800000000E+01 0. -1.
        -11    1    4    4    0    0  0.30625187367E+02 -0.41416173551E+00 -0.57676234334E+02  0.65304070609E+02  0.00000000000E+00 0.  1.
         11    1    4    4    0    0 -0.59933133387E+02 -0.45054796742E+02 -0.16593685753E+03  0.18209051561E+03  0.00000000000E+00 0. -1.
</event>
<event>
 8    1  0.3710605E-009  0.9878684E+02  0.7561462E-02  0.1282868E+00
          2   -1    0    0  501    0  0.00000000000E+00  0.00000000000E+00  0.32994883927E+02  0.32994883927E+02  0.00000000000E+00 0. -1.
         -2   -1    0    0    0  501 -0.00000000000E+00 -0.00000000000E+00 -0.57873934273E+03  0.57873934273E+03  0.00000000000E+00 0.  1.
         25    2    1    2    0    0 -0.20384017075E+02 -0.76635722663E+02 -0.22947925836E+03  0.27312522525E+03  0.12509243186E+03 0.  0.
         23    2    1    2    0    0  0.20384017075E+02  0.76635722663E+02 -0.31626520045E+03  0.33860900142E+03  0.91344604023E+02 0.  0.
          5    1    3    3  502    0 -0.58491637747E+01  0.45045439602E+01 -0.17278171028E+03  0.17298987092E+03  0.41800000000E+01 0. -1.
         -5    1    3    3    0  502 -0.14534853300E+02 -0.81140266623E+02 -0.56697548076E+02  0.10013535433E+03  0.41800000000E+01 0. -1.
        -11    1    4    4    0    0  0.37872706163E+02  0.12206114715E+02 -0.20520542656E+03  0.20902774505E+03  0.00000000000E+00 0.  1.
         11    1    4    4    0    0 -0.17488689088E+02  0.64429607948E+02 -0.11105977389E+03  0.12958125637E+03  0.00000000000E+00 0. -1.
</event>
<event>
 8    1  0.3710605E-009  0.1421528E+03  0.7561462E-02  0.1210461E+00
          1   -1    0    0  501    0  0.00000000000E+00  0.00000000000E+00  0.51433727157E+03  0.51433727157E+03  0.00000000000E+00 0. -1.
         -1   -1    0    0    0  501 -0.00000000000E+00 -0.00000000000E+00 -0.45225249544E+02  0.45225249544E+02  0.00000000000E+00 0.  1.
         25    2    1    2    0    0 -0.92461162142E+02  0.35567351053E+02  0.18079527810E+03  0.24114208219E+03  0.12509383779E+03 0.  0.
         23    2    1    2    0    0  0.92461162142E+02 -0.35567351053E+02  0.28831674393E+03  0.31842043893E+03  0.91928929783E+02 0.  0.
          5    1    3    3  502    0 -0.11630340848E+03  0.10666174195E+02  0.10233097389E+03  0.15533625048E+03  0.41800000000E+01 0.  1.
         -5    1    3    3    0  502  0.23842246342E+02  0.24901176858E+02  0.78464304207E+02  0.85805831703E+02  0.41800000000E+01 0.  1.
        -11    1    4    4    0    0  0.80186175831E+02  0.14216791837E+02  0.14641552656E+03  0.16753938756E+03  0.00000000000E+00 0.  1.
         11    1    4    4    0    0  0.12274986311E+02 -0.49784142890E+02  0.14190121737E+03  0.15088105137E+03  0.00000000000E+00 0. -1.
</event>
<event>
 8    1  0.3710605E-009  0.1325524E+03  0.7561462E-02  0.1223717E+00
          1   -1    0    0  501    0  0.00000000000E+00  0.00000000000E+00  0.31269817828E+02  0.31269817828E+02  0.00000000000E+00 0. -1.
         -1   -1    0    0    0  501 -0.00000000000E+00 -0.00000000000E+00 -0.68229883191E+03  0.68229883191E+03  0.00000000000E+00 0.  1.
         25    2    1    2    0    0  0.73342050081E+02  0.60145863324E+02 -0.29577972294E+03  0.33485865453E+03  0.12509233722E+03 0.  0.
         23    2    1    2    0    0 -0.73342050081E+02 -0.60145863324E+02 -0.35524929115E+03  0.37870999521E+03  0.90678665757E+02 0.  0.
          5    1    3    3  502    0  0.22394349300E+02 -0.25469672959E+02 -0.15791147436E+02  0.37643643003E+02  0.41800000000E+01 0.  1.
         -5    1    3    3    0  502  0.50947700781E+02  0.85615536283E+02 -0.27998857550E+03  0.29721501153E+03  0.41800000000E+01 0.  1.
        -11    1    4    4    0    0 -0.93768087056E+02 -0.38237859521E+02 -0.27291105748E+03  0.29109282600E+03  0.00000000000E+00 0. -1.
         11    1    4    4    0    0  0.20426036975E+02 -0.21908003804E+02 -0.82338233664E+02  0.87617169208E+02  0.00000000000E+00 0.  1.
</event>
<event>
 8    1  0.3710605E-009  0.1217096E+03  0.7561462E-02  0.1240303E+00
         -2   -1    0    0    0  501 -0.00000000000E+00  0.00000000000E+00  0.14917497680E+02  0.14917497680E+02  0.00000000000E+00 0.  1.
          2   -1    0    0  501    0  0.00000000000E+00 -0.00000000000E+00 -0.15830379654E+04  0.15830379654E+04  0.00000000000E+00 0. -1.
         25    2    1    2    0    0  0.19869845950E+02  0.10235905941E+03 -0.98623289819E+03  0.99958742613E+03  0.12508998836E+03 0.  0.
         23    2    1    2    0    0 -0.19869845950E+02 -0.10235905941E+03 -0.58188756953E+03  0.59836803695E+03  0.92622763112E+02 0.  0.
          5    1    3    3  502    0  0.86448212439E+01  0.11307162174E+01 -0.17309379201E+01  0.98224233052E+01  0.41800000000E+01 0. -1.
         -5    1    3    3    0  502  0.11225024706E+02  0.10122834319E+03 -0.98450196026E+03  0.98976500282E+03  0.41800000000E+01 0. -1.
        -11    1    4    4    0    0  0.30091590834E+02 -0.56426285281E+02 -0.38091426317E+03  0.38624487750E+03  0.00000000000E+00 0.  1.
         11    1    4    4    0    0 -0.49961436784E+02 -0.45932774126E+02 -0.20097330636E+03  0.21212315945E+03  0.00000000000E+00 0. -1.
</event>
<event>
 8    1  0.3710605E-009  0.2221187E+03  0.7561462E-02  0.1132313E+00
         -1   -1    0    0    0  501 -0.00000000000E+00  0.00000000000E+00  0.27422902014E+03  0.27422902014E+03  0.00000000000E+00 0.  1.
          1   -1    0    0  501    0  0.00000000000E+00 -0.00000000000E+00 -0.29838577048E+03  0.29838577048E+03  0.00000000000E+00 0. -1.
         25    2    1    2    0    0  0.16858270266E+03  0.11319757356E+03 -0.18137608597E+03  0.29963098314E+03  0.12509046007E+03 0.  0.
         23    2    1    2    0    0 -0.16858270266E+03 -0.11319757356E+03  0.15721933563E+03  0.27298380748E+03  0.92565767717E+02 0.  0.
          5    1    3    3  502    0  0.50558002412E+02  0.10753597322E+03 -0.10693104994E+03  0.15991191008E+03  0.41800000000E+01 0.  1.
         -5    1    3    3    0  502  0.11802470025E+03  0.56616003361E+01 -0.74445036030E+02  0.13971907306E+03  0.41800000000E+01 0.  1.
        -11    1    4    4    0    0 -0.11794878916E+03 -0.55552379247E+02  0.14550300152E+03  0.19536915610E+03  0.00000000000E+00 0.  1.
         11    1    4    4    0    0 -0.50633913501E+02 -0.57645194308E+02  0.11716334111E+02  0.77614651376E+02  0.00000000000E+00 0. -1.
</event>
<event>
 8    1  0.3710605E-009  0.7177433E+02  0.7561462E-02  0.1354161E+00
         -1   -1    0    0    0  501 -0.00000000000E+00  0.00000000000E+00  0.23643588970E+03  0.23643588970E+03  0.00000000000E+00 0.  1.
          1   -1    0    0  501    0  0.00000000000E+00 -0.00000000000E+00 -0.67022350863E+02  0.67022350863E+02  0.00000000000E+00 0. -1.
         25    2    1    2    0    0 -0.51296688415E+02  0.29154402943E+02  0.12618844846E+03  0.18722319367E+03  0.12509064822E+03 0.  0.
         23    2    1    2    0    0  0.51296688415E+02 -0.29154402943E+02  0.43225090379E+02  0.11623504689E+03  0.90337413258E+02 0.  0.
          5    1    3    3  502    0 -0.48046085904E+02  0.97595320457E+00  0.14507883183E+03  0.15288792856E+03  0.41800000000E+01 0. -1.
         -5    1    3    3    0  502 -0.32506025110E+01  0.28178449738E+02 -0.18890383370E+02  0.34335265110E+02  0.41800000000E+01 0. -1.
        -11    1    4    4    0    0  0.31338306293E+02 -0.33857215596E+02 -0.19617102355E+02  0.50132137338E+02  0.00000000000E+00 0. -1.
         11    1    4    4    0    0  0.19958382122E+02  0.47028126532E+01  0.62842192734E+02  0.66102909554E+02  0.00000000000E+00 0.  1.
</event>
<event>
 8    1  0.3710605E-009  0.1673960E+03  0.7561462E-02  0.1180591E+00
         -2   -1    0    0    0  501 -0.00000000000E+00  0.00000000000E+00  0.27723722405E+02  0.27723722405E+02  0.00000000000E+00 0.  1.
          2   -1    0    0  501    0  0.00000000000E+00 -0.00000000000E+00 -0.12280772945E+04  0.12280772945E+04  0.00000000000E+00 0. -1.
         25    2    1    2    0    0 -0.83995315652E+02  0.10850374157E+03 -0.82329233323E+03  0.84397018536E+03  0.12508850000E+03 0.  0.
         23    2    1    2    0    0  0.83995315652E+02 -0.10850374157E+03 -0.37706123883E+03  0.41183083151E+03  0.92742552097E+02 0.  0.
          5    1    3    3  502    0  0.19493988857E+02  0.41146725176E+02 -0.96896932013E+02  0.10714269190E+03  0.41800000000E+01 0.  1.
         -5    1    3    3    0  502 -0.10348930451E+03  0.67357016397E+02 -0.72639540122E+03  0.73682749346E+03  0.41800000000E+01 0.  1.
        -11    1    4    4    0    0  0.10305944472E+03 -0.10293310545E+03 -0.32703231495E+03  0.35800364295E+03  0.00000000000E+00 0. -1.
         11    1    4    4    0    0 -0.19064129068E+02 -0.55706361200E+01 -0.50028923876E+02  0.53827188558E+02  0.00000000000E+00 0.  1.
</event>
<event>
 8    1  0.3710605E-009  0.2236801E+03  0.7561462E-02  0.1131169E+00
         -1   -1    0    0    0  501 -0.00000000000E+00  0.00000000000E+00  0.14110813614E+03  0.14110813614E+03  0.00000000000E+00 0.  1.
          1   -1    0    0  501    0  0.00000000000E+00 -0.00000000000E+00 -0.41396444077E+03  0.41396444077E+03  0.00000000000E+00 0. -1.
         25    2    1    2    0    0 -0.14774747128E+03 -0.13709143898E+03 -0.52869187326E+02  0.24303409570E+03  0.12508814009E+03 0.  0.
         23    2    1    2    0    0  0.14774747128E+03  0.13709143898E+03 -0.21998711730E+03  0.31203848121E+03  0.91379998176E+02 0.  0.
          5    1    3    3  502    0 -0.16736370904E+03 -0.12155229089E+03 -0.30337081023E+02  0.20910136635E+03  0.41800000000E+01 0.  1.
         -5    1    3    3    0  502  0.19616237751E+02 -0.15539148086E+02 -0.22532106303E+02  0.33932729351E+02  0.41800000000E+01 0.  1.
        -11    1    4    4    0    0  0.19589867056E+02  0.65360488420E+02 -0.10628589772E+03  0.12630300231E+03  0.00000000000E+00 0. -1.
         11    1    4    4    0    0  0.12815760423E+03  0.71730950556E+02 -0.11370121958E+03  0.18573547890E+03  0.00000000000E+00 0.  1.
</event>
<event>
 8    1  0.3710605E-009  0.1088692E+03  0.7561462E-02  0.1262678E+00
         -2   -1    0    0    0  501 -0.00000000000E+00  0.00000000000E+00  0.16918331435E+03  0.16918331435E+03  0.00000000000E+00 0.  1.
          2   -1    0    0  501    0  0.00000000000E+00 -0.00000000000E+00 -0.78229940480E+02  0.78229940480E+02  0.00000000000E+00 0. -1.
         25    2    1    2    0    0  0.10668439902E+02 -0.28492662207E+02  0.27529396416E+02  0.13164956664E+03  0.12509233917E+03 0.  0.
         23    2    1    2    0    0 -0.10668439902E+02  0.28492662207E+02  0.63423977452E+02  0.11576368819E+03  0.91940106470E+02 0.  0.
          5    1    3    3  502    0 -0.45180490037E+02  0.24127291919E+02  0.53564392897E+01  0.51667850131E+02  0.41800000000E+01 0. -1.
         -5    1    3    3    0  502  0.55848929940E+02 -0.52619954126E+02  0.22172957126E+02  0.79981716507E+02  0.41800000000E+01 0. -1.
        -11    1    4    4    0    0 -0.40056952028E+02  0.41218864927E+02  0.18085159630E+02  0.60254686378E+02  0.00000000000E+00 0. -1.
         11    1    4    4    0    0  0.29388512125E+02 -0.12726202720E+02  0.45338817822E+02  0.55509001812E+02  0.00000000000E+00 0.  1.
</event>
<event>
 8    1  0.3710605E-009  0.1123843E+03  0.7561462E-02  0.1256217E+00
          3   -1    0    0  501    0  0.00000000000E+00  0.00000000000E+00  0.27703549122E+02  0.27703549122E+02  0.00000000000E+00 0. -1.
         -3   -1    0    0    0  501 -0.00000000000E+00 -0.00000000000E+00 -0.47814706528E+03  0.47814706528E+03  0.00000000000E+00 0.  1.
         25    2    1    2    0    0  0.86275632814E+01  0.30887698392E+02 -0.24718010323E+03  0.27888035875E+03  0.12509103206E+03 0.  0.
         23    2    1    2    0    0 -0.86275632814E+01 -0.30887698392E+02 -0.20326341293E+03  0.22697025565E+03  0.95765323347E+02 0.  0.
          5    1    3    3  502    0  0.63624804056E+02 -0.86226997299E+00 -0.14644001734E+03  0.15972166503E+03  0.41800000000E+01 0. -1.
         -5    1    3    3    0  502 -0.54997240775E+02  0.31749968365E+02 -0.10074008589E+03  0.11915869372E+03  0.41800000000E+01 0. -1.
        -11    1    4    4    0    0 -0.32966461720E+02 -0.54341366821E+02 -0.15932739851E+03  0.17153714368E+03  0.00000000000E+00 0. -1.
         11    1    4    4    0    0  0.24338898439E+02  0.23453668428E+02 -0.43936014422E+02  0.55433111975E+02  0.00000000000E+00 0.  1.
</event>
<event>
 8    1  0.3710605E-009  0.1966881E+03  0.7561462E-02  0.1152564E+00
         -1   -1    0    0    0  501 -0.00000000000E+00  0.00000000000E+00  0.47744221922E+02  0.47744221922E+02  0.00000000000E+00 0.  1.
          1   -1    0    0  501    0  0.00000000000E+00 -0.00000000000E+00 -0.94021253407E+03  0.94021253407E+03  0.00000000000E+00 0. -1.
         25    2    1    2    0    0  0.15644296969E+03  0.84895697492E+02 -0.38558579012E+03  0.44272492811E+03  0.12508908110E+03 0.  0.
         23    2    1    2    0    0 -0.15644296969E+03 -0.84895697492E+02 -0.50688252203E+03  0.54523182788E+03  0.93092280959E+02 0.  0.
          5    1    3    3  502    0  0.15985075546E+03  0.41567096304E+02 -0.24491342842E+03  0.29543213660E+03  0.41800000000E+01 0.  1.
         -5    1    3    3    0  502 -0.34077857690E+01  0.43328601188E+02 -0.14067236170E+03  0.14729279151E+03  0.41800000000E+01 0.  1.
        -11    1    4    4    0    0 -0.71095536390E+02 -0.66153179575E+02 -0.15703617626E+03  0.18463796770E+03  0.00000000000E+00 0.  1.
         11    1    4    4    0    0 -0.85347433304E+02 -0.18742517916E+02 -0.34984634577E+03  0.36059386018E+03  0.00000000000E+00 0. -1.
</event>
<event>
 8    1  0.3710605E-009  0.1297315E+03  0.7561462E-02  0.1227855E+00
         -2   -1    0    0    0  501 -0.00000000000E+00  0.00000000000E+00  0.33445789745E+02  0.33445789745E+02  0.00000000000E+00 0.  1.
          2   -1    0    0  501    0  0.00000000000E+00 -0.00000000000E+00 -0.68495527210E+03  0.68495527210E+03  0.00000000000E+00 0. -1.
         25    2    1    2    0    0  0.55474434916E+01  0.99426791122E+02 -0.43134077094E+03  0.46001885445E+03  0.12508407113E+03 0.  0.
         23    2    1    2    0    0 -0.55474434916E+01 -0.99426791122E+02 -0.22016871141E+03  0.25838220739E+03  0.91491216470E+02 0.  0.
          5    1    3    3  502    0  0.14367458060E+02  0.12842031906E+03 -0.34807512115E+03  0.37131114253E+03  0.41800000000E+01 0. -1.
         -5    1    3    3    0  502 -0.88200145688E+01 -0.28993527942E+02 -0.83265649791E+02  0.88707711923E+02  0.41800000000E+01 0. -1.
        -11    1    4    4    0    0 -0.37235552284E+01 -0.67601413108E+02 -0.47278313101E+02  0.82577568428E+02  0.00000000000E+00 0.  1.
         11    1    4    4    0    0 -0.18238882632E+01 -0.31825378014E+02 -0.17289039831E+03  0.17580463897E+03  0.00000000000E+00 0. -1.
</event>
<event>
 8    1  0.3710605E-009  0.1098286E+03  0.7561462E-02  0.1260888E+00
          3   -1    0    0  501    0  0.00000000000E+00  0.00000000000E+00  0.16563177448E+02  0.16563177448E+02  0.00000000000E+00 0. -1.
         -3   -1    0    0    0  501 -0.00000000000E+00 -0.00000000000E+00 -0.78462967262E+03  0.78462967262E+03  0.00000000000E+00 0.  1.
         25    2    1    2    0    0  0.33081484591E+02 -0.73456693532E+01 -0.51292869950E+03  0.52904884025E+03  0.12509388923E+03 0.  0.
         23    2    1    2    0    0 -0.33081484591E+02  0.73456693532E+01 -0.25513779567E+03  0.27214400981E+03  0.88423547854E+02 0.  0.
          5    1    3    3  502    0  0.18276979743E+02  0.57882408982E+02 -0.20123645675E+03  0.21023321618E+03  0.41800000000E+01 0.  1.
         -5    1    3    3    0  502  0.14804504849E+02 -0.65228078335E+02 -0.31169224274E+03  0.31881562408E+03  0.41800000000E+01 0.  1.
        -11    1    4    4    0    0  0.14843098725E+02  0.33899857988E+02 -0.71534145912E+02  0.80539754052E+02  0.00000000000E+00 0. -1.
         11    1    4    4    0    0 -0.47924583316E+02 -0.26554188635E+02 -0.18360364976E+03  0.19160425576E+03  0.00000000000E+00 0.  1.
</event>
<event>
 8    1  0.3710605E-009  0.1302324E+03  0.7561462E-02  0.1227111E+00
          1   -1    0    0  501    0  0.00000000000E+00  0.00000000000E+00  0.27993236615E+03  0.27993236615E+03  0.00000000000E+00 0. -1.
         -1   -1    0    0    0  501 -0.00000000000E+00 -0.00000000000E+00 -0.11256655928E+03  0.11256655928E+03  0.00000000000E+00 0.  1.
         25    2    1    2    0    0 -0.94844598408E+02  0.69446008707E+02  0.51451926790E+01  0.17173909116E+03  0.12509834712E+03 0.  0.
         23    2    1    2    0    0  0.94844598408E+02 -0.69446008707E+02  0.16222061420E+03  0.22075983427E+03  0.92742281533E+02 0.  0.
          5    1    3    3  502    0 -0.99474427802E+02  0.36708687389E+02  0.48816674671E+02  0.11680423641E+03  0.41800000000E+01 0. -1.
         -5    1    3    3    0  502  0.46298293938E+01  0.32737321318E+02 -0.43671481992E+02  0.54934854752E+02  0.41800000000E+01 0. -1.
        -11    1    4    4    0    0  0.42410897799E+02 -0.48848150559E+02  0.19878735283E+02  0.67675624723E+02  0.00000000000E+00 0.  1.
         11    1    4    4    0    0  0.52433700609E+02 -0.20597858148E+02  0.14234187892E+03  0.15308420955E+03  0.00000000000E+00 0. -1.
</event>
<event>
 8    1  0.3710605E-009  0.8166429E+02  0.7561462E-02  0.1324394E+00
         -2   -1    0    0    0  501 -0.00000000000E+00  0.00000000000E+00  0.59759729039E+02  0.59759729039E+02  0.00000000000E+00 0.  1.
          2   -1    0    0  501    0  0.00000000000E+00 -0.00000000000E+00 -0.24383164958E+03  0.24383164958E+03  0.00000000000E+00 0. -1.
         25    2    1    2    0    0  0.15090573597E+00 -0.18243017993E+02 -0.44420827020E+02  0.13399712762E+03  0.12509672202E+03 0.  0.
         23    2    1    2    0    0 -0.15090573597E+00  0.18243017993E+02 -0.13965109352E+03  0.16959425100E+03  0.94482546385E+02 0.  0.
          5    1    3    3  502    0 -0.14682998834E+02  0.22283509708E+02 -0.75804235282E+02  0.80472975255E+02  0.41800000000E+01 0.  1.
         -5    1    3    3    0  502  0.14833904570E+02 -0.40526527702E+02  0.31383408263E+02  0.53524152366E+02  0.41800000000E+01 0.  1.
        -11    1    4    4    0    0  0.43897991057E+02 -0.31090845513E+01 -0.88244889190E+02  0.98609636921E+02  0.00000000000E+00 0.  1.
         11    1    4    4    0    0 -0.44048896793E+02  0.21352102545E+02 -0.51406204333E+02  0.70984614077E+02  0.00000000000E+00 0. -1.
</event>
<event>
 8    1  0.3710605E-009  0.1322873E+03  0.7561462E-02  0.1224101E+00
          2   -1    0    0  501    0  0.00000000000E+00  0.00000000000E+00  0.68015763466E+02  0.68015763466E+02  0.00000000000E+00 0. -1.
         -2   -1    0    0    0  501 -0.00000000000E+00 -0.00000000000E+00 -0.40662439196E+03  0.40662439196E+03  0.00000000000E+00 0.  1.
         25    2    1    2    0    0 -0.10814275921E+03 -0.10413072304E+02 -0.27060568220E+03  0.31729811842E+03  0.12508945709E+03 0.  0.
         23    2    1    2    0    0  0.10814275921E+03  0.10413072304E+02 -0.68002946301E+02  0.15734203700E+03  0.91262409893E+02 0.  0.
          5    1    3    3  502    0 -0.31383363919E+02 -0.52092702591E+02 -0.18556110920E+03  0.19531759481E+03  0.41800000000E+01 0. -1.
         -5    1    3    3    0  502 -0.76759395287E+02  0.41679630287E+02 -0.85044572991E+02  0.12198052361E+03  0.41800000000E+01 0. -1.
        -11    1    4    4    0    0  0.13605074715E+02 -0.12955651968E+02 -0.56187086228E+02  0.59244709761E+02  0.00000000000E+00 0.  1.
         11    1    4    4    0    0  0.94537684491E+02  0.23368724272E+02 -0.11815860074E+02  0.98097327243E+02  0.00000000000E+00 0. -1.
</event>
<event>
 8    1  0.3710605E-009  0.9697484E+02  0.7561462E-02  0.1286789E+00
         -1   -1    0    0    0  501 -0.00000000000E+00  0.00000000000E+00  0.24397101646E+03  0.24397101646E+03  0.00000000000E+00 0.  1.
          1   -1    0    0  501    0  0.00000000000E+00 -0.00000000000E+00 -0.58797532555E+02  0.58797532555E+02  0.00000000000E+00 0. -1.
         25    2    1    2    0    0 -0.15694921655E+02 -0.45800060800E+02  0.12978171230E+03  0.18664339232E+03  0.12509391238E+03 0.  0.
         23    2    1    2    0    0  0.15694921655E+02  0.45800060800E+02  0.55391771607E+02  0.11612515669E+03  0.89848914963E+02 0.  0.
          5    1    3    3  502    0  0.15679085457E+02 -0.68870023195E+02  0.25435670225E+02  0.75188825868E+02  0.41800000000E+01 0.  1.
         -5    1    3    3    0  502 -0.31374007112E+02  0.23069962395E+02  0.10434604207E+03  0.11145456645E+03  0.41800000000E+01 0.  1.
        -11    1    4    4    0    0 -0.22637582598E+02 -0.20342186026E+01  0.49592672640E+02  0.54553014314E+02  0.00000000000E+00 0.  1.
         11    1    4    4    0    0  0.38332504252E+02  0.47834279402E+02  0.57990989666E+01  0.61572142378E+02  0.00000000000E+00 0. -1.
</event>
<event>
 8    1  0.3710605E-009  0.2372775E+03  0.7561462E-02  0.1121620E+00
         -1   -1    0    0    0  501 -0.00000000000E+00  0.00000000000E+00  0.77528891048E+02  0.77528891048E+02  0.00000000000E+00 0.  1.
          1   -1    0    0  501    0  0.00000000000E+00 -0.00000000000E+00 -0.85152063978E+03  0.85152063978E+03  0.00000000000E+00 0. -1.
         25    2    1    2    0    0  0.10891368129E+03 -0.20306983895E+03 -0.45410101304E+03  0.52436176202E+03  0.12509187806E+03 0.  0.
         23    2    1    2    0    0 -0.10891368129E+03  0.20306983895E+03 -0.31989073569E+03  0.40468776881E+03  0.91337604430E+02 0.  0.
          5    1    3    3  502    0  0.41327518035E+02 -0.11580467108E+03 -0.11759201276E+03  0.17018824712E+03  0.41800000000E+01 0.  1.
         -5    1    3    3    0  502  0.67586163254E+02 -0.87265167868E+02 -0.33650900028E+03  0.35417351490E+03  0.41800000000E+01 0.  1.
        -11    1    4    4    0    0 -0.12052334535E+02  0.95738029482E+02 -0.83577119363E+02  0.12765642928E+03  0.00000000000E+00 0.  1.
         11    1    4    4    0    0 -0.96861346754E+02  0.10733180947E+03 -0.23631361633E+03  0.27703133953E+03  0.00000000000E+00 0. -1.
</event>
<event>
 8    1  0.3710605E-009  0.9639792E+02  0.7561462E-02  0.1288058E+00
         -1   -1    0    0    0  501 -0.00000000000E+00  0.00000000000E+00  0.77076139810E+02  0.77076139810E+02  0.00000000000E+00 0.  1.
          1   -1    0    0  501    0  0.00000000000E+00 -0.00000000000E+00 -0.16829337600E+03  0.16829337600E+03  0.00000000000E+00 0. -1.
         25    2    1    2    0    0 -0.19311006605E+02  0.35188635491E+02 -0.61474369418E+02  0.14504394744E+03  0.12508994184E+03 0.  0.
         23    2    1    2    0    0  0.19311006605E+02 -0.35188635491E+02 -0.29742866773E+02  0.10032556837E+03  0.87002451126E+02 0.  0.
          5    1    3    3  502    0 -0.67893142911E+02 -0.46758897067E+01 -0.36016189428E+02  0.77110188042E+02  0.41800000000E+01 0. -1.
         -5    1    3    3    0  502  0.48582136306E+02  0.39864525197E+02 -0.25458179990E+02  0.67933759396E+02  0.41800000000E+01 0. -1.
        -11    1    4    4    0    0 -0.14758232249E+02 -0.36470115093E+01  0.24557714042E+02  0.28882303077E+02  0.00000000000E+00 0.  1.
         11    1    4    4    0    0  0.34069238854E+02 -0.31541623981E+02 -0.54300580815E+02  0.71443265297E+02  0.00000000000E+00 0. -1.
</event>
<event>
 8    1  0.3710605E-009  0.9667881E+02  0.7561462E-02  0.1287439E+00
          2   -1    0    0  501    0  0.00000000000E+00  0.00000000000E+00  0.70467367787E+03  0.70467367787E+03  0.00000000000E+00 0. -1.
         -2   -1    0    0    0  501 -0.00000000000E+00 -0.00000000000E+00 -0.26025823013E+02  0.26025823013E+02  0.00000000000E+00 0.  1.
         25    2    1    2    0    0 -0.25798267473E+02  0.13729010301E+02  0.56871526099E+03  0.58304247923E+03  0.12508976046E+03 0.  0.
         23    2    1    2    0    0  0.25798267473E+02 -0.13729010301E+02  0.10993259387E+03  0.14765702166E+03  0.94145549666E+02 0.  0.
          5    1    3    3  502    0 -0.51992954133E+02  0.37358513461E+02  0.15430030411E+03  0.16710769598E+03  0.41800000000E+01 0.  1.
         -5    1    3    3    0  502  0.26194686660E+02 -0.23629503160E+02  0.41441495688E+03  0.41593478325E+03  0.41800000000E+01 0.  1.
        -11    1    4    4    0    0  0.44168042146E+02 -0.41349340650E+02  0.47355859103E+02  0.76832033102E+02  0.00000000000E+00 0.  1.
         11    1    4    4    0    0 -0.18369774673E+02  0.27620330348E+02  0.62576734771E+02  0.70824988561E+02  0.00000000000E+00 0. -1.
</event>
<event>
 8    1  0.3710605E-009  0.1280247E+03  0.7561462E-02  0.1230416E+00
          1   -1    0    0  501    0  0.00000000000E+00  0.00000000000E+00  0.12736077422E+03  0.12736077422E+03  0.00000000000E+00 0. -1.
         -1   -1    0    0    0  501 -0.00000000000E+00 -0.00000000000E+00 -0.16682139286E+03  0.16682139286E+03  0.00000000000E+00 0.  1.
         25    2    1    2    0    0 -0.48690876393E+02  0.76977580852E+02  0.14204482175E+02  0.15538932639E+03  0.12509087114E+03 0.  0.
         23    2    1    2    0    0  0.48690876393E+02 -0.76977580852E+02 -0.53665100820E+02  0.13879284069E+03  0.89928639399E+02 0.  0.
          5    1    3    3  502    0  0.32679190082E+02 -0.70317752820E+01  0.18202240006E+02  0.38290589826E+02  0.41800000000E+01 0.  1.
         -5    1    3    3    0  502 -0.81370066475E+02  0.84009356134E+02 -0.39977578312E+01  0.11709873656E+03  0.41800000000E+01 0.  1.
        -11    1    4    4    0    0  0.93439517857E+01  0.76031843797E+01 -0.43287444396E+02  0.44932401338E+02  0.00000000000E+00 0.  1.
         11    1    4    4    0    0  0.39346924608E+02 -0.84580765232E+02 -0.10377656424E+02  0.93860439356E+02  0.00000000000E+00 0. -1.
</event>
<event>
 8    1  0.3710605E-009  0.1165739E+03  0.7561462E-02  0.1248858E+00
         -2   -1    0    0    0  501 -0.00000000000E+00  0.00000000000E+00  0.15815831411E+03  0.15815831411E+03  0.00000000000E+00 0.  1.
          2   -1    0    0  501    0  0.00000000000E+00 -0.00000000000E+00 -0.16820058985E+03  0.16820058985E+03  0.00000000000E+00 0. -1.
         25    2    1    2    0    0  0.58838010599E+02  0.83514865393E+02 -0.68686856596E+02  0.17550311755E+03  0.12508723263E+03 0.  0.
         23    2    1    2    0    0 -0.58838010599E+02 -0.83514865393E+02  0.58644580862E+02  0.15085578641E+03  0.94242438406E+02 0.  0.
          5    1    3    3  502    0  0.46913926519E+02  0.57938522824E+02  0.24075675408E+02  0.78453167398E+02  0.41800000000E+01 0.  1.
         -5    1    3    3    0  502  0.11924084080E+02  0.25576342569E+02 -0.92762532004E+02  0.97049950151E+02  0.41800000000E+01 0.  1.
        -11    1    4    4    0    0  0.27758645762E+01 -0.65778404108E+02  0.56414308171E+02  0.86701084408E+02  0.00000000000E+00 0.  1.
         11    1    4    4    0    0 -0.61613875175E+02 -0.17736461285E+02  0.22302726912E+01  0.64154702004E+02  0.00000000000E+00 0. -1.
</event>
<event>
 8    1  0.3710605E-009  0.1072398E+03  0.7561462E-02  0.1265768E+00
          1   -1    0    0  501    0  0.00000000000E+00  0.00000000000E+00  0.46769830074E+02  0.46769830074E+02  0.00000000000E+00 0. -1.
         -1   -1    0    0    0  501 -0.00000000000E+00 -0.00000000000E+00 -0.40008583596E+03  0.40008583596E+03  0.00000000000E+00 0.  1.
         25    2    1    2    0    0 -0.65845101131E+02  0.43376713845E+02 -0.22858309927E+03  0.27223322498E+03  0.12507429338E+03 0.  0.
         23    2    1    2    0    0  0.65845101131E+02 -0.43376713845E+02 -0.12473290661E+03  0.17462244105E+03  0.93367993874E+02 0.  0.
          5    1    3    3  502    0  0.17381506598E+02  0.79033975403E+01  0.62659098792E+01  0.20525946772E+02  0.41800000000E+01 0. -1.
         -5    1    3    3    0  502 -0.83226607729E+02  0.35473316305E+02 -0.23484900915E+03  0.25170727821E+03  0.41800000000E+01 0. -1.
        -11    1    4    4    0    0  0.14845049570E+01 -0.39882731196E+02 -0.96168647128E+02  0.10412129798E+03  0.00000000000E+00 0.  1.
         11    1    4    4    0    0  0.64360596174E+02 -0.34939826495E+01 -0.28564259487E+02  0.70501143074E+02  0.00000000000E+00 0. -1.
</event>
<event>
 8    1  0.3710605E-009  0.1112874E+03  0.7561462E-02  0.1258204E+00
         -3   -1    0    0    0  501 -0.00000000000E+00  0.00000000000E+00  0.82976658555E+02  0.82976658555E+02  0.00000000000E+00 0.  1.
          3   -1    0    0  501    0  0.00000000000E+00 -0.00000000000E+00 -0.16064903728E+03  0.16064903728E+03  0.00000000000E+00 0. -1.
         25    2    1    2    0    0 -0.36624509576E+02  0.19220610621E+02 -0.42186133698E+02  0.13834032732E+03  0.12509032621E+03 0.  0.
         23    2    1    2    0    0  0.36624509576E+02 -0.19220610621E+02 -0.35486245027E+02  0.10528536852E+03  0.90083009852E+02 0.  0.
          5    1    3    3  502    0 -0.78699060798E+02  0.31084146249E+02 -0.13247136171E+02  0.85748034002E+02  0.41800000000E+01 0.  1.
         -5    1    3    3    0  502  0.42074551222E+02 -0.11863535628E+02 -0.28938997527E+02  0.52592293314E+02  0.41800000000E+01 0.  1.
        -11    1    4    4    0    0 -0.16894958075E+02 -0.34388353257E+02 -0.31347781152E+02  0.49504361739E+02  0.00000000000E+00 0. -1.
         11    1    4    4    0    0  0.53519467651E+02  0.15167742636E+02 -0.41384638755E+01  0.55781006781E+02  0.00000000000E+00 0.  1.
</event>
<event>
 8    1  0.3710605E-009  0.7300088E+02  0.7561462E-02  0.1350176E+00
          2   -1    0    0  501    0  0.00000000000E+00  0.00000000000E+00  0.27947688665E+02  0.27947688665E+02  0.00000000000E+00 0. -1.
         -2   -1    0    0    0  501 -0.00000000000E+00 -0.00000000000E+00 -0.42611520892E+03  0.42611520892E+03  0.00000000000E+00 0.  1.
         25    2    1    2    0    0 -0.13146092981E+01 -0.11899339495E+01 -0.27735841822E+03  0.30426795733E+03  0.12509257996E+03 0.  0.
         23    2    1    2    0    0  0.13146092981E+01  0.11899339495E+01 -0.12080910203E+03  0.14979494025E+03  0.88546828572E+02 0.  0.
          5    1    3    3  502    0 -0.29954551060E+02 -0.24087266413E+02 -0.26108764765E+03  0.26393503687E+03  0.41800000000E+01 0.  1.
         -5    1    3    3    0  502  0.28639941762E+02  0.22897332463E+02 -0.16270770572E+02  0.40332920463E+02  0.41800000000E+01 0.  1.
        -11    1    4    4    0    0  0.79830718697E+01 -0.33842044533E+02 -0.14516069534E+02  0.37679300542E+02  0.00000000000E+00 0. -1.
         11    1    4    4    0    0 -0.66684625716E+01  0.35031978482E+02 -0.10629303250E+03  0.11211563971E+03  0.00000000000E+00 0.  1.
</event>
<event>
 8    1  0.3710605E-009  0.1213331E+03  0.7561462E-02  0.1240914E+00
         -2   -1    0    0    0  501 -0.00000000000E+00  0.00000000000E+00  0.18837305349E+03  0.18837305349E+03  0.00000000000E+00 0.  1.
          2   -1    0    0  501    0  0.00000000000E+00 -0.00000000000E+00 -0.10094674865E+03  0.10094674865E+03  0.00000000000E+00 0. -1.
         25    2    1    2    0    0  0.60454656617E+02 -0.52944242759E+02  0.75716305224E+02  0.16684776290E+03  0.12508940307E+03 0.  0.
         23    2    1    2    0    0 -0.60454656617E+02  0.52944242759E+02  0.11709999623E+02  0.12247203924E+03  0.91675612657E+02 0.  0.
          5    1    3    3  502    0  0.66888858273E+02  0.73761867683E+00 -0.75847366351E+01  0.67451197708E+02  0.41800000000E+01 0.  1.
         -5    1    3    3    0  502 -0.64342016560E+01 -0.53681861436E+02  0.83301041859E+02  0.99396565197E+02  0.41800000000E+01 0.  1.
        -11    1    4    4    0    0 -0.77403690476E+02  0.13618361569E+02  0.22929992245E+01  0.78626006617E+02  0.00000000000E+00 0. -1.
         11    1    4    4    0    0  0.16949033859E+02  0.39325881190E+02  0.94170003981E+01  0.43846032621E+02  0.00000000000E+00 0.  1.
</event>
<event>
 8    1  0.3710605E-009  0.1269677E+03  0.7561462E-02  0.1232026E+00
         -1   -1    0    0    0  501 -0.00000000000E+00  0.00000000000E+00  0.18918986799E+03  0.18918986799E+03  0.00000000000E+00 0.  1.
          1   -1    0    0  501    0  0.00000000000E+00 -0.00000000000E+00 -0.18303950140E+03  0.18303950140E+03  0.00000000000E+00 0. -1.
         25    2    1    2    0    0  0.37064193658E+02 -0.80971650268E+02  0.12507660991E+03  0.19804574161E+03  0.12509114606E+03 0.  0.
         23    2    1    2    0    0 -0.37064193658E+02  0.80971650268E+02 -0.11892624332E+03  0.17418362778E+03  0.90919317185E+02 0.  0.
          5    1    3    3  502    0  0.68990856458E+02 -0.39311452946E+02  0.12158443237E+03  0.14527689149E+03  0.41800000000E+01 0. -1.
         -5    1    3    3    0  502 -0.31926662800E+02 -0.41660197322E+02  0.34921775421E+01  0.52768850115E+02  0.41800000000E+01 0. -1.
        -11    1    4    4    0    0  0.21918755605E+02  0.41104144053E+00 -0.46073721886E+01  0.22401533001E+02  0.00000000000E+00 0.  1.
         11    1    4    4    0    0 -0.58982949263E+02  0.80560608828E+02 -0.11431887113E+03  0.15178209478E+03  0.00000000000E+00 0. -1.
</event>
<event>
 8    1  0.3710605E-009  0.1191357E+03  0.7561462E-02  0.1244530E+00
          1   -1    0    0  501    0  0.00000000000E+00  0.00000000000E+00  0.44246267729E+02  0.44246267729E+02  0.00000000000E+00 0. -1.
         -1   -1    0    0    0  501 -0.00000000000E+00 -0.00000000000E+00 -0.53402665677E+03  0.53402665677E+03  0.00000000000E+00 0.  1.
         25    2    1    2    0    0  0.89009751333E+02 -0.38678537300E+02 -0.18189747356E+03  0.24114816882E+03  0.12508790254E+03 0.  0.
         23    2    1    2    0    0 -0.89009751333E+02  0.38678537300E+02 -0.30788291548E+03  0.33712475567E+03  0.97172249954E+02 0.  0.
          5    1    3    3  502    0  0.78604086339E+02  0.19943345137E+02 -0.15644353781E+03  0.17626228277E+03  0.41800000000E+01 0.  1.
         -5    1    3    3    0  502  0.10405664994E+02 -0.58621882437E+02 -0.25453935752E+02  0.64885886059E+02  0.41800000000E+01 0.  1.
        -11    1    4    4    0    0 -0.75141923224E+02  0.35739960250E+02 -0.31155996933E+03  0.32247987204E+03  0.00000000000E+00 0.  1.
         11    1    4    4    0    0 -0.13867828110E+02  0.29385770504E+01  0.36770538459E+01  0.14644883630E+02  0.00000000000E+00 0. -1.
</event>
<event>
 8    1  0.3710605E-009  0.2154933E+03  0.7561462E-02  0.1137288E+00
          1   -1    0    0  501    0  0.00000000000E+00  0.00000000000E+00  0.22366184629E+03  0.22366184629E+03  0.00000000000E+00 0. -1.
         -1   -1    0    0    0  501 -0.00000000000E+00 -0.00000000000E+00 -0.20888409068E+03  0.20888409068E+03  0.00000000000E+00 0.  1.
         25    2    1    2    0    0 -0.38678649340E+02 -0.18294332049E+03  0.87740084080E+01  0.22514532784E+03  0.12509651874E+03 0.  0.
         23    2    1    2    0    0  0.38678649340E+02  0.18294332049E+03  0.60037471969E+01  0.20740060912E+03  0.89524696356E+02 0.  0.
          5    1    3    3  502    0  0.37102997815E+02 -0.12102515280E+03  0.11351307295E+02  0.12716149038E+03  0.41800000000E+01 0. -1.
         -5    1    3    3    0  502 -0.75781647155E+02 -0.61918167687E+02 -0.25772988874E+01  0.97983837467E+02  0.41800000000E+01 0. -1.
        -11    1    4    4    0    0  0.13445604934E+02  0.18053509293E+03 -0.12358693760E+01  0.18103930912E+03  0.00000000000E+00 0.  1.
         11    1    4    4    0    0  0.25233044406E+02  0.24082275577E+01  0.72396165729E+01  0.26361300007E+02  0.00000000000E+00 0. -1.
</event>
<event>
 8    1  0.3710605E-009  0.8550297E+02  0.7561462E-02  0.1314122E+00
         -3   -1    0    0    0  501 -0.00000000000E+00  0.00000000000E+00  0.34546443014E+02  0.34546443014E+02  0.00000000000E+00 0.  1.
          3   -1    0    0  501    0  0.00000000000E+00 -0.00000000000E+00 -0.55640046999E+03  0.55640046999E+03  0.00000000000E+00 0. -1.
         25    2    1    2    0    0  0.17909102273E+01 -0.19336605720E+02 -0.46764602444E+03  0.48447566204E+03  0.12508697475E+03 0.  0.
         23    2    1    2    0    0 -0.17909102273E+01  0.19336605720E+02 -0.54208002529E+02  0.10647125096E+03  0.89557289276E+02 0.  0.
          5    1    3    3  502    0  0.18389974242E+02  0.26638290468E+02 -0.30776834975E+02  0.44860624636E+02  0.41800000000E+01 0.  1.
         -5    1    3    3    0  502 -0.16599064015E+02 -0.45974896188E+02 -0.43686918947E+03  0.43961503741E+03  0.41800000000E+01 0.  1.
        -11    1    4    4    0    0  0.35607424806E+02 -0.14907039306E+02 -0.35435688823E+02  0.52400348897E+02  0.00000000000E+00 0. -1.
         11    1    4    4    0    0 -0.37398335033E+02  0.34243645026E+02 -0.18772313706E+02  0.54070902062E+02  0.00000000000E+00 0.  1.
</event>
<event>
 8    1  0.3710605E-009  0.1814510E+03  0.7561462E-02  0.1166406E+00
         -2   -1    0    0    0  501 -0.00000000000E+00  0.00000000000E+00  0.88393620625E+03  0.88393620625E+03  0.00000000000E+00 0.  1.
          2   -1    0    0  501    0  0.00000000000E+00 -0.00000000000E+00 -0.42072913385E+02  0.42072913385E+02  0.00000000000E+00 0. -1.
         25    2    1    2    0    0 -0.90798097705E+01 -0.15781055864E+03  0.39971971279E+03  0.44767182935E+03  0.12509037788E+03 0.  0.
         23    2    1    2    0    0  0.90798097705E+01  0.15781055864E+03  0.44214358008E+03  0.47833729029E+03  0.91263368931E+02 0.  0.
          5    1    3    3  502    0 -0.56575797511E+02 -0.37993825411E+02  0.96908618309E+02  0.11854579004E+03  0.41800000000E+01 0. -1.
         -5    1    3    3    0  502  0.47495987741E+02 -0.11981673323E+03  0.30281109448E+03  0.32912603931E+03  0.41800000000E+01 0. -1.
        -11    1    4    4    0    0 -0.19907249923E+02  0.85017896467E+02  0.33119257418E+03  0.34250965316E+03  0.00000000000E+00 0.  1.
         11    1    4    4    0    0  0.28987059694E+02  0.72792662174E+02  0.11095100591E+03  0.13582763713E+03  0.00000000000E+00 0. -1.
</event>
<event>
 8    1  0.3710605E-009  0.1014360E+03  0.7561462E-02  0.1277305E+00
         -3   -1    0    0    0  501 -0.00000000000E+00  0.00000000000E+00  0.31339331983E+02  0.31339331983E+02  0.00000000000E+00 0.  1.
          3   -1    0    0  501    0  0.00000000000E+00 -0.00000000000E+00 -0.46638629255E+03  0.46638629255E+03  0.00000000000E+00 0. -1.
         25    2    1    2    0    0  0.28020852457E+02 -0.33820372613E+02 -0.20584450640E+03  0.24484403563E+03  0.12509058795E+03 0.  0.
         23    2    1    2    0    0 -0.28020852457E+02  0.33820372613E+02 -0.22920245417E+03  0.25288158890E+03  0.97397881046E+02 0.  0.
          5    1    3    3  502    0  0.20105328693E+02  0.37908045393E+02 -0.24417626037E+02  0.49547320903E+02  0.41800000000E+01 0.  1.
         -5    1    3    3    0  502  0.79155237637E+01 -0.71728418006E+02 -0.18142688036E+03  0.19529671473E+03  0.41800000000E+01 0.  1.
        -11    1    4    4    0    0 -0.53663044447E+02  0.15167187249E+02 -0.20646374084E+03  0.21386220374E+03  0.00000000000E+00 0. -1.
         11    1    4    4    0    0  0.25642191990E+02  0.18653185364E+02 -0.22738713330E+02  0.39019385159E+02  0.00000000000E+00 0.  1.
</event>
<event>
 8    1  0.3710605E-009  0.8623735E+02  0.7561462E-02  0.1312228E+00
         -1   -1    0    0    0  501 -0.00000000000E+00  0.00000000000E+00  0.18878021150E+03  0.18878021150E+03  0.00000000000E+00 0.  1.
          1   -1    0    0  501    0  0.00000000000E+00 -0.00000000000E+00 -0.71248919274E+02  0.71248919274E+02  0.00000000000E+00 0. -1.
         25    2    1    2    0    0 -0.32068285049E+02  0.16778896234E+02  0.52335156974E+02  0.14034289551E+03  0.12508898193E+03 0.  0.
         23    2    1    2    0    0  0.32068285049E+02 -0.16778896234E+02  0.65196135247E+02  0.11968623526E+03  0.93618121078E+02 0.  0.
          5    1    3    3  502    0 -0.77831613657E+02  0.23263181492E+02  0.46156101580E+02  0.93524295296E+02  0.41800000000E+01 0. -1.
         -5    1    3    3    0  502  0.45763328608E+02 -0.64842852581E+01  0.61790553944E+01  0.46818600216E+02  0.41800000000E+01 0. -1.
        -11    1    4    4    0    0  0.29936732533E+02 -0.22295025405E+01  0.87760816334E+02  0.92753110568E+02  0.00000000000E+00 0.  1.
         11    1    4    4    0    0  0.21315525163E+01 -0.14549393693E+02 -0.22564681088E+02  0.26933124690E+02  0.00000000000E+00 0. -1.
</event>
<event>
 8    1  0.3710605E-009  0.9906521E+02  0.7561462E-02  0.1282274E+00
          1   -1    0    0  501    0  0.00000000000E+00  0.00000000000E+00  0.62060837364E+02  0.62060837364E+02  0.00000000000E+00 0. -1.
         -1   -1    0    0    0  501 -0.00000000000E+00 -0.00000000000E+00 -0.22857006574E+03  0.22857006574E+03  0.00000000000E+00 0.  1.
         25    2    1    2    0    0 -0.44085532381E+02 -0.98727396155E+01 -0.61674092274E+02  0.14660127044E+03  0.12508890312E+03 0.  0.
         23    2    1    2    0    0  0.44085532381E+02  0.98727396155E+01 -0.10483513610E+03  0.14402963266E+03  0.87824393934E+02 0.  0.
          5    1    3    3  502    0 -0.82551098246E+02 -0.28827045329E+02 -0.27969846065E+02  0.91899222265E+02  0.41800000000E+01 0.  1.
         -5    1    3    3    0  502  0.38465565865E+02  0.18954305714E+02 -0.33704246209E+02  0.54702048178E+02  0.41800000000E+01 0.  1.
        -11    1    4    4    0    0  0.46577376821E+02  0.24527400954E+02 -0.11469067043E+03  0.12619427607E+03  0.00000000000E+00 0.  1.
         11    1    4    4    0    0 -0.24918444398E+01 -0.14654661338E+02  0.98555343318E+01  0.17835356588E+02  0.00000000000E+00 0. -1.
</event>
<event>
 8    1  0.3710605E-009  0.2203983E+03  0.7561462E-02  0.1133586E+00
         -1   -1    0    0    0  501 -0.00000000000E+00  0.00000000000E+00  0.21486052315E+03  0.21486052315E+03  0.00000000000E+00 0.  1.
          1   -1    0    0  501    0  0.00000000000E+00 -0.00000000000E+00 -0.24446217873E+03  0.24446217873E+03  0.00000000000E+00 0. -1.
         25    2    1    2    0    0 -0.49485893131E+02 -0.19464453949E+03 -0.43252389258E+02  0.24052395895E+03  0.12508259384E+03 0.  0.
         23    2    1    2    0    0  0.49485893131E+02  0.19464453949E+03  0.13650733682E+02  0.21879874293E+03  0.85739121796E+02 0.  0.
          5    1    3    3  502    0 -0.99179367936E+01 -0.18158717987E+03 -0.65209352366E+02  0.19324078607E+03  0.41800000000E+01 0. -1.
         -5    1    3    3    0  502 -0.39567956338E+02 -0.13057359617E+02  0.21956963108E+02  0.47283172882E+02  0.41800000000E+01 0. -1.
        -11    1    4    4    0    0 -0.22691801737E+02  0.33711565764E+02  0.12150236498E+02  0.42414806133E+02  0.00000000000E+00 0.  1.
         11    1    4    4    0    0  0.72177694869E+02  0.16093297373E+03  0.15004971835E+01  0.17638393680E+03  0.00000000000E+00 0. -1.
</event>
<event>
 8    1  0.3710605E-009  0.2937929E+03  0.7561462E-02  0.1088385E+00
         -2   -1    0    0    0  501 -0.00000000000E+00  0.00000000000E+00  0.90570364467E+02  0.90570364467E+02  0.00000000000E+00 0.  1.
          2   -1    0    0  501    0  0.00000000000E+00 -0.00000000000E+00 -0.10326180983E+04  0.10326180983E+04  0.00000000000E+00 0. -1.
         25    2    1    2    0    0 -0.27346347859E+03 -0.81003747221E+02 -0.52300404113E+03  0.60870768775E+03  0.12509172997E+03 0.  0.
         23    2    1    2    0    0  0.27346347859E+03  0.81003747221E+02 -0.41904369275E+03  0.51448077506E+03  0.88028235709E+02 0.  0.
          5    1    3    3  502    0 -0.76984594641E+02 -0.57622049130E+02 -0.27535663399E+03  0.29169449196E+03  0.41800000000E+01 0.  1.
         -5    1    3    3    0  502 -0.19647888395E+03 -0.23381698091E+02 -0.24764740713E+03  0.31701319579E+03  0.41800000000E+01 0.  1.
        -11    1    4    4    0    0  0.14631443105E+02  0.24438586505E+02 -0.17571168798E+02  0.33467441053E+02  0.00000000000E+00 0.  1.
         11    1    4    4    0    0  0.25883203549E+03  0.56565160716E+02 -0.40147252395E+03  0.48101333400E+03  0.00000000000E+00 0. -1.
</event>
<event>
 8    1  0.3710605E-009  0.1246619E+03  0.7561462E-02  0.1235599E+00
         -3   -1    0    0    0  501 -0.00000000000E+00  0.00000000000E+00  0.29968041322E+03  0.29968041322E+03  0.00000000000E+00 0.  1.
          3   -1    0    0  501    0  0.00000000000E+00 -0.00000000000E+00 -0.10348944568E+03  0.10348944568E+03  0.00000000000E+00 0. -1.
         25    2    1    2    0    0 -0.18590689328E+02  0.10564191513E+03  0.20419668802E+03  0.26239510484E+03  0.12509626566E+03 0.  0.
         23    2    1    2    0    0  0.18590689328E+02 -0.10564191513E+03 -0.80057204805E+01  0.14077475405E+03  0.90816363378E+02 0.  0.
          5    1    3    3  502    0  0.62027697278E+01  0.89051342123E+02  0.21302016071E+03  0.23100579464E+03  0.41800000000E+01 0. -1.
         -5    1    3    3    0  502 -0.24793459056E+02  0.16590573006E+02 -0.88234726890E+01  0.31389310201E+02  0.41800000000E+01 0. -1.
        -11    1    4    4    0    0 -0.15433785283E+02 -0.91823785055E+02  0.19201349452E+02  0.95071031607E+02  0.00000000000E+00 0.  1.
         11    1    4    4    0    0  0.34024474611E+02 -0.13818130073E+02 -0.27207069933E+02  0.45703722448E+02  0.00000000000E+00 0. -1.
</event>
<event>
 8    1  0.3710605E-009  0.9753008E+02  0.7561462E-02  0.1285577E+00
          1   -1    0    0  501    0  0.00000000000E+00  0.00000000000E+00  0.65542981278E+03  0.65542981278E+03  0.00000000000E+00 0. -1.
         -1   -1    0    0    0  501 -0.00000000000E+00 -0.00000000000E+00 -0.20866788341E+02  0.20866788341E+02  0.00000000000E+00 0.  1.
         25    2    1    2    0    0 -0.11906535571E+02 -0.39614257653E+02  0.39449438404E+03  0.41591377766E+03  0.12508955355E+03 0.  0.
         23    2    1    2    0    0  0.11906535571E+02  0.39614257653E+02  0.24006864040E+03  0.26038282346E+03  0.91952203092E+02 0.  0.
          5    1    3    3  502    0 -0.50967869644E+02  0.24300357144E+02  0.17814226494E+03  0.18692343366E+03  0.41800000000E+01 0. -1.
         -5    1    3    3    0  502  0.39061334073E+02 -0.63914614797E+02  0.21635211910E+03  0.22899034400E+03  0.41800000000E+01 0. -1.
        -11    1    4    4    0    0  0.18649978106E+02 -0.41766102498E+01  0.31658578767E+01  0.19372362082E+02  0.00000000000E+00 0.  1.
         11    1    4    4    0    0 -0.67434425354E+01  0.43790867903E+02  0.23690278252E+03  0.24101046138E+03  0.00000000000E+00 0. -1.
</event>
<event>
 8    1  0.3710605E-009  0.1235374E+03  0.7561462E-02  0.1237373E+00
         -1   -1    0    0    0  501 -0.00000000000E+00  0.00000000000E+00  0.43477609283E+02  0.43477609283E+02  0.00000000000E+00 0.  1.
          1   -1    0    0  501    0  0.00000000000E+00 -0.00000000000E+00 -0.50162476593E+03  0.50162476593E+03  0.00000000000E+00 0. -1.
         25    2    1    2    0    0  0.45234255421E+02 -0.88977850003E+02 -0.24380207730E+03  0.29163074985E+03  0.12508335503E+03 0.  0.
         23    2    1    2    0    0 -0.45234255421E+02  0.88977850003E+02 -0.21434507935E+03  0.25347162537E+03  0.91328287897E+02 0.  0.
          5    1    3    3  502    0  0.74339943471E+02 -0.28323709230E+02 -0.73166721532E+02  0.10816423272E+03  0.41800000000E+01 0.  1.
         -5    1    3    3    0  502 -0.29105688049E+02 -0.60654140773E+02 -0.17063535577E+03  0.18346651713E+03  0.41800000000E+01 0.  1.
        -11    1    4    4    0    0 -0.24353816876E+02  0.54582785472E+02 -0.20307216355E+03  0.21168536197E+03  0.00000000000E+00 0. -1.
         11    1    4    4    0    0 -0.20880438545E+02  0.34395064530E+02 -0.11272915807E+02  0.41786263397E+02  0.00000000000E+00 0.  1.
</event>
<event>
 8    1  0.3710605E-009  0.1129360E+03  0.7561462E-02  0.1255227E+00
         -2   -1    0    0    0  501 -0.00000000000E+00  0.00000000000E+00  0.20523548903E+03  0.20523548903E+03  0.00000000000E+00 0.  1.
          2   -1    0    0  501    0  0.00000000000E+00 -0.00000000000E+00 -0.66380901923E+02  0.66380901923E+02  0.00000000000E+00 0. -1.
         25    2    1    2    0    0 -0.85114011629E+01 -0.37336801693E+02  0.86539351292E+02  0.15685499501E+03  0.12509176402E+03 0.  0.
         23    2    1    2    0    0  0.85114011629E+01  0.37336801693E+02  0.52315235819E+02  0.11476139595E+03  0.94693259479E+02 0.  0.
          5    1    3    3  502    0 -0.24485222290E+02 -0.76948304556E+02  0.79447981963E+02  0.11335793718E+03  0.41800000000E+01 0. -1.
         -5    1    3    3    0  502  0.15973821128E+02  0.39611502863E+02  0.70913693293E+01  0.43497057825E+02  0.41800000000E+01 0. -1.
        -11    1    4    4    0    0  0.46239929870E+02  0.43950656271E+02  0.31038430172E+02  0.70944876126E+02  0.00000000000E+00 0. -1.
         11    1    4    4    0    0 -0.37728528707E+02 -0.66138545780E+01  0.21276805647E+02  0.43816519822E+02  0.00000000000E+00 0.  1.
</event>
<event>
 8    1  0.3710605E-009  0.9351741E+02  0.7561462E-02  0.1294551E+00
         -2   -1    0    0    0  501 -0.00000000000E+00  0.00000000000E+00  0.11122287101E+03  0.11122287101E+03  0.00000000000E+00 0.  1.
          2   -1    0    0  501    0  0.00000000000E+00 -0.00000000000E+00 -0.11655843204E+03  0.11655843204E+03  0.00000000000E+00 0. -1.
         25    2    1    2    0    0  0.36393613480E+02  0.13189060879E+02 -0.45581239392E+01  0.13102508616E+03  0.12509336625E+03 0.  0.
         23    2    1    2    0    0 -0.36393613480E+02 -0.13189060879E+02 -0.77743709448E+00  0.96756216888E+02  0.88671949730E+02 0.  0.
          5    1    3    3  502    0  0.20458580270E+02  0.65598878938E+02  0.18745873778E+02  0.71348767391E+02  0.41800000000E+01 0. -1.
         -5    1    3    3    0  502  0.15935033210E+02 -0.52409818059E+02 -0.23303997717E+02  0.59676318770E+02  0.41800000000E+01 0. -1.
        -11    1    4    4    0    0 -0.46601217002E+02 -0.30727809440E-01 -0.35276833694E+02  0.58447663475E+02  0.00000000000E+00 0. -1.
         11    1    4    4    0    0  0.10207603522E+02 -0.13158333070E+02  0.34499396599E+02  0.38308553412E+02  0.00000000000E+00 0.  1.
</event>
<event>
 8    1  0.3710605E-009  0.1091269E+03  0.7561462E-02  0.1262195E+00
         -2   -1    0    0    0  501 -0.00000000000E+00  0.00000000000E+00  0.79248478072E+02  0.79248478072E+02  0.00000000000E+00 0.  1.
          2   -1    0    0  501    0  0.00000000000E+00 -0.00000000000E+00 -0.20829685879E+03  0.20829685879E+03  0.00000000000E+00 0. -1.
         25    2    1    2    0    0 -0.60678885375E+02 -0.29338936689E+02 -0.62021282961E+02  0.15503809378E+03  0.12508985029E+03 0.  0.
         23    2    1    2    0    0  0.60678885375E+02  0.29338936689E+02 -0.67027097754E+02  0.13250724308E+03  0.92319214137E+02 0.  0.
          5    1    3    3  502    0  0.22517660849E+02  0.25601264646E+02  0.51704695092E+01  0.34737241637E+02  0.41800000000E+01 0.  1.
         -5    1    3    3    0  502 -0.83196546223E+02 -0.54940201335E+02 -0.67191752470E+02  0.12030085214E+03  0.41800000000E+01 0.  1.
        -11    1    4    4    0    0  0.69582402227E+02  0.23392800480E+02 -0.95341566965E+01  0.74025900588E+02  0.00000000000E+00 0.  1.
         11    1    4    4    0    0 -0.89035168524E+01  0.59461362084E+01 -0.57492941057E+02  0.58481342491E+02  0.00000000000E+00 0. -1.
</event>
<event>
 8    1  0.3710605E-009  0.1350927E+03  0.7561462E-02  0.1220089E+00
         -1   -1    0    0    0  501 -0.00000000000E+00  0.00000000000E+00  0.44187559445E+02  0.44187559445E+02  0.00000000000E+00 0.  1.
          1   -1    0    0  501    0  0.00000000000E+00 -0.00000000000E+00 -0.68507958834E+03  0.68507958834E+03  0.00000000000E+00 0. -1.
         25    2    1    2    0    0  0.13673222856E+02  0.11815043058E+03 -0.20601501332E+03  0.26876777444E+03  0.12508976615E+03 0.  0.
         23    2    1    2    0    0 -0.13673222856E+02 -0.11815043058E+03 -0.43487701558E+03  0.46049937335E+03  0.93782583155E+02 0.  0.
          5    1    3    3  502    0 -0.62676434077E+01  0.63186672659E+01  0.16323514335E+02  0.19056191386E+02  0.41800000000E+01 0.  1.
         -5    1    3    3    0  502  0.19940866264E+02  0.11183176331E+03 -0.22233852765E+03  0.24971158305E+03  0.41800000000E+01 0.  1.
        -11    1    4    4    0    0  0.34763047969E+02 -0.71150867306E+02 -0.29094675870E+03  0.30153097987E+03  0.00000000000E+00 0. -1.
         11    1    4    4    0    0 -0.48436270826E+02 -0.46999563272E+02 -0.14393025688E+03  0.15896839348E+03  0.00000000000E+00 0.  1.
</event>
<event>
 8    1  0.3710605E-009  0.1542642E+03  0.7561462E-02  0.1195329E+00
         -2   -1    0    0    0  501 -0.00000000000E+00  0.00000000000E+00  0.13180335830E+03  0.13180335830E+03  0.00000000000E+00 0.  1.
          2   -1    0    0  501    0  0.00000000000E+00 -0.00000000000E+00 -0.19273370443E+03  0.19273370443E+03  0.00000000000E+00 0. -1.
         25    2    1    2    0    0 -0.10740345006E+03 -0.45998298081E+02 -0.27081384622E+02  0.17329630459E+03  0.12508742255E+03 0.  0.
         23    2    1    2    0    0  0.10740345006E+03  0.45998298081E+02 -0.33848961504E+02  0.15124075814E+03  0.89870296638E+02 0.  0.
          5    1    3    3  502    0 -0.13116002273E+03 -0.15567621516E+02 -0.17501411061E+02  0.13330069089E+03  0.41800000000E+01 0. -1.
         -5    1    3    3    0  502  0.23756572676E+02 -0.30430676564E+02 -0.95799735612E+01  0.39995613696E+02  0.41800000000E+01 0. -1.
        -11    1    4    4    0    0  0.16096484634E+02 -0.19422423601E+02 -0.29523932649E+02  0.38832846344E+02  0.00000000000E+00 0. -1.
         11    1    4    4    0    0  0.91306965423E+02  0.65420721682E+02 -0.43250288559E+01  0.11240791180E+03  0.00000000000E+00 0.  1.
</event>
<event>
 8    1  0.3710605E-009  0.1044900E+03  0.7561462E-02  0.1271128E+00
         -1   -1    0    0    0  501 -0.00000000000E+00  0.00000000000E+00  0.25104988341E+03  0.25104988341E+03  0.00000000000E+00 0.  1.
          1   -1    0    0  501    0  0.00000000000E+00 -0.00000000000E+00 -0.63325698961E+02  0.63325698961E+02  0.00000000000E+00 0. -1.
         25    2    1    2    0    0  0.50790995025E+02  0.44095330296E+02  0.94599577635E+02  0.17065938889E+03  0.12510564974E+03 0.  0.
         23    2    1    2    0    0 -0.50790995025E+02 -0.44095330296E+02  0.93124606810E+02  0.14371619348E+03  0.86359878100E+02 0.  0.
          5    1    3    3  502    0 -0.35991638290E+02  0.40046627466E+02  0.26292529028E+02  0.60065796265E+02  0.41800000000E+01 0. -1.
         -5    1    3    3    0  502  0.86782633315E+02  0.40487028299E+01  0.68307048607E+02  0.11059359262E+03  0.41800000000E+01 0. -1.
        -11    1    4    4    0    0 -0.32341384327E+02 -0.34163915644E+02  0.10814599607E+03  0.11793512936E+03  0.00000000000E+00 0.  1.
         11    1    4    4    0    0 -0.18449610698E+02 -0.99314146519E+01 -0.15021389256E+02  0.25781064119E+02  0.00000000000E+00 0. -1.
</event>
<event>
 8    1  0.3710605E-009  0.8515012E+02  0.7561462E-02  0.1315040E+00
          2   -1    0    0  501    0  0.00000000000E+00  0.00000000000E+00  0.10259192276E+04  0.10259192276E+04  0.00000000000E+00 0. -1.
         -2   -1    0    0    0  501 -0.00000000000E+00 -0.00000000000E+00 -0.16337354245E+02  0.16337354245E+02  0.00000000000E+00 0.  1.
         25    2    1    2    0    0 -0.32491417665E+02 -0.36961588541E+02  0.76326691533E+03  0.77501359785E+03  0.12509133291E+03 0.  0.
         23    2    1    2    0    0  0.32491417665E+02  0.36961588541E+02  0.24631495800E+03  0.26724298397E+03  0.91246384562E+02 0.  0.
          5    1    3    3  502    0 -0.20904216076E+01 -0.62906541610E+02  0.67602487465E+03  0.67896149109E+03  0.41800000000E+01 0.  1.
         -5    1    3    3    0  502 -0.30400996058E+02  0.25944953069E+02  0.87242040674E+02  0.96052106755E+02  0.41800000000E+01 0.  1.
        -11    1    4    4    0    0  0.11307928533E+02 -0.10267037045E+02 -0.27790268313E+00  0.15276076961E+02  0.00000000000E+00 0.  1.
         11    1    4    4    0    0  0.21183489132E+02  0.47228625586E+02  0.24659286068E+03  0.25196690701E+03  0.00000000000E+00 0. -1.
</event>
<event>
 8    1  0.3710605E-009  0.1338200E+03  0.7561462E-02  0.1221895E+00
         -2   -1    0    0    0  501 -0.00000000000E+00  0.00000000000E+00  0.26903373783E+03  0.26903373783E+03  0.00000000000E+00 0.  1.
          2   -1    0    0  501    0  0.00000000000E+00 -0.00000000000E+00 -0.97390827381E+02  0.97390827381E+02  0.00000000000E+00 0. -1.
         25    2    1    2    0    0 -0.30270640119E+02  0.94446376739E+02  0.14218484891E+02  0.16026987234E+03  0.12509131438E+03 0.  0.
         23    2    1    2    0    0  0.30270640119E+02 -0.94446376739E+02  0.15742442555E+03  0.20615469287E+03  0.88774308781E+02 0.  0.
          5    1    3    3  502    0  0.32243511598E+02  0.75012725471E+02 -0.22893904320E+02  0.84900861466E+02  0.41800000000E+01 0.  1.
         -5    1    3    3    0  502 -0.62514151717E+02  0.19433651269E+02  0.37112389211E+02  0.75369010870E+02  0.41800000000E+01 0.  1.
        -11    1    4    4    0    0  0.28360941700E+02 -0.10540913953E+03  0.10124051930E+03  0.14887938896E+03  0.00000000000E+00 0. -1.
         11    1    4    4    0    0  0.19096984197E+01  0.10962762786E+02  0.56183906254E+02  0.57275303909E+02  0.00000000000E+00 0.  1.
</event>
<event>
 8    1  0.3710605E-009  0.1193533E+03  0.7561462E-02  0.1244168E+00
         -1   -1    0    0    0  501 -0.00000000000E+00  0.00000000000E+00  0.20061879737E+02  0.20061879737E+02  0.00000000000E+00 0.  1.
          1   -1    0    0  501    0  0.00000000000E+00 -0.00000000000E+00 -0.12629169153E+04  0.12629169153E+04  0.00000000000E+00 0. -1.
         25    2    1    2    0    0 -0.75559464280E+02  0.31644472946E+01 -0.10224496331E+04  0.10328454260E+04  0.12508867062E+03 0.  0.
         23    2    1    2    0    0  0.75559464280E+02 -0.31644472946E+01 -0.22040540242E+03  0.25013336894E+03  0.90933571768E+02 0.  0.
          5    1    3    3  502    0 -0.80309781512E+02 -0.40400322689E+02 -0.46293478625E+03  0.47160145865E+03  0.41800000000E+01 0. -1.
         -5    1    3    3    0  502  0.47503172324E+01  0.43564769984E+02 -0.55951484685E+03  0.56124396740E+03  0.41800000000E+01 0. -1.
        -11    1    4    4    0    0  0.79200716918E+02 -0.24609957797E+02 -0.11086350668E+03  0.13845259368E+03  0.00000000000E+00 0.  1.
         11    1    4    4    0    0 -0.36412526378E+01  0.21445510502E+02 -0.10954189574E+03  0.11168077526E+03  0.00000000000E+00 0. -1.
</event>
<event>
 8    1  0.3710605E-009  0.1408045E+03  0.7561462E-02  0.1212251E+00
          4   -1    0    0  501    0  0.00000000000E+00  0.00000000000E+00  0.24834131036E+03  0.24834131036E+03  0.00000000000E+00 0. -1.
         -4   -1    0    0    0  501 -0.00000000000E+00 -0.00000000000E+00 -0.10538359707E+03  0.10538359707E+03  0.00000000000E+00 0.  1.
         25    2    1    2    0    0 -0.88445482835E+02  0.48836571161E+02  0.14650227351E+03  0.21752841109E+03  0.12509228342E+03 0.  0.
         23    2    1    2    0    0  0.88445482835E+02 -0.48836571161E+02 -0.35445602245E+01  0.13619649634E+03  0.91265040361E+02 0.  0.
          5    1    3    3  502    0 -0.69203406146E+02  0.83187996179E+02  0.14064222702E+03  0.17750228886E+03  0.41800000000E+01 0. -1.
         -5    1    3    3    0  502 -0.19242076689E+02 -0.34351425019E+02  0.58600464992E+01  0.40026122234E+02  0.41800000000E+01 0. -1.
        -11    1    4    4    0    0  0.49129153415E+02  0.21119659950E+02 -0.13979889590E+02  0.55273420960E+02  0.00000000000E+00 0. -1.
         11    1    4    4    0    0  0.39316329420E+02 -0.69956231111E+02  0.10435329365E+02  0.80923075382E+02  0.00000000000E+00 0.  1.
</event>
<event>
 8    1  0.3710605E-009  0.9549413E+02  0.7561462E-02  0.1290067E+00
          1   -1    0    0  501    0  0.00000000000E+00  0.00000000000E+00  0.15112960135E+03  0.15112960135E+03  0.00000000000E+00 0. -1.
         -1   -1    0    0    0  501 -0.00000000000E+00 -0.00000000000E+00 -0.98999576713E+02  0.98999576713E+02  0.00000000000E+00 0.  1.
         25    2    1    2    0    0  0.39944338407E+02 -0.28909566771E+02  0.11916123481E+01  0.13446281131E+03  0.12509002544E+03 0.  0.
         23    2    1    2    0    0 -0.39944338407E+02  0.28909566771E+02  0.50938412284E+02  0.11566636675E+03  0.91392961046E+02 0.  0.
          5    1    3    3  502    0 -0.22223611559E+02 -0.37271197045E+02 -0.40112622086E+02  0.59241251595E+02  0.41800000000E+01 0. -1.
         -5    1    3    3    0  502  0.62167949966E+02  0.83616302744E+01  0.41304234434E+02  0.75221559716E+02  0.41800000000E+01 0. -1.
        -11    1    4    4    0    0 -0.58489504840E+02  0.30406763208E+02  0.50084749916E+01  0.66111105322E+02  0.00000000000E+00 0.  1.
         11    1    4    4    0    0  0.18545166432E+02 -0.14971964370E+01  0.45929937293E+02  0.49555261425E+02  0.00000000000E+00 0. -1.
</event>
<event>
 8    1  0.3710605E-009  0.1058148E+03  0.7561462E-02  0.1268523E+00
          1   -1    0    0  501    0  0.00000000000E+00  0.00000000000E+00  0.52432031993E+03  0.52432031993E+03  0.00000000000E+00 0. -1.
         -1   -1    0    0    0  501 -0.00000000000E+00 -0.00000000000E+00 -0.31192664473E+02  0.31192664473E+02  0.00000000000E+00 0.  1.
         25    2    1    2    0    0  0.57550140727E+02 -0.18397960475E+02  0.21432045830E+03  0.25540265447E+03  0.12508698341E+03 0.  0.
         23    2    1    2    0    0 -0.57550140727E+02  0.18397960475E+02  0.27880719716E+03  0.30011032993E+03  0.93178609652E+02 0.  0.
          5    1    3    3  502    0  0.52724512227E+02 -0.63529657136E+02  0.86270724773E+02  0.11948222411E+03  0.41800000000E+01 0.  1.
         -5    1    3    3    0  502  0.48256285000E+01  0.45131696661E+02  0.12804973353E+03  0.13592043036E+03  0.41800000000E+01 0.  1.
        -11    1    4    4    0    0 -0.37662591234E+02 -0.18125672574E+02  0.23870835979E+03  0.24234003346E+03  0.00000000000E+00 0. -1.
         11    1    4    4    0    0 -0.19887549493E+02  0.36523633048E+02  0.40098837369E+02  0.57770296470E+02  0.00000000000E+00 0.  1.
</event>
<event>
 8    1  0.3710605E-009  0.8181770E+02  0.7561462E-02  0.1323971E+00
         -1   -1    0    0    0  501 -0.00000000000E+00  0.00000000000E+00  0.54299159699E+02  0.54299159699E+02  0.00000000000E+00 0.  1.
          1   -1    0    0  501    0  0.00000000000E+00 -0.00000000000E+00 -0.33426144624E+03  0.33426144624E+03  0.00000000000E+00 0. -1.
         25    2    1    2    0    0 -0.40390724239E+02 -0.38341397179E+02 -0.21890997679E+03  0.25820770886E+03  0.12509264420E+03 0.  0.
         23    2    1    2    0    0  0.40390724239E+02  0.38341397179E+02 -0.61052309750E+02  0.13035289708E+03  0.10081180441E+03 0.  0.
          5    1    3    3  502    0 -0.39697337554E+02  0.82691828086E+01 -0.20552490716E+03  0.20952856096E+03  0.41800000000E+01 0.  1.
         -5    1    3    3    0  502 -0.69338668500E+00 -0.46610579987E+02 -0.13385069634E+02  0.48679147907E+02  0.41800000000E+01 0.  1.
        -11    1    4    4    0    0  0.48031316447E+02  0.13229762336E+02  0.13248910637E+02  0.51551601374E+02  0.00000000000E+00 0.  1.
         11    1    4    4    0    0 -0.76405922084E+01  0.25111634842E+02 -0.74301220387E+02  0.78801295705E+02  0.00000000000E+00 0. -1.
</event>
<event>
 8    1  0.3710605E-009  0.9145583E+02  0.7561462E-02  0.1299364E+00
         -3   -1    0    0    0  501 -0.00000000000E+00  0.00000000000E+00  0.79377002599E+02  0.79377002599E+02  0.00000000000E+00 0.  1.
          3   -1    0    0  501    0  0.00000000000E+00 -0.00000000000E+00 -0.23200703432E+03  0.23200703432E+03  0.00000000000E+00 0. -1.
         25    2    1    2    0    0 -0.23217491100E+02 -0.83044392377E+01  0.41003066792E+01  0.12756598567E+03  0.12509297575E+03 0.  0.
         23    2    1    2    0    0  0.23217491100E+02  0.83044392377E+01 -0.15673033840E+03  0.18381805125E+03  0.92825973652E+02 0.  0.
          5    1    3    3  502    0  0.85096551862E+01  0.33893812070E+02 -0.43778596240E+02  0.56171546327E+02  0.41800000000E+01 0. -1.
         -5    1    3    3    0  502 -0.31727146286E+02 -0.42198251308E+02  0.47878902919E+02  0.71394439347E+02  0.41800000000E+01 0. -1.
        -11    1    4    4    0    0 -0.17830844732E+02  0.39408653571E+02 -0.86675566395E+02  0.96869163360E+02  0.00000000000E+00 0.  1.
         11    1    4    4    0    0  0.41048335831E+02 -0.31104214333E+02 -0.70054772006E+02  0.86948887886E+02  0.00000000000E+00 0. -1.
</event>
<event>
 8    1  0.3710605E-009  0.1080612E+03  0.7561462E-02  0.1264203E+00
         -2   -1    0    0    0  501 -0.00000000000E+00  0.00000000000E+00  0.30970065965E+02  0.30970065965E+02  0.00000000000E+00 0. -1.
          2   -1    0    0  501    0  0.00000000000E+00 -0.00000000000E+00 -0.45669271926E+03  0.45669271926E+03  0.00000000000E+00 0.  1.
         25    2    1    2    0    0 -0.32097068678E+02 -0.29953186590E+02 -0.27738673971E+03  0.30743955581E+03  0.12509301301E+03 0.  0.
         23    2    1    2    0    0  0.32097068678E+02  0.29953186590E+02 -0.14833591359E+03  0.18022322942E+03  0.92463257339E+02 0.  0.
          5    1    3    3  502    0 -0.78374966528E+02 -0.34051272109E+02 -0.19028396186E+03  0.20863265097E+03  0.41800000000E+01 0. -1.
         -5    1    3    3    0  502  0.46277897850E+02  0.40980855194E+01 -0.87102777852E+02  0.98806904839E+02  0.41800000000E+01 0. -1.
        -11    1    4    4    0    0 -0.13075489050E+02 -0.15200645005E+02 -0.94758979685E+02  0.96857071262E+02  0.00000000000E+00 0.  1.
         11    1    4    4    0    0  0.45172557729E+02  0.45153831595E+02 -0.53576933902E+02  0.83366158157E+02  0.00000000000E+00 0. -1.
</event>
<event>
 8    1  0.3710605E-009  0.9845941E+02  0.7561462E-02  0.1283569E+00
         -1   -1    0    0    0  501 -0.00000000000E+00  0.00000000000E+00  0.21533075794E+03  0.21533075794E+03  0.00000000000E+00 0.  1.
          1   -1    0    0  501    0  0.00000000000E+00 -0.00000000000E+00 -0.72488376329E+02  0.72488376329E+02  0.00000000000E+00 0. -1.
         25    2    1    2    0    0 -0.25825191165E+01 -0.54968057673E+02  0.31153899953E+02  0.14016140746E+03  0.12508596200E+03 0.  0.
         23    2    1    2    0    0  0.25825191165E+01  0.54968057673E+02  0.11168848166E+03  0.14765772681E+03  0.79374621772E+02 0.  0.
          5    1    3    3  502    0  0.40288236721E+02 -0.38218313133E+02 -0.30198349917E+02  0.63349776752E+02  0.41800000000E+01 0. -1.
         -5    1    3    3    0  502 -0.42870755837E+02 -0.16749744540E+02  0.61352249869E+02  0.76811630709E+02  0.41800000000E+01 0. -1.
        -11    1    4    4    0    0  0.39987011458E+02  0.30901762797E+02  0.46057316324E+02  0.68375115476E+02  0.00000000000E+00 0. -1.
         11    1    4    4    0    0 -0.37404492342E+02  0.24066294876E+02  0.65631165333E+02  0.79282611331E+02  0.00000000000E+00 0.  1.
</event>
<event>
 8    1  0.3710605E-009  0.8319431E+02  0.7561462E-02  0.1320223E+00
          2   -1    0    0  501    0  0.00000000000E+00  0.00000000000E+00  0.17735632256E+03  0.17735632256E+03  0.00000000000E+00 0.  1.
         -2   -1    0    0    0  501 -0.00000000000E+00 -0.00000000000E+00 -0.91372608973E+02  0.91372608973E+02  0.00000000000E+00 0. -1.
         25    2    1    2    0    0  0.18856127473E+02  0.42610738446E+01  0.11457622964E+03  0.17071792208E+03  0.12507272376E+03 0.  0.
         23    2    1    2    0    0 -0.18856127473E+02 -0.42610738446E+01 -0.28592516057E+02  0.98011009449E+02  0.91732849651E+02 0.  0.
          5    1    3    3  502    0  0.51150579240E+02  0.31826527471E+02  0.14760453409E+02  0.62166333271E+02  0.41800000000E+01 0. -1.
         -5    1    3    3    0  502 -0.32294451768E+02 -0.27565453626E+02  0.99815776235E+02  0.10855158881E+03  0.41800000000E+01 0. -1.
        -11    1    4    4    0    0  0.17500662892E+02 -0.17398911073E+02  0.22870447883E+02  0.33645990765E+02  0.00000000000E+00 0.  1.
         11    1    4    4    0    0 -0.36356790364E+02  0.13137837229E+02 -0.51462963940E+02  0.64365018684E+02  0.00000000000E+00 0. -1.
</event>
<event>
 8    1  0.3710605E-009  0.9062108E+02  0.7561462E-02  0.1301355E+00
         -2   -1    0    0    0  501 -0.00000000000E+00  0.00000000000E+00  0.34971651378E+02  0.34971651378E+02  0.00000000000E+00 0.  1.
          2   -1    0    0  501    0  0.00000000000E+00 -0.00000000000E+00 -0.52293137943E+03  0.52293137943E+03  0.00000000000E+00 0. -1.
         25    2    1    2    0    0  0.62413343941E+02 -0.21422825606E+02 -0.35722718620E+03  0.38419972867E+03  0.12507520135E+03 0.  0.
         23    2    1    2    0    0 -0.62413343941E+02  0.21422825606E+02 -0.13073254186E+03  0.17370330214E+03  0.93420965073E+02 0.  0.
          5    1    3    3  502    0  0.68279236700E+02 -0.35772453967E+02 -0.35975670830E+03  0.36794576257E+03  0.41800000000E+01 0. -1.
         -5    1    3    3    0  502 -0.58658927584E+01  0.14349628361E+02  0.25295221006E+01  0.16253966101E+02  0.41800000000E+01 0. -1.
        -11    1    4    4    0    0 -0.63298415853E+02  0.36379255853E+02 -0.13869459351E+03  0.15673649854E+03  0.00000000000E+00 0. -1.
         11    1    4    4    0    0  0.88507191208E+00 -0.14956430247E+02  0.79620516491E+01  0.16966803603E+02  0.00000000000E+00 0.  1.
</event>
<event>
 8    1  0.3710605E-009  0.1102210E+03  0.7561462E-02  0.1260161E+00
         -1   -1    0    0    0  501 -0.00000000000E+00  0.00000000000E+00  0.12116792180E+03  0.12116792180E+03  0.00000000000E+00 0.  1.
          1   -1    0    0  501    0  0.00000000000E+00 -0.00000000000E+00 -0.17187475022E+03  0.17187475022E+03  0.00000000000E+00 0. -1.
         25    2    1    2    0    0  0.60813833745E+02 -0.27841160498E+02  0.40332304420E+02  0.14747205879E+03  0.12509140958E+03 0.  0.
         23    2    1    2    0    0 -0.60813833745E+02  0.27841160498E+02 -0.91039132843E+02  0.14557061322E+03  0.91810822524E+02 0.  0.
          5    1    3    3  502    0  0.37620855523E+02 -0.64436076289E+02 -0.15857580307E+02  0.76395496929E+02  0.41800000000E+01 0. -1.
         -5    1    3    3    0  502  0.23192978221E+02  0.36594915791E+02  0.56189884728E+02  0.71076561863E+02  0.41800000000E+01 0. -1.
        -11    1    4    4    0    0 -0.52027148285E+02 -0.18346818778E+02 -0.80164943962E+02  0.97313144838E+02  0.00000000000E+00 0. -1.
         11    1    4    4    0    0 -0.87866854601E+01  0.46187979276E+02 -0.10874188881E+02  0.48257468384E+02  0.00000000000E+00 0.  1.
</event>
<event>
 8    1  0.3710605E-009  0.8791040E+02  0.7561462E-02  0.1307992E+00
         -2   -1    0    0    0  501 -0.00000000000E+00  0.00000000000E+00  0.93416670147E+02  0.93416670147E+02  0.00000000000E+00 0.  1.
          2   -1    0    0  501    0  0.00000000000E+00 -0.00000000000E+00 -0.16136604251E+03  0.16136604251E+03  0.00000000000E+00 0. -1.
         25    2    1    2    0    0 -0.23585024733E+02  0.51849174655E+02 -0.53541236650E+02  0.14750828029E+03  0.12508972151E+03 0.  0.
         23    2    1    2    0    0  0.23585024733E+02 -0.51849174655E+02 -0.14408135714E+02  0.10727443237E+03  0.89753101125E+02 0.  0.
          5    1    3    3  502    0  0.22029133503E+02 -0.29104640310E+01  0.30033151204E+02  0.37592766525E+02  0.41800000000E+01 0.  1.
         -5    1    3    3    0  502 -0.45614158236E+02  0.54759638686E+02 -0.83574387854E+02  0.10991551376E+03  0.41800000000E+01 0.  1.
        -11    1    4    4    0    0  0.89813500569E+01  0.12746642368E+02  0.25546518868E+02  0.29929352929E+02  0.00000000000E+00 0.  1.
         11    1    4    4    0    0  0.14603674676E+02 -0.64595817023E+02 -0.39954654582E+02  0.77345079441E+02  0.00000000000E+00 0. -1.
</event>
<event>
 8    1  0.3710605E-009  0.1106989E+03  0.7561462E-02  0.1259281E+00
         -4   -1    0    0    0  501 -0.00000000000E+00  0.00000000000E+00  0.20912245523E+03  0.20912245523E+03  0.00000000000E+00 0.  1.
          4   -1    0    0  501    0  0.00000000000E+00 -0.00000000000E+00 -0.69593745740E+02  0.69593745740E+02  0.00000000000E+00 0. -1.
         25    2    1    2    0    0  0.89506586543E+01 -0.34334474268E+02  0.12880501011E+03  0.18301033898E+03  0.12507231160E+03 0.  0.
         23    2    1    2    0    0 -0.89506586543E+01  0.34334474268E+02  0.10723699383E+02  0.95705861995E+02  0.88236295697E+02 0.  0.
          5    1    3    3  502    0  0.64539557588E+02 -0.36226332627E+02  0.69924553815E+02  0.10190494245E+03  0.41800000000E+01 0. -1.
         -5    1    3    3    0  502 -0.55588898934E+02  0.18918583591E+01  0.58880456297E+02  0.81105396531E+02  0.41800000000E+01 0. -1.
        -11    1    4    4    0    0 -0.38752180407E+02 -0.81459528062E+01  0.17649586731E+02  0.43354307112E+02  0.00000000000E+00 0.  1.
         11    1    4    4    0    0  0.29801521753E+02  0.42480427074E+02 -0.69258873479E+01  0.52351554883E+02  0.00000000000E+00 0. -1.
</event>
<event>
 8    1  0.3710605E-009  0.1072726E+03  0.7561462E-02  0.1265706E+00
          2   -1    0    0  501    0  0.00000000000E+00  0.00000000000E+00  0.16404637678E+03  0.16404637678E+03  0.00000000000E+00 0. -1.
         -2   -1    0    0    0  501 -0.00000000000E+00 -0.00000000000E+00 -0.87931824184E+02  0.87931824184E+02  0.00000000000E+00 0.  1.
         25    2    1    2    0    0 -0.10943811138E+02  0.52385060629E+02  0.24593676671E+02  0.13826099437E+03  0.12508913643E+03 0.  0.
         23    2    1    2    0    0  0.10943811138E+02 -0.52385060629E+02  0.51520875928E+02  0.11371720660E+03  0.86100179099E+02 0.  0.
          5    1    3    3  502    0 -0.17658366781E+02  0.88376160471E+02 -0.59250253736E+01  0.90414279749E+02  0.41800000000E+01 0.  1.
         -5    1    3    3    0  502  0.67145556428E+01 -0.35991099842E+02  0.30518702044E+02  0.47846714619E+02  0.41800000000E+01 0.  1.
        -11    1    4    4    0    0  0.19162109984E+02  0.11972719375E+02 -0.96291599680E+01  0.24561213121E+02  0.00000000000E+00 0.  1.
         11    1    4    4    0    0 -0.82182988462E+01 -0.64357780004E+02  0.61150035896E+02  0.89155993478E+02  0.00000000000E+00 0. -1.
</event>
<event>
 8    1  0.3710605E-009  0.1298194E+03  0.7561462E-02  0.1227724E+00
          2   -1    0    0  501    0  0.00000000000E+00  0.00000000000E+00  0.10605575250E+04  0.10605575250E+04  0.00000000000E+00 0. -1.
         -2   -1    0    0    0  501 -0.00000000000E+00 -0.00000000000E+00 -0.17391044310E+02  0.17391044310E+02  0.00000000000E+00 0.  1.
         25    2    1    2    0    0  0.33682831106E+01 -0.70742567106E+02  0.67735583596E+03  0.69244076328E+03  0.12508967186E+03 0.  0.
         23    2    1    2    0    0 -0.33682831106E+01  0.70742567106E+02  0.36581064470E+03  0.38550780600E+03  0.98908971197E+02 0.  0.
          5    1    3    3  502    0 -0.11074644503E+02  0.34285109563E+02  0.13393747079E+03  0.13876179219E+03  0.41800000000E+01 0. -1.
         -5    1    3    3    0  502  0.14442927614E+02 -0.10502767667E+03  0.54341836517E+03  0.55367897109E+03  0.41800000000E+01 0. -1.
        -11    1    4    4    0    0 -0.23666944578E+02 -0.15748768037E+02  0.13983872593E+03  0.14269904425E+03  0.00000000000E+00 0. -1.
         11    1    4    4    0    0  0.20298661468E+02  0.86491335143E+02  0.22597191877E+03  0.24280876175E+03  0.00000000000E+00 0.  1.
</event>
<event>
 8    1  0.3710605E-009  0.9013236E+02  0.7561462E-02  0.1302531E+00
          2   -1    0    0  501    0  0.00000000000E+00  0.00000000000E+00  0.16255386016E+03  0.16255386016E+03  0.00000000000E+00 0. -1.
         -2   -1    0    0    0  501 -0.00000000000E+00 -0.00000000000E+00 -0.90179644135E+02  0.90179644135E+02  0.00000000000E+00 0.  1.
         25    2    1    2    0    0  0.15621801725E+02 -0.79422745704E+00  0.94618341513E+02  0.15761858705E+03  0.12508523872E+03 0.  0.
         23    2    1    2    0    0 -0.15621801725E+02  0.79422745704E+00 -0.22244125484E+02  0.95114917253E+02  0.91144801712E+02 0.  0.
          5    1    3    3  502    0  0.63189746010E+02 -0.17432172034E+02  0.82800337792E+02  0.10568913360E+03  0.41800000000E+01 0. -1.
         -5    1    3    3    0  502 -0.47567944285E+02  0.16637944577E+02  0.11818003721E+02  0.51929453446E+02  0.41800000000E+01 0. -1.
        -11    1    4    4    0    0 -0.38480348503E+02 -0.83825354275E+01  0.21532038213E+02  0.44884660974E+02  0.00000000000E+00 0. -1.
         11    1    4    4    0    0  0.22858546779E+02  0.91767628845E+01 -0.43776163697E+02  0.50230256280E+02  0.00000000000E+00 0.  1.
</event>
<event>
 8    1  0.3710605E-009  0.1506304E+03  0.7561462E-02  0.1199700E+00
          1   -1    0    0  501    0  0.00000000000E+00  0.00000000000E+00  0.12996386128E+03  0.12996386128E+03  0.00000000000E+00 0. -1.
         -1   -1    0    0    0  501 -0.00000000000E+00 -0.00000000000E+00 -0.33722933811E+03  0.33722933811E+03  0.00000000000E+00 0.  1.
         25    2    1    2    0    0 -0.99323534865E+02 -0.74624148949E+02 -0.25151876023E+03  0.30715434153E+03  0.12509266401E+03 0.  0.
         23    2    1    2    0    0  0.99323534865E+02  0.74624148949E+02  0.44253283404E+02  0.16003885786E+03  0.90665069058E+02 0.  0.
          5    1    3    3  502    0  0.90432542398E+01  0.25956009028E+02 -0.49556437164E+02  0.56822598641E+02  0.41800000000E+01 0. -1.
         -5    1    3    3    0  502 -0.10836678910E+03 -0.10058015798E+03 -0.20196232307E+03  0.25033174289E+03  0.41800000000E+01 0. -1.
        -11    1    4    4    0    0  0.44998621055E+02  0.45144995450E+02  0.68569201592E+02  0.93619879929E+02  0.00000000000E+00 0. -1.
         11    1    4    4    0    0  0.54324913810E+02  0.29479153499E+02 -0.24315918188E+02  0.66418977927E+02  0.00000000000E+00 0.  1.
</event>
<event>
 8    1  0.3710605E-009  0.1370616E+03  0.7561462E-02  0.1217338E+00
         -1   -1    0    0    0  501 -0.00000000000E+00  0.00000000000E+00  0.69874600689E+03  0.69874600689E+03  0.00000000000E+00 0.  1.
          1   -1    0    0  501    0  0.00000000000E+00 -0.00000000000E+00 -0.42648968650E+02  0.42648968650E+02  0.00000000000E+00 0. -1.
         25    2    1    2    0    0  0.11190379540E+03 -0.28044919527E+02  0.50003159701E+03  0.52819314146E+03  0.12508964683E+03 0.  0.
         23    2    1    2    0    0 -0.11190379540E+03  0.28044919527E+02  0.15606544123E+03  0.21320183408E+03  0.88258841895E+02 0.  0.
          5    1    3    3  502    0  0.28938684896E+02  0.33199651402E+02  0.29861547951E+03  0.30187471133E+03  0.41800000000E+01 0. -1.
         -5    1    3    3    0  502  0.82965110503E+02 -0.61244570929E+02  0.20141611750E+03  0.22631843013E+03  0.41800000000E+01 0. -1.
        -11    1    4    4    0    0 -0.63531258797E+02  0.42207675403E+02  0.38826631751E+02  0.85587475955E+02  0.00000000000E+00 0. -1.
         11    1    4    4    0    0 -0.48372536602E+02 -0.14162755876E+02  0.11723880948E+03  0.12761435813E+03  0.00000000000E+00 0.  1.
</event>
<event>
 8    1  0.3710605E-009  0.2803347E+03  0.7561462E-02  0.1095506E+00
          1   -1    0    0  501    0  0.00000000000E+00  0.00000000000E+00  0.58233562369E+03  0.58233562369E+03  0.00000000000E+00 0.  1.
         -1   -1    0    0    0  501 -0.00000000000E+00 -0.00000000000E+00 -0.13840113768E+03  0.13840113768E+03  0.00000000000E+00 0. -1.
         25    2    1    2    0    0  0.22771055841E+03  0.12059180232E+03  0.28229000162E+03  0.40215619839E+03  0.12508989443E+03 0.  0.
         23    2    1    2    0    0 -0.22771055841E+03 -0.12059180232E+03  0.16164448439E+03  0.31858056298E+03  0.94710899970E+02 0.  0.
          5    1    3    3  502    0  0.21822625564E+03  0.14351894833E+03  0.25543680434E+03  0.36535711379E+03  0.41800000000E+01 0. -1.
         -5    1    3    3    0  502  0.94843027703E+01 -0.22927146014E+02  0.26853197277E+02  0.36799084600E+02  0.41800000000E+01 0. -1.
        -11    1    4    4    0    0 -0.12803156559E+03 -0.14724519146E+02  0.82629386697E+02  0.15308987164E+03  0.00000000000E+00 0.  1.
         11    1    4    4    0    0 -0.99678992820E+02 -0.10586728317E+03  0.79015097694E+02  0.16549069134E+03  0.00000000000E+00 0. -1.
</event>
<event>
 8    1  0.3710605E-009  0.7910023E+02  0.7561462E-02  0.1331624E+00
          1   -1    0    0  501    0  0.00000000000E+00  0.00000000000E+00  0.56183693014E+03  0.56183693014E+03  0.00000000000E+00 0. -1.
         -1   -1    0    0    0  501 -0.00000000000E+00 -0.00000000000E+00 -0.33832398559E+02  0.33832398559E+02  0.00000000000E+00 0.  1.
         25    2    1    2    0    0  0.19731780371E+02  0.15168060466E+02  0.46168030468E+03  0.47897396489E+03  0.12509173472E+03 0.  0.
         23    2    1    2    0    0 -0.19731780371E+02 -0.15168060466E+02  0.66324226902E+02  0.11669536381E+03  0.92733444054E+02 0.  0.
          5    1    3    3  502    0 -0.31924153270E+01  0.47322900346E+02  0.41485044143E+03  0.41757395701E+03  0.41800000000E+01 0. -1.
         -5    1    3    3    0  502  0.22924195698E+02 -0.32154839880E+02  0.46829863248E+02  0.61400007883E+02  0.41800000000E+01 0. -1.
        -11    1    4    4    0    0  0.24227923418E+02  0.42693921820E+00  0.65722754771E+02  0.70047519906E+02  0.00000000000E+00 0. -1.
         11    1    4    4    0    0 -0.43959703789E+02 -0.15594999684E+02  0.60147213139E+00  0.46647843906E+02  0.00000000000E+00 0.  1.
</event>
<event>
 8    1  0.3710605E-009  0.1675194E+03  0.7561462E-02  0.1180460E+00
          2   -1    0    0  501    0  0.00000000000E+00  0.00000000000E+00  0.35269635180E+03  0.35269635180E+03  0.00000000000E+00 0. -1.
         -2   -1    0    0    0  501 -0.00000000000E+00 -0.00000000000E+00 -0.10644125318E+03  0.10644125318E+03  0.00000000000E+00 0.  1.
         25    2    1    2    0    0  0.15969527916E+03 -0.63340989309E+01  0.15109398238E+03  0.25302170595E+03  0.12509152321E+03 0.  0.
         23    2    1    2    0    0 -0.15969527916E+03  0.63340989309E+01  0.95161116244E+02  0.20611589904E+03  0.88799903139E+02 0.  0.
          5    1    3    3  502    0  0.51218731784E+02 -0.31183402027E+02 -0.60540196999E+01  0.60414291373E+02  0.41800000000E+01 0. -1.
         -5    1    3    3    0  502  0.10847654737E+03  0.24849303097E+02  0.15714800208E+03  0.19260741458E+03  0.41800000000E+01 0. -1.
        -11    1    4    4    0    0 -0.12416066878E+03  0.19472070482E+02  0.10841543900E+03  0.16597873543E+03  0.00000000000E+00 0.  1.
         11    1    4    4    0    0 -0.35534610374E+02 -0.13137971551E+02 -0.13254322755E+02  0.40137163609E+02  0.00000000000E+00 0. -1.
</event>
<event>
 8    1  0.3710605E-009  0.1054938E+03  0.7561462E-02  0.1269150E+00
         -1   -1    0    0    0  501 -0.00000000000E+00  0.00000000000E+00  0.18403162850E+03  0.18403162850E+03  0.00000000000E+00 0.  1.
          1   -1    0    0  501    0  0.00000000000E+00 -0.00000000000E+00 -0.72006613801E+02  0.72006613801E+02  0.00000000000E+00 0. -1.
         25    2    1    2    0    0 -0.12014151032E+01 -0.24417895932E+02  0.99917621608E+02  0.16195270444E+03  0.12508984902E+03 0.  0.
         23    2    1    2    0    0  0.12014151032E+01  0.24417895932E+02  0.12107393093E+02  0.94085537864E+02  0.90043447444E+02 0.  0.
          5    1    3    3  502    0  0.52133172012E+02  0.11962502694E+02  0.75888831741E+02  0.92938454247E+02  0.41800000000E+01 0. -1.
         -5    1    3    3    0  502 -0.53334587116E+02 -0.36380398626E+02  0.24028789866E+02  0.69014250191E+02  0.41800000000E+01 0. -1.
        -11    1    4    4    0    0 -0.11405520196E+02  0.56777528840E+02  0.12969013056E+02  0.59346179083E+02  0.00000000000E+00 0. -1.
         11    1    4    4    0    0  0.12606935299E+02 -0.32359632908E+02 -0.86161996328E+00  0.34739358781E+02  0.00000000000E+00 0.  1.
</event>
<event>
 8    1  0.3710605E-009  0.2292605E+03  0.7561462E-02  0.1127161E+00
          2   -1    0    0  501    0  0.00000000000E+00  0.00000000000E+00  0.68569037380E+03  0.68569037380E+03  0.00000000000E+00 0. -1.
         -2   -1    0    0    0  501 -0.00000000000E+00 -0.00000000000E+00 -0.83841907372E+02  0.83841907372E+02  0.00000000000E+00 0.  1.
         25    2    1    2    0    0  0.36893339979E+02  0.21058972251E+03  0.31208918548E+03  0.39844496536E+03  0.12509828522E+03 0.  0.
         23    2    1    2    0    0 -0.36893339979E+02 -0.21058972251E+03  0.28975928095E+03  0.37108731582E+03  0.89644884398E+02 0.  0.
          5    1    3    3  502    0 -0.35140226053E+02  0.12920149530E+03  0.13205758028E+03  0.18810778502E+03  0.41800000000E+01 0. -1.
         -5    1    3    3    0  502  0.72033566031E+02  0.81388227208E+02  0.18003160520E+03  0.21033718034E+03  0.41800000000E+01 0. -1.
        -11    1    4    4    0    0 -0.23284566146E+02 -0.56583581481E+02  0.28476230938E+02  0.67489024605E+02  0.00000000000E+00 0.  1.
         11    1    4    4    0    0 -0.13608773833E+02 -0.15400614103E+03  0.26128305002E+03  0.30359829121E+03  0.00000000000E+00 0. -1.
</event>
<event>
 8    1  0.3710605E-009  0.1090514E+03  0.7561462E-02  0.1262337E+00
         -1   -1    0    0    0  501 -0.00000000000E+00  0.00000000000E+00  0.29092544041E+02  0.29092544041E+02  0.00000000000E+00 0.  1.
          1   -1    0    0  501    0  0.00000000000E+00 -0.00000000000E+00 -0.77237332952E+03  0.77237332952E+03  0.00000000000E+00 0. -1.
         25    2    1    2    0    0  0.98663792802E+02 -0.22404232698E+02 -0.37581373853E+03  0.40879696348E+03  0.12506997094E+03 0.  0.
         23    2    1    2    0    0 -0.98663792802E+02  0.22404232698E+02 -0.36746704695E+03  0.39266891008E+03  0.94447597630E+02 0.  0.
          5    1    3    3  502    0  0.35463725025E+02 -0.43010036851E+01 -0.32125663213E+03  0.32326377854E+03  0.41800000000E+01 0. -1.
         -5    1    3    3    0  502  0.63200067777E+02 -0.18103229013E+02 -0.54557106394E+02  0.85533184939E+02  0.41800000000E+01 0. -1.
        -11    1    4    4    0    0 -0.26985517882E+02  0.34257241169E+02 -0.47188703366E+02  0.64253797345E+02  0.00000000000E+00 0.  1.
         11    1    4    4    0    0 -0.71678274920E+02 -0.11853008471E+02 -0.32027834358E+03  0.32841511274E+03  0.00000000000E+00 0. -1.
</event>
<event>
 8    1  0.3710605E-009  0.1041759E+03  0.7561462E-02  0.1271752E+00
         -1   -1    0    0    0  501 -0.00000000000E+00  0.00000000000E+00  0.26053360092E+02  0.26053360092E+02  0.00000000000E+00 0.  1.
          1   -1    0    0  501    0  0.00000000000E+00 -0.00000000000E+00 -0.51443477958E+03  0.51443477958E+03  0.00000000000E+00 0. -1.
         25    2    1    2    0    0 -0.33938953886E+02  0.12763591200E+02 -0.22992103040E+03  0.26424540350E+03  0.12508873331E+03 0.  0.
         23    2    1    2    0    0  0.33938953886E+02 -0.12763591200E+02 -0.25846038909E+03  0.27624273617E+03  0.90518035255E+02 0.  0.
          5    1    3    3  502    0 -0.32877722443E+02  0.64508953954E+02 -0.17079763696E+03  0.18555768636E+03  0.41800000000E+01 0.  1.
         -5    1    3    3    0  502 -0.10612314425E+01 -0.51745362754E+02 -0.59123393436E+02  0.78687717148E+02  0.41800000000E+01 0.  1.
        -11    1    4    4    0    0  0.33961002470E+02  0.27463038279E+02 -0.20349806461E+03  0.20813224272E+03  0.00000000000E+00 0. -1.
         11    1    4    4    0    0 -0.22048584347E-01 -0.40226629479E+02 -0.54962324477E+02  0.68110493444E+02  0.00000000000E+00 0.  1.
</event>
<event>
 8    1  0.3710605E-009  0.1702487E+03  0.7561462E-02  0.1177589E+00
         -1   -1    0    0    0  501 -0.00000000000E+00  0.00000000000E+00  0.10747205096E+03  0.10747205096E+03  0.00000000000E+00 0.  1.
          1   -1    0    0  501    0  0.00000000000E+00 -0.00000000000E+00 -0.33029715934E+03  0.33029715934E+03  0.00000000000E+00 0. -1.
         25    2    1    2    0    0 -0.40447288954E+02  0.14355896040E+03 -0.16433511518E+03  0.25475516887E+03  0.12509599389E+03 0.  0.
         23    2    1    2    0    0  0.40447288954E+02 -0.14355896040E+03 -0.58489993192E+02  0.18301404144E+03  0.88475430292E+02 0.  0.
          5    1    3    3  502    0 -0.64948485077E+02  0.10661772273E+03 -0.54586583414E+02  0.13631878815E+03  0.41800000000E+01 0.  1.
         -5    1    3    3    0  502  0.24501196122E+02  0.36941237673E+02 -0.10974853177E+03  0.11843638072E+03  0.41800000000E+01 0.  1.
        -11    1    4    4    0    0  0.59766139547E+02 -0.57768051909E+02 -0.43468546951E+02  0.93801139821E+02  0.00000000000E+00 0.  1.
         11    1    4    4    0    0 -0.19318850593E+02 -0.85790908490E+02 -0.15021446241E+02  0.89212901617E+02  0.00000000000E+00 0. -1.
</event>
<event>
 8    1  0.3710605E-009  0.1432967E+03  0.7561462E-02  0.1208961E+00
         -2   -1    0    0    0  501 -0.00000000000E+00  0.00000000000E+00  0.14793010387E+03  0.14793010387E+03  0.00000000000E+00 0.  1.
          2   -1    0    0  501    0  0.00000000000E+00 -0.00000000000E+00 -0.20462637171E+03  0.20462637171E+03  0.00000000000E+00 0. -1.
         25    2    1    2    0    0 -0.64851374399E+02  0.11641650483E+03 -0.30066940610E+02  0.18522660504E+03  0.12508545455E+03 0.  0.
         23    2    1    2    0    0  0.64851374399E+02 -0.11641650483E+03 -0.26629327229E+02  0.16732987053E+03  0.97630226587E+02 0.  0.
          5    1    3    3  502    0 -0.45703389681E+02  0.12093842576E+03 -0.65114057121E+02  0.14481787006E+03  0.41800000000E+01 0. -1.
         -5    1    3    3    0  502 -0.19147984717E+02 -0.45219209212E+01  0.35047116511E+02  0.40408734988E+02  0.41800000000E+01 0. -1.
        -11    1    4    4    0    0  0.53707351012E+02 -0.11356264579E+03 -0.54683935949E+02  0.13700834618E+03  0.00000000000E+00 0. -1.
         11    1    4    4    0    0  0.11144023387E+02 -0.28538590469E+01  0.28054608720E+02  0.30321524353E+02  0.00000000000E+00 0.  1.
</event>
<event>
 8    1  0.3710605E-009  0.1643196E+03  0.7561462E-02  0.1183904E+00
         -2   -1    0    0    0  501 -0.00000000000E+00  0.00000000000E+00  0.16296355426E+03  0.16296355426E+03  0.00000000000E+00 0.  1.
          2   -1    0    0  501    0  0.00000000000E+00 -0.00000000000E+00 -0.26861173586E+03  0.26861173586E+03  0.00000000000E+00 0. -1.
         25    2    1    2    0    0 -0.27550311345E+02  0.15749428736E+03 -0.13667636435E+03  0.24473152509E+03  0.12509844362E+03 0.  0.
         23    2    1    2    0    0  0.27550311345E+02 -0.15749428736E+03  0.31028182758E+02  0.18684376503E+03  0.91566228493E+02 0.  0.
          5    1    3    3  502    0  0.32989615161E+01  0.24475934907E+02 -0.10026950753E+03  0.10335086394E+03  0.41800000000E+01 0.  1.
         -5    1    3    3    0  502 -0.30849272861E+02  0.13301835245E+03 -0.36406856822E+02  0.14138066115E+03  0.41800000000E+01 0.  1.
        -11    1    4    4    0    0 -0.52082232150E+01 -0.10481216161E+03 -0.19617489754E+02  0.10675935891E+03  0.00000000000E+00 0. -1.
         11    1    4    4    0    0  0.32758534560E+02 -0.52682125747E+02  0.50645672512E+02  0.80084406122E+02  0.00000000000E+00 0.  1.
</event>
<event>
 8    1  0.3710605E-009  0.9823173E+02  0.7561462E-02  0.1284059E+00
         -2   -1    0    0    0  501 -0.00000000000E+00  0.00000000000E+00  0.23651945725E+02  0.23651945725E+02  0.00000000000E+00 0.  1.
          2   -1    0    0  501    0  0.00000000000E+00 -0.00000000000E+00 -0.50999566935E+03  0.50999566935E+03  0.00000000000E+00 0. -1.
         25    2    1    2    0    0  0.23852432404E+02  0.11578359483E+02 -0.26384037227E+03  0.29319286743E+03  0.12508924226E+03 0.  0.
         23    2    1    2    0    0 -0.23852432404E+02 -0.11578359483E+02 -0.22250335135E+03  0.24045474765E+03  0.87222401731E+02 0.  0.
          5    1    3    3  502    0  0.64491174729E+02  0.34007619871E+02 -0.20806597106E+03  0.22050975157E+03  0.41800000000E+01 0. -1.
         -5    1    3    3    0  502 -0.40638742324E+02 -0.22429260388E+02 -0.55774401214E+02  0.72683115853E+02  0.41800000000E+01 0. -1.
        -11    1    4    4    0    0  0.25946615336E+02 -0.66668954542E+01 -0.24764015025E+02  0.36481924052E+02  0.00000000000E+00 0.  1.
         11    1    4    4    0    0 -0.49799047740E+02 -0.49114640292E+01 -0.19773933633E+03  0.20397282360E+03  0.00000000000E+00 0. -1.
</event>
<event>
 8    1  0.3710605E-009  0.8956864E+02  0.7561462E-02  0.1303900E+00
         -1   -1    0    0    0  501 -0.00000000000E+00  0.00000000000E+00  0.48183318183E+02  0.48183318183E+02  0.00000000000E+00 0.  1.
          1   -1    0    0  501    0  0.00000000000E+00 -0.00000000000E+00 -0.24715511462E+03  0.24715511462E+03  0.00000000000E+00 0. -1.
         25    2    1    2    0    0  0.24169163232E+02  0.17195141982E+01 -0.11145553195E+03  0.16928487390E+03  0.12509167738E+03 0.  0.
         23    2    1    2    0    0 -0.24169163232E+02 -0.17195141982E+01 -0.87516264491E+02  0.12605355890E+03  0.87425957138E+02 0.  0.
          5    1    3    3  502    0 -0.17664457184E+02  0.31967895932E+02  0.92747887647E+01  0.37914028071E+02  0.41800000000E+01 0. -1.
         -5    1    3    3    0  502  0.41833620416E+02 -0.30248381733E+02 -0.12073032071E+03  0.13137084583E+03  0.41800000000E+01 0. -1.
        -11    1    4    4    0    0  0.30233683463E+02  0.14888818058E+02 -0.35967881622E+02  0.49289360183E+02  0.00000000000E+00 0.  1.
         11    1    4    4    0    0 -0.54402846695E+02 -0.16608332256E+02 -0.51548382869E+02  0.76764198721E+02  0.00000000000E+00 0. -1.
</event>
<event>
 8    1  0.3710605E-009  0.1151448E+03  0.7561462E-02  0.1251329E+00
          2   -1    0    0  501    0  0.00000000000E+00  0.00000000000E+00  0.69849460056E+03  0.69849460056E+03  0.00000000000E+00 0. -1.
         -2   -1    0    0    0  501 -0.00000000000E+00 -0.00000000000E+00 -0.22507121593E+02  0.22507121593E+02  0.00000000000E+00 0.  1.
         25    2    1    2    0    0  0.48894662462E+01 -0.58045706817E+02  0.44737886449E+03  0.46817624445E+03  0.12509171243E+03 0.  0.
         23    2    1    2    0    0 -0.48894662462E+01  0.58045706817E+02  0.22860861449E+03  0.25282547771E+03  0.90915414540E+02 0.  0.
          5    1    3    3  502    0 -0.52378715097E+02 -0.38258325105E+02  0.32639220933E+03  0.33280110568E+03  0.41800000000E+01 0.  1.
         -5    1    3    3    0  502  0.57268181343E+02 -0.19787381712E+02  0.12098665516E+03  0.13537513877E+03  0.41800000000E+01 0.  1.
        -11    1    4    4    0    0  0.64106642716E+01 -0.22411713001E+02  0.81543074896E+02  0.84809519274E+02  0.00000000000E+00 0. -1.
         11    1    4    4    0    0 -0.11300130518E+02  0.80457419818E+02  0.14706553959E+03  0.16801595843E+03  0.00000000000E+00 0.  1.
</event>
<event>
 8    1  0.3710605E-009  0.1240662E+03  0.7561462E-02  0.1236536E+00
         -1   -1    0    0    0  501 -0.00000000000E+00  0.00000000000E+00  0.11367061396E+03  0.11367061396E+03  0.00000000000E+00 0.  1.
          1   -1    0    0  501    0  0.00000000000E+00 -0.00000000000E+00 -0.15811864246E+03  0.15811864246E+03  0.00000000000E+00 0. -1.
         25    2    1    2    0    0 -0.27240733136E+02 -0.70903326975E+02 -0.25647230041E+02  0.14857102809E+03  0.12508489382E+03 0.  0.
         23    2    1    2    0    0  0.27240733136E+02  0.70903326975E+02 -0.18800798458E+02  0.12321822833E+03  0.95183624922E+02 0.  0.
          5    1    3    3  502    0 -0.61522208034E+02 -0.84361355814E+02 -0.35252695225E+02  0.11028166374E+03  0.41800000000E+01 0. -1.
         -5    1    3    3    0  502  0.34281474898E+02  0.13458028840E+02  0.96054651840E+01  0.38289364356E+02  0.41800000000E+01 0. -1.
        -11    1    4    4    0    0 -0.24728529755E+01 -0.15244575294E+02  0.19065531844E+02  0.24535822428E+02  0.00000000000E+00 0.  1.
         11    1    4    4    0    0  0.29713586111E+02  0.86147902269E+02 -0.37866330301E+02  0.98682405906E+02  0.00000000000E+00 0. -1.
</event>
<event>
 8    1  0.3710605E-009  0.1342871E+03  0.7561462E-02  0.1221230E+00
          1   -1    0    0  501    0  0.00000000000E+00  0.00000000000E+00  0.13212246559E+03  0.13212246559E+03  0.00000000000E+00 0. -1.
         -1   -1    0    0    0  501 -0.00000000000E+00 -0.00000000000E+00 -0.20108435812E+03  0.20108435812E+03  0.00000000000E+00 0.  1.
         25    2    1    2    0    0  0.10289516365E+03 -0.65379843818E+02 -0.46937861028E+02  0.18086983440E+03  0.12509514587E+03 0.  0.
         23    2    1    2    0    0 -0.10289516365E+03  0.65379843818E+02 -0.22024031500E+02  0.15233698930E+03  0.88654168914E+02 0.  0.
          5    1    3    3  502    0  0.34355085645E+02 -0.52752916155E+01  0.41155174006E+02  0.54030744570E+02  0.41800000000E+01 0. -1.
         -5    1    3    3    0  502  0.68540078001E+02 -0.60104552202E+02 -0.88093035035E+02  0.12683908983E+03  0.41800000000E+01 0. -1.
        -11    1    4    4    0    0 -0.20339193393E+02  0.55566752722E+02  0.15432602543E+02  0.61151549589E+02  0.00000000000E+00 0.  1.
         11    1    4    4    0    0 -0.82555970254E+02  0.98130910960E+01 -0.37456634043E+02  0.91185439710E+02  0.00000000000E+00 0. -1.
</event>
<event>
 8    1  0.3710605E-009  0.1103088E+03  0.7561462E-02  0.1259999E+00
          1   -1    0    0  501    0  0.00000000000E+00  0.00000000000E+00  0.41989799787E+02  0.41989799787E+02  0.00000000000E+00 0. -1.
         -1   -1    0    0    0  501 -0.00000000000E+00 -0.00000000000E+00 -0.30289187530E+03  0.30289187530E+03  0.00000000000E+00 0.  1.
         25    2    1    2    0    0 -0.56822491528E+01  0.23874206925E+02 -0.11605683513E+03  0.17239474196E+03  0.12509393416E+03 0.  0.
         23    2    1    2    0    0  0.56822491528E+01 -0.23874206925E+02 -0.14484524038E+03  0.17248693312E+03  0.90384361066E+02 0.  0.
          5    1    3    3  502    0  0.54376894800E+02 -0.13782805553E+02 -0.56292265007E+02  0.79580801181E+02  0.41800000000E+01 0. -1.
         -5    1    3    3    0  502 -0.60059143953E+02  0.37657012479E+02 -0.59764570119E+02  0.92813940777E+02  0.41800000000E+01 0. -1.
        -11    1    4    4    0    0  0.30432166930E+02  0.24465318742E+02 -0.53825370786E+02  0.66496910796E+02  0.00000000000E+00 0.  1.
         11    1    4    4    0    0 -0.24749917777E+02 -0.48339525667E+02 -0.91019869596E+02  0.10599002233E+03  0.00000000000E+00 0. -1.
</event>
<event>
 8    1  0.3710605E-009  0.1061813E+03  0.7561462E-02  0.1267809E+00
         -2   -1    0    0    0  501 -0.00000000000E+00  0.00000000000E+00  0.35026438533E+02  0.35026438533E+02  0.00000000000E+00 0.  1.
          2   -1    0    0  501    0  0.00000000000E+00 -0.00000000000E+00 -0.49659808508E+03  0.49659808508E+03  0.00000000000E+00 0. -1.
         25    2    1    2    0    0  0.63206116327E+02  0.45706053007E+02 -0.28747125685E+03  0.32306642623E+03  0.12509250904E+03 0.  0.
         23    2    1    2    0    0 -0.63206116327E+02 -0.45706053007E+02 -0.17410038969E+03  0.20855809738E+03  0.84270266815E+02 0.  0.
          5    1    3    3  502    0  0.30633406025E+02  0.66054714708E+02 -0.27173361433E+03  0.28135077831E+03  0.41800000000E+01 0.  1.
         -5    1    3    3    0  502  0.32572710302E+02 -0.20348661701E+02 -0.15737642530E+02  0.41715647925E+02  0.41800000000E+01 0.  1.
        -11    1    4    4    0    0 -0.74566429057E+02 -0.27776870390E+02 -0.82855646195E+02  0.11487717344E+03  0.00000000000E+00 0.  1.
         11    1    4    4    0    0  0.11360312729E+02 -0.17929182617E+02 -0.91244743495E+02  0.93680923939E+02  0.00000000000E+00 0. -1.
</event>
<event>
 8    1  0.3710605E-009  0.1386938E+03  0.7561462E-02  0.1215097E+00
          2   -1    0    0  501    0  0.00000000000E+00  0.00000000000E+00  0.11346288124E+03  0.11346288124E+03  0.00000000000E+00 0. -1.
         -2   -1    0    0    0  501 -0.00000000000E+00 -0.00000000000E+00 -0.17849223376E+03  0.17849223376E+03  0.00000000000E+00 0.  1.
         25    2    1    2    0    0  0.77525411627E+02 -0.36615903379E+02 -0.67858681696E+02  0.16614156420E+03  0.12508918757E+03 0.  0.
         23    2    1    2    0    0 -0.77525411627E+02  0.36615903379E+02  0.28293291811E+01  0.12581355079E+03  0.92033312615E+02 0.  0.
          5    1    3    3  502    0 -0.59101491791E+01  0.38553607356E+02 -0.15822167077E+02  0.42298036296E+02  0.41800000000E+01 0. -1.
         -5    1    3    3    0  502  0.83435560806E+02 -0.75169510735E+02 -0.52036514619E+02  0.12384352791E+03  0.41800000000E+01 0. -1.
        -11    1    4    4    0    0 -0.95297961426E+02  0.12935636573E+02  0.18548725249E+01  0.96189774392E+02  0.00000000000E+00 0.  1.
         11    1    4    4    0    0  0.17772549799E+02  0.23680266806E+02  0.97445665620E+00  0.29623776399E+02  0.00000000000E+00 0. -1.
</event>
<event>
 8    1  0.3710605E-009  0.1215169E+03  0.7561462E-02  0.1240615E+00
          4   -1    0    0  501    0  0.00000000000E+00  0.00000000000E+00  0.21057685712E+03  0.21057685712E+03  0.00000000000E+00 0. -1.
         -4   -1    0    0    0  501 -0.00000000000E+00 -0.00000000000E+00 -0.92412241900E+02  0.92412241900E+02  0.00000000000E+00 0.  1.
         25    2    1    2    0    0  0.55697350705E+02 -0.52853499389E+02  0.18264020591E+02  0.14790403293E+03  0.12508533581E+03 0.  0.
         23    2    1    2    0    0 -0.55697350705E+02  0.52853499389E+02  0.99900594632E+02  0.15508506610E+03  0.90418812452E+02 0.  0.
          5    1    3    3  502    0  0.20991187118E+02 -0.88658303073E+02 -0.76993525355E+01  0.91529651316E+02  0.41800000000E+01 0. -1.
         -5    1    3    3    0  502  0.34706163587E+02  0.35804803685E+02  0.25963373127E+02  0.56374381610E+02  0.41800000000E+01 0. -1.
        -11    1    4    4    0    0 -0.42190794870E+02 -0.49024386451E+01  0.44511497862E+01  0.42707257122E+02  0.00000000000E+00 0.  1.
         11    1    4    4    0    0 -0.13506555835E+02  0.57755938034E+02  0.95449444846E+02  0.11237780898E+03  0.00000000000E+00 0. -1.
</event>
<event>
 8    1  0.3710605E-009  0.1177872E+03  0.7561462E-02  0.1246793E+00
         -1   -1    0    0    0  501 -0.00000000000E+00  0.00000000000E+00  0.32607029359E+02  0.32607029359E+02  0.00000000000E+00 0.  1.
          1   -1    0    0  501    0  0.00000000000E+00 -0.00000000000E+00 -0.51509444288E+03  0.51509444288E+03  0.00000000000E+00 0. -1.
         25    2    1    2    0    0  0.65194351118E+02 -0.33005761953E+02 -0.33529585604E+03  0.36525761671E+03  0.12510048658E+03 0.  0.
         23    2    1    2    0    0 -0.65194351118E+02  0.33005761953E+02 -0.14719155747E+03  0.18244385553E+03  0.79251006864E+02 0.  0.
          5    1    3    3  502    0 -0.30346139459E+02 -0.33744538819E+02 -0.72861758219E+02  0.85941202522E+02  0.41800000000E+01 0. -1.
         -5    1    3    3    0  502  0.95540490578E+02  0.73877686581E+00 -0.26243409782E+03  0.27931641418E+03  0.41800000000E+01 0. -1.
        -11    1    4    4    0    0 -0.49978968586E+02 -0.80111228911E+01 -0.33691864745E+02  0.60804746039E+02  0.00000000000E+00 0.  1.
         11    1    4    4    0    0 -0.15215382532E+02  0.41016884844E+02 -0.11349969273E+03  0.12163910949E+03  0.00000000000E+00 0. -1.
</event>
<event>
 8    1  0.3710605E-009  0.1008140E+03  0.7561462E-02  0.1278594E+00
          2   -1    0    0  501    0  0.00000000000E+00  0.00000000000E+00  0.92358075958E+02  0.92358075958E+02  0.00000000000E+00 0. -1.
         -2   -1    0    0    0  501 -0.00000000000E+00 -0.00000000000E+00 -0.16046989460E+03  0.16046989460E+03  0.00000000000E+00 0.  1.
         25    2    1    2    0    0  0.40962386162E+02  0.99307551821E+01 -0.14170140446E+01  0.13201230292E+03  0.12509477693E+03 0.  0.
         23    2    1    2    0    0 -0.40962386162E+02 -0.99307551821E+01 -0.66694804601E+02  0.12081566764E+03  0.91496948632E+02 0.  0.
          5    1    3    3  502    0  0.65907247730E+01 -0.47201945628E+02  0.31756785945E+02  0.57423228555E+02  0.41800000000E+01 0. -1.
         -5    1    3    3    0  502  0.34371661389E+02  0.57132700810E+02 -0.33173799989E+02  0.74589074362E+02  0.41800000000E+01 0. -1.
        -11    1    4    4    0    0  0.62591976753E+01 -0.33585840664E+02  0.19317065650E+01  0.34218675294E+02  0.00000000000E+00 0.  1.
         11    1    4    4    0    0 -0.47221583837E+02  0.23655085482E+02 -0.68626511166E+02  0.86596992350E+02  0.00000000000E+00 0. -1.
</event>
<event>
 8    1  0.3710605E-009  0.1039334E+03  0.7561462E-02  0.1272235E+00
         -1   -1    0    0    0  501 -0.00000000000E+00  0.00000000000E+00  0.35634712028E+02  0.35634712028E+02  0.00000000000E+00 0.  1.
          1   -1    0    0  501    0  0.00000000000E+00 -0.00000000000E+00 -0.36403891382E+03  0.36403891382E+03  0.00000000000E+00 0. -1.
         25    2    1    2    0    0 -0.19861427272E+00 -0.38402146089E+02 -0.16778785677E+03  0.21278031233E+03  0.12509169502E+03 0.  0.
         23    2    1    2    0    0  0.19861427272E+00  0.38402146089E+02 -0.16061634502E+03  0.18689331352E+03  0.87502777543E+02 0.  0.
          5    1    3    3  502    0 -0.81600619244E+00 -0.75370758894E+02 -0.15672922420E+03  0.17396246515E+03  0.41800000000E+01 0. -1.
         -5    1    3    3    0  502  0.61739191972E+00  0.36968612804E+02 -0.11058632572E+02  0.38817847182E+02  0.41800000000E+01 0. -1.
        -11    1    4    4    0    0  0.30175844141E+02  0.53635071660E+02 -0.11176188398E+03  0.12758534866E+03  0.00000000000E+00 0.  1.
         11    1    4    4    0    0 -0.29977229868E+02 -0.15232925571E+02 -0.48854461034E+02  0.59307964853E+02  0.00000000000E+00 0. -1.
</event>
<event>
 8    1  0.3710605E-009  0.2215220E+03  0.7561462E-02  0.1132753E+00
         -2   -1    0    0    0  501 -0.00000000000E+00  0.00000000000E+00  0.22409440290E+03  0.22409440290E+03  0.00000000000E+00 0.  1.
          2   -1    0    0  501    0  0.00000000000E+00 -0.00000000000E+00 -0.27560593558E+03  0.27560593558E+03  0.00000000000E+00 0. -1.
         25    2    1    2    0    0  0.17849178013E+03 -0.92945671526E+02 -0.12571633950E+03  0.26823499117E+03  0.12508876465E+03 0.  0.
         23    2    1    2    0    0 -0.17849178013E+03  0.92945671526E+02  0.74204806823E+02  0.23146534731E+03  0.87015172367E+02 0.  0.
          5    1    3    3  502    0  0.14521990272E+03 -0.11588679089E+03 -0.13084807839E+03  0.22728233646E+03  0.41800000000E+01 0.  1.
         -5    1    3    3    0  502  0.33271877409E+02  0.22941119360E+02  0.51317388901E+01  0.40952654711E+02  0.41800000000E+01 0.  1.
        -11    1    4    4    0    0 -0.60311165422E+01  0.33679863511E+02  0.25619687191E+02  0.42744308915E+02  0.00000000000E+00 0.  1.
         11    1    4    4    0    0 -0.17246066358E+03  0.59265808015E+02  0.48585119632E+02  0.18872103840E+03  0.00000000000E+00 0. -1.
</event>
<event>
 8    1  0.3710605E-009  0.7128058E+02  0.7561462E-02  0.1355792E+00
         -2   -1    0    0    0  501 -0.00000000000E+00  0.00000000000E+00  0.30144985747E+02  0.30144985747E+02  0.00000000000E+00 0. -1.
          2   -1    0    0  501    0  0.00000000000E+00 -0.00000000000E+00 -0.52090298322E+03  0.52090298322E+03  0.00000000000E+00 0.  1.
         25    2    1    2    0    0 -0.34271515755E+02 -0.21337181812E+02 -0.16941125379E+03  0.21442430489E+03  0.12509115676E+03 0.  0.
         23    2    1    2    0    0  0.34271515755E+02  0.21337181812E+02 -0.32134674369E+03  0.33662366407E+03  0.91771179656E+02 0.  0.
          5    1    3    3  502    0 -0.31942845193E+02 -0.24776016958E+02  0.40690838621E+01  0.40843925115E+02  0.41800000000E+01 0. -1.
         -5    1    3    3    0  502 -0.23286705617E+01  0.34388351463E+01 -0.17348033765E+03  0.17358037978E+03  0.41800000000E+01 0. -1.
        -11    1    4    4    0    0 -0.52337786545E+01 -0.30447978185E+02 -0.15358549285E+03  0.15666197825E+03  0.00000000000E+00 0.  1.
         11    1    4    4    0    0  0.39505294409E+02  0.51785159997E+02 -0.16776125083E+03  0.17996168582E+03  0.00000000000E+00 0. -1.
</event>
<event>
 8    1  0.3710605E-009  0.1598576E+03  0.7561462E-02  0.1188858E+00
          1   -1    0    0  501    0  0.00000000000E+00  0.00000000000E+00  0.78724750778E+03  0.78724750778E+03  0.00000000000E+00 0. -1.
         -1   -1    0    0    0  501 -0.00000000000E+00 -0.00000000000E+00 -0.50968301779E+02  0.50968301779E+02  0.00000000000E+00 0.  1.
         25    2    1    2    0    0 -0.77132842283E+02 -0.13916791985E+03  0.27392784355E+03  0.34058891721E+03  0.12508861571E+03 0.  0.
         23    2    1    2    0    0  0.77132842283E+02  0.13916791985E+03  0.46235136246E+03  0.49762689236E+03  0.92447587083E+02 0.  0.
          5    1    3    3  502    0 -0.31729033694E+02 -0.59559383240E+02  0.22834971753E+03  0.23814935987E+03  0.41800000000E+01 0. -1.
         -5    1    3    3    0  502 -0.45403808589E+02 -0.79608536608E+02  0.45578126015E+02  0.10243955733E+03  0.41800000000E+01 0. -1.
        -11    1    4    4    0    0  0.26358910145E+02  0.68059610548E+02  0.33709963381E+03  0.34491022867E+03  0.00000000000E+00 0. -1.
         11    1    4    4    0    0  0.50773932138E+02  0.71108309300E+02  0.12525172865E+03  0.15271666368E+03  0.00000000000E+00 0.  1.
</event>
<event>
 8    1  0.3710605E-009  0.8184452E+02  0.7561462E-02  0.1323897E+00
          1   -1    0    0  501    0  0.00000000000E+00  0.00000000000E+00  0.81075117962E+03  0.81075117962E+03  0.00000000000E+00 0. -1.
         -1   -1    0    0    0  501 -0.00000000000E+00 -0.00000000000E+00 -0.17120788288E+02  0.17120788288E+02  0.00000000000E+00 0.  1.
         25    2    1    2    0    0  0.14556760844E+02 -0.16798776137E+02  0.30472505236E+03  0.33014927411E+03  0.12508831878E+03 0.  0.
         23    2    1    2    0    0 -0.14556760844E+02  0.16798776137E+02  0.48890533897E+03  0.49772269380E+03  0.90583394052E+02 0.  0.
          5    1    3    3  502    0 -0.25573583799E+02  0.30593576736E+01  0.27501868794E+03  0.27625372210E+03  0.41800000000E+01 0.  1.
         -5    1    3    3    0  502  0.40130344643E+02 -0.19858133810E+02  0.29706364417E+02  0.53895552010E+02  0.41800000000E+01 0.  1.
        -11    1    4    4    0    0 -0.74047887013E+01  0.54121021834E+02  0.31645384052E+03  0.32113384917E+03  0.00000000000E+00 0. -1.
         11    1    4    4    0    0 -0.71519721428E+01 -0.37322245697E+02  0.17245149845E+03  0.17658884463E+03  0.00000000000E+00 0.  1.
</event>
<event>
 8    1  0.3710605E-009  0.1301053E+03  0.7561462E-02  0.1227300E+00
         -2   -1    0    0    0  501 -0.00000000000E+00  0.00000000000E+00  0.12098297734E+03  0.12098297734E+03  0.00000000000E+00 0.  1.
          2   -1    0    0  501    0  0.00000000000E+00 -0.00000000000E+00 -0.17315000337E+03  0.17315000337E+03  0.00000000000E+00 0. -1.
         25    2    1    2    0    0  0.85575517025E+02  0.43270018108E+02 -0.39654288560E+02  0.16251508671E+03  0.12507288765E+03 0.  0.
         23    2    1    2    0    0 -0.85575517025E+02 -0.43270018108E+02 -0.12512737471E+02  0.13161789399E+03  0.89281788958E+02 0.  0.
          5    1    3    3  502    0  0.55690065695E+02 -0.40160603220E+02 -0.14520678576E+02  0.70303484796E+02  0.41800000000E+01 0.  1.
         -5    1    3    3    0  502  0.29885451330E+02  0.83430621328E+02 -0.25133609984E+02  0.92211601912E+02  0.41800000000E+01 0.  1.
        -11    1    4    4    0    0 -0.25128042395E+02  0.46629542920E+01  0.33236913736E+02  0.41926770589E+02  0.00000000000E+00 0.  1.
         11    1    4    4    0    0 -0.60447474629E+02 -0.47932972400E+02 -0.45749651207E+02  0.89691123405E+02  0.00000000000E+00 0. -1.
</event>
<event>
 8    1  0.3710605E-009  0.1400009E+03  0.7561462E-02  0.1213328E+00
          1   -1    0    0  501    0  0.00000000000E+00  0.00000000000E+00  0.70236615437E+02  0.70236615437E+02  0.00000000000E+00 0. -1.
         -1   -1    0    0    0  501 -0.00000000000E+00 -0.00000000000E+00 -0.48267008673E+03  0.48267008673E+03  0.00000000000E+00 0.  1.
         25    2    1    2    0    0  0.75091032869E+02  0.58076787681E+02 -0.46365592068E+02  0.16373420071E+03  0.12509014297E+03 0.  0.
         23    2    1    2    0    0 -0.75091032869E+02 -0.58076787681E+02 -0.36606787922E+03  0.38917250146E+03  0.91858408478E+02 0.  0.
          5    1    3    3  502    0  0.83063400265E+02 -0.75891476577E+01 -0.50029952598E+02  0.97352925907E+02  0.41800000000E+01 0.  1.
         -5    1    3    3    0  502 -0.79723673955E+01  0.65665935338E+02  0.36643605301E+01  0.66381274798E+02  0.41800000000E+01 0.  1.
        -11    1    4    4    0    0 -0.47052133712E+02  0.17028878636E+02 -0.17380856576E+03  0.18086819379E+03  0.00000000000E+00 0.  1.
         11    1    4    4    0    0 -0.28038899157E+02 -0.75105666317E+02 -0.19225931347E+03  0.20830430767E+03  0.00000000000E+00 0. -1.
</event>
<event>
 8    1  0.3710605E-009  0.9629838E+02  0.7561462E-02  0.1288278E+00
          1   -1    0    0  501    0  0.00000000000E+00  0.00000000000E+00  0.14235526699E+03  0.14235526699E+03  0.00000000000E+00 0. -1.
         -1   -1    0    0    0  501 -0.00000000000E+00 -0.00000000000E+00 -0.98209047114E+02  0.98209047114E+02  0.00000000000E+00 0.  1.
         25    2    1    2    0    0 -0.48761212630E+02 -0.17573066043E+02  0.39005870616E+02  0.14091147419E+03  0.12509243425E+03 0.  0.
         23    2    1    2    0    0  0.48761212630E+02  0.17573066043E+02  0.51403492586E+01  0.99652839917E+02  0.84957617703E+02 0.  0.
          5    1    3    3  502    0 -0.79673625980E+02  0.17799033955E+02  0.33945998749E+01  0.81814961926E+02  0.41800000000E+01 0.  1.
         -5    1    3    3    0  502  0.30912413351E+02 -0.35372099998E+02  0.35611270741E+02  0.59096512259E+02  0.41800000000E+01 0.  1.
        -11    1    4    4    0    0  0.32318423376E+02 -0.79940064932E+01 -0.35652191682E+02  0.48779743757E+02  0.00000000000E+00 0.  1.
         11    1    4    4    0    0  0.16442789254E+02  0.25567072536E+02  0.40792540940E+02  0.50873096160E+02  0.00000000000E+00 0. -1.
</event>
<event>
 8    1  0.3710605E-009  0.8376480E+02  0.7561462E-02  0.1318695E+00
         -2   -1    0    0    0  501 -0.00000000000E+00  0.00000000000E+00  0.66556400776E+02  0.66556400776E+02  0.00000000000E+00 0.  1.
          2   -1    0    0  501    0  0.00000000000E+00 -0.00000000000E+00 -0.18440545544E+03  0.18440545544E+03  0.00000000000E+00 0. -1.
         25    2    1    2    0    0 -0.18414571175E+02  0.13980280679E+02 -0.54308377722E+02  0.13831645425E+03  0.12508995542E+03 0.  0.
         23    2    1    2    0    0  0.18414571175E+02 -0.13980280679E+02 -0.63540676946E+02  0.11264540197E+03  0.90094529680E+02 0.  0.
          5    1    3    3  502    0  0.71851883675E+00 -0.27932907632E+02 -0.80388386484E+02  0.85208735934E+02  0.41800000000E+01 0.  1.
         -5    1    3    3    0  502 -0.19133090012E+02  0.41913188312E+02  0.26080008761E+02  0.53107718317E+02  0.41800000000E+01 0.  1.
        -11    1    4    4    0    0 -0.27635307724E+02  0.21391134794E+02 -0.23746390747E+02  0.42251413636E+02  0.00000000000E+00 0. -1.
         11    1    4    4    0    0  0.46049878899E+02 -0.35371415473E+02 -0.39794286199E+02  0.70393988332E+02  0.00000000000E+00 0.  1.
</event>
<event>
 8    1  0.3710605E-009  0.1537322E+03  0.7561462E-02  0.1195960E+00
         -1   -1    0    0    0  501 -0.00000000000E+00  0.00000000000E+00  0.21358422024E+03  0.21358422024E+03  0.00000000000E+00 0.  1.
          1   -1    0    0  501    0  0.00000000000E+00 -0.00000000000E+00 -0.11753148137E+03  0.11753148137E+03  0.00000000000E+00 0. -1.
         25    2    1    2    0    0  0.10148502542E+03 -0.41364806273E+02  0.84740662978E+02  0.18664017188E+03  0.12507324341E+03 0.  0.
         23    2    1    2    0    0 -0.10148502542E+03  0.41364806273E+02  0.11312075893E+02  0.14447552973E+03  0.93460997470E+02 0.  0.
          5    1    3    3  502    0  0.51050023990E+02  0.42787463649E+02  0.22745887119E+02  0.70510423171E+02  0.41800000000E+01 0.  1.
         -5    1    3    3    0  502  0.50435001431E+02 -0.84152269922E+02  0.61994775859E+02  0.11612974871E+03  0.41800000000E+01 0.  1.
        -11    1    4    4    0    0 -0.60263699969E+02 -0.24313437512E+02 -0.52114181095E+01  0.65192144130E+02  0.00000000000E+00 0.  1.
         11    1    4    4    0    0 -0.41221325452E+02  0.65678243785E+02  0.16523494003E+02  0.79283385603E+02  0.00000000000E+00 0. -1.
</event>
<event>
 8    1  0.3710605E-009  0.1239990E+03  0.7561462E-02  0.1236642E+00
          1   -1    0    0  501    0  0.00000000000E+00  0.00000000000E+00  0.18038439804E+03  0.18038439804E+03  0.00000000000E+00 0. -1.
         -1   -1    0    0    0  501 -0.00000000000E+00 -0.00000000000E+00 -0.11245748203E+03  0.11245748203E+03  0.00000000000E+00 0.  1.
         25    2    1    2    0    0 -0.42842189455E+02 -0.75480930939E+02  0.68841726374E+02  0.16709698061E+03  0.12509753597E+03 0.  0.
         23    2    1    2    0    0  0.42842189455E+02  0.75480930939E+02 -0.91481035851E+00  0.12574489946E+03  0.90984167470E+02 0.  0.
          5    1    3    3  502    0  0.24521229108E+02  0.21230529517E+02  0.52854566397E+01  0.33127549146E+02  0.41800000000E+01 0.  1.
         -5    1    3    3    0  502 -0.67363418563E+02 -0.96711460455E+02  0.63556269735E+02  0.13396943146E+03  0.41800000000E+01 0.  1.
        -11    1    4    4    0    0  0.51675153888E+02  0.57375176441E+02  0.34835099795E+02  0.84709601455E+02  0.00000000000E+00 0. -1.
         11    1    4    4    0    0 -0.88329644328E+01  0.18105754498E+02 -0.35749910153E+02  0.41035298008E+02  0.00000000000E+00 0.  1.
</event>
<event>
 8    1  0.3710605E-009  0.1237793E+03  0.7561462E-02  0.1236989E+00
         -1   -1    0    0    0  501 -0.00000000000E+00  0.00000000000E+00  0.47503126824E+03  0.47503126824E+03  0.00000000000E+00 0.  1.
          1   -1    0    0  501    0  0.00000000000E+00 -0.00000000000E+00 -0.61206788811E+02  0.61206788811E+02  0.00000000000E+00 0. -1.
         25    2    1    2    0    0 -0.91941889949E+01  0.10663290450E+03  0.33922482575E+03  0.37706171830E+03  0.12508775948E+03 0.  0.
         23    2    1    2    0    0  0.91941889949E+01 -0.10663290450E+03  0.74599653679E+02  0.15917633875E+03  0.91196979417E+02 0.  0.
          5    1    3    3  502    0  0.20453103064E+02  0.37404760469E+02  0.27405299861E+03  0.27738054002E+03  0.41800000000E+01 0.  1.
         -5    1    3    3    0  502 -0.29647292059E+02  0.69228144030E+02  0.65171827135E+02  0.99681178285E+02  0.41800000000E+01 0.  1.
        -11    1    4    4    0    0 -0.25268770596E+02 -0.84837766758E+02  0.19523771970E+02  0.90648414812E+02  0.00000000000E+00 0. -1.
         11    1    4    4    0    0  0.34462959591E+02 -0.21795137740E+02  0.55075881709E+02  0.68527923936E+02  0.00000000000E+00 0.  1.
</event>
<event>
 8    1  0.3710605E-009  0.1122685E+03  0.7561462E-02  0.1256426E+00
          1   -1    0    0  501    0  0.00000000000E+00  0.00000000000E+00  0.25735366947E+03  0.25735366947E+03  0.00000000000E+00 0. -1.
         -1   -1    0    0    0  501 -0.00000000000E+00 -0.00000000000E+00 -0.54263437382E+02  0.54263437382E+02  0.00000000000E+00 0.  1.
         25    2    1    2    0    0 -0.39760738554E+02  0.91031134978E+01  0.12318758896E+03  0.18023993671E+03  0.12508984653E+03 0.  0.
         23    2    1    2    0    0  0.39760738554E+02 -0.91031134978E+01  0.79902643131E+02  0.13137717014E+03  0.95977838329E+02 0.  0.
          5    1    3    3  502    0  0.27067905629E+02 -0.32302128496E+02  0.12028096139E+02  0.44025521203E+02  0.41800000000E+01 0. -1.
         -5    1    3    3    0  502 -0.66828644183E+02  0.41405241994E+02  0.11115949282E+03  0.13621441551E+03  0.41800000000E+01 0. -1.
        -11    1    4    4    0    0 -0.35672167486E+01 -0.46250135264E+02  0.44099937510E+02  0.64004722760E+02  0.00000000000E+00 0. -1.
         11    1    4    4    0    0  0.43327955302E+02  0.37147021766E+02  0.35802705621E+02  0.67372447385E+02  0.00000000000E+00 0.  1.
</event>
<event>
 8    1  0.3710605E-009  0.1166872E+03  0.7561462E-02  0.1248664E+00
          3   -1    0    0  501    0  0.00000000000E+00  0.00000000000E+00  0.28631512203E+03  0.28631512203E+03  0.00000000000E+00 0. -1.
         -3   -1    0    0    0  501 -0.00000000000E+00 -0.00000000000E+00 -0.52733285181E+02  0.52733285181E+02  0.00000000000E+00 0.  1.
         25    2    1    2    0    0  0.13839165044E+02 -0.54003652934E+02  0.11229999610E+03  0.17710709895E+03  0.12509084040E+03 0.  0.
         23    2    1    2    0    0 -0.13839165044E+02  0.54003652934E+02  0.12128184074E+03  0.16194130826E+03  0.91693976945E+02 0.  0.
          5    1    3    3  502    0 -0.42941325737E+02  0.95987417809E+01  0.12815431146E+02  0.46019571655E+02  0.41800000000E+01 0. -1.
         -5    1    3    3    0  502  0.56780490781E+02 -0.63602394715E+02  0.99484564956E+02  0.13108752729E+03  0.41800000000E+01 0. -1.
        -11    1    4    4    0    0  0.36876526266E+02  0.14902767972E+02  0.67351516547E+02  0.78218907330E+02  0.00000000000E+00 0.  1.
         11    1    4    4    0    0 -0.50715691310E+02  0.39100884962E+02  0.53930324198E+02  0.83722400933E+02  0.00000000000E+00 0. -1.
</event>
<event>
 8    1  0.3710605E-009  0.1489293E+03  0.7561462E-02  0.1201795E+00
          1   -1    0    0  501    0  0.00000000000E+00  0.00000000000E+00  0.17921151526E+03  0.17921151526E+03  0.00000000000E+00 0. -1.
         -1   -1    0    0    0  501 -0.00000000000E+00 -0.00000000000E+00 -0.19762059275E+03  0.19762059275E+03  0.00000000000E+00 0.  1.
         25    2    1    2    0    0  0.33745903960E+01  0.14598625567E+03 -0.61429310468E+02  0.20185027441E+03  0.12508636373E+03 0.  0.
         23    2    1    2    0    0 -0.33745903960E+01 -0.14598625567E+03  0.43020232978E+02  0.17498183360E+03  0.86281672110E+02 0.  0.
          5    1    3    3  502    0  0.14369773315E+02  0.21122940500E+02  0.35081471211E+02  0.43598750244E+02  0.41800000000E+01 0. -1.
         -5    1    3    3    0  502 -0.10995182919E+02  0.12486331517E+03 -0.96510781679E+02  0.15825152417E+03  0.41800000000E+01 0. -1.
        -11    1    4    4    0    0 -0.80686569967E+01 -0.81439156638E+02 -0.20429651020E+02  0.84349333729E+02  0.00000000000E+00 0.  1.
         11    1    4    4    0    0  0.46940666008E+01 -0.64547099028E+02  0.63449883998E+02  0.90632499875E+02  0.00000000000E+00 0. -1.
</event>
<event>
 8    1  0.3710605E-009  0.1144044E+03  0.7561462E-02  0.1252624E+00
          1   -1    0    0  501    0  0.00000000000E+00  0.00000000000E+00  0.17199633010E+03  0.17199633010E+03  0.00000000000E+00 0. -1.
         -1   -1    0    0    0  501 -0.00000000000E+00 -0.00000000000E+00 -0.13651693457E+03  0.13651693457E+03  0.00000000000E+00 0.  1.
         25    2    1    2    0    0  0.56203255498E+02  0.76814616496E+02  0.69674815005E+02  0.17193411406E+03  0.12508984169E+03 0.  0.
         23    2    1    2    0    0 -0.56203255498E+02 -0.76814616496E+02 -0.34195419470E+02  0.13657915061E+03  0.91789141147E+02 0.  0.
          5    1    3    3  502    0  0.26049571780E+02  0.18516364339E+02 -0.35461992422E+02  0.47921406957E+02  0.41800000000E+01 0. -1.
         -5    1    3    3    0  502  0.30153683718E+02  0.58298252157E+02  0.10513680743E+03  0.12401270710E+03  0.41800000000E+01 0. -1.
        -11    1    4    4    0    0 -0.45423645519E+02  0.72999315862E+01 -0.25926822763E+01  0.46079481060E+02  0.00000000000E+00 0. -1.
         11    1    4    4    0    0 -0.10779609979E+02 -0.84114548082E+02 -0.31602737193E+02  0.90499669549E+02  0.00000000000E+00 0.  1.
</event>
<event>
 8    1  0.3710605E-009  0.9816161E+02  0.7561462E-02  0.1284210E+00
         -2   -1    0    0    0  501 -0.00000000000E+00  0.00000000000E+00  0.12133754588E+02  0.12133754588E+02  0.00000000000E+00 0.  1.
          2   -1    0    0  501    0  0.00000000000E+00 -0.00000000000E+00 -0.12494343327E+04  0.12494343327E+04  0.00000000000E+00 0. -1.
         25    2    1    2    0    0 -0.25627886872E+01  0.47026386843E+02 -0.88044191413E+03  0.89052973237E+03  0.12508873304E+03 0.  0.
         23    2    1    2    0    0  0.25627886872E+01 -0.47026386843E+02 -0.35685866394E+03  0.37103835488E+03  0.90018363759E+02 0.  0.
          5    1    3    3  502    0 -0.16011245234E+01  0.70800043727E+02 -0.25676004987E+03  0.26638018958E+03  0.41800000000E+01 0.  1.
         -5    1    3    3    0  502 -0.96166416387E+00 -0.23773656883E+02 -0.62368186426E+03  0.62414954279E+03  0.41800000000E+01 0.  1.
        -11    1    4    4    0    0  0.82101174472E+01  0.26366147464E+02 -0.83843272271E+02  0.88273858337E+02  0.00000000000E+00 0.  1.
         11    1    4    4    0    0 -0.56473287600E+01 -0.73392534307E+02 -0.27301539167E+03  0.28276449654E+03  0.00000000000E+00 0. -1.
</event>
<event>
 8    1  0.3710605E-009  0.8734718E+02  0.7561462E-02  0.1309406E+00
          1   -1    0    0  501    0  0.00000000000E+00  0.00000000000E+00  0.10148536621E+03  0.10148536621E+03  0.00000000000E+00 0. -1.
         -1   -1    0    0    0  501 -0.00000000000E+00 -0.00000000000E+00 -0.12696498812E+03  0.12696498812E+03  0.00000000000E+00 0.  1.
         25    2    1    2    0    0 -0.12463248390E+02  0.53655193243E+01  0.19194693069E+02  0.12727146271E+03  0.12508184369E+03 0.  0.
         23    2    1    2    0    0  0.12463248390E+02 -0.53655193243E+01 -0.44674314983E+02  0.10117889162E+03  0.89762198791E+02 0.  0.
          5    1    3    3  502    0 -0.18053709030E+01  0.44006528939E+02  0.56904208570E+02  0.72079090632E+02  0.41800000000E+01 0. -1.
         -5    1    3    3    0  502 -0.10657877487E+02 -0.38641009615E+02 -0.37709515501E+02  0.55192372081E+02  0.41800000000E+01 0. -1.
        -11    1    4    4    0    0  0.40796713572E+01  0.41925381963E+02 -0.26833003774E+02  0.49943883136E+02  0.00000000000E+00 0.  1.
         11    1    4    4    0    0  0.83835770331E+01 -0.47290901288E+02 -0.17841311209E+02  0.51235008482E+02  0.00000000000E+00 0. -1.
</event>
<event>
 8    1  0.3710605E-009  0.9093140E+02  0.7561462E-02  0.1300612E+00
         -1   -1    0    0    0  501 -0.00000000000E+00  0.00000000000E+00  0.11162022681E+03  0.11162022681E+03  0.00000000000E+00 0. -1.
          1   -1    0    0  501    0  0.00000000000E+00 -0.00000000000E+00 -0.12506379330E+03  0.12506379330E+03  0.00000000000E+00 0.  1.
         25    2    1    2    0    0 -0.26840490916E+02 -0.30291326001E+02  0.12513794425E+02  0.13206825739E+03  0.12508978046E+03 0.  0.
         23    2    1    2    0    0  0.26840490916E+02  0.30291326001E+02 -0.25957360919E+02  0.10461576272E+03  0.92912307258E+02 0.  0.
          5    1    3    3  502    0 -0.64237049253E+02 -0.64483675234E+01 -0.29254804777E+02  0.71002084075E+02  0.41800000000E+01 0.  1.
         -5    1    3    3    0  502  0.37396558337E+02 -0.23842958478E+02  0.41768599202E+02  0.61066173318E+02  0.41800000000E+01 0.  1.
        -11    1    4    4    0    0  0.41432317842E+02  0.37910579567E+02  0.16948166136E+02  0.58660799008E+02  0.00000000000E+00 0. -1.
         11    1    4    4    0    0 -0.14591826926E+02 -0.76192535652E+01 -0.42905527055E+02  0.45954963712E+02  0.00000000000E+00 0.  1.
</event>
<event>
 8    1  0.3710605E-009  0.1319877E+03  0.7561462E-02  0.1224536E+00
          1   -1    0    0  501    0  0.00000000000E+00  0.00000000000E+00  0.59109465178E+03  0.59109465178E+03  0.00000000000E+00 0. -1.
         -1   -1    0    0    0  501 -0.00000000000E+00 -0.00000000000E+00 -0.30617896154E+02  0.30617896154E+02  0.00000000000E+00 0.  1.
         25    2    1    2    0    0 -0.80609264002E+02  0.93723120933E+01  0.31399882435E+03  0.34760396267E+03  0.12509020544E+03 0.  0.
         23    2    1    2    0    0  0.80609264002E+02 -0.93723120933E+01  0.24647793128E+03  0.27410858527E+03  0.88308845713E+02 0.  0.
          5    1    3    3  502    0  0.27858524450E+02  0.27058063485E+02  0.77736118873E+02  0.86997774463E+02  0.41800000000E+01 0. -1.
         -5    1    3    3    0  502 -0.10846778845E+03 -0.17685751391E+02  0.23626270548E+03  0.26060618821E+03  0.41800000000E+01 0. -1.
        -11    1    4    4    0    0  0.54857830280E+02  0.33967346761E+02  0.98250675570E+02  0.11754300251E+03  0.00000000000E+00 0.  1.
         11    1    4    4    0    0  0.25751433722E+02 -0.43339658854E+02  0.14822725571E+03  0.15656558276E+03  0.00000000000E+00 0. -1.
</event>
<event>
 8    1  0.3710605E-009  0.8238123E+02  0.7561462E-02  0.1322427E+00
          1   -1    0    0  501    0  0.00000000000E+00  0.00000000000E+00  0.52541000972E+02  0.52541000972E+02  0.00000000000E+00 0. -1.
         -1   -1    0    0    0  501 -0.00000000000E+00 -0.00000000000E+00 -0.23600420039E+03  0.23600420039E+03  0.00000000000E+00 0.  1.
         25    2    1    2    0    0 -0.83711300192E+01 -0.25525132666E+02 -0.11140732609E+03  0.16964369821E+03  0.12508310764E+03 0.  0.
         23    2    1    2    0    0  0.83711300192E+01  0.25525132666E+02 -0.72055873329E+02  0.11890150316E+03  0.90685778142E+02 0.  0.
          5    1    3    3  502    0 -0.40486296570E+02 -0.42368408985E+01  0.10062870385E+02  0.42140536199E+02  0.41800000000E+01 0.  1.
         -5    1    3    3    0  502  0.32115166551E+02 -0.21288291767E+02 -0.12147019648E+03  0.12750316201E+03  0.41800000000E+01 0.  1.
        -11    1    4    4    0    0  0.31137466545E+02  0.45272920918E+02 -0.19475539408E+02  0.58296447803E+02  0.00000000000E+00 0. -1.
         11    1    4    4    0    0 -0.22766336525E+02 -0.19747788252E+02 -0.52580333921E+02  0.60605055357E+02  0.00000000000E+00 0.  1.
</event>
<event>
 8    1  0.3710605E-009  0.8432551E+02  0.7561462E-02  0.1317206E+00
         -1   -1    0    0    0  501 -0.00000000000E+00  0.00000000000E+00  0.20853662006E+03  0.20853662006E+03  0.00000000000E+00 0.  1.
          1   -1    0    0  501    0  0.00000000000E+00 -0.00000000000E+00 -0.65927526926E+02  0.65927526926E+02  0.00000000000E+00 0. -1.
         25    2    1    2    0    0  0.27950091134E+01  0.22289567575E+02  0.12444784436E+03  0.17787462220E+03  0.12508988112E+03 0.  0.
         23    2    1    2    0    0 -0.27950091134E+01 -0.22289567575E+02  0.18161248772E+02  0.96589524783E+02  0.92168695566E+02 0.  0.
          5    1    3    3  502    0 -0.91281064589E+01 -0.51326514957E+02  0.47808043755E+02  0.70857708916E+02  0.41800000000E+01 0.  1.
         -5    1    3    3    0  502  0.11923115572E+02  0.73616082532E+02  0.76639800607E+02  0.10701691329E+03  0.41800000000E+01 0.  1.
        -11    1    4    4    0    0 -0.14754917061E+02 -0.25334468639E+02 -0.32894412461E+02  0.44063423038E+02  0.00000000000E+00 0. -1.
         11    1    4    4    0    0  0.11959907948E+02  0.30449010642E+01  0.51055661233E+02  0.52526101745E+02  0.00000000000E+00 0.  1.
</event>
<event>
 8    1  0.3710605E-009  0.6580252E+02  0.7561462E-02  0.1374978E+00
         -1   -1    0    0    0  501 -0.00000000000E+00  0.00000000000E+00  0.34823132657E+02  0.34823132657E+02  0.00000000000E+00 0.  1.
          1   -1    0    0  501    0  0.00000000000E+00 -0.00000000000E+00 -0.34907526502E+03  0.34907526502E+03  0.00000000000E+00 0. -1.
         25    2    1    2    0    0  0.20338717054E+02  0.26049750480E+02 -0.18443916236E+03  0.22529425777E+03  0.12508974803E+03 0.  0.
         23    2    1    2    0    0 -0.20338717054E+02 -0.26049750480E+02 -0.12981297000E+03  0.15860413991E+03  0.84921217035E+02 0.  0.
          5    1    3    3  502    0  0.19078533375E+02  0.45364124804E+01 -0.19831404151E+03  0.19932511365E+03  0.41800000000E+01 0. -1.
         -5    1    3    3    0  502  0.12601836785E+01  0.21513338000E+02  0.13874879149E+02  0.25969144117E+02  0.41800000000E+01 0. -1.
        -11    1    4    4    0    0 -0.20785078479E+02  0.28376290860E+02 -0.37308247482E+02  0.51275127504E+02  0.00000000000E+00 0.  1.
         11    1    4    4    0    0  0.44636142497E+00 -0.54426041340E+02 -0.92504722521E+02  0.10732901240E+03  0.00000000000E+00 0. -1.
</event>
<event>
 8    1  0.3710605E-009  0.1022024E+03  0.7561462E-02  0.1275732E+00
          3   -1    0    0  501    0  0.00000000000E+00  0.00000000000E+00  0.46354399960E+03  0.46354399960E+03  0.00000000000E+00 0. -1.
         -3   -1    0    0    0  501 -0.00000000000E+00 -0.00000000000E+00 -0.37081568446E+02  0.37081568446E+02  0.00000000000E+00 0.  1.
         25    2    1    2    0    0  0.66300816002E+02  0.23271024563E+02  0.23251941793E+03  0.27322337812E+03  0.12509354839E+03 0.  0.
         23    2    1    2    0    0 -0.66300816002E+02 -0.23271024563E+02  0.19394301323E+03  0.22740218993E+03  0.95710630646E+02 0.  0.
          5    1    3    3  502    0  0.12096705848E+02 -0.30429101135E+02  0.17365468742E+03  0.17676448555E+03  0.41800000000E+01 0.  1.
         -5    1    3    3    0  502  0.54204110154E+02  0.53700125698E+02  0.58864730505E+02  0.96458892566E+02  0.41800000000E+01 0.  1.
        -11    1    4    4    0    0 -0.25632361513E+01 -0.30702466264E+02  0.96936301697E+01  0.32298267448E+02  0.00000000000E+00 0. -1.
         11    1    4    4    0    0 -0.63737579851E+02  0.74314417005E+01  0.18424938306E+03  0.19510392248E+03  0.00000000000E+00 0.  1.
</event>
<event>
 8    1  0.3710605E-009  0.7575655E+02  0.7561462E-02  0.1341544E+00
          2   -1    0    0  501    0  0.00000000000E+00  0.00000000000E+00  0.25863112822E+03  0.25863112822E+03  0.00000000000E+00 0.  1.
         -2   -1    0    0    0  501 -0.00000000000E+00 -0.00000000000E+00 -0.60301701939E+02  0.60301701939E+02  0.00000000000E+00 0. -1.
         25    2    1    2    0    0  0.37059759183E+02  0.33642836888E+02  0.67379871193E+02  0.15064146421E+03  0.12509011741E+03 0.  0.
         23    2    1    2    0    0 -0.37059759183E+02 -0.33642836888E+02  0.13094955509E+03  0.16829136595E+03  0.93107097746E+02 0.  0.
          5    1    3    3  502    0 -0.13572996564E+02  0.17051318602E+02 -0.31329143459E+02  0.38392204048E+02  0.41800000000E+01 0.  1.
         -5    1    3    3    0  502  0.50632755747E+02  0.16591518286E+02  0.98709014653E+02  0.11224926016E+03  0.41800000000E+01 0.  1.
        -11    1    4    4    0    0  0.15418218051E+02 -0.95119827379E+01  0.10216020292E+03  0.10375406654E+03  0.00000000000E+00 0.  1.
         11    1    4    4    0    0 -0.52477977234E+02 -0.24130854150E+02  0.28789352172E+02  0.64537299409E+02  0.00000000000E+00 0. -1.
</event>
<event>
 8    1  0.3710605E-009  0.1028406E+03  0.7561462E-02  0.1274433E+00
         -2   -1    0    0    0  501 -0.00000000000E+00  0.00000000000E+00  0.18612629226E+02  0.18612629226E+02  0.00000000000E+00 0.  1.
          2   -1    0    0  501    0  0.00000000000E+00 -0.00000000000E+00 -0.73300376856E+03  0.73300376856E+03  0.00000000000E+00 0. -1.
         25    2    1    2    0    0 -0.31320115385E+02 -0.14547374031E+02 -0.47941823408E+03  0.49667080571E+03  0.12508984916E+03 0.  0.
         23    2    1    2    0    0  0.31320115385E+02  0.14547374031E+02 -0.23497290526E+03  0.25494559207E+03  0.92695269532E+02 0.  0.
          5    1    3    3  502    0  0.25021929441E+02  0.30202115524E+02 -0.64992479735E+02  0.76024729905E+02  0.41800000000E+01 0.  1.
         -5    1    3    3    0  502 -0.56342044825E+02 -0.44749489555E+02 -0.41442575434E+03  0.42064607581E+03  0.41800000000E+01 0.  1.
        -11    1    4    4    0    0  0.40474821104E+02 -0.28920042035E+02 -0.84524154692E+02  0.98076055697E+02  0.00000000000E+00 0.  1.
         11    1    4    4    0    0 -0.91547057194E+01  0.43467416066E+02 -0.15044875057E+03  0.15686953638E+03  0.00000000000E+00 0. -1.
</event>
<event>
 8    1  0.3710605E-009  0.1180524E+03  0.7561462E-02  0.1246345E+00
          1   -1    0    0  501    0  0.00000000000E+00  0.00000000000E+00  0.56753249144E+02  0.56753249144E+02  0.00000000000E+00 0. -1.
         -1   -1    0    0    0  501 -0.00000000000E+00 -0.00000000000E+00 -0.31824736792E+03  0.31824736792E+03  0.00000000000E+00 0.  1.
         25    2    1    2    0    0  0.61249796737E+02 -0.44654302603E+02 -0.98642448192E+02  0.17641948561E+03  0.12509179819E+03 0.  0.
         23    2    1    2    0    0 -0.61249796737E+02  0.44654302603E+02 -0.16285167058E+03  0.19858113146E+03  0.84665546817E+02 0.  0.
          5    1    3    3  502    0  0.61892611238E+02  0.17432224822E+02 -0.94067950600E+02  0.11402118013E+03  0.41800000000E+01 0. -1.
         -5    1    3    3    0  502 -0.64281450091E+00 -0.62086527425E+02 -0.45744975928E+01  0.62398305477E+02  0.41800000000E+01 0. -1.
        -11    1    4    4    0    0 -0.25144132251E+02  0.63795885801E+02 -0.12648438471E+03  0.14387648177E+03  0.00000000000E+00 0.  1.
         11    1    4    4    0    0 -0.36105664486E+02 -0.19141583198E+02 -0.36367285873E+02  0.54704649684E+02  0.00000000000E+00 0. -1.
</event>
<event>
 8    1  0.3710605E-009  0.1561205E+03  0.7561462E-02  0.1193148E+00
          1   -1    0    0  501    0  0.00000000000E+00  0.00000000000E+00  0.91823908589E+03  0.91823908589E+03  0.00000000000E+00 0. -1.
         -1   -1    0    0    0  501 -0.00000000000E+00 -0.00000000000E+00 -0.34923122476E+02  0.34923122476E+02  0.00000000000E+00 0.  1.
         25    2    1    2    0    0 -0.14190205342E+03 -0.28092489752E+02  0.49585115156E+03  0.53145234249E+03  0.12509135499E+03 0.  0.
         23    2    1    2    0    0  0.14190205342E+03  0.28092489752E+02  0.38746481185E+03  0.42170986587E+03  0.82370199751E+02 0.  0.
          5    1    3    3  502    0 -0.95872279024E+02 -0.28667948142E+02  0.13737241685E+03  0.17000587768E+03  0.41800000000E+01 0. -1.
         -5    1    3    3    0  502 -0.46029774391E+02  0.57545838971E+00  0.35847873471E+03  0.36144646480E+03  0.41800000000E+01 0. -1.
        -11    1    4    4    0    0  0.92351608933E+02  0.56973170933E+02  0.23604263152E+03  0.25979008021E+03  0.00000000000E+00 0.  1.
         11    1    4    4    0    0  0.49550444482E+02 -0.28880681181E+02  0.15142218033E+03  0.16191978566E+03  0.00000000000E+00 0. -1.
</event>
<event>
 8    1  0.3710605E-009  0.1342409E+03  0.7561462E-02  0.1221295E+00
         -1   -1    0    0    0  501 -0.00000000000E+00  0.00000000000E+00  0.44478431946E+03  0.44478431946E+03  0.00000000000E+00 0.  1.
          1   -1    0    0  501    0  0.00000000000E+00 -0.00000000000E+00 -0.65212844829E+02  0.65212844829E+02  0.00000000000E+00 0. -1.
         25    2    1    2    0    0  0.61370015814E+02 -0.58733477754E+02  0.51921252269E+02  0.15986662482E+03  0.12508245698E+03 0.  0.
         23    2    1    2    0    0 -0.61370015814E+02  0.58733477754E+02  0.32765022237E+03  0.35013053947E+03  0.89559065448E+02 0.  0.
          5    1    3    3  502    0  0.52308787203E+02 -0.97403947563E+02  0.44457572695E+02  0.11923794023E+03  0.41800000000E+01 0.  1.
         -5    1    3    3    0  502  0.90612286114E+01  0.38670469809E+02  0.74636795741E+01  0.40628684596E+02  0.41800000000E+01 0.  1.
        -11    1    4    4    0    0 -0.80887056256E+02  0.37798137447E+02  0.28586045754E+03  0.29947890785E+03  0.00000000000E+00 0.  1.
         11    1    4    4    0    0  0.19517040442E+02  0.20935340307E+02  0.41789764829E+02  0.50651631621E+02  0.00000000000E+00 0. -1.
</event>
<event>
 8    1  0.3710605E-009  0.9559963E+02  0.7561462E-02  0.1289831E+00
          2   -1    0    0  501    0  0.00000000000E+00  0.00000000000E+00  0.11488475704E+03  0.11488475704E+03  0.00000000000E+00 0. -1.
         -2   -1    0    0    0  501 -0.00000000000E+00 -0.00000000000E+00 -0.10944428055E+03  0.10944428055E+03  0.00000000000E+00 0.  1.
         25    2    1    2    0    0 -0.76443783381E+01  0.15866223875E+02 -0.14008548362E+02  0.12709859924E+03  0.12509053091E+03 0.  0.
         23    2    1    2    0    0  0.76443783381E+01 -0.15866223875E+02  0.19449024854E+02  0.97230438344E+02  0.93623287662E+02 0.  0.
          5    1    3    3  502    0  0.67695475540E+01  0.63652803823E+02  0.19250233265E+02  0.66974249450E+02  0.41800000000E+01 0. -1.
         -5    1    3    3    0  502 -0.14413925892E+02 -0.47786579948E+02 -0.33258781627E+02  0.60124349794E+02  0.41800000000E+01 0. -1.
        -11    1    4    4    0    0 -0.14197795659E+02  0.26066864999E+02  0.36431162512E+02  0.46992429757E+02  0.00000000000E+00 0. -1.
         11    1    4    4    0    0  0.21842173998E+02 -0.41933088874E+02 -0.16982137658E+02  0.50238008587E+02  0.00000000000E+00 0.  1.
</event>
<event>
 8    1  0.3710605E-009  0.9513452E+02  0.7561462E-02  0.1290873E+00
         -1   -1    0    0    0  501 -0.00000000000E+00  0.00000000000E+00  0.79105748412E+02  0.79105748412E+02  0.00000000000E+00 0.  1.
          1   -1    0    0  501    0  0.00000000000E+00 -0.00000000000E+00 -0.15710131387E+03  0.15710131387E+03  0.00000000000E+00 0. -1.
         25    2    1    2    0    0  0.86840042424E+01 -0.29602151138E+02 -0.42802710314E+02  0.13576161663E+03  0.12508974881E+03 0.  0.
         23    2    1    2    0    0 -0.86840042424E+01  0.29602151138E+02 -0.35192855143E+02  0.10044544565E+03  0.88876606695E+02 0.  0.
          5    1    3    3  502    0  0.47287375783E+02  0.24243896875E+02  0.56089981394E+01  0.53598467368E+02  0.41800000000E+01 0.  1.
         -5    1    3    3    0  502 -0.38603371540E+02 -0.53846048013E+02 -0.48411708453E+02  0.82163149259E+02  0.41800000000E+01 0.  1.
        -11    1    4    4    0    0 -0.36377349537E+02  0.16924428334E+02 -0.51983878217E+02  0.65666364512E+02  0.00000000000E+00 0. -1.
         11    1    4    4    0    0  0.27693345294E+02  0.12677722804E+02  0.16791023074E+02  0.34779081140E+02  0.00000000000E+00 0.  1.
</event>
<event>
 8    1  0.3710605E-009  0.1039911E+03  0.7561462E-02  0.1272120E+00
         -3   -1    0    0    0  501 -0.00000000000E+00  0.00000000000E+00  0.46670319307E+02  0.46670319307E+02  0.00000000000E+00 0.  1.
          3   -1    0    0  501    0  0.00000000000E+00 -0.00000000000E+00 -0.30631405622E+03  0.30631405622E+03  0.00000000000E+00 0. -1.
         25    2    1    2    0    0  0.31134918920E+02 -0.29751444958E+02 -0.18405728925E+03  0.22666869476E+03  0.12508828803E+03 0.  0.
         23    2    1    2    0    0 -0.31134918920E+02  0.29751444958E+02 -0.75586447663E+02  0.12631568077E+03  0.91584979583E+02 0.  0.
          5    1    3    3  502    0  0.66265138170E+02 -0.10948138262E+02 -0.42592561403E+02  0.79639995950E+02  0.41800000000E+01 0.  1.
         -5    1    3    3    0  502 -0.35130219251E+02 -0.18803306696E+02 -0.14146472785E+03  0.14702869881E+03  0.41800000000E+01 0.  1.
        -11    1    4    4    0    0 -0.38569216425E+02  0.58976450130E+02 -0.46566702735E+02  0.84464572036E+02  0.00000000000E+00 0.  1.
         11    1    4    4    0    0  0.74342975056E+01 -0.29225005172E+02 -0.29019744928E+02  0.41851108735E+02  0.00000000000E+00 0. -1.
</event>
<event>
 8    1  0.3710605E-009  0.8888983E+02  0.7561462E-02  0.1305563E+00
         -2   -1    0    0    0  501 -0.00000000000E+00  0.00000000000E+00  0.99946884389E+02  0.99946884389E+02  0.00000000000E+00 0.  1.
          2   -1    0    0  501    0  0.00000000000E+00 -0.00000000000E+00 -0.20355918757E+03  0.20355918757E+03  0.00000000000E+00 0. -1.
         25    2    1    2    0    0  0.73782416355E+02 -0.10864018862E+02 -0.22267299261E+00  0.14563476861E+03  0.12509022495E+03 0.  0.
         23    2    1    2    0    0 -0.73782416355E+02  0.10864018862E+02 -0.10338963019E+03  0.15787130335E+03  0.93123900913E+02 0.  0.
          5    1    3    3  502    0  0.17248831722E+02 -0.50464681354E+01  0.59971037878E+02  0.62745412746E+02  0.41800000000E+01 0.  1.
         -5    1    3    3    0  502  0.56533584633E+02 -0.58175507270E+01 -0.60193710871E+02  0.82889355868E+02  0.41800000000E+01 0.  1.
        -11    1    4    4    0    0 -0.62455505154E+02  0.37882036467E+02 -0.30212491133E+02  0.79047665566E+02  0.00000000000E+00 0.  1.
         11    1    4    4    0    0 -0.11326911201E+02 -0.27018017605E+02 -0.73177139060E+02  0.78823637785E+02  0.00000000000E+00 0. -1.
</event>
<event>
 8    1  0.3710605E-009  0.1438299E+03  0.7561462E-02  0.1208266E+00
          1   -1    0    0  501    0  0.00000000000E+00  0.00000000000E+00  0.52882936896E+03  0.52882936896E+03  0.00000000000E+00 0. -1.
         -1   -1    0    0    0  501 -0.00000000000E+00 -0.00000000000E+00 -0.45466679594E+02  0.45466679594E+02  0.00000000000E+00 0.  1.
         25    2    1    2    0    0 -0.22896176555E+02 -0.93382494363E+02  0.15882354326E+03  0.22386979163E+03  0.12509292768E+03 0.  0.
         23    2    1    2    0    0  0.22896176555E+02  0.93382494363E+02  0.32453914610E+03  0.35042625692E+03  0.90710413039E+02 0.  0.
          5    1    3    3  502    0  0.47412595516E+02 -0.63414928106E+02  0.98280467809E+02  0.12627719538E+03  0.41800000000E+01 0. -1.
         -5    1    3    3    0  502 -0.70308772071E+02 -0.29967566257E+02  0.60543075453E+02  0.97592596250E+02  0.41800000000E+01 0. -1.
        -11    1    4    4    0    0 -0.32846760996E+02  0.55292382840E+02  0.17123734780E+03  0.18291633768E+03  0.00000000000E+00 0. -1.
         11    1    4    4    0    0  0.55742937551E+02  0.38090111523E+02  0.15330179830E+03  0.16750991925E+03  0.00000000000E+00 0.  1.
</event>
<event>
 8    1  0.3710605E-009  0.1700448E+03  0.7561462E-02  0.1177801E+00
         -2   -1    0    0    0  501 -0.00000000000E+00  0.00000000000E+00  0.60948685776E+02  0.60948685776E+02  0.00000000000E+00 0.  1.
          2   -1    0    0  501    0  0.00000000000E+00 -0.00000000000E+00 -0.55228582172E+03  0.55228582172E+03  0.00000000000E+00 0. -1.
         25    2    1    2    0    0  0.14392429790E+03 -0.31275302787E+02 -0.23046471720E+03  0.30075670844E+03  0.12509302022E+03 0.  0.
         23    2    1    2    0    0 -0.14392429790E+03  0.31275302787E+02 -0.26087241874E+03  0.31247779905E+03  0.88857233523E+02 0.  0.
          5    1    3    3  502    0  0.15364795647E+03  0.54273617413E+01 -0.17010716506E+03  0.22932743139E+03  0.41800000000E+01 0. -1.
         -5    1    3    3    0  502 -0.97236585717E+01 -0.36702664528E+02 -0.60357552136E+02  0.71429277046E+02  0.41800000000E+01 0. -1.
        -11    1    4    4    0    0 -0.83041796509E+02  0.10211058222E+02 -0.64017276151E+02  0.10534902621E+03  0.00000000000E+00 0.  1.
         11    1    4    4    0    0 -0.60882501393E+02  0.21064244565E+02 -0.19685514259E+03  0.20712877284E+03  0.00000000000E+00 0. -1.
</event>
<event>
 8    1  0.3710605E-009  0.1312603E+03  0.7561462E-02  0.1225598E+00
         -2   -1    0    0    0  501 -0.00000000000E+00  0.00000000000E+00  0.31024215913E+02  0.31024215913E+02  0.00000000000E+00 0.  1.
          2   -1    0    0  501    0  0.00000000000E+00 -0.00000000000E+00 -0.62935247404E+03  0.62935247404E+03  0.00000000000E+00 0. -1.
         25    2    1    2    0    0  0.83556238269E+02  0.17547939132E+02 -0.27787427688E+03  0.31646772095E+03  0.12509248391E+03 0.  0.
         23    2    1    2    0    0 -0.83556238269E+02 -0.17547939132E+02 -0.32045398124E+03  0.34390896900E+03  0.91066183307E+02 0.  0.
          5    1    3    3  502    0 -0.89894364728E+01  0.41214887955E+02 -0.33422530336E+02  0.53981616234E+02  0.41800000000E+01 0.  1.
         -5    1    3    3    0  502  0.92545674741E+02 -0.23666948823E+02 -0.24445174654E+03  0.26248610471E+03  0.41800000000E+01 0.  1.
        -11    1    4    4    0    0 -0.66233220729E+02  0.30882655404E+02 -0.19997317044E+03  0.21290807131E+03  0.00000000000E+00 0.  1.
         11    1    4    4    0    0 -0.17323017540E+02 -0.48430594535E+02 -0.12048081080E+03  0.13100089769E+03  0.00000000000E+00 0. -1.
</event>
<event>
 8    1  0.3710605E-009  0.1256248E+03  0.7561462E-02  0.1234096E+00
          1   -1    0    0  501    0  0.00000000000E+00  0.00000000000E+00  0.14911164945E+03  0.14911164945E+03  0.00000000000E+00 0. -1.
         -1   -1    0    0    0  501 -0.00000000000E+00 -0.00000000000E+00 -0.17143000638E+03  0.17143000638E+03  0.00000000000E+00 0.  1.
         25    2    1    2    0    0 -0.72060697321E+02 -0.78935425987E+02  0.35331737367E+02  0.16828214018E+03  0.12508797490E+03 0.  0.
         23    2    1    2    0    0  0.72060697321E+02  0.78935425987E+02 -0.57650094290E+02  0.15225951565E+03  0.91847053079E+02 0.  0.
          5    1    3    3  502    0 -0.49399228963E+02 -0.75781216282E+02 -0.32781183548E+02  0.96307605920E+02  0.41800000000E+01 0. -1.
         -5    1    3    3    0  502 -0.22661468358E+02 -0.31542097052E+01  0.68112920915E+02  0.71974534264E+02  0.41800000000E+01 0. -1.
        -11    1    4    4    0    0 -0.26466870093E+01  0.60404874883E+02 -0.88115516331E+01  0.61101532746E+02  0.00000000000E+00 0. -1.
         11    1    4    4    0    0  0.74707384330E+02  0.18530551104E+02 -0.48838542657E+02  0.91157982901E+02  0.00000000000E+00 0.  1.
</event>
<event>
 8    1  0.3710605E-009  0.8825183E+02  0.7561462E-02  0.1307141E+00
          1   -1    0    0  501    0  0.00000000000E+00  0.00000000000E+00  0.20937336784E+03  0.20937336784E+03  0.00000000000E+00 0. -1.
         -1   -1    0    0    0  501 -0.00000000000E+00 -0.00000000000E+00 -0.86853174849E+02  0.86853174849E+02  0.00000000000E+00 0.  1.
         25    2    1    2    0    0  0.31447960084E+02 -0.67469282035E+02  0.10660012571E+03  0.18042422353E+03  0.12509290716E+03 0.  0.
         23    2    1    2    0    0 -0.31447960084E+02  0.67469282035E+02  0.15920067278E+02  0.11580231916E+03  0.87267693731E+02 0.  0.
          5    1    3    3  502    0 -0.14967922437E+02 -0.47584736648E+02 -0.11980667899E+02  0.51471882298E+02  0.41800000000E+01 0. -1.
         -5    1    3    3    0  502  0.46415882521E+02 -0.19884545386E+02  0.11858079361E+03  0.12895234123E+03  0.41800000000E+01 0. -1.
        -11    1    4    4    0    0 -0.18679847286E+02  0.54348330835E+02  0.50610359181E+02  0.76577321810E+02  0.00000000000E+00 0. -1.
         11    1    4    4    0    0 -0.12768112798E+02  0.13120951200E+02 -0.34690291903E+02  0.39224997351E+02  0.00000000000E+00 0.  1.
</event>
<event>
 8    1  0.3710605E-009  0.8846431E+02  0.7561462E-02  0.1306614E+00
         -2   -1    0    0    0  501 -0.00000000000E+00  0.00000000000E+00  0.66688131104E+02  0.66688131104E+02  0.00000000000E+00 0. -1.
          2   -1    0    0  501    0  0.00000000000E+00 -0.00000000000E+00 -0.19597119845E+03  0.19597119845E+03  0.00000000000E+00 0.  1.
         25    2    1    2    0    0  0.71464618078E+00 -0.36094843043E+02 -0.77480460078E+02  0.15150549640E+03  0.12508934940E+03 0.  0.
         23    2    1    2    0    0 -0.71464618078E+00  0.36094843043E+02 -0.51802607266E+02  0.11115383315E+03  0.91478500705E+02 0.  0.
          5    1    3    3  502    0 -0.59384839907E+02 -0.36474570639E+01 -0.22571472685E+02  0.63771521332E+02  0.41800000000E+01 0. -1.
         -5    1    3    3    0  502  0.60099486088E+02 -0.32447385979E+02 -0.54908987393E+02  0.87733975069E+02  0.41800000000E+01 0. -1.
        -11    1    4    4    0    0  0.14859630948E+02  0.27010453009E+02  0.20247044410E+02  0.36882462106E+02  0.00000000000E+00 0. -1.
         11    1    4    4    0    0 -0.15574277129E+02  0.90843900342E+01 -0.72049651676E+02  0.74271371046E+02  0.00000000000E+00 0.  1.
</event>
<event>
 8    1  0.3710605E-009  0.1176350E+03  0.7561462E-02  0.1247050E+00
         -2   -1    0    0    0  501 -0.00000000000E+00  0.00000000000E+00  0.13249575886E+03  0.13249575886E+03  0.00000000000E+00 0.  1.
          2   -1    0    0  501    0  0.00000000000E+00 -0.00000000000E+00 -0.13092195246E+03  0.13092195246E+03  0.00000000000E+00 0. -1.
         25    2    1    2    0    0 -0.30883595082E+02 -0.61732915949E+02 -0.32513387365E+01  0.14291029419E+03  0.12509209258E+03 0.  0.
         23    2    1    2    0    0  0.30883595082E+02  0.61732915949E+02  0.48251451302E+01  0.12050741713E+03  0.98661067296E+02 0.  0.
          5    1    3    3  502    0  0.41911530603E+02 -0.50811515902E+02 -0.16430137095E+02  0.68013295397E+02  0.41800000000E+01 0.  1.
         -5    1    3    3    0  502 -0.72795125686E+02 -0.10921400047E+02  0.13178798359E+02  0.74896998797E+02  0.41800000000E+01 0.  1.
        -11    1    4    4    0    0  0.43667503280E+01  0.68126251040E+02 -0.31416359536E+02  0.75148135278E+02  0.00000000000E+00 0. -1.
         11    1    4    4    0    0  0.26516844754E+02 -0.63933350915E+01  0.36241504666E+02  0.45359281848E+02  0.00000000000E+00 0.  1.
</event>
<event>
 8    1  0.3710605E-009  0.1403403E+03  0.7561462E-02  0.1212872E+00
         -2   -1    0    0    0  501 -0.00000000000E+00  0.00000000000E+00  0.94531769358E+02  0.94531769358E+02  0.00000000000E+00 0.  1.
          2   -1    0    0  501    0  0.00000000000E+00 -0.00000000000E+00 -0.24071942538E+03  0.24071942538E+03  0.00000000000E+00 0. -1.
         25    2    1    2    0    0 -0.88349929475E+02 -0.36335500832E+02 -0.32060630080E+02  0.16062770043E+03  0.12508954986E+03 0.  0.
         23    2    1    2    0    0  0.88349929475E+02  0.36335500832E+02 -0.11412702594E+03  0.17462349431E+03  0.91336783700E+02 0.  0.
          5    1    3    3  502    0 -0.11930161127E+03 -0.39279874119E+02 -0.21307259776E+02  0.12746471936E+03  0.41800000000E+01 0. -1.
         -5    1    3    3    0  502  0.30951681797E+02  0.29443732878E+01 -0.10753370303E+02  0.33162981063E+02  0.41800000000E+01 0. -1.
        -11    1    4    4    0    0  0.37089816377E+02  0.57300268862E+02 -0.92974971861E+02  0.11534002204E+03  0.00000000000E+00 0. -1.
         11    1    4    4    0    0  0.51260113098E+02 -0.20964768031E+02 -0.21152054082E+02  0.59283472278E+02  0.00000000000E+00 0.  1.
</event>
<event>
 8    1  0.3710605E-009  0.9314389E+02  0.7561462E-02  0.1295412E+00
          2   -1    0    0  501    0  0.00000000000E+00  0.00000000000E+00  0.28749136033E+03  0.28749136033E+03  0.00000000000E+00 0. -1.
         -2   -1    0    0    0  501 -0.00000000000E+00 -0.00000000000E+00 -0.52138818167E+02  0.52138818167E+02  0.00000000000E+00 0.  1.
         25    2    1    2    0    0  0.14705586778E+01 -0.28733685851E+02  0.19289639606E+03  0.23169924680E+03  0.12509090338E+03 0.  0.
         23    2    1    2    0    0 -0.14705586778E+01  0.28733685851E+02  0.42456146106E+02  0.10793093170E+03  0.94967228194E+02 0.  0.
          5    1    3    3  502    0  0.58330499851E+02 -0.80108977115E+00  0.56824736385E+02  0.81545153276E+02  0.41800000000E+01 0.  1.
         -5    1    3    3    0  502 -0.56859941173E+02 -0.27932596080E+02  0.13607165968E+03  0.15015409352E+03  0.41800000000E+01 0.  1.
        -11    1    4    4    0    0 -0.29502756679E+02  0.15083711334E+02  0.62587550637E+02  0.70817600171E+02  0.00000000000E+00 0. -1.
         11    1    4    4    0    0  0.28032198001E+02  0.13649974517E+02 -0.20131404531E+02  0.37113331533E+02  0.00000000000E+00 0.  1.
</event>
<event>
 8    1  0.3710605E-009  0.1490768E+03  0.7561462E-02  0.1201612E+00
         -3   -1    0    0    0  501 -0.00000000000E+00  0.00000000000E+00  0.13406270373E+03  0.13406270373E+03  0.00000000000E+00 0.  1.
          3   -1    0    0  501    0  0.00000000000E+00 -0.00000000000E+00 -0.17299645990E+03  0.17299645990E+03  0.00000000000E+00 0. -1.
         25    2    1    2    0    0 -0.38920642389E+02  0.95656581468E+02  0.19401461177E+01  0.16222253664E+03  0.12508952492E+03 0.  0.
         23    2    1    2    0    0  0.38920642389E+02 -0.95656581468E+02 -0.40873902287E+02  0.14483662699E+03  0.92962221614E+02 0.  0.
          5    1    3    3  502    0 -0.68522132854E+02  0.98751210980E+01 -0.11784238718E+02  0.70350134255E+02  0.41800000000E+01 0.  1.
         -5    1    3    3    0  502  0.29601490464E+02  0.85781460370E+02  0.13724384836E+02  0.91872402385E+02  0.41800000000E+01 0.  1.
        -11    1    4    4    0    0  0.58604784220E+02 -0.10168952987E+03 -0.40772555301E+02  0.12424847075E+03  0.00000000000E+00 0. -1.
         11    1    4    4    0    0 -0.19684141831E+02  0.60329484017E+01 -0.10134698591E+00  0.20588156237E+02  0.00000000000E+00 0.  1.
</event>
<event>
 8    1  0.3710605E-009  0.1398088E+03  0.7561462E-02  0.1213586E+00
         -2   -1    0    0    0  501 -0.00000000000E+00  0.00000000000E+00  0.39419962851E+02  0.39419962851E+02  0.00000000000E+00 0.  1.
          2   -1    0    0  501    0  0.00000000000E+00 -0.00000000000E+00 -0.71822212233E+03  0.71822212233E+03  0.00000000000E+00 0. -1.
         25    2    1    2    0    0  0.89482595434E+02  0.40540508944E+02 -0.17941745506E+03  0.23977146343E+03  0.12509621795E+03 0.  0.
         23    2    1    2    0    0 -0.89482595434E+02 -0.40540508944E+02 -0.49938470442E+03  0.51787062175E+03  0.95677740942E+02 0.  0.
          5    1    3    3  502    0 -0.13849945127E+02 -0.24037604199E+02 -0.72021105079E+02  0.77292557031E+02  0.41800000000E+01 0.  1.
         -5    1    3    3    0  502  0.10333254056E+03  0.64578113143E+02 -0.10739634998E+03  0.16247890640E+03  0.41800000000E+01 0.  1.
        -11    1    4    4    0    0  0.16780352499E+02 -0.72838399746E+01 -0.27508445743E+02  0.33035573886E+02  0.00000000000E+00 0.  1.
         11    1    4    4    0    0 -0.10626294793E+03 -0.33256668969E+02 -0.47187625868E+03  0.48483504787E+03  0.00000000000E+00 0. -1.
</event>
<event>
 8    1  0.3710605E-009  0.2602100E+03  0.7561462E-02  0.1107017E+00
          1   -1    0    0  501    0  0.00000000000E+00  0.00000000000E+00  0.79188857710E+02  0.79188857710E+02  0.00000000000E+00 0. -1.
         -1   -1    0    0    0  501 -0.00000000000E+00 -0.00000000000E+00 -0.91737744378E+03  0.91737744378E+03  0.00000000000E+00 0.  1.
         25    2    1    2    0    0  0.23827261295E+03  0.34081968934E+02 -0.52156860604E+03  0.58789262208E+03  0.12509398710E+03 0.  0.
         23    2    1    2    0    0 -0.23827261295E+03 -0.34081968934E+02 -0.31661998004E+03  0.40867367941E+03  0.93970983792E+02 0.  0.
          5    1    3    3  502    0  0.98512715653E+02  0.75137766019E+02 -0.27147424474E+03  0.29843957007E+03  0.41800000000E+01 0.  1.
         -5    1    3    3    0  502  0.13975989730E+03 -0.41055797085E+02 -0.25009436130E+03  0.28945305201E+03  0.41800000000E+01 0.  1.
        -11    1    4    4    0    0 -0.12177703423E+03  0.18034885030E+02 -0.10623525083E+03  0.16260637030E+03  0.00000000000E+00 0. -1.
         11    1    4    4    0    0 -0.11649557872E+03 -0.52116853965E+02 -0.21038472921E+03  0.24606730911E+03  0.00000000000E+00 0.  1.
</event>
<event>
 8    1  0.3710605E-009  0.1169524E+03  0.7561462E-02  0.1248211E+00
          1   -1    0    0  501    0  0.00000000000E+00  0.00000000000E+00  0.56097981006E+02  0.56097981006E+02  0.00000000000E+00 0. -1.
         -1   -1    0    0    0  501 -0.00000000000E+00 -0.00000000000E+00 -0.36817346248E+03  0.36817346248E+03  0.00000000000E+00 0.  1.
         25    2    1    2    0    0 -0.82631023190E+02  0.45030703176E+02 -0.15626280542E+03  0.22118109556E+03  0.12508941783E+03 0.  0.
         23    2    1    2    0    0  0.82631023190E+02 -0.45030703176E+02 -0.15581267606E+03  0.20309034793E+03  0.90069135563E+02 0.  0.
          5    1    3    3  502    0 -0.34271014701E+02  0.74233315007E+02 -0.38432701192E+02  0.90441320349E+02  0.41800000000E+01 0.  1.
         -5    1    3    3    0  502 -0.48360008489E+02 -0.29202611832E+02 -0.11783010423E+03  0.13073977521E+03  0.41800000000E+01 0.  1.
        -11    1    4    4    0    0  0.28176811012E+02 -0.24003661022E+02 -0.13676931087E+03  0.14168963553E+03  0.00000000000E+00 0.  1.
         11    1    4    4    0    0  0.54454212178E+02 -0.21027042153E+02 -0.19043365188E+02  0.61400712401E+02  0.00000000000E+00 0. -1.
</event>
<event>
 8    1  0.3710605E-009  0.1168413E+03  0.7561462E-02  0.1248401E+00
         -2   -1    0    0    0  501 -0.00000000000E+00  0.00000000000E+00  0.53470304822E+03  0.53470304822E+03  0.00000000000E+00 0.  1.
          2   -1    0    0  501    0  0.00000000000E+00 -0.00000000000E+00 -0.39392238604E+02  0.39392238604E+02  0.00000000000E+00 0. -1.
         25    2    1    2    0    0 -0.57682159189E+02 -0.49812164092E+02  0.38370346006E+03  0.41071245902E+03  0.12509154871E+03 0.  0.
         23    2    1    2    0    0  0.57682159189E+02  0.49812164092E+02  0.11160734955E+03  0.16338282780E+03  0.91811027463E+02 0.  0.
          5    1    3    3  502    0 -0.47046253595E+02  0.28440959375E+02  0.81963973515E+02  0.98781594955E+02  0.41800000000E+01 0.  1.
         -5    1    3    3    0  502 -0.10635905594E+02 -0.78253123468E+02  0.30173948654E+03  0.31193086407E+03  0.41800000000E+01 0.  1.
        -11    1    4    4    0    0  0.62259725157E+02  0.14588629896E+02  0.11071124294E+03  0.12785179237E+03  0.00000000000E+00 0.  1.
         11    1    4    4    0    0 -0.45775659678E+01  0.35223534196E+02  0.89610661498E+00  0.35531035427E+02  0.00000000000E+00 0. -1.
</event>
<event>
 8    1  0.3710605E-009  0.8111890E+02  0.7561462E-02  0.1325906E+00
          2   -1    0    0  501    0  0.00000000000E+00  0.00000000000E+00  0.22614789348E+03  0.22614789348E+03  0.00000000000E+00 0. -1.
         -2   -1    0    0    0  501 -0.00000000000E+00 -0.00000000000E+00 -0.56268225660E+02  0.56268225660E+02  0.00000000000E+00 0.  1.
         25    2    1    2    0    0 -0.13796096479E+02 -0.26413789733E+02  0.10905354464E+03  0.16860233997E+03  0.12508418316E+03 0.  0.
         23    2    1    2    0    0  0.13796096479E+02  0.26413789733E+02  0.60826123178E+02  0.11381377917E+03  0.91464411124E+02 0.  0.
          5    1    3    3  502    0  0.22557732131E+02  0.19778135696E+01 -0.20617365466E+02  0.30908108713E+02  0.41800000000E+01 0.  1.
         -5    1    3    3    0  502 -0.36353828610E+02 -0.28391603302E+02  0.12967091011E+03  0.13769423125E+03  0.41800000000E+01 0.  1.
        -11    1    4    4    0    0 -0.12691854780E+02  0.53514971430E+02  0.50179817205E+02  0.74450986560E+02  0.00000000000E+00 0.  1.
         11    1    4    4    0    0  0.26487951259E+02 -0.27101181698E+02  0.10646305973E+02  0.39362792612E+02  0.00000000000E+00 0. -1.
</event>
<event>
 8    1  0.3710605E-009  0.1092864E+03  0.7561462E-02  0.1261897E+00
         -3   -1    0    0    0  501 -0.00000000000E+00  0.00000000000E+00  0.13301082863E+04  0.13301082863E+04  0.00000000000E+00 0. -1.
          3   -1    0    0  501    0  0.00000000000E+00 -0.00000000000E+00 -0.15073846667E+02  0.15073846667E+02  0.00000000000E+00 0.  1.
         25    2    1    2    0    0 -0.82908683965E+02  0.11531242075E+00  0.89386355222E+03  0.90637500746E+03  0.12509892482E+03 0.  0.
         23    2    1    2    0    0  0.82908683965E+02 -0.11531242075E+00  0.42117088746E+03  0.43880712555E+03  0.91065437008E+02 0.  0.
          5    1    3    3  502    0 -0.84991563991E+02 -0.16758445506E+02  0.30081212905E+03  0.31306520220E+03  0.41800000000E+01 0. -1.
         -5    1    3    3    0  502  0.20828800261E+01  0.16873757927E+02  0.59305142316E+03  0.59330980526E+03  0.41800000000E+01 0. -1.
        -11    1    4    4    0    0  0.46970596102E+02 -0.39244363250E+02  0.30476095083E+03  0.31084657646E+03  0.00000000000E+00 0. -1.
         11    1    4    4    0    0  0.35938087863E+02  0.39129050830E+02  0.11640993663E+03  0.12796054909E+03  0.00000000000E+00 0.  1.
</event>
<event>
 8    1  0.3710605E-009  0.9225280E+02  0.7561462E-02  0.1297486E+00
         -1   -1    0    0    0  501 -0.00000000000E+00  0.00000000000E+00  0.54309099134E+02  0.54309099134E+02  0.00000000000E+00 0.  1.
          1   -1    0    0  501    0  0.00000000000E+00 -0.00000000000E+00 -0.27059813124E+03  0.27059813124E+03  0.00000000000E+00 0. -1.
         25    2    1    2    0    0  0.20406926083E+02  0.43076137781E+02 -0.83858589270E+02  0.15796055104E+03  0.12508907391E+03 0.  0.
         23    2    1    2    0    0 -0.20406926083E+02 -0.43076137781E+02 -0.13243044283E+03  0.16694667933E+03  0.89785161758E+02 0.  0.
          5    1    3    3  502    0  0.37301196433E+02  0.79151762429E+02 -0.33908147279E+02  0.93934102448E+02  0.41800000000E+01 0. -1.
         -5    1    3    3    0  502 -0.16894270349E+02 -0.36075624647E+02 -0.49950441991E+02  0.64026448593E+02  0.41800000000E+01 0. -1.
        -11    1    4    4    0    0 -0.28553770270E+02 -0.29779943678E+02 -0.14252137600E+03  0.14837285958E+03  0.00000000000E+00 0. -1.
         11    1    4    4    0    0  0.81468441867E+01 -0.13296194104E+02  0.10090933170E+02  0.18573819750E+02  0.00000000000E+00 0.  1.
</event>
<event>
 8    1  0.3710605E-009  0.1039913E+03  0.7561462E-02  0.1272120E+00
         -1   -1    0    0    0  501 -0.00000000000E+00  0.00000000000E+00  0.12349602329E+02  0.12349602329E+02  0.00000000000E+00 0.  1.
          1   -1    0    0  501    0  0.00000000000E+00 -0.00000000000E+00 -0.29821517359E+04  0.29821517359E+04  0.00000000000E+00 0. -1.
         25    2    1    2    0    0  0.11413470801E+02  0.10266160664E+03 -0.24949247762E+04  0.25001935080E+04  0.12509302857E+03 0.  0.
         23    2    1    2    0    0 -0.11413470801E+02 -0.10266160664E+03 -0.47487735738E+03  0.49430783023E+03  0.90344084926E+02 0.  0.
          5    1    3    3  502    0 -0.22063915010E+01  0.42929013773E+02 -0.21066523068E+04  0.21070949629E+04  0.41800000000E+01 0.  1.
         -5    1    3    3    0  502  0.13619862302E+02  0.59732592863E+02 -0.38827246940E+03  0.39309854514E+03  0.41800000000E+01 0.  1.
        -11    1    4    4    0    0 -0.10816579630E+02 -0.81333333921E+02 -0.46233232424E+03  0.46955647971E+03  0.00000000000E+00 0. -1.
         11    1    4    4    0    0 -0.59689117160E+00 -0.21328272715E+02 -0.12545033143E+02  0.24751350521E+02  0.00000000000E+00 0.  1.
</event>
<event>
 8    1  0.3710605E-009  0.9977468E+02  0.7561462E-02  0.1280770E+00
          1   -1    0    0  501    0  0.00000000000E+00  0.00000000000E+00  0.63355797472E+03  0.63355797472E+03  0.00000000000E+00 0. -1.
         -1   -1    0    0    0  501 -0.00000000000E+00 -0.00000000000E+00 -0.29232157136E+02  0.29232157136E+02  0.00000000000E+00 0.  1.
         25    2    1    2    0    0  0.63015272114E+02  0.41972935350E+02  0.42431205550E+03  0.44879929126E+03  0.12508969408E+03 0.  0.
         23    2    1    2    0    0 -0.63015272114E+02 -0.41972935350E+02  0.18001376208E+03  0.21399084060E+03  0.87489847988E+02 0.  0.
          5    1    3    3  502    0  0.17936252677E+02  0.37354696349E+02  0.38893508503E+03  0.39115860628E+03  0.41800000000E+01 0. -1.
         -5    1    3    3    0  502  0.45079019436E+02  0.46182390019E+01  0.35376970475E+02  0.57640684978E+02  0.41800000000E+01 0. -1.
        -11    1    4    4    0    0  0.65439185353E+00 -0.48396707311E+02  0.10339745623E+03  0.11416524630E+03  0.00000000000E+00 0. -1.
         11    1    4    4    0    0 -0.63669663967E+02  0.64237719610E+01  0.76616305855E+02  0.99825594307E+02  0.00000000000E+00 0.  1.
</event>
<event>
 8    1  0.3710605E-009  0.9543953E+02  0.7561462E-02  0.1290189E+00
          2   -1    0    0  501    0  0.00000000000E+00  0.00000000000E+00  0.66266573571E+03  0.66266573571E+03  0.00000000000E+00 0. -1.
         -2   -1    0    0    0  501 -0.00000000000E+00 -0.00000000000E+00 -0.23791178326E+02  0.23791178326E+02  0.00000000000E+00 0.  1.
         25    2    1    2    0    0 -0.11565950252E+02 -0.12819609931E+02  0.52088129242E+03  0.53596751314E+03  0.12508293547E+03 0.  0.
         23    2    1    2    0    0  0.11565950252E+02  0.12819609931E+02  0.11799326496E+03  0.15048940089E+03  0.91796163321E+02 0.  0.
          5    1    3    3  502    0 -0.21514541004E+02 -0.54025355706E+02  0.44619972582E+03  0.44999253577E+03  0.41800000000E+01 0. -1.
         -5    1    3    3    0  502  0.99485907523E+01  0.41205745775E+02  0.74681566600E+02  0.85974977364E+02  0.41800000000E+01 0. -1.
        -11    1    4    4    0    0  0.45660717177E+02 -0.12700540287E+02  0.41762301109E+02  0.63168778765E+02  0.00000000000E+00 0.  1.
         11    1    4    4    0    0 -0.34094766925E+02  0.25520150218E+02  0.76230963853E+02  0.87320622128E+02  0.00000000000E+00 0. -1.
</event>
<event>
 8    1  0.3710605E-009  0.1112504E+03  0.7561462E-02  0.1258272E+00
          2   -1    0    0  501    0  0.00000000000E+00  0.00000000000E+00  0.27765026436E+03  0.27765026436E+03  0.00000000000E+00 0. -1.
         -2   -1    0    0    0  501 -0.00000000000E+00 -0.00000000000E+00 -0.46949471908E+02  0.46949471908E+02  0.00000000000E+00 0.  1.
         25    2    1    2    0    0 -0.89782335605E+01  0.30691864544E+02  0.15527971832E+03  0.20194593292E+03  0.12509104555E+03 0.  0.
         23    2    1    2    0    0  0.89782335605E+01 -0.30691864544E+02  0.75421074136E+02  0.12265380334E+03  0.91285364784E+02 0.  0.
          5    1    3    3  502    0  0.51528752903E+02  0.39869969568E+02  0.60257278889E+02  0.88843901919E+02  0.41800000000E+01 0.  1.
         -5    1    3    3    0  502 -0.60506986464E+02 -0.91781050243E+01  0.95022439428E+02  0.11310203101E+03  0.41800000000E+01 0.  1.
        -11    1    4    4    0    0 -0.36082309687E+02  0.74421996604E+01  0.37039237813E+02  0.52241980685E+02  0.00000000000E+00 0.  1.
         11    1    4    4    0    0  0.45060543248E+02 -0.38134064204E+02  0.38381836323E+02  0.70411822658E+02  0.00000000000E+00 0. -1.
</event>
<event>
 8    1  0.3710605E-009  0.1269532E+03  0.7561462E-02  0.1232048E+00
          1   -1    0    0  501    0  0.00000000000E+00  0.00000000000E+00  0.39459895598E+03  0.39459895598E+03  0.00000000000E+00 0. -1.
         -1   -1    0    0    0  501 -0.00000000000E+00 -0.00000000000E+00 -0.53182105963E+02  0.53182105963E+02  0.00000000000E+00 0.  1.
         25    2    1    2    0    0  0.74481353093E+02 -0.49845931849E+02  0.13441751058E+03  0.20432297860E+03  0.12509086118E+03 0.  0.
         23    2    1    2    0    0 -0.74481353093E+02  0.49845931849E+02  0.20699933944E+03  0.24345808334E+03  0.91602526921E+02 0.  0.
          5    1    3    3  502    0  0.16585222536E+02 -0.73422412009E+02  0.27205585602E+02  0.80146968001E+02  0.41800000000E+01 0.  1.
         -5    1    3    3    0  502  0.57896130557E+02  0.23576480160E+02  0.10721192498E+03  0.12417601060E+03  0.41800000000E+01 0.  1.
        -11    1    4    4    0    0 -0.38950188665E+02 -0.15149523704E+02  0.13026214387E+03  0.13680223460E+03  0.00000000000E+00 0. -1.
         11    1    4    4    0    0 -0.35531164427E+02  0.64995455553E+02  0.76737195563E+02  0.10665584874E+03  0.00000000000E+00 0.  1.
</event>
<event>
 8    1  0.3710605E-009  0.1221033E+03  0.7561462E-02  0.1239667E+00
          2   -1    0    0  501    0  0.00000000000E+00  0.00000000000E+00  0.57074493384E+03  0.57074493384E+03  0.00000000000E+00 0.  1.
         -2   -1    0    0    0  501 -0.00000000000E+00 -0.00000000000E+00 -0.42019460250E+02  0.42019460250E+02  0.00000000000E+00 0. -1.
         25    2    1    2    0    0  0.69470448971E+02  0.76915602210E+02  0.38718842390E+03  0.41988539509E+03  0.12508683489E+03 0.  0.
         23    2    1    2    0    0 -0.69470448971E+02 -0.76915602210E+02  0.14153704969E+03  0.19287899901E+03  0.80171183588E+02 0.  0.
          5    1    3    3  502    0 -0.11234195636E+02 -0.72255113476E+00  0.20927926734E+03  0.20962350386E+03  0.41800000000E+01 0.  1.
         -5    1    3    3    0  502  0.80704644607E+02  0.77638153345E+02  0.17790915656E+03  0.21026189123E+03  0.41800000000E+01 0.  1.
        -11    1    4    4    0    0 -0.58796773764E+02 -0.19817273453E+02  0.34239261212E+02  0.70866860665E+02  0.00000000000E+00 0. -1.
         11    1    4    4    0    0 -0.10673675207E+02 -0.57098328757E+02  0.10729778848E+03  0.12201213834E+03  0.00000000000E+00 0.  1.
</event>
<event>
 8    1  0.3710605E-009  0.1257517E+03  0.7561462E-02  0.1233899E+00
          2   -1    0    0  501    0  0.00000000000E+00  0.00000000000E+00  0.54180693018E+02  0.54180693018E+02  0.00000000000E+00 0. -1.
         -2   -1    0    0    0  501 -0.00000000000E+00 -0.00000000000E+00 -0.52318279564E+03  0.52318279564E+03  0.00000000000E+00 0.  1.
         25    2    1    2    0    0  0.95248212038E+02 -0.12450888907E+02 -0.39313632399E+03  0.42359073925E+03  0.12508276700E+03 0.  0.
         23    2    1    2    0    0 -0.95248212038E+02  0.12450888907E+02 -0.75865778629E+02  0.15377274941E+03  0.93076288944E+02 0.  0.
          5    1    3    3  502    0  0.28886696357E+02 -0.36771104687E+02 -0.35091057255E+02  0.58612371268E+02  0.41800000000E+01 0.  1.
         -5    1    3    3    0  502  0.66361515680E+02  0.24320215780E+02 -0.35804526674E+03  0.36497836798E+03  0.41800000000E+01 0.  1.
        -11    1    4    4    0    0 -0.41282876045E+01  0.38708015552E+02 -0.22077023762E+02  0.44752074865E+02  0.00000000000E+00 0.  1.
         11    1    4    4    0    0 -0.91119924433E+02 -0.26257126646E+02 -0.53788754866E+02  0.10902067455E+03  0.00000000000E+00 0. -1.
</event>
<event>
 8    1  0.3710605E-009  0.1077024E+03  0.7561462E-02  0.1264885E+00
          1   -1    0    0  501    0  0.00000000000E+00  0.00000000000E+00  0.40338609345E+02  0.40338609345E+02  0.00000000000E+00 0. -1.
         -1   -1    0    0    0  501 -0.00000000000E+00 -0.00000000000E+00 -0.32640406583E+03  0.32640406583E+03  0.00000000000E+00 0.  1.
         25    2    1    2    0    0  0.27904564571E+02  0.23355736745E+02 -0.14483732232E+03  0.19480703073E+03  0.12509106333E+03 0.  0.
         23    2    1    2    0    0 -0.27904564571E+02 -0.23355736745E+02 -0.14122813417E+03  0.17193564444E+03  0.91062202840E+02 0.  0.
          5    1    3    3  502    0 -0.20491927643E+02  0.55353891261E+02 -0.30609199503E+02  0.66621076774E+02  0.41800000000E+01 0. -1.
         -5    1    3    3    0  502  0.48396492214E+02 -0.31998154516E+02 -0.11422812281E+03  0.12818595396E+03  0.41800000000E+01 0. -1.
        -11    1    4    4    0    0 -0.58718341156E+02 -0.30881270924E+02 -0.95304477767E+02  0.11612252135E+03  0.00000000000E+00 0. -1.
         11    1    4    4    0    0  0.30813776585E+02  0.75255341789E+01 -0.45923656401E+02  0.55813123093E+02  0.00000000000E+00 0.  1.
</event>
<event>
 8    1  0.3710605E-009  0.1263259E+03  0.7561462E-02  0.1233012E+00
         -2   -1    0    0    0  501 -0.00000000000E+00  0.00000000000E+00  0.14965370001E+03  0.14965370001E+03  0.00000000000E+00 0.  1.
          2   -1    0    0  501    0  0.00000000000E+00 -0.00000000000E+00 -0.11195012246E+03  0.11195012246E+03  0.00000000000E+00 0. -1.
         25    2    1    2    0    0  0.71458701913E+02  0.50123891008E+01  0.28568280057E+02  0.14694254796E+03  0.12507795830E+03 0.  0.
         23    2    1    2    0    0 -0.71458701913E+02 -0.50123891008E+01  0.91352974947E+01  0.11466127451E+03  0.89063371199E+02 0.  0.
          5    1    3    3  502    0  0.31824716533E+02 -0.58032337062E+02  0.28937964287E+02  0.72356360497E+02  0.41800000000E+01 0. -1.
         -5    1    3    3    0  502  0.39633985380E+02  0.63044726163E+02 -0.36968423034E+00  0.74586187464E+02  0.41800000000E+01 0. -1.
        -11    1    4    4    0    0 -0.32737227132E+02 -0.45286210356E+02 -0.74697070644E+01  0.56376975907E+02  0.00000000000E+00 0.  1.
         11    1    4    4    0    0 -0.38721474781E+02  0.40273821256E+02  0.16605004559E+02  0.58284298608E+02  0.00000000000E+00 0. -1.
</event>
<event>
 8    1  0.3710605E-009  0.9183483E+02  0.7561462E-02  0.1298468E+00
         -1   -1    0    0    0  501 -0.00000000000E+00  0.00000000000E+00  0.21524917853E+02  0.21524917853E+02  0.00000000000E+00 0.  1.
          1   -1    0    0  501    0  0.00000000000E+00 -0.00000000000E+00 -0.73090974649E+03  0.73090974649E+03  0.00000000000E+00 0. -1.
         25    2    1    2    0    0 -0.50138245805E+02  0.38635328882E+02 -0.39198328426E+03  0.41629884273E+03  0.12508916416E+03 0.  0.
         23    2    1    2    0    0  0.50138245805E+02 -0.38635328882E+02 -0.31740154437E+03  0.33613582161E+03  0.90758018195E+02 0.  0.
          5    1    3    3  502    0 -0.14904890173E+02  0.35873561498E+02 -0.37470844564E+03  0.37673991002E+03  0.41800000000E+01 0. -1.
         -5    1    3    3    0  502 -0.35233355631E+02  0.27617673841E+01 -0.17274838617E+02  0.39558932713E+02  0.41800000000E+01 0. -1.
        -11    1    4    4    0    0  0.38547536460E+02 -0.67597224795E+02 -0.19843318912E+03  0.21314555569E+03  0.00000000000E+00 0. -1.
         11    1    4    4    0    0  0.11590709344E+02  0.28961895913E+02 -0.11896835526E+03  0.12299026592E+03  0.00000000000E+00 0.  1.
</event>
<event>
 8    1  0.3710605E-009  0.1248915E+03  0.7561462E-02  0.1235239E+00
          1   -1    0    0  501    0  0.00000000000E+00  0.00000000000E+00  0.94406016920E+02  0.94406016920E+02  0.00000000000E+00 0. -1.
         -1   -1    0    0    0  501 -0.00000000000E+00 -0.00000000000E+00 -0.17409798508E+03  0.17409798508E+03  0.00000000000E+00 0.  1.
         25    2    1    2    0    0  0.47113468208E+02 -0.42498332850E+02 -0.69729499817E+02  0.15664031667E+03  0.12509275951E+03 0.  0.
         23    2    1    2    0    0 -0.47113468208E+02  0.42498332850E+02 -0.99624683393E+01  0.11186368532E+03  0.91588460718E+02 0.  0.
          5    1    3    3  502    0  0.88366966914E+02 -0.40681838340E+02 -0.38532427407E+02  0.10471844715E+03  0.41800000000E+01 0.  1.
         -5    1    3    3    0  502 -0.41253498705E+02 -0.18164945106E+01 -0.31197072410E+02  0.51921869522E+02  0.41800000000E+01 0.  1.
        -11    1    4    4    0    0 -0.83343201899E+01  0.65360918023E+02 -0.11171946435E+02  0.66830553529E+02  0.00000000000E+00 0.  1.
         11    1    4    4    0    0 -0.38779148019E+02 -0.22862585173E+02  0.12094780954E+01  0.45033131793E+02  0.00000000000E+00 0. -1.
</event>
<event>
 8    1  0.3710605E-009  0.3343535E+03  0.7561462E-02  0.1069227E+00
         -2   -1    0    0    0  501 -0.00000000000E+00  0.00000000000E+00  0.11835159177E+03  0.11835159177E+03  0.00000000000E+00 0. -1.
          2   -1    0    0  501    0  0.00000000000E+00 -0.00000000000E+00 -0.11486367266E+04  0.11486367266E+04  0.00000000000E+00 0.  1.
         25    2    1    2    0    0  0.18159086896E+03  0.27060874616E+03 -0.74446196455E+03  0.82223818309E+03  0.12509067067E+03 0.  0.
         23    2    1    2    0    0 -0.18159086896E+03 -0.27060874616E+03 -0.28582317030E+03  0.44475013530E+03  0.99516134297E+02 0.  0.
          5    1    3    3  502    0  0.93961691397E+02  0.10251467741E+03 -0.45836143290E+03  0.47901016076E+03  0.41800000000E+01 0.  1.
         -5    1    3    3    0  502  0.87629177560E+02  0.16809406875E+03 -0.28610053164E+03  0.34322802233E+03  0.41800000000E+01 0.  1.
        -11    1    4    4    0    0 -0.19939437492E+02 -0.11109303929E+03 -0.81003008138E+02  0.13892707394E+03  0.00000000000E+00 0.  1.
         11    1    4    4    0    0 -0.16165143146E+03 -0.15951570687E+03 -0.20482016216E+03  0.30582306136E+03  0.00000000000E+00 0. -1.
</event>
<event>
 8    1  0.3710605E-009  0.9189857E+02  0.7561462E-02  0.1298318E+00
          2   -1    0    0  501    0  0.00000000000E+00  0.00000000000E+00  0.19401560184E+03  0.19401560184E+03  0.00000000000E+00 0. -1.
         -2   -1    0    0    0  501 -0.00000000000E+00 -0.00000000000E+00 -0.95802519660E+02  0.95802519660E+02  0.00000000000E+00 0.  1.
         25    2    1    2    0    0 -0.47849536532E+02 -0.62849688851E+02  0.74918047177E+02  0.16583200421E+03  0.12509147969E+03 0.  0.
         23    2    1    2    0    0  0.47849536532E+02  0.62849688851E+02  0.23295035002E+02  0.12398611729E+03  0.92683531925E+02 0.  0.
          5    1    3    3  502    0 -0.12374642866E+02 -0.58120396231E+02  0.10378288108E+03  0.11966399228E+03  0.41800000000E+01 0.  1.
         -5    1    3    3    0  502 -0.35474893666E+02 -0.47292926201E+01 -0.28864833899E+02  0.46168011927E+02  0.41800000000E+01 0.  1.
        -11    1    4    4    0    0  0.21537098587E+02  0.16755461622E+01  0.48254627308E+02  0.52869302314E+02  0.00000000000E+00 0. -1.
         11    1    4    4    0    0  0.26312437945E+02  0.61174142689E+02 -0.24959592307E+02  0.71116814977E+02  0.00000000000E+00 0.  1.
</event>
<event>
 8    1  0.3710605E-009  0.1050536E+03  0.7561462E-02  0.1270014E+00
          1   -1    0    0  501    0  0.00000000000E+00  0.00000000000E+00  0.27769839570E+03  0.27769839570E+03  0.00000000000E+00 0. -1.
         -1   -1    0    0    0  501 -0.00000000000E+00 -0.00000000000E+00 -0.64486379631E+02  0.64486379631E+02  0.00000000000E+00 0.  1.
         25    2    1    2    0    0 -0.32552526527E+02  0.36511257456E+02  0.39991679464E+02  0.14014059540E+03  0.12508922076E+03 0.  0.
         23    2    1    2    0    0  0.32552526527E+02 -0.36511257456E+02  0.17322033661E+03  0.20204417993E+03  0.91781407292E+02 0.  0.
          5    1    3    3  502    0 -0.67262019056E+02  0.36212721910E+02  0.62304690400E+02  0.98665532389E+02  0.41800000000E+01 0. -1.
         -5    1    3    3    0  502  0.34709492529E+02  0.29853554546E+00 -0.22313010936E+02  0.41475063015E+02  0.41800000000E+01 0. -1.
        -11    1    4    4    0    0 -0.21285245796E+02  0.13461365366E+02  0.20122838969E+02  0.32236604881E+02  0.00000000000E+00 0.  1.
         11    1    4    4    0    0  0.53837772323E+02 -0.49972622822E+02  0.15309749764E+03  0.16980757505E+03  0.00000000000E+00 0. -1.
</event>
<event>
 8    1  0.3710605E-009  0.7845438E+02  0.7561462E-02  0.1333496E+00
          1   -1    0    0  501    0  0.00000000000E+00  0.00000000000E+00  0.46000282258E+03  0.46000282258E+03  0.00000000000E+00 0. -1.
         -1   -1    0    0    0  501 -0.00000000000E+00 -0.00000000000E+00 -0.33741390955E+02  0.33741390955E+02  0.00000000000E+00 0.  1.
         25    2    1    2    0    0 -0.30279387168E+02  0.51979998652E+02  0.26482448834E+03  0.29899571920E+03  0.12509064285E+03 0.  0.
         23    2    1    2    0    0  0.30279387168E+02 -0.51979998652E+02  0.16143694329E+03  0.19474849434E+03  0.90809293802E+02 0.  0.
          5    1    3    3  502    0  0.87706628276E+01  0.55330832942E+02  0.25102480116E+03  0.25723403507E+03  0.41800000000E+01 0.  1.
         -5    1    3    3    0  502 -0.39050049996E+02 -0.33508342904E+01  0.13799687178E+02  0.41761684129E+02  0.41800000000E+01 0.  1.
        -11    1    4    4    0    0  0.19999161809E+01 -0.13027282009E+02 -0.10087862151E+02  0.16597430646E+02  0.00000000000E+00 0.  1.
         11    1    4    4    0    0  0.28279470987E+02 -0.38952716643E+02  0.17152480544E+03  0.17815106369E+03  0.00000000000E+00 0. -1.
</event>
<event>
 8    1  0.3710605E-009  0.1753706E+03  0.7561462E-02  0.1172360E+00
          3   -1    0    0  501    0  0.00000000000E+00  0.00000000000E+00  0.77352366277E+02  0.77352366277E+02  0.00000000000E+00 0. -1.
         -3   -1    0    0    0  501 -0.00000000000E+00 -0.00000000000E+00 -0.50832947251E+03  0.50832947251E+03  0.00000000000E+00 0.  1.
         25    2    1    2    0    0 -0.12185985816E+03  0.91339242915E+02 -0.31784558153E+03  0.37398649420E+03  0.12508957519E+03 0.  0.
         23    2    1    2    0    0  0.12185985816E+03 -0.91339242915E+02 -0.11313152471E+03  0.21169534459E+03  0.93933458951E+02 0.  0.
          5    1    3    3  502    0  0.25577948582E+02  0.17456634709E+02 -0.38716373598E+02  0.49753346959E+02  0.41800000000E+01 0.  1.
         -5    1    3    3    0  502 -0.14743780674E+03  0.73882608205E+02 -0.27912920793E+03  0.32423314724E+03  0.41800000000E+01 0.  1.
        -11    1    4    4    0    0  0.77972817863E+02 -0.42266288016E+02 -0.11573288523E+03  0.14580912232E+03  0.00000000000E+00 0.  1.
         11    1    4    4    0    0  0.43887040297E+02 -0.49072954898E+02  0.26013605179E+01  0.65886222270E+02  0.00000000000E+00 0. -1.
</event>
<event>
 8    1  0.3710605E-009  0.3090797E+03  0.7561462E-02  0.1080788E+00
          2   -1    0    0  501    0  0.00000000000E+00  0.00000000000E+00  0.19374423370E+04  0.19374423370E+04  0.00000000000E+00 0.  1.
         -2   -1    0    0    0  501 -0.00000000000E+00 -0.00000000000E+00 -0.51842072730E+02  0.51842072730E+02  0.00000000000E+00 0. -1.
         25    2    1    2    0    0  0.39103718521E+02  0.29427292555E+03  0.99258599239E+03  0.10435519756E+04  0.12509243743E+03 0.  0.
         23    2    1    2    0    0 -0.39103718521E+02 -0.29427292555E+03  0.89301427192E+03  0.94573243420E+03  0.93859958166E+02 0.  0.
          5    1    3    3  502    0 -0.41525649101E+02  0.57615555789E+02  0.18825843125E+03  0.20125267983E+03  0.41800000000E+01 0. -1.
         -5    1    3    3    0  502  0.80629367622E+02  0.23665736976E+03  0.80432756114E+03  0.84229929574E+03  0.41800000000E+01 0. -1.
        -11    1    4    4    0    0 -0.25823250955E+02 -0.16447582930E+03  0.35468217081E+03  0.39181447268E+03  0.00000000000E+00 0. -1.
         11    1    4    4    0    0 -0.13280467566E+02 -0.12979709625E+03  0.53833210111E+03  0.55391796152E+03  0.00000000000E+00 0.  1.
</event>
<event>
 8    1  0.3710605E-009  0.1147494E+03  0.7561462E-02  0.1252019E+00
          1   -1    0    0  501    0  0.00000000000E+00  0.00000000000E+00  0.10950393579E+04  0.10950393579E+04  0.00000000000E+00 0. -1.
         -1   -1    0    0    0  501 -0.00000000000E+00 -0.00000000000E+00 -0.16489711352E+02  0.16489711352E+02  0.00000000000E+00 0.  1.
         25    2    1    2    0    0 -0.77139225078E+02  0.23353392683E+02  0.70299579405E+03  0.71857209590E+03  0.12508768746E+03 0.  0.
         23    2    1    2    0    0  0.77139225078E+02 -0.23353392683E+02  0.37555385253E+03  0.39295697339E+03  0.82937601771E+02 0.  0.
          5    1    3    3  502    0 -0.92987054186E+02 -0.90909200989E+01  0.30745769919E+03  0.32136730740E+03  0.41800000000E+01 0.  1.
         -5    1    3    3    0  502  0.15847829108E+02  0.32444312782E+02  0.39553809486E+03  0.39720478850E+03  0.41800000000E+01 0.  1.
        -11    1    4    4    0    0  0.16177101031E+02 -0.34082453624E+02  0.56392275283E+02  0.67848367367E+02  0.00000000000E+00 0.  1.
         11    1    4    4    0    0  0.60962124047E+02  0.10729060941E+02  0.31916157725E+03  0.32510860602E+03  0.00000000000E+00 0. -1.
</event>
<event>
 8    1  0.3710605E-009  0.1945799E+03  0.7561462E-02  0.1154394E+00
         -2   -1    0    0    0  501 -0.00000000000E+00  0.00000000000E+00  0.59339062666E+02  0.59339062666E+02  0.00000000000E+00 0.  1.
          2   -1    0    0  501    0  0.00000000000E+00 -0.00000000000E+00 -0.92454688879E+03  0.92454688879E+03  0.00000000000E+00 0. -1.
         25    2    1    2    0    0  0.12030759041E+03  0.12621609306E+03 -0.21017030992E+03  0.30037214780E+03  0.12508976594E+03 0.  0.
         23    2    1    2    0    0 -0.12030759041E+03 -0.12621609306E+03 -0.65503751621E+03  0.68351380366E+03  0.87821146062E+02 0.  0.
          5    1    3    3  502    0 -0.17826307810E+02  0.21139961866E+02 -0.25474118502E+00  0.27968062695E+02  0.41800000000E+01 0.  1.
         -5    1    3    3    0  502  0.13813389822E+03  0.10507613120E+03 -0.20991556873E+03  0.27240408510E+03  0.41800000000E+01 0.  1.
        -11    1    4    4    0    0 -0.14458686211E+02 -0.62256560338E+02 -0.14101499715E+03  0.15482300324E+03  0.00000000000E+00 0.  1.
         11    1    4    4    0    0 -0.10584890420E+03 -0.63959532725E+02 -0.51402251906E+03  0.52869080042E+03  0.00000000000E+00 0. -1.
</event>
<event>
 8    1  0.3710605E-009  0.9285484E+02  0.7561462E-02  0.1296082E+00
          2   -1    0    0  501    0  0.00000000000E+00  0.00000000000E+00  0.91971091475E+03  0.91971091475E+03  0.00000000000E+00 0. -1.
         -2   -1    0    0    0  501 -0.00000000000E+00 -0.00000000000E+00 -0.19633760907E+02  0.19633760907E+02  0.00000000000E+00 0.  1.
         25    2    1    2    0    0  0.45426255791E+02  0.56392725253E+02  0.46473006659E+03  0.48668820982E+03  0.12509074550E+03 0.  0.
         23    2    1    2    0    0 -0.45426255791E+02 -0.56392725253E+02  0.43534708725E+03  0.45265646583E+03  0.10063352079E+03 0.  0.
          5    1    3    3  502    0  0.37501031234E+02  0.36721939097E+02  0.46189668208E+03  0.46488799239E+03  0.41800000000E+01 0. -1.
         -5    1    3    3    0  502  0.79252245570E+01  0.19670786156E+02  0.28333845122E+01  0.21800217431E+02  0.41800000000E+01 0. -1.
        -11    1    4    4    0    0 -0.50247423695E+02  0.44170034639E+01  0.10219158320E+03  0.11396242005E+03  0.00000000000E+00 0.  1.
         11    1    4    4    0    0  0.48211679044E+01 -0.60809728717E+02  0.33315550405E+03  0.33869404578E+03  0.00000000000E+00 0. -1.
</event>
<event>
 8    1  0.3710605E-009  0.1465869E+03  0.7561462E-02  0.1204731E+00
         -1   -1    0    0    0  501 -0.00000000000E+00  0.00000000000E+00  0.71694721449E+02  0.71694721449E+02  0.00000000000E+00 0.  1.
          1   -1    0    0  501    0  0.00000000000E+00 -0.00000000000E+00 -0.35913316915E+03  0.35913316915E+03  0.00000000000E+00 0. -1.
         25    2    1    2    0    0 -0.10980012103E+03 -0.40010746372E+02 -0.17618475303E+03  0.24565386451E+03  0.12509127685E+03 0.  0.
         23    2    1    2    0    0  0.10980012103E+03  0.40010746372E+02 -0.11125369467E+03  0.18517402609E+03  0.90857630147E+02 0.  0.
          5    1    3    3  502    0 -0.92016615798E+02  0.13890776651E+02 -0.16220233444E+03  0.18704833855E+03  0.41800000000E+01 0.  1.
         -5    1    3    3    0  502 -0.17783505234E+02 -0.53901523023E+02 -0.13982418590E+02  0.58605525953E+02  0.41800000000E+01 0.  1.
        -11    1    4    4    0    0  0.11915055882E+03  0.19727137244E+02 -0.73710545853E+02  0.14148943488E+03  0.00000000000E+00 0.  1.
         11    1    4    4    0    0 -0.93504377918E+01  0.20283609127E+02 -0.37543148818E+02  0.43684591211E+02  0.00000000000E+00 0. -1.
</event>
<event>
 8    1  0.3710605E-009  0.1265420E+03  0.7561462E-02  0.1232679E+00
         -1   -1    0    0    0  501 -0.00000000000E+00  0.00000000000E+00  0.29960787847E+03  0.29960787847E+03  0.00000000000E+00 0.  1.
          1   -1    0    0  501    0  0.00000000000E+00 -0.00000000000E+00 -0.70356373797E+02  0.70356373797E+02  0.00000000000E+00 0. -1.
         25    2    1    2    0    0 -0.50817061756E+02  0.63374662022E+02  0.61369387549E+02  0.16128709826E+03  0.12509438351E+03 0.  0.
         23    2    1    2    0    0  0.50817061756E+02 -0.63374662022E+02  0.16788211713E+03  0.20867715401E+03  0.93611045296E+02 0.  0.
          5    1    3    3  502    0 -0.14973600266E+02 -0.34285087488E+02 -0.47635539467E+01  0.37945220716E+02  0.41800000000E+01 0. -1.
         -5    1    3    3    0  502 -0.35843461490E+02  0.97659749510E+02  0.66132941496E+02  0.12334187755E+03  0.41800000000E+01 0. -1.
        -11    1    4    4    0    0  0.33208196799E+02 -0.80303387575E+02  0.16155695612E+03  0.18344500119E+03  0.00000000000E+00 0.  1.
         11    1    4    4    0    0  0.17608864957E+02  0.16928725553E+02  0.63251610043E+01  0.25232152815E+02  0.00000000000E+00 0. -1.
</event>
<event>
 8    1  0.3710605E-009  0.1269544E+03  0.7561462E-02  0.1232046E+00
          1   -1    0    0  501    0  0.00000000000E+00  0.00000000000E+00  0.35672709299E+03  0.35672709299E+03  0.00000000000E+00 0. -1.
         -1   -1    0    0    0  501 -0.00000000000E+00 -0.00000000000E+00 -0.71032179607E+02  0.71032179607E+02  0.00000000000E+00 0.  1.
         25    2    1    2    0    0 -0.39986252179E+02 -0.68158839849E+02  0.39770992981E+02  0.15320918555E+03  0.12508714899E+03 0.  0.
         23    2    1    2    0    0  0.39986252179E+02  0.68158839849E+02  0.24592392040E+03  0.27455008704E+03  0.93030359869E+02 0.  0.
          5    1    3    3  502    0  0.30111164899E+02  0.62473289776E+01  0.40340439826E+02  0.50897297142E+02  0.41800000000E+01 0.  1.
         -5    1    3    3    0  502 -0.70097417078E+02 -0.74406168827E+02 -0.56944684531E+00  0.10231188841E+03  0.41800000000E+01 0.  1.
        -11    1    4    4    0    0  0.24524951895E+02 -0.19636068130E+02  0.84418767578E+02  0.90075394844E+02  0.00000000000E+00 0. -1.
         11    1    4    4    0    0  0.15461300285E+02  0.87794907979E+02  0.16150515282E+03  0.18447469220E+03  0.00000000000E+00 0.  1.
</event>
<event>
 8    1  0.3710605E-009  0.9591497E+02  0.7561462E-02  0.1289129E+00
          1   -1    0    0  501    0  0.00000000000E+00  0.00000000000E+00  0.64440008573E+03  0.64440008573E+03  0.00000000000E+00 0. -1.
         -1   -1    0    0    0  501 -0.00000000000E+00 -0.00000000000E+00 -0.24284393893E+02  0.24284393893E+02  0.00000000000E+00 0.  1.
         25    2    1    2    0    0 -0.13755606436E+01  0.55871162514E+02  0.27369543822E+03  0.30607145166E+03  0.12508821548E+03 0.  0.
         23    2    1    2    0    0  0.13755606436E+01 -0.55871162514E+02  0.34642025361E+03  0.36261302796E+03  0.91420659397E+02 0.  0.
          5    1    3    3  502    0 -0.22135074443E+02 -0.34294606407E+01 -0.23765175402E+01  0.22909451249E+02  0.41800000000E+01 0.  1.
         -5    1    3    3    0  502  0.20759513800E+02  0.59300623154E+02  0.27607195576E+03  0.28316200042E+03  0.41800000000E+01 0.  1.
        -11    1    4    4    0    0 -0.13181300661E+02  0.22655692339E+02  0.65178067368E+02  0.70251032365E+02  0.00000000000E+00 0.  1.
         11    1    4    4    0    0  0.14556861305E+02 -0.78526854852E+02  0.28124218624E+03  0.29236199559E+03  0.00000000000E+00 0. -1.
</event>
<event>
 8    1  0.3710605E-009  0.9373635E+02  0.7561462E-02  0.1294048E+00
          2   -1    0    0  501    0  0.00000000000E+00  0.00000000000E+00  0.16761638693E+03  0.16761638693E+03  0.00000000000E+00 0.  1.
         -2   -1    0    0    0  501 -0.00000000000E+00 -0.00000000000E+00 -0.97396832500E+02  0.97396832500E+02  0.00000000000E+00 0. -1.
         25    2    1    2    0    0  0.38412417111E+02  0.12505779638E+02  0.95616168401E+02  0.16255114069E+03  0.12509401811E+03 0.  0.
         23    2    1    2    0    0 -0.38412417111E+02 -0.12505779638E+02 -0.25396613969E+02  0.10246207874E+03  0.90672935692E+02 0.  0.
          5    1    3    3  502    0 -0.20190394377E+02 -0.12767803896E+02 -0.19328001486E+02  0.31011495979E+02  0.41800000000E+01 0. -1.
         -5    1    3    3    0  502  0.58602811487E+02  0.25273583534E+02  0.11494416989E+03  0.13153964471E+03  0.41800000000E+01 0. -1.
        -11    1    4    4    0    0 -0.30200427758E+01 -0.48611158305E+02 -0.12667367610E+02  0.50325218055E+02  0.00000000000E+00 0.  1.
         11    1    4    4    0    0 -0.35392374335E+02  0.36105378667E+02 -0.12729246359E+02  0.52136860690E+02  0.00000000000E+00 0. -1.
</event>
<event>
 8    1  0.3710605E-009  0.1266743E+03  0.7561462E-02  0.1232476E+00
         -2   -1    0    0    0  501 -0.00000000000E+00  0.00000000000E+00  0.85980361769E+02  0.85980361769E+02  0.00000000000E+00 0. -1.
          2   -1    0    0  501    0  0.00000000000E+00 -0.00000000000E+00 -0.19428532414E+03  0.19428532414E+03  0.00000000000E+00 0.  1.
         25    2    1    2    0    0 -0.29926493463E+02  0.62034169444E+02 -0.74810260795E+02  0.16120845224E+03  0.12509099393E+03 0.  0.
         23    2    1    2    0    0  0.29926493463E+02 -0.62034169444E+02 -0.33494701578E+02  0.11905723367E+03  0.91153149516E+02 0.  0.
          5    1    3    3  502    0 -0.21826162806E+02  0.98794889431E+02 -0.69835225584E+02  0.12300911630E+03  0.41800000000E+01 0. -1.
         -5    1    3    3    0  502 -0.81003306577E+01 -0.36760719987E+02 -0.49750352116E+01  0.38199335938E+02  0.41800000000E+01 0. -1.
        -11    1    4    4    0    0  0.62268027135E+02 -0.49422166136E+02 -0.21909474839E+02  0.82461401859E+02  0.00000000000E+00 0. -1.
         11    1    4    4    0    0 -0.32341533671E+02 -0.12612003308E+02 -0.11585226739E+02  0.36595831815E+02  0.00000000000E+00 0.  1.
</event>
<event>
 8    1  0.3710605E-009  0.5765729E+02  0.7561462E-02  0.1407934E+00
          2   -1    0    0  501    0  0.00000000000E+00  0.00000000000E+00  0.17169298420E+03  0.17169298420E+03  0.00000000000E+00 0. -1.
         -2   -1    0    0    0  501 -0.00000000000E+00 -0.00000000000E+00 -0.73999645551E+02  0.73999645551E+02  0.00000000000E+00 0.  1.
         25    2    1    2    0    0 -0.13328785533E+02 -0.28486779808E+02  0.55702011994E+02  0.14049319469E+03  0.12508585238E+03 0.  0.
         23    2    1    2    0    0  0.13328785533E+02  0.28486779808E+02  0.41991326657E+02  0.10519943507E+03  0.91183860832E+02 0.  0.
          5    1    3    3  502    0 -0.19138881321E+02 -0.23964589328E+02  0.95196118230E+02  0.10010180641E+03  0.41800000000E+01 0. -1.
         -5    1    3    3    0  502  0.58100957871E+01 -0.45221904803E+01 -0.39494106236E+02  0.40391388280E+02  0.41800000000E+01 0. -1.
        -11    1    4    4    0    0  0.64974547906E+01  0.51490510214E+02 -0.52994702475E+01  0.52168706576E+02  0.00000000000E+00 0.  1.
         11    1    4    4    0    0  0.68313307428E+01 -0.23003730407E+02  0.47290796905E+02  0.53030728491E+02  0.00000000000E+00 0. -1.
</event>
<event>
 8    1  0.3710605E-009  0.1053162E+03  0.7561462E-02  0.1269498E+00
          1   -1    0    0  501    0  0.00000000000E+00  0.00000000000E+00  0.31075699021E+03  0.31075699021E+03  0.00000000000E+00 0. -1.
         -1   -1    0    0    0  501 -0.00000000000E+00 -0.00000000000E+00 -0.72865497418E+02  0.72865497418E+02  0.00000000000E+00 0.  1.
         25    2    1    2    0    0 -0.31837156962E+02  0.33787270986E+02  0.24525386567E+03  0.27920217755E+03  0.12509681483E+03 0.  0.
         23    2    1    2    0    0  0.31837156962E+02 -0.33787270986E+02 -0.73623728770E+01  0.10442031008E+03  0.93242760458E+02 0.  0.
          5    1    3    3  502    0 -0.76957740742E+02  0.32622959869E+02  0.12261376600E+03  0.14845322288E+03  0.41800000000E+01 0. -1.
         -5    1    3    3    0  502  0.45120583780E+02  0.11643111169E+01  0.12264009966E+03  0.13074895467E+03  0.41800000000E+01 0. -1.
        -11    1    4    4    0    0 -0.16127089426E+02 -0.29291838885E+02 -0.35388069391E+02  0.48686859560E+02  0.00000000000E+00 0.  1.
         11    1    4    4    0    0  0.47964246388E+02 -0.44954321011E+01  0.28025696514E+02  0.55733450516E+02  0.00000000000E+00 0. -1.
</event>
<event>
 8    1  0.3710605E-009  0.1461651E+03  0.7561462E-02  0.1205266E+00
          2   -1    0    0  501    0  0.00000000000E+00  0.00000000000E+00  0.10840813630E+04  0.10840813630E+04  0.00000000000E+00 0.  1.
         -2   -1    0    0    0  501 -0.00000000000E+00 -0.00000000000E+00 -0.22198132772E+02  0.22198132772E+02  0.00000000000E+00 0. -1.
         25    2    1    2    0    0  0.66406432706E+02 -0.85489767858E+02  0.67217543308E+03  0.69223175392E+03  0.12508666431E+03 0.  0.
         23    2    1    2    0    0 -0.66406432706E+02  0.85489767858E+02  0.38970779711E+03  0.41404774181E+03  0.88572290584E+02 0.  0.
          5    1    3    3  502    0 -0.32510739312E+02 -0.34090514570E+02  0.29977193472E+03  0.30347948300E+03  0.41800000000E+01 0. -1.
         -5    1    3    3    0  502  0.98917172017E+02 -0.51399253289E+02  0.37240349836E+03  0.38875227093E+03  0.41800000000E+01 0. -1.
        -11    1    4    4    0    0 -0.20647288897E+02  0.85261047446E+02  0.30963087342E+03  0.32181832534E+03  0.00000000000E+00 0.  1.
         11    1    4    4    0    0 -0.45759143809E+02  0.22872041226E+00  0.80076923687E+02  0.92229416469E+02  0.00000000000E+00 0. -1.
</event>
<event>
 8    1  0.3710605E-009  0.1851602E+03  0.7561462E-02  0.1162900E+00
          1   -1    0    0  501    0  0.00000000000E+00  0.00000000000E+00  0.66753904264E+03  0.66753904264E+03  0.00000000000E+00 0. -1.
         -1   -1    0    0    0  501 -0.00000000000E+00 -0.00000000000E+00 -0.58641994225E+02  0.58641994225E+02  0.00000000000E+00 0.  1.
         25    2    1    2    0    0  0.11137714905E+03 -0.12019318254E+03  0.27893217098E+03  0.34684591082E+03  0.12509060470E+03 0.  0.
         23    2    1    2    0    0 -0.11137714905E+03  0.12019318254E+03  0.32996487743E+03  0.37933512604E+03  0.90371715974E+02 0.  0.
          5    1    3    3  502    0  0.89076299064E+02 -0.13135967593E+03  0.27961758276E+03  0.32154846680E+03  0.41800000000E+01 0.  1.
         -5    1    3    3    0  502  0.22300849991E+02  0.11166493386E+02 -0.68541177245E+00  0.25297444024E+02  0.41800000000E+01 0.  1.
        -11    1    4    4    0    0  0.14589782009E+02  0.46007284863E+01  0.38503854861E+02  0.41431573477E+02  0.00000000000E+00 0. -1.
         11    1    4    4    0    0 -0.12596693106E+03  0.11559245406E+03  0.29146102257E+03  0.33790355256E+03  0.00000000000E+00 0.  1.
</event>
<event>
 8    1  0.3710605E-009  0.1226405E+03  0.7561462E-02  0.1238803E+00
          2   -1    0    0  501    0  0.00000000000E+00  0.00000000000E+00  0.10306254858E+03  0.10306254858E+03  0.00000000000E+00 0. -1.
         -2   -1    0    0    0  501 -0.00000000000E+00 -0.00000000000E+00 -0.16362922077E+03  0.16362922077E+03  0.00000000000E+00 0.  1.
         25    2    1    2    0    0  0.66772915477E+02  0.28209599557E+02 -0.26271477866E+02  0.14694299142E+03  0.12509056091E+03 0.  0.
         23    2    1    2    0    0 -0.66772915477E+02 -0.28209599557E+02 -0.34295194321E+02  0.11974877792E+03  0.88933715273E+02 0.  0.
          5    1    3    3  502    0  0.63753959273E+02  0.68652670941E+02  0.73880111796E+01  0.94073437588E+02  0.41800000000E+01 0. -1.
         -5    1    3    3    0  502  0.30189562039E+01 -0.40443071384E+02 -0.33659489045E+02  0.52869553831E+02  0.41800000000E+01 0. -1.
        -11    1    4    4    0    0 -0.53668517203E+02  0.22616659172E+02 -0.23152354525E+01  0.58285361165E+02  0.00000000000E+00 0. -1.
         11    1    4    4    0    0 -0.13104398274E+02 -0.50826258729E+02 -0.31979958869E+02  0.61463416760E+02  0.00000000000E+00 0.  1.
</event>
<event>
 8    1  0.3710605E-009  0.1003566E+03  0.7561462E-02  0.1279548E+00
          2   -1    0    0  501    0  0.00000000000E+00  0.00000000000E+00  0.68558482811E+03  0.68558482811E+03  0.00000000000E+00 0. -1.
         -2   -1    0    0    0  501 -0.00000000000E+00 -0.00000000000E+00 -0.21829305341E+02  0.21829305341E+02  0.00000000000E+00 0.  1.
         25    2    1    2    0    0  0.30492703973E+02  0.59172220429E+01  0.51941681239E+03  0.53516983381E+03  0.12509239591E+03 0.  0.
         23    2    1    2    0    0 -0.30492703973E+02 -0.59172220429E+01  0.14433871038E+03  0.17224429964E+03  0.88710861415E+02 0.  0.
          5    1    3    3  502    0 -0.35328761452E+02 -0.28907118471E+02  0.29858759874E+03  0.30208569877E+03  0.41800000000E+01 0. -1.
         -5    1    3    3    0  502  0.65821465424E+02  0.34824340514E+02  0.22082921366E+03  0.23308413504E+03  0.41800000000E+01 0. -1.
        -11    1    4    4    0    0 -0.47754401193E+00  0.31959657486E+02  0.17345791474E+02  0.36366526323E+02  0.00000000000E+00 0. -1.
         11    1    4    4    0    0 -0.30015159961E+02 -0.37876879529E+02  0.12699291891E+03  0.13587777332E+03  0.00000000000E+00 0.  1.
</event>
<event>
 8    1  0.3710605E-009  0.1086545E+03  0.7561462E-02  0.1263082E+00
          3   -1    0    0  501    0  0.00000000000E+00  0.00000000000E+00  0.73801203427E+02  0.73801203427E+02  0.00000000000E+00 0. -1.
         -3   -1    0    0    0  501 -0.00000000000E+00 -0.00000000000E+00 -0.22490410872E+03  0.22490410872E+03  0.00000000000E+00 0.  1.
         25    2    1    2    0    0  0.55348762191E+01  0.70061447392E+02 -0.96096628010E+02  0.17268859117E+03  0.12509015285E+03 0.  0.
         23    2    1    2    0    0 -0.55348762191E+01 -0.70061447392E+02 -0.55006277286E+02  0.12601672098E+03  0.88967871508E+02 0.  0.
          5    1    3    3  502    0 -0.25803748743E+02 -0.99527428244E+00 -0.91070884672E+02  0.94753377011E+02  0.41800000000E+01 0.  1.
         -5    1    3    3    0  502  0.31338624962E+02  0.71056721675E+02 -0.50257433383E+01  0.77935214157E+02  0.41800000000E+01 0.  1.
        -11    1    4    4    0    0 -0.33485821696E+01 -0.91633330407E+02 -0.44288269551E+02  0.10182991242E+03  0.00000000000E+00 0. -1.
         11    1    4    4    0    0 -0.21862940496E+01  0.21571883015E+02 -0.10718007734E+02  0.24186808559E+02  0.00000000000E+00 0.  1.
</event>
<event>
 8    1  0.3710605E-009  0.1119365E+03  0.7561462E-02  0.1257025E+00
          1   -1    0    0  501    0  0.00000000000E+00  0.00000000000E+00  0.45321234893E+03  0.45321234893E+03  0.00000000000E+00 0. -1.
         -1   -1    0    0    0  501 -0.00000000000E+00 -0.00000000000E+00 -0.30770660994E+02  0.30770660994E+02  0.00000000000E+00 0.  1.
         25    2    1    2    0    0  0.27034507152E+02  0.18563386304E+01  0.31285654182E+03  0.33802450092E+03  0.12508811652E+03 0.  0.
         23    2    1    2    0    0 -0.27034507152E+02 -0.18563386304E+01  0.10958514612E+03  0.14595850901E+03  0.92523897081E+02 0.  0.
          5    1    3    3  502    0 -0.45943515407E+02  0.22772140770E+02  0.11169619627E+03  0.12297515873E+03  0.41800000000E+01 0.  1.
         -5    1    3    3    0  502  0.72978022559E+02 -0.20915802140E+02  0.20116034555E+03  0.21504934219E+03  0.41800000000E+01 0.  1.
        -11    1    4    4    0    0 -0.30542936058E+02  0.42258243204E+02  0.57943588273E+02  0.77949275069E+02  0.00000000000E+00 0. -1.
         11    1    4    4    0    0  0.35084289063E+01 -0.44114581835E+02  0.51641557846E+02  0.68009233937E+02  0.00000000000E+00 0.  1.
</event>
<event>
 8    1  0.3710605E-009  0.1134815E+03  0.7561462E-02  0.1254255E+00
          1   -1    0    0  501    0  0.00000000000E+00  0.00000000000E+00  0.39845280703E+02  0.39845280703E+02  0.00000000000E+00 0. -1.
         -1   -1    0    0    0  501 -0.00000000000E+00 -0.00000000000E+00 -0.35250334015E+03  0.35250334015E+03  0.00000000000E+00 0.  1.
         25    2    1    2    0    0  0.26271437413E+02 -0.16600834857E+02 -0.23015523763E+03  0.26379086000E+03  0.12509359804E+03 0.  0.
         23    2    1    2    0    0 -0.26271437413E+02  0.16600834857E+02 -0.82502821811E+02  0.12855776084E+03  0.93566052204E+02 0.  0.
          5    1    3    3  502    0 -0.36749918799E+02 -0.45755386646E+02 -0.11706459727E+03  0.13101795401E+03  0.41800000000E+01 0.  1.
         -5    1    3    3    0  502  0.63021356212E+02  0.29154551789E+02 -0.11309064036E+03  0.13277290600E+03  0.41800000000E+01 0.  1.
        -11    1    4    4    0    0 -0.45002140417E+02 -0.26038105120E+02 -0.41981594614E+02  0.66825368287E+02  0.00000000000E+00 0.  1.
         11    1    4    4    0    0  0.18730703004E+02  0.42638939977E+02 -0.40521227196E+02  0.61732392557E+02  0.00000000000E+00 0. -1.
</event>
<event>
 8    1  0.3710605E-009  0.1503737E+03  0.7561462E-02  0.1200015E+00
         -1   -1    0    0    0  501 -0.00000000000E+00  0.00000000000E+00  0.31168903839E+02  0.31168903839E+02  0.00000000000E+00 0.  1.
          1   -1    0    0  501    0  0.00000000000E+00 -0.00000000000E+00 -0.99253750504E+03  0.99253750504E+03  0.00000000000E+00 0. -1.
         25    2    1    2    0    0  0.11934402725E+03  0.58180996123E+02 -0.61132433479E+03  0.63796000420E+03  0.12508996567E+03 0.  0.
         23    2    1    2    0    0 -0.11934402725E+03 -0.58180996123E+02 -0.35004426641E+03  0.38574640467E+03  0.92958459106E+02 0.  0.
          5    1    3    3  502    0  0.12847063144E+03  0.56258711279E+02 -0.61184382454E+03  0.62772612162E+03  0.41800000000E+01 0. -1.
         -5    1    3    3    0  502 -0.91266041927E+01  0.19222848439E+01  0.51948975340E+00  0.10233882583E+02  0.41800000000E+01 0. -1.
        -11    1    4    4    0    0 -0.32980439459E+02  0.15732910477E+02 -0.34122621594E+02  0.49995871464E+02  0.00000000000E+00 0.  1.
         11    1    4    4    0    0 -0.86363587792E+02 -0.73913906599E+02 -0.31592164482E+03  0.33575053321E+03  0.00000000000E+00 0. -1.
</event>
<event>
 8    1  0.3710605E-009  0.9775722E+02  0.7561462E-02  0.1285084E+00
          2   -1    0    0  501    0  0.00000000000E+00  0.00000000000E+00  0.16738193795E+03  0.16738193795E+03  0.00000000000E+00 0. -1.
         -2   -1    0    0    0  501 -0.00000000000E+00 -0.00000000000E+00 -0.74459658150E+02  0.74459658150E+02  0.00000000000E+00 0.  1.
         25    2    1    2    0    0  0.19391816937E+02  0.15367790624E+02  0.78212999752E+02  0.14959737490E+03  0.12509951916E+03 0.  0.
         23    2    1    2    0    0 -0.19391816937E+02 -0.15367790624E+02  0.14709280044E+02  0.92244221194E+02  0.87638016131E+02 0.  0.
          5    1    3    3  502    0 -0.80649975501E+01  0.59005390558E+02  0.49378796380E+01  0.59904385112E+02  0.41800000000E+01 0. -1.
         -5    1    3    3    0  502  0.27456814487E+02 -0.43637599933E+02  0.73275120114E+02  0.89692989790E+02  0.41800000000E+01 0. -1.
        -11    1    4    4    0    0 -0.32336509592E+02 -0.42866120268E+02 -0.80222991244E+01  0.54290988227E+02  0.00000000000E+00 0.  1.
         11    1    4    4    0    0  0.12944692655E+02  0.27498329643E+02  0.22731579168E+02  0.37953232967E+02  0.00000000000E+00 0. -1.
</event>
<event>
 8    1  0.3710605E-009  0.9176625E+02  0.7561462E-02  0.1298630E+00
          1   -1    0    0  501    0  0.00000000000E+00  0.00000000000E+00  0.21493673403E+03  0.21493673403E+03  0.00000000000E+00 0.  1.
         -1   -1    0    0    0  501 -0.00000000000E+00 -0.00000000000E+00 -0.73502900283E+02  0.73502900283E+02  0.00000000000E+00 0. -1.
         25    2    1    2    0    0  0.57269003091E+02  0.22435329408E+02  0.48334871261E+02  0.14753755889E+03  0.12509192133E+03 0.  0.
         23    2    1    2    0    0 -0.57269003091E+02 -0.22435329408E+02  0.93098962489E+02  0.14090207542E+03  0.86040079741E+02 0.  0.
          5    1    3    3  502    0  0.33467327359E+02 -0.33749865973E+02  0.68197317684E+02  0.83231376253E+02  0.41800000000E+01 0. -1.
         -5    1    3    3    0  502  0.23801675732E+02  0.56185195381E+02 -0.19862446423E+02  0.64306182638E+02  0.41800000000E+01 0. -1.
        -11    1    4    4    0    0 -0.21695456632E+01 -0.19350071507E+02  0.82424836510E+02  0.84693481859E+02  0.00000000000E+00 0.  1.
         11    1    4    4    0    0 -0.55099457428E+02 -0.30852579011E+01  0.10674125978E+02  0.56208593565E+02  0.00000000000E+00 0. -1.
</event>
<event>
 8    1  0.3710605E-009  0.1976366E+03  0.7561462E-02  0.1151748E+00
          1   -1    0    0  501    0  0.00000000000E+00  0.00000000000E+00  0.12635381096E+04  0.12635381096E+04  0.00000000000E+00 0. -1.
         -1   -1    0    0    0  501 -0.00000000000E+00 -0.00000000000E+00 -0.35776215349E+02  0.35776215349E+02  0.00000000000E+00 0.  1.
         25    2    1    2    0    0 -0.12072592644E+03  0.13410861146E+03  0.73036260671E+03  0.76265157445E+03  0.12509203714E+03 0.  0.
         23    2    1    2    0    0  0.12072592644E+03 -0.13410861146E+03  0.49739928756E+03  0.53666275051E+03  0.89671553677E+02 0.  0.
          5    1    3    3  502    0  0.15736528668E+02  0.36190523517E+02  0.26363547381E+03  0.26660556592E+03  0.41800000000E+01 0. -1.
         -5    1    3    3    0  502 -0.13646245511E+03  0.97918087945E+02  0.46672713289E+03  0.49604600853E+03  0.41800000000E+01 0. -1.
        -11    1    4    4    0    0  0.60209113092E+02 -0.30264593048E+02  0.93456575839E+02  0.11521811689E+03  0.00000000000E+00 0.  1.
         11    1    4    4    0    0  0.60516813349E+02 -0.10384401841E+03  0.40394271172E+03  0.42144463362E+03  0.00000000000E+00 0. -1.
</event>
<event>
 8    1  0.3710605E-009  0.3095117E+03  0.7561462E-02  0.1080580E+00
          2   -1    0    0  501    0  0.00000000000E+00  0.00000000000E+00  0.15081180995E+04  0.15081180995E+04  0.00000000000E+00 0.  1.
         -2   -1    0    0    0  501 -0.00000000000E+00 -0.00000000000E+00 -0.67476217333E+02  0.67476217333E+02  0.00000000000E+00 0. -1.
         25    2    1    2    0    0  0.84191551263E+02 -0.28548797383E+03  0.81212140828E+03  0.87394518768E+03  0.12508960300E+03 0.  0.
         23    2    1    2    0    0 -0.84191551263E+02  0.28548797383E+03  0.62852047392E+03  0.70164912918E+03  0.93176788092E+02 0.  0.
          5    1    3    3  502    0  0.99184660523E+02 -0.28757794406E+03  0.73931132576E+03  0.79946068045E+03  0.41800000000E+01 0.  1.
         -5    1    3    3    0  502 -0.14993109260E+02  0.20899702237E+01  0.72810082520E+02  0.74484507231E+02  0.41800000000E+01 0.  1.
        -11    1    4    4    0    0 -0.45878641533E+02  0.20325021459E+03  0.52005246047E+03  0.56024107411E+03  0.00000000000E+00 0.  1.
         11    1    4    4    0    0 -0.38312909730E+02  0.82237759244E+02  0.10846801345E+03  0.14140805507E+03  0.00000000000E+00 0. -1.
</event>
<event>
 8    1  0.3710605E-009  0.1071939E+03  0.7561462E-02  0.1265856E+00
         -2   -1    0    0    0  501 -0.00000000000E+00  0.00000000000E+00  0.28768149999E+02  0.28768149999E+02  0.00000000000E+00 0.  1.
          2   -1    0    0  501    0  0.00000000000E+00 -0.00000000000E+00 -0.80248587869E+03  0.80248587869E+03  0.00000000000E+00 0. -1.
         25    2    1    2    0    0 -0.52242712752E+02 -0.47975743948E+02 -0.62886488762E+03  0.64509658029E+03  0.12509027932E+03 0.  0.
         23    2    1    2    0    0  0.52242712752E+02  0.47975743948E+02 -0.14485284107E+03  0.18615744840E+03  0.92958469140E+02 0.  0.
          5    1    3    3  502    0 -0.49079928732E+02 -0.63911284942E+02 -0.62160030003E+03  0.62681568036E+03  0.41800000000E+01 0. -1.
         -5    1    3    3    0  502 -0.31627840198E+01  0.15935540994E+02 -0.72645875928E+01  0.18280899935E+02  0.41800000000E+01 0. -1.
        -11    1    4    4    0    0  0.47589880908E+02 -0.17927378608E+02 -0.62019357896E+02  0.80203419020E+02  0.00000000000E+00 0.  1.
         11    1    4    4    0    0  0.46528318444E+01  0.65903122556E+02 -0.82833483178E+02  0.10595402938E+03  0.00000000000E+00 0. -1.
</event>
<event>
 8    1  0.3710605E-009  0.2512284E+03  0.7561462E-02  0.1112531E+00
          2   -1    0    0  501    0  0.00000000000E+00  0.00000000000E+00  0.21580596482E+04  0.21580596482E+04  0.00000000000E+00 0. -1.
         -2   -1    0    0    0  501 -0.00000000000E+00 -0.00000000000E+00 -0.31370017830E+02  0.31370017830E+02  0.00000000000E+00 0.  1.
         25    2    1    2    0    0  0.35548803589E+02  0.23257979371E+03  0.11691025609E+04  0.11990868536E+04  0.12510558229E+03 0.  0.
         23    2    1    2    0    0 -0.35548803589E+02 -0.23257979371E+03  0.95758706945E+03  0.99034281240E+03  0.91917422780E+02 0.  0.
          5    1    3    3  502    0  0.73176159154E+02  0.20991072398E+03  0.97895280127E+03  0.10038841177E+04  0.41800000000E+01 0.  1.
         -5    1    3    3    0  502 -0.37627355566E+02  0.22669069735E+02  0.19014975964E+03  0.19520273589E+03  0.41800000000E+01 0.  1.
        -11    1    4    4    0    0 -0.15891030012E+02 -0.16029093068E+03  0.79736783656E+03  0.81347475319E+03  0.00000000000E+00 0.  1.
         11    1    4    4    0    0 -0.19657773577E+02 -0.72288863039E+02  0.16021923289E+03  0.17686805921E+03  0.00000000000E+00 0. -1.
</event>
<event>
 8    1  0.3710605E-009  0.1248155E+03  0.7561462E-02  0.1235358E+00
          1   -1    0    0  501    0  0.00000000000E+00  0.00000000000E+00  0.65407533238E+03  0.65407533238E+03  0.00000000000E+00 0. -1.
         -1   -1    0    0    0  501 -0.00000000000E+00 -0.00000000000E+00 -0.96933283400E+02  0.96933283400E+02  0.00000000000E+00 0.  1.
         25    2    1    2    0    0 -0.89146005220E+02  0.69604987024E+01 -0.24150896141E+02  0.15565184188E+03  0.12509504909E+03 0.  0.
         23    2    1    2    0    0  0.89146005220E+02 -0.69604987024E+01  0.58129294512E+03  0.59535677391E+03  0.92481032642E+02 0.  0.
          5    1    3    3  502    0 -0.94560033666E+02 -0.17192225808E+02  0.25927846740E+02  0.99633820723E+02  0.41800000000E+01 0.  1.
         -5    1    3    3    0  502  0.54140284462E+01  0.24152724511E+02 -0.50078742881E+02  0.56018021152E+02  0.41800000000E+01 0.  1.
        -11    1    4    4    0    0  0.89793361705E+02  0.27461846837E+02  0.44307377132E+03  0.45291430499E+03  0.00000000000E+00 0.  1.
         11    1    4    4    0    0 -0.64735648484E+00 -0.34422345539E+02  0.13821917380E+03  0.14244246891E+03  0.00000000000E+00 0. -1.
</event>
<event>
 8    1  0.3710605E-009  0.1163076E+03  0.7561462E-02  0.1249316E+00
          3   -1    0    0  501    0  0.00000000000E+00  0.00000000000E+00  0.33442108020E+02  0.33442108020E+02  0.00000000000E+00 0. -1.
         -3   -1    0    0    0  501 -0.00000000000E+00 -0.00000000000E+00 -0.65403448002E+03  0.65403448002E+03  0.00000000000E+00 0.  1.
         25    2    1    2    0    0 -0.36444378205E+02 -0.87875669084E+02 -0.25589323839E+03  0.30030086110E+03  0.12509569058E+03 0.  0.
         23    2    1    2    0    0  0.36444378205E+02  0.87875669084E+02 -0.36469913360E+03  0.38717572693E+03  0.88596047076E+02 0.  0.
          5    1    3    3  502    0  0.20942228211E+02  0.64926882041E+01 -0.13364374711E+03  0.13549485401E+03  0.41800000000E+01 0.  1.
         -5    1    3    3    0  502 -0.57386606416E+02 -0.94368357288E+02 -0.12224949129E+03  0.16480600709E+03  0.41800000000E+01 0.  1.
        -11    1    4    4    0    0  0.40741658798E+02  0.66681812428E+02 -0.35495826257E+03  0.36345799625E+03  0.00000000000E+00 0.  1.
         11    1    4    4    0    0 -0.42972805930E+01  0.21193856656E+02 -0.97408710323E+01  0.23717730686E+02  0.00000000000E+00 0. -1.
</event>
<event>
 8    1  0.3710605E-009  0.1636082E+03  0.7561462E-02  0.1184682E+00
          4   -1    0    0  501    0  0.00000000000E+00  0.00000000000E+00  0.80702186030E+02  0.80702186030E+02  0.00000000000E+00 0. -1.
         -4   -1    0    0    0  501 -0.00000000000E+00 -0.00000000000E+00 -0.51816191893E+03  0.51816191893E+03  0.00000000000E+00 0.  1.
         25    2    1    2    0    0 -0.15308462030E+03 -0.11983526797E+02 -0.11180181837E+03  0.22743129591E+03  0.12508733703E+03 0.  0.
         23    2    1    2    0    0  0.15308462030E+03  0.11983526797E+02 -0.32565791453E+03  0.37143280904E+03  0.91272933844E+02 0.  0.
          5    1    3    3  502    0 -0.79636571448E+02 -0.15763351099E+02  0.13185144092E+02  0.82351606995E+02  0.41800000000E+01 0.  1.
         -5    1    3    3    0  502 -0.73448048850E+02  0.37798243024E+01 -0.12498696246E+03  0.14507968892E+03  0.41800000000E+01 0.  1.
        -11    1    4    4    0    0  0.79199370428E+02 -0.32958115306E+02 -0.11307031459E+03  0.14192841041E+03  0.00000000000E+00 0. -1.
         11    1    4    4    0    0  0.73885249870E+02  0.44941642103E+02 -0.21258759994E+03  0.22950439863E+03  0.00000000000E+00 0.  1.
</event>
<event>
 8    1  0.3710605E-009  0.1038016E+03  0.7561462E-02  0.1272499E+00
          1   -1    0    0  501    0  0.00000000000E+00  0.00000000000E+00  0.65433507767E+03  0.65433507767E+03  0.00000000000E+00 0. -1.
         -1   -1    0    0    0  501 -0.00000000000E+00 -0.00000000000E+00 -0.22728723924E+02  0.22728723924E+02  0.00000000000E+00 0.  1.
         25    2    1    2    0    0  0.10681198106E+02  0.17987021438E+02  0.49569554731E+03  0.51166017110E+03  0.12507771235E+03 0.  0.
         23    2    1    2    0    0 -0.10681198106E+02 -0.17987021438E+02  0.13591080644E+03  0.16540363050E+03  0.91918402640E+02 0.  0.
          5    1    3    3  502    0 -0.31520673414E+02 -0.41850067204E+02  0.17726710350E+03  0.18489477916E+03  0.41800000000E+01 0.  1.
         -5    1    3    3    0  502  0.42201871521E+02  0.59837088642E+02  0.31842844381E+03  0.32676539194E+03  0.41800000000E+01 0.  1.
        -11    1    4    4    0    0  0.25015653455E+02 -0.34301665200E+02  0.11118869273E+03  0.11901811855E+03  0.00000000000E+00 0. -1.
         11    1    4    4    0    0 -0.35696851562E+02  0.16314643763E+02  0.24722113706E+02  0.46385511947E+02  0.00000000000E+00 0.  1.
</event>
<event>
 8    1  0.3710605E-009  0.1437583E+03  0.7561462E-02  0.1208360E+00
         -2   -1    0    0    0  501 -0.00000000000E+00  0.00000000000E+00  0.74795115261E+02  0.74795115261E+02  0.00000000000E+00 0.  1.
          2   -1    0    0  501    0  0.00000000000E+00 -0.00000000000E+00 -0.44512254182E+03  0.44512254182E+03  0.00000000000E+00 0. -1.
         25    2    1    2    0    0 -0.13051256705E+03 -0.55512419410E+01 -0.97169448312E+02  0.20531373167E+03  0.12508988880E+03 0.  0.
         23    2    1    2    0    0  0.13051256705E+03  0.55512419410E+01 -0.27315797825E+03  0.31460392542E+03  0.85416639846E+02 0.  0.
          5    1    3    3  502    0 -0.13618364875E+03  0.12737263996E+02 -0.11505336186E+03  0.17878191339E+03  0.41800000000E+01 0. -1.
         -5    1    3    3    0  502  0.56710816965E+01 -0.18288505937E+02  0.17883913551E+02  0.26531818274E+02  0.41800000000E+01 0. -1.
        -11    1    4    4    0    0  0.89934685514E+02  0.88237174688E+01 -0.25402999295E+03  0.26962444801E+03  0.00000000000E+00 0. -1.
         11    1    4    4    0    0  0.40577881536E+02 -0.32724755278E+01 -0.19127985299E+02  0.44979477405E+02  0.00000000000E+00 0.  1.
</event>
<event>
 8    1  0.3710605E-009  0.1552854E+03  0.7561462E-02  0.1194125E+00
         -2   -1    0    0    0  501 -0.00000000000E+00  0.00000000000E+00  0.40709588082E+02  0.40709588082E+02  0.00000000000E+00 0. -1.
          2   -1    0    0  501    0  0.00000000000E+00 -0.00000000000E+00 -0.86986334373E+03  0.86986334373E+03  0.00000000000E+00 0.  1.
         25    2    1    2    0    0  0.11797785711E+03 -0.53413390048E+02 -0.63460859625E+03  0.65965665699E+03  0.12508824754E+03 0.  0.
         23    2    1    2    0    0 -0.11797785711E+03  0.53413390048E+02 -0.19454515940E+03  0.25091627482E+03  0.91320276612E+02 0.  0.
          5    1    3    3  502    0  0.63411463980E+02  0.15443308928E+02 -0.11197974145E+03  0.12967823430E+03  0.41800000000E+01 0.  1.
         -5    1    3    3    0  502  0.54566393131E+02 -0.68856698975E+02 -0.52262885479E+03  0.52997842269E+03  0.41800000000E+01 0.  1.
        -11    1    4    4    0    0 -0.40673645674E+01  0.42600020997E+02 -0.67671299374E+02  0.80066909534E+02  0.00000000000E+00 0.  1.
         11    1    4    4    0    0 -0.11391049254E+03  0.10813369050E+02 -0.12687386002E+03  0.17084936529E+03  0.00000000000E+00 0. -1.
</event>
<event>
 8    1  0.3710605E-009  0.1057957E+03  0.7561462E-02  0.1268560E+00
         -3   -1    0    0    0  501 -0.00000000000E+00  0.00000000000E+00  0.32612561141E+02  0.32612561141E+02  0.00000000000E+00 0.  1.
          3   -1    0    0  501    0  0.00000000000E+00 -0.00000000000E+00 -0.45354349962E+03  0.45354349962E+03  0.00000000000E+00 0. -1.
         25    2    1    2    0    0 -0.34744721456E+02 -0.29642879988E+02 -0.29348468874E+03  0.32228264068E+03  0.12508773704E+03 0.  0.
         23    2    1    2    0    0  0.34744721456E+02  0.29642879988E+02 -0.12744624974E+03  0.16387342008E+03  0.92336640786E+02 0.  0.
          5    1    3    3  502    0 -0.13987211576E+02  0.36551805010E+02 -0.29187572836E+02  0.49000646376E+02  0.41800000000E+01 0. -1.
         -5    1    3    3    0  502 -0.20757509880E+02 -0.66194684998E+02 -0.26429711590E+03  0.27328199431E+03  0.41800000000E+01 0. -1.
        -11    1    4    4    0    0  0.51300972226E+02  0.53222530723E+02 -0.86114901692E+02  0.11349098564E+03  0.00000000000E+00 0.  1.
         11    1    4    4    0    0 -0.16556250770E+02 -0.23579650735E+02 -0.41331348047E+02  0.50382434436E+02  0.00000000000E+00 0. -1.
</event>
<event>
 8    1  0.3710605E-009  0.7071002E+02  0.7561462E-02  0.1357695E+00
         -2   -1    0    0    0  501 -0.00000000000E+00  0.00000000000E+00  0.12076087482E+03  0.12076087482E+03  0.00000000000E+00 0.  1.
          2   -1    0    0  501    0  0.00000000000E+00 -0.00000000000E+00 -0.13192923717E+03  0.13192923717E+03  0.00000000000E+00 0. -1.
         25    2    1    2    0    0 -0.21167069560E+02  0.40971588133E+02 -0.51364616024E+02  0.14285761692E+03  0.12507301493E+03 0.  0.
         23    2    1    2    0    0  0.21167069560E+02 -0.40971588133E+02  0.40196253680E+02  0.10983249507E+03  0.91217993267E+02 0.  0.
          5    1    3    3  502    0 -0.14960675242E+02  0.48340471312E+02  0.31221777042E+02  0.59606163541E+02  0.41800000000E+01 0.  1.
         -5    1    3    3    0  502 -0.62063943183E+01 -0.73688831784E+01 -0.82586393066E+02  0.83251453377E+02  0.41800000000E+01 0.  1.
        -11    1    4    4    0    0 -0.88001933039E+01  0.14576574703E+02 -0.17430089205E+02  0.24366533236E+02  0.00000000000E+00 0. -1.
         11    1    4    4    0    0  0.29967262864E+02 -0.55548162836E+02  0.57626342885E+02  0.85465961835E+02  0.00000000000E+00 0.  1.
</event>
<event>
 8    1  0.3710605E-009  0.1426566E+03  0.7561462E-02  0.1209798E+00
          1   -1    0    0  501    0  0.00000000000E+00  0.00000000000E+00  0.30400561109E+04  0.30400561109E+04  0.00000000000E+00 0. -1.
         -1   -1    0    0    0  501 -0.00000000000E+00 -0.00000000000E+00 -0.12190129839E+02  0.12190129839E+02  0.00000000000E+00 0.  1.
         25    2    1    2    0    0  0.31576682432E+02  0.97533361065E+02  0.25441262694E+04  0.25492616189E+04  0.12508590612E+03 0.  0.
         23    2    1    2    0    0 -0.31576682432E+02 -0.97533361065E+02  0.48373971164E+03  0.50298462174E+03  0.92084622515E+02 0.  0.
          5    1    3    3  502    0  0.97509977971E+01 -0.23268208998E+02  0.97499171036E+03  0.97532702166E+03  0.41800000000E+01 0.  1.
         -5    1    3    3    0  502  0.21825684635E+02  0.12080157006E+03  0.15691345590E+04  0.15739345973E+04  0.41800000000E+01 0.  1.
        -11    1    4    4    0    0  0.28010001268E+02 -0.60723607401E+02  0.20781411180E+03  0.21830854709E+03  0.00000000000E+00 0. -1.
         11    1    4    4    0    0 -0.59586683700E+02 -0.36809753664E+02  0.27592559983E+03  0.28467607466E+03  0.00000000000E+00 0.  1.
</event>
<event>
 8    1  0.3710605E-009  0.1434454E+03  0.7561462E-02  0.1208767E+00
         -2   -1    0    0    0  501 -0.00000000000E+00  0.00000000000E+00  0.30479269775E+03  0.30479269775E+03  0.00000000000E+00 0.  1.
          2   -1    0    0  501    0  0.00000000000E+00 -0.00000000000E+00 -0.78040597220E+02  0.78040597220E+02  0.00000000000E+00 0. -1.
         25    2    1    2    0    0  0.46139496195E+02  0.94316933954E+02  0.84395175425E+02  0.18383261641E+03  0.12508936038E+03 0.  0.
         23    2    1    2    0    0 -0.46139496195E+02 -0.94316933954E+02  0.14235692511E+03  0.19900067856E+03  0.91165995874E+02 0.  0.
          5    1    3    3  502    0 -0.11076283938E+02  0.98387275287E+02  0.27291804549E+02  0.10278645339E+03  0.41800000000E+01 0. -1.
         -5    1    3    3    0  502  0.57215780133E+02 -0.40703413334E+01  0.57103370875E+02  0.81046163019E+02  0.41800000000E+01 0. -1.
        -11    1    4    4    0    0  0.19972385086E+02 -0.40034021586E+02  0.18360734683E+02  0.48360475892E+02  0.00000000000E+00 0. -1.
         11    1    4    4    0    0 -0.66111881281E+02 -0.54282912368E+02  0.12399619042E+03  0.15064020267E+03  0.00000000000E+00 0.  1.
</event>
<event>
 8    1  0.3710605E-009  0.9616028E+02  0.7561462E-02  0.1288584E+00
         -3   -1    0    0    0  501 -0.00000000000E+00  0.00000000000E+00  0.11373180559E+03  0.11373180559E+03  0.00000000000E+00 0.  1.
          3   -1    0    0  501    0  0.00000000000E+00 -0.00000000000E+00 -0.11267631519E+03  0.11267631519E+03  0.00000000000E+00 0. -1.
         25    2    1    2    0    0  0.11213609199E+02  0.23942932590E+02 -0.18089050902E+02  0.12911492320E+03  0.12507773814E+03 0.  0.
         23    2    1    2    0    0 -0.11213609199E+02 -0.23942932590E+02  0.19144541304E+02  0.97293197578E+02  0.91653934891E+02 0.  0.
          5    1    3    3  502    0 -0.51543527024E+02  0.15099761673E+02  0.17077945447E+02  0.56514304396E+02  0.41800000000E+01 0. -1.
         -5    1    3    3    0  502  0.62757136222E+02  0.88431709166E+01 -0.35166996349E+02  0.72600618805E+02  0.41800000000E+01 0. -1.
        -11    1    4    4    0    0 -0.38623007556E+02 -0.12766184348E+00  0.39848722779E+02  0.55494808021E+02  0.00000000000E+00 0.  1.
         11    1    4    4    0    0  0.27409398357E+02 -0.23815270747E+02 -0.20704181475E+02  0.41798389557E+02  0.00000000000E+00 0. -1.
</event>
<event>
 8    1  0.3710605E-009  0.1153116E+03  0.7561462E-02  0.1251038E+00
          2   -1    0    0  501    0  0.00000000000E+00  0.00000000000E+00  0.12189641929E+04  0.12189641929E+04  0.00000000000E+00 0. -1.
         -2   -1    0    0    0  501 -0.00000000000E+00 -0.00000000000E+00 -0.13625634074E+02  0.13625634074E+02  0.00000000000E+00 0.  1.
         25    2    1    2    0    0 -0.64242362389E+02 -0.55977781940E+01  0.81365018183E+03  0.82573137952E+03  0.12508907417E+03 0.  0.
         23    2    1    2    0    0  0.64242362389E+02  0.55977781940E+01  0.39168837696E+03  0.40685844743E+03  0.89194144143E+02 0.  0.
          5    1    3    3  502    0 -0.62272188780E+02 -0.54809282775E+02  0.63354407336E+03  0.63896592105E+03  0.41800000000E+01 0.  1.
         -5    1    3    3    0  502 -0.19701736094E+01  0.49211504581E+02  0.18010610848E+03  0.18676545847E+03  0.41800000000E+01 0.  1.
        -11    1    4    4    0    0  0.55798156513E+02  0.36116933959E+02  0.33844722543E+03  0.34491215054E+03  0.00000000000E+00 0. -1.
         11    1    4    4    0    0  0.84442058765E+01 -0.30519155765E+02  0.53241151528E+02  0.61946296884E+02  0.00000000000E+00 0.  1.
</event>
<event>
 8    1  0.3710605E-009  0.9346097E+02  0.7561462E-02  0.1294680E+00
          1   -1    0    0  501    0  0.00000000000E+00  0.00000000000E+00  0.84458685039E+03  0.84458685039E+03  0.00000000000E+00 0. -1.
         -1   -1    0    0    0  501 -0.00000000000E+00 -0.00000000000E+00 -0.37087287420E+02  0.37087287420E+02  0.00000000000E+00 0.  1.
         25    2    1    2    0    0 -0.91261007307E+02 -0.99206413425E+00  0.69198936936E+03  0.70910315943E+03  0.12509375586E+03 0.  0.
         23    2    1    2    0    0  0.91261007307E+02  0.99206413425E+00  0.11551019361E+03  0.17257097838E+03  0.90047665750E+02 0.  0.
          5    1    3    3  502    0 -0.70294025280E+02  0.69344724507E-01  0.68174502950E+03  0.68537217076E+03  0.41800000000E+01 0. -1.
         -5    1    3    3    0  502 -0.20966982026E+02 -0.10614088588E+01  0.10244339860E+02  0.23730988669E+02  0.41800000000E+01 0. -1.
        -11    1    4    4    0    0  0.27688600409E+02  0.12689997872E+02 -0.94430524883E+01  0.31888334527E+02  0.00000000000E+00 0.  1.
         11    1    4    4    0    0  0.63572406898E+02 -0.11697933737E+02  0.12495324610E+03  0.14068264386E+03  0.00000000000E+00 0. -1.
</event>
<event>
 8    1  0.3710605E-009  0.1188429E+03  0.7561462E-02  0.1245018E+00
          2   -1    0    0  501    0  0.00000000000E+00  0.00000000000E+00  0.68440348018E+03  0.68440348018E+03  0.00000000000E+00 0. -1.
         -2   -1    0    0    0  501 -0.00000000000E+00 -0.00000000000E+00 -0.26433122927E+02  0.26433122927E+02  0.00000000000E+00 0.  1.
         25    2    1    2    0    0 -0.35964370514E+02  0.64710805914E+02  0.42704736837E+03  0.45110789268E+03  0.12509177293E+03 0.  0.
         23    2    1    2    0    0  0.35964370514E+02 -0.64710805914E+02  0.23092298888E+03  0.25972871042E+03  0.93019631681E+02 0.  0.
          5    1    3    3  502    0  0.10143947340E+02  0.90725368551E+02  0.24570785360E+03  0.26215227233E+03  0.41800000000E+01 0.  1.
         -5    1    3    3    0  502 -0.46108317854E+02 -0.26014562636E+02  0.18133951477E+03  0.18895562035E+03  0.41800000000E+01 0.  1.
        -11    1    4    4    0    0  0.20529452308E+02  0.55429123746E+01  0.39466475523E+01  0.21627721021E+02  0.00000000000E+00 0.  1.
         11    1    4    4    0    0  0.15434918205E+02 -0.70253718289E+02  0.22697634132E+03  0.23810098940E+03  0.00000000000E+00 0. -1.
</event>
<event>
 8    1  0.3710605E-009  0.1476530E+03  0.7561462E-02  0.1203387E+00
         -1   -1    0    0    0  501 -0.00000000000E+00  0.00000000000E+00  0.42902850637E+03  0.42902850637E+03  0.00000000000E+00 0.  1.
          1   -1    0    0  501    0  0.00000000000E+00 -0.00000000000E+00 -0.10111551353E+03  0.10111551353E+03  0.00000000000E+00 0. -1.
         25    2    1    2    0    0  0.12688491432E+03  0.50569549363E+01  0.13711279288E+02  0.17877346286E+03  0.12508636044E+03 0.  0.
         23    2    1    2    0    0 -0.12688491432E+03 -0.50569549363E+01  0.31420171355E+03  0.35137055703E+03  0.92807312623E+02 0.  0.
          5    1    3    3  502    0 -0.24291894130E+01  0.13702921578E+02  0.43382956935E+02  0.45751769074E+02  0.41800000000E+01 0. -1.
         -5    1    3    3    0  502  0.12931410373E+03 -0.86459666420E+01 -0.29671677647E+02  0.13302169378E+03  0.41800000000E+01 0. -1.
        -11    1    4    4    0    0  0.72072878461E+00 -0.22324647126E+02  0.19067062020E+02  0.29367706301E+02  0.00000000000E+00 0.  1.
         11    1    4    4    0    0 -0.12760564310E+03  0.17267692190E+02  0.29513465153E+03  0.32200285073E+03  0.00000000000E+00 0. -1.
</event>
<event>
 8    1  0.3710605E-009  0.8349538E+02  0.7561462E-02  0.1319415E+00
          2   -1    0    0  501    0  0.00000000000E+00  0.00000000000E+00  0.17656723964E+03  0.17656723964E+03  0.00000000000E+00 0. -1.
         -2   -1    0    0    0  501 -0.00000000000E+00 -0.00000000000E+00 -0.64010905385E+02  0.64010905385E+02  0.00000000000E+00 0.  1.
         25    2    1    2    0    0  0.72888769628E+01  0.65578455987E+01  0.73279543986E+02  0.14530395195E+03  0.12508882372E+03 0.  0.
         23    2    1    2    0    0 -0.72888769628E+01 -0.65578455987E+01  0.39276790273E+02  0.95274193081E+02  0.86246000178E+02 0.  0.
          5    1    3    3  502    0  0.68349011054E+00  0.65532754833E+02  0.43556174755E+02  0.78801154015E+02  0.41800000000E+01 0. -1.
         -5    1    3    3    0  502  0.66053868522E+01 -0.58974909235E+02  0.29723369231E+02  0.66502797935E+02  0.41800000000E+01 0. -1.
        -11    1    4    4    0    0 -0.22568613512E+02 -0.12061963150E+02 -0.20840095243E+02  0.33002164181E+02  0.00000000000E+00 0.  1.
         11    1    4    4    0    0  0.15279736549E+02  0.55041175517E+01  0.60116885516E+02  0.62272028899E+02  0.00000000000E+00 0. -1.
</event>
<event>
 8    1  0.3710605E-009  0.1255823E+03  0.7561462E-02  0.1234162E+00
         -1   -1    0    0    0  501 -0.00000000000E+00  0.00000000000E+00  0.38306400739E+02  0.38306400739E+02  0.00000000000E+00 0.  1.
          1   -1    0    0  501    0  0.00000000000E+00 -0.00000000000E+00 -0.46936998151E+03  0.46936998151E+03  0.00000000000E+00 0. -1.
         25    2    1    2    0    0 -0.59755438601E+02 -0.34375445590E+02 -0.16620641631E+03  0.21914874912E+03  0.12509683336E+03 0.  0.
         23    2    1    2    0    0  0.59755438601E+02  0.34375445590E+02 -0.26485716446E+03  0.28852763313E+03  0.91359147384E+02 0.  0.
          5    1    3    3  502    0 -0.16317076532E+02  0.46510673414E+02 -0.43740893813E+02  0.66032021925E+02  0.41800000000E+01 0. -1.
         -5    1    3    3    0  502 -0.43438362069E+02 -0.80886119004E+02 -0.12246552250E+03  0.15311672720E+03  0.41800000000E+01 0. -1.
        -11    1    4    4    0    0  0.41000418301E+01 -0.26785469738E+02 -0.35103985187E+02  0.44345930006E+02  0.00000000000E+00 0.  1.
         11    1    4    4    0    0  0.55655396771E+02  0.61160915328E+02 -0.22975317927E+03  0.24418170312E+03  0.00000000000E+00 0. -1.
</event>
<event>
 8    1  0.3710605E-009  0.1235542E+03  0.7561462E-02  0.1237346E+00
          2   -1    0    0  501    0  0.00000000000E+00  0.00000000000E+00  0.44364411110E+03  0.44364411110E+03  0.00000000000E+00 0. -1.
         -2   -1    0    0    0  501 -0.00000000000E+00 -0.00000000000E+00 -0.50763411705E+02  0.50763411705E+02  0.00000000000E+00 0.  1.
         25    2    1    2    0    0 -0.10305749491E+03  0.14214085697E+02  0.21141975690E+03  0.26677710669E+03  0.12509525793E+03 0.  0.
         23    2    1    2    0    0  0.10305749491E+03 -0.14214085697E+02  0.18146094249E+03  0.22763041611E+03  0.89803369642E+02 0.  0.
          5    1    3    3  502    0  0.14681749645E+02  0.48018829983E+01 -0.77428707618E+01  0.17777409839E+02  0.41800000000E+01 0.  1.
         -5    1    3    3    0  502 -0.11773924456E+03  0.94122026984E+01  0.21916262766E+03  0.24899969685E+03  0.41800000000E+01 0.  1.
        -11    1    4    4    0    0  0.73463548088E+02 -0.30027154778E+02  0.54410299684E+02  0.96223716585E+02  0.00000000000E+00 0.  1.
         11    1    4    4    0    0  0.29593946824E+02  0.15813069082E+02  0.12705064281E+03  0.13140669953E+03  0.00000000000E+00 0. -1.
</event>
<event>
 8    1  0.3710605E-009  0.7867442E+02  0.7561462E-02  0.1332856E+00
         -2   -1    0    0    0  501 -0.00000000000E+00  0.00000000000E+00  0.79044785073E+01  0.79044785073E+01  0.00000000000E+00 0.  1.
          2   -1    0    0  501    0  0.00000000000E+00 -0.00000000000E+00 -0.16733918937E+04  0.16733918937E+04  0.00000000000E+00 0. -1.
         25    2    1    2    0    0  0.20336436340E+02  0.60304942608E+01 -0.11667394634E+04  0.11736173995E+04  0.12508751927E+03 0.  0.
         23    2    1    2    0    0 -0.20336436340E+02 -0.60304942608E+01 -0.49874795182E+03  0.50767897272E+03  0.92403908985E+02 0.  0.
          5    1    3    3  502    0 -0.20163525799E+02  0.90871257492E+01 -0.38188319153E+02  0.44327911599E+02  0.41800000000E+01 0.  1.
         -5    1    3    3    0  502  0.40499962139E+02 -0.30566314884E+01 -0.11285511442E+04  0.11292894879E+04  0.41800000000E+01 0.  1.
        -11    1    4    4    0    0 -0.20628986526E+02 -0.47893337520E+02 -0.30883097921E+03  0.31320265098E+03  0.00000000000E+00 0.  1.
         11    1    4    4    0    0  0.29255018641E+00  0.41862843259E+02 -0.18991697261E+03  0.19447632174E+03  0.00000000000E+00 0. -1.
</event>
<event>
 8    1  0.3710605E-009  0.9047364E+02  0.7561462E-02  0.1301709E+00
          1   -1    0    0  501    0  0.00000000000E+00  0.00000000000E+00  0.43987583218E+02  0.43987583218E+02  0.00000000000E+00 0. -1.
         -1   -1    0    0    0  501 -0.00000000000E+00 -0.00000000000E+00 -0.32355868551E+03  0.32355868551E+03  0.00000000000E+00 0.  1.
         25    2    1    2    0    0  0.54452916266E+01  0.18842533606E+02 -0.86509710616E+02  0.15335029737E+03  0.12509073267E+03 0.  0.
         23    2    1    2    0    0 -0.54452916266E+01 -0.18842533606E+02 -0.19306139168E+03  0.21419597136E+03  0.90678117074E+02 0.  0.
          5    1    3    3  502    0 -0.64794450720E+01  0.71038348055E+02 -0.37754227236E+02  0.80816360825E+02  0.41800000000E+01 0. -1.
         -5    1    3    3    0  502  0.11924736699E+02 -0.52195814449E+02 -0.48755483380E+02  0.72533936546E+02  0.41800000000E+01 0. -1.
        -11    1    4    4    0    0 -0.54460610923E+01 -0.37116607997E+02 -0.19227985391E+03  0.19590519235E+03  0.00000000000E+00 0.  1.
         11    1    4    4    0    0  0.76946569576E-03  0.18274074391E+02 -0.78153776877E+00  0.18290779008E+02  0.00000000000E+00 0. -1.
</event>
<event>
 8    1  0.3710605E-009  0.1278759E+03  0.7561462E-02  0.1230642E+00
         -2   -1    0    0    0  501 -0.00000000000E+00  0.00000000000E+00  0.31162716636E+02  0.31162716636E+02  0.00000000000E+00 0.  1.
          2   -1    0    0  501    0  0.00000000000E+00 -0.00000000000E+00 -0.56086719146E+03  0.56086719146E+03  0.00000000000E+00 0. -1.
         25    2    1    2    0    0  0.43459813093E+02 -0.60192710714E+02 -0.32869870498E+03  0.35945077009E+03  0.12510035845E+03 0.  0.
         23    2    1    2    0    0 -0.43459813093E+02  0.60192710714E+02 -0.20100576985E+03  0.23257913801E+03  0.90431289653E+02 0.  0.
          5    1    3    3  502    0 -0.16213646656E+02 -0.75236756173E+02 -0.12728037608E+03  0.14879925522E+03  0.41800000000E+01 0.  1.
         -5    1    3    3    0  502  0.59673459749E+02  0.15044045459E+02 -0.20141832889E+03  0.21065151487E+03  0.41800000000E+01 0.  1.
        -11    1    4    4    0    0 -0.10419912258E+01  0.72747747339E+02 -0.12654830369E+03  0.14597189338E+03  0.00000000000E+00 0.  1.
         11    1    4    4    0    0 -0.42417821867E+02 -0.12555036625E+02 -0.74457466157E+02  0.86607244634E+02  0.00000000000E+00 0. -1.
</event>
<event>
 8    1  0.3710605E-009  0.1135007E+03  0.7561462E-02  0.1254221E+00
         -1   -1    0    0    0  501 -0.00000000000E+00  0.00000000000E+00  0.42680401634E+03  0.42680401634E+03  0.00000000000E+00 0.  1.
          1   -1    0    0  501    0  0.00000000000E+00 -0.00000000000E+00 -0.30655990194E+02  0.30655990194E+02  0.00000000000E+00 0. -1.
         25    2    1    2    0    0  0.55023203591E+01  0.24597561757E+01  0.24300803145E+03  0.27338073885E+03  0.12509116314E+03 0.  0.
         23    2    1    2    0    0 -0.55023203591E+01 -0.24597561757E+01  0.15313999470E+03  0.18407926769E+03  0.10196564561E+03 0.  0.
          5    1    3    3  502    0 -0.59120565092E+02 -0.70803503590E+01  0.12108322692E+03  0.13499626965E+03  0.41800000000E+01 0. -1.
         -5    1    3    3    0  502  0.64622885451E+02  0.95401065347E+01  0.12192480453E+03  0.13838446920E+03  0.41800000000E+01 0. -1.
        -11    1    4    4    0    0 -0.51793171200E+02  0.12363995793E+02  0.86947849411E+02  0.10195748865E+03  0.00000000000E+00 0. -1.
         11    1    4    4    0    0  0.46290850841E+02 -0.14823751969E+02  0.66192145292E+02  0.82121779038E+02  0.00000000000E+00 0.  1.
</event>
<event>
 8    1  0.3710605E-009  0.8217263E+02  0.7561462E-02  0.1322996E+00
          2   -1    0    0  501    0  0.00000000000E+00  0.00000000000E+00  0.29620786208E+03  0.29620786208E+03  0.00000000000E+00 0. -1.
         -2   -1    0    0    0  501 -0.00000000000E+00 -0.00000000000E+00 -0.51431192937E+02  0.51431192937E+02  0.00000000000E+00 0.  1.
         25    2    1    2    0    0  0.36891947906E+02 -0.31003654697E+02  0.14639259234E+03  0.19849885321E+03  0.12509500873E+03 0.  0.
         23    2    1    2    0    0 -0.36891947906E+02  0.31003654697E+02  0.98384076802E+02  0.14914020180E+03  0.10119847232E+03 0.  0.
          5    1    3    3  502    0 -0.39965971989E+01  0.10472029980E+02  0.13914602814E+03  0.13965932030E+03  0.41800000000E+01 0. -1.
         -5    1    3    3    0  502  0.40888545104E+02 -0.41475684677E+02  0.72465642018E+01  0.58839532908E+02  0.41800000000E+01 0. -1.
        -11    1    4    4    0    0 -0.50005517009E+02 -0.99526940220E+01  0.92653234325E+02  0.10575551844E+03  0.00000000000E+00 0. -1.
         11    1    4    4    0    0  0.13113569104E+02  0.40956348719E+02  0.57308424770E+01  0.43384683363E+02  0.00000000000E+00 0.  1.
</event>
<event>
 8    1  0.3710605E-009  0.1196987E+03  0.7561462E-02  0.1243595E+00
         -1   -1    0    0    0  501 -0.00000000000E+00  0.00000000000E+00  0.21678446865E+02  0.21678446865E+02  0.00000000000E+00 0.  1.
          1   -1    0    0  501    0  0.00000000000E+00 -0.00000000000E+00 -0.97581884433E+03  0.97581884433E+03  0.00000000000E+00 0. -1.
         25    2    1    2    0    0  0.82115209682E+02  0.47086316108E+02 -0.57339840522E+03  0.59446909748E+03  0.12509095857E+03 0.  0.
         23    2    1    2    0    0 -0.82115209682E+02 -0.47086316108E+02 -0.38074199224E+03  0.40302819372E+03  0.92234654280E+02 0.  0.
          5    1    3    3  502    0  0.55661406684E+02 -0.87910285624E+01 -0.47387663723E+03  0.47723371014E+03  0.41800000000E+01 0. -1.
         -5    1    3    3    0  502  0.26453802998E+02  0.55877344670E+02 -0.99521767988E+02  0.11723538734E+03  0.41800000000E+01 0. -1.
        -11    1    4    4    0    0  0.93300580983E+01 -0.25238948664E+02 -0.31874196642E+02  0.41713534079E+02  0.00000000000E+00 0.  1.
         11    1    4    4    0    0 -0.91445267781E+02 -0.21847367443E+02 -0.34886779560E+03  0.36131465964E+03  0.00000000000E+00 0. -1.
</event>
<event>
 8    1  0.3710605E-009  0.4309186E+03  0.7561462E-02  0.1033570E+00
         -1   -1    0    0    0  501 -0.00000000000E+00  0.00000000000E+00  0.23127895209E+03  0.23127895209E+03  0.00000000000E+00 0.  1.
          1   -1    0    0  501    0  0.00000000000E+00 -0.00000000000E+00 -0.10150731588E+04  0.10150731588E+04  0.00000000000E+00 0. -1.
         25    2    1    2    0    0  0.81540057374E+02 -0.41119165131E+03 -0.67437726533E+03  0.80384079958E+03  0.12509188628E+03 0.  0.
         23    2    1    2    0    0 -0.81540057374E+02  0.41119165131E+03 -0.10941694140E+03  0.44251131132E+03  0.90093498763E+02 0.  0.
          5    1    3    3  502    0  0.10222837593E+03 -0.40128841200E+03 -0.63650002837E+03  0.75936341035E+03  0.41800000000E+01 0.  1.
         -5    1    3    3    0  502 -0.20688318561E+02 -0.99032393077E+01 -0.37877236959E+02  0.44477389237E+02  0.41800000000E+01 0.  1.
        -11    1    4    4    0    0  0.14030561620E+01  0.15717988483E+03 -0.10346702913E+02  0.15752631216E+03  0.00000000000E+00 0.  1.
         11    1    4    4    0    0 -0.82943113536E+02  0.25401176648E+03 -0.99070238487E+02  0.28498499916E+03  0.00000000000E+00 0. -1.
</event>
<event>
 8    1  0.3710605E-009  0.1129695E+03  0.7561462E-02  0.1255168E+00
          2   -1    0    0  501    0  0.00000000000E+00  0.00000000000E+00  0.53824031584E+03  0.53824031584E+03  0.00000000000E+00 0. -1.
         -2   -1    0    0    0  501 -0.00000000000E+00 -0.00000000000E+00 -0.27192517675E+02  0.27192517675E+02  0.00000000000E+00 0.  1.
         25    2    1    2    0    0  0.40850551328E+02  0.30104877720E+02  0.23403705324E+03  0.27017529726E+03  0.12508508204E+03 0.  0.
         23    2    1    2    0    0 -0.40850551328E+02 -0.30104877720E+02  0.27701074493E+03  0.29525753626E+03  0.88696046756E+02 0.  0.
          5    1    3    3  502    0 -0.41146591005E+02  0.24277186465E+02  0.12252021339E+03  0.13157164901E+03  0.41800000000E+01 0.  1.
         -5    1    3    3    0  502  0.81997142333E+02  0.58276912557E+01  0.11151683986E+03  0.13860364825E+03  0.41800000000E+01 0.  1.
        -11    1    4    4    0    0 -0.41223879792E+02 -0.56131094693E+02  0.24075859023E+03  0.25062882281E+03  0.00000000000E+00 0. -1.
         11    1    4    4    0    0  0.37332846397E+00  0.26026216972E+02  0.36252154700E+02  0.44628713452E+02  0.00000000000E+00 0.  1.
</event>
<event>
 8    1  0.3710605E-009  0.1235433E+03  0.7561462E-02  0.1237364E+00
          2   -1    0    0  501    0  0.00000000000E+00  0.00000000000E+00  0.33031057930E+03  0.33031057930E+03  0.00000000000E+00 0.  1.
         -2   -1    0    0    0  501 -0.00000000000E+00 -0.00000000000E+00 -0.61729562797E+02  0.61729562797E+02  0.00000000000E+00 0. -1.
         25    2    1    2    0    0 -0.80347608695E+01 -0.88501194905E+02  0.18275861836E+03  0.23863228093E+03  0.12509050338E+03 0.  0.
         23    2    1    2    0    0  0.80347608695E+01  0.88501194905E+02  0.85822398141E+02  0.15340786116E+03  0.90947616582E+02 0.  0.
          5    1    3    3  502    0  0.99392212517E+01 -0.11012154157E+03  0.17832479874E+03  0.20986364211E+03  0.41800000000E+01 0.  1.
         -5    1    3    3    0  502 -0.17973982121E+02  0.21620346662E+02  0.44338196216E+01  0.28768638819E+02  0.41800000000E+01 0.  1.
        -11    1    4    4    0    0  0.17993630865E+02  0.94626290856E+02  0.97378505546E+02  0.13696889799E+03  0.00000000000E+00 0.  1.
         11    1    4    4    0    0 -0.99588699959E+01 -0.61250959509E+01 -0.11556107405E+02  0.16438963178E+02  0.00000000000E+00 0. -1.
</event>
<event>
 8    1  0.3710605E-009  0.1298284E+03  0.7561462E-02  0.1227711E+00
         -2   -1    0    0    0  501 -0.00000000000E+00  0.00000000000E+00  0.28781392412E+02  0.28781392412E+02  0.00000000000E+00 0.  1.
          2   -1    0    0  501    0  0.00000000000E+00 -0.00000000000E+00 -0.13474430555E+04  0.13474430555E+04  0.00000000000E+00 0. -1.
         25    2    1    2    0    0  0.92875691396E+02 -0.37337533696E+02 -0.11209254741E+04  0.11323162920E+04  0.12508509558E+03 0.  0.
         23    2    1    2    0    0 -0.92875691396E+02  0.37337533696E+02 -0.19773618895E+03  0.24390815589E+03  0.10184106546E+03 0.  0.
          5    1    3    3  502    0  0.12165994603E+03 -0.43750167984E+02 -0.95758792433E+03  0.96628532271E+03  0.41800000000E+01 0. -1.
         -5    1    3    3    0  502 -0.28784254633E+02  0.64126342875E+01 -0.16333754977E+03  0.16603096927E+03  0.41800000000E+01 0. -1.
        -11    1    4    4    0    0 -0.45970221339E+02  0.13554943893E+02 -0.10018576720E+02  0.48962941429E+02  0.00000000000E+00 0.  1.
         11    1    4    4    0    0 -0.46905470058E+02  0.23782589803E+02 -0.18771761223E+03  0.19494521446E+03  0.00000000000E+00 0. -1.
</event>
<event>
 8    1  0.3710605E-009  0.7131587E+02  0.7561462E-02  0.1355675E+00
         -2   -1    0    0    0  501 -0.00000000000E+00  0.00000000000E+00  0.31537865118E+02  0.31537865118E+02  0.00000000000E+00 0.  1.
          2   -1    0    0  501    0  0.00000000000E+00 -0.00000000000E+00 -0.45997958046E+03  0.45997958046E+03  0.00000000000E+00 0. -1.
         25    2    1    2    0    0 -0.10796270873E+02  0.45669949766E+02 -0.29487798696E+03  0.32373286582E+03  0.12509051701E+03 0.  0.
         23    2    1    2    0    0  0.10796270873E+02 -0.45669949766E+02 -0.13356372839E+03  0.16778457976E+03  0.90056048588E+02 0.  0.
          5    1    3    3  502    0 -0.34076610699E+02  0.18201108959E+02 -0.15215669752E+02  0.41731100753E+02  0.41800000000E+01 0.  1.
         -5    1    3    3    0  502  0.23280339826E+02  0.27468840807E+02 -0.27966231720E+03  0.28200176507E+03  0.41800000000E+01 0.  1.
        -11    1    4    4    0    0  0.30250934071E+02 -0.28968383548E+02 -0.12032862022E+02  0.43578389438E+02  0.00000000000E+00 0.  1.
         11    1    4    4    0    0 -0.19454663198E+02 -0.16701566218E+02 -0.12153086636E+03  0.12420619032E+03  0.00000000000E+00 0. -1.
</event>
<event>
 8    1  0.3710605E-009  0.7219179E+02  0.7561462E-02  0.1352794E+00
         -2   -1    0    0    0  501 -0.00000000000E+00  0.00000000000E+00  0.27722369595E+03  0.27722369595E+03  0.00000000000E+00 0.  1.
          2   -1    0    0  501    0  0.00000000000E+00 -0.00000000000E+00 -0.17396443006E+03  0.17396443006E+03  0.00000000000E+00 0. -1.
         25    2    1    2    0    0 -0.33357982707E+02 -0.37137393015E+02 -0.13476747295E+03  0.19053066756E+03  0.12509085716E+03 0.  0.
         23    2    1    2    0    0  0.33357982707E+02  0.37137393015E+02  0.23802673884E+03  0.26065745845E+03  0.93774416936E+02 0.  0.
          5    1    3    3  502    0 -0.48252951106E+02 -0.41534142295E+02 -0.15326722535E+03  0.16601730944E+03  0.41800000000E+01 0. -1.
         -5    1    3    3    0  502  0.14894968399E+02  0.43967492806E+01  0.18499752394E+02  0.24513358123E+02  0.41800000000E+01 0. -1.
        -11    1    4    4    0    0  0.13800106574E+02  0.42112662307E+02  0.23628137361E+03  0.24040134522E+03  0.00000000000E+00 0.  1.
         11    1    4    4    0    0  0.19557876133E+02 -0.49752692920E+01  0.17453652297E+01  0.20256113229E+02  0.00000000000E+00 0. -1.
</event>
<event>
 8    1  0.3710605E-009  0.2781891E+03  0.7561462E-02  0.1096682E+00
          1   -1    0    0  501    0  0.00000000000E+00  0.00000000000E+00  0.32244315695E+03  0.32244315695E+03  0.00000000000E+00 0. -1.
         -1   -1    0    0    0  501 -0.00000000000E+00 -0.00000000000E+00 -0.34064407320E+03  0.34064407320E+03  0.00000000000E+00 0.  1.
         25    2    1    2    0    0  0.25032262826E+03  0.84057899133E+02  0.15909946214E+03  0.33269737533E+03  0.12509099117E+03 0.  0.
         23    2    1    2    0    0 -0.25032262826E+03 -0.84057899133E+02 -0.17730037840E+03  0.33038985481E+03  0.89414111621E+02 0.  0.
          5    1    3    3  502    0  0.10158930291E+03 -0.28163015517E+02  0.65030171330E+02  0.12393521490E+03  0.41800000000E+01 0. -1.
         -5    1    3    3    0  502  0.14873332536E+03  0.11222091465E+03  0.94069290812E+02  0.20876216044E+03  0.41800000000E+01 0. -1.
        -11    1    4    4    0    0 -0.43271830336E+02 -0.20785434006E+02  0.37645812423E+01  0.48152441676E+02  0.00000000000E+00 0. -1.
         11    1    4    4    0    0 -0.20705079793E+03 -0.63272465127E+02 -0.18106495964E+03  0.28223741314E+03  0.00000000000E+00 0.  1.
</event>
<event>
 8    1  0.3710605E-009  0.7852675E+02  0.7561462E-02  0.1333285E+00
          1   -1    0    0  501    0  0.00000000000E+00  0.00000000000E+00  0.15189134747E+03  0.15189134747E+03  0.00000000000E+00 0. -1.
         -1   -1    0    0    0  501 -0.00000000000E+00 -0.00000000000E+00 -0.10305466424E+03  0.10305466424E+03  0.00000000000E+00 0.  1.
         25    2    1    2    0    0  0.43359254348E+02  0.27175855822E+02 -0.99371768795E+01  0.13551765786E+03  0.12509091106E+03 0.  0.
         23    2    1    2    0    0 -0.43359254348E+02 -0.27175855822E+02  0.58773860106E+02  0.11942835385E+03  0.90499795545E+02 0.  0.
          5    1    3    3  502    0 -0.16577068384E+01 -0.13531238585E+01 -0.61242454376E+02  0.61422223618E+02  0.41800000000E+01 0. -1.
         -5    1    3    3    0  502  0.45016961186E+02  0.28528979680E+02  0.51305277497E+02  0.74095434239E+02  0.41800000000E+01 0. -1.
        -11    1    4    4    0    0 -0.52813867286E+02 -0.50906357588E+02  0.25889972503E+02  0.77788511342E+02  0.00000000000E+00 0.  1.
         11    1    4    4    0    0  0.94546129384E+01  0.23730501767E+02  0.32883887603E+02  0.41639842505E+02  0.00000000000E+00 0. -1.
</event>
<event>
 8    1  0.3710605E-009  0.9046604E+02  0.7561462E-02  0.1301727E+00
         -1   -1    0    0    0  501 -0.00000000000E+00  0.00000000000E+00  0.18377642404E+02  0.18377642404E+02  0.00000000000E+00 0.  1.
          1   -1    0    0  501    0  0.00000000000E+00 -0.00000000000E+00 -0.80069832605E+03  0.80069832605E+03  0.00000000000E+00 0. -1.
         25    2    1    2    0    0 -0.21477699970E+02 -0.45041584204E+02 -0.51040984040E+03  0.52787871241E+03  0.12509074281E+03 0.  0.
         23    2    1    2    0    0  0.21477699970E+02  0.45041584204E+02 -0.27191084324E+03  0.29119725604E+03  0.91489340083E+02 0.  0.
          5    1    3    3  502    0  0.11670289616E+02  0.16897700911E+02 -0.11256882725E+02  0.23789026135E+02  0.41800000000E+01 0.  1.
         -5    1    3    3    0  502 -0.33147989585E+02 -0.61939285115E+02 -0.49915295767E+03  0.50408968628E+03  0.41800000000E+01 0.  1.
        -11    1    4    4    0    0 -0.27978454141E+02  0.17267021685E+02 -0.36829073516E+02  0.49369267667E+02  0.00000000000E+00 0.  1.
         11    1    4    4    0    0  0.49456154110E+02  0.27774562519E+02 -0.23508176973E+03  0.24182798837E+03  0.00000000000E+00 0. -1.
</event>
<event>
 8    1  0.3710605E-009  0.1938712E+03  0.7561462E-02  0.1155015E+00
         -1   -1    0    0    0  501 -0.00000000000E+00  0.00000000000E+00  0.90921797546E+02  0.90921797546E+02  0.00000000000E+00 0.  1.
          1   -1    0    0  501    0  0.00000000000E+00 -0.00000000000E+00 -0.58471453489E+03  0.58471453489E+03  0.00000000000E+00 0. -1.
         25    2    1    2    0    0 -0.75468785978E+02  0.15360276721E+03 -0.96278865825E+02  0.23282356529E+03  0.12509134581E+03 0.  0.
         23    2    1    2    0    0  0.75468785978E+02 -0.15360276721E+03 -0.39751387151E+03  0.44281276714E+03  0.93683087814E+02 0.  0.
          5    1    3    3  502    0  0.14808939659E+02  0.62440316576E+02 -0.81189288215E+02  0.10357253858E+03  0.41800000000E+01 0. -1.
         -5    1    3    3    0  502 -0.90277725637E+02  0.91162450638E+02 -0.15089577610E+02  0.12925102671E+03  0.41800000000E+01 0. -1.
        -11    1    4    4    0    0  0.78420241430E+01 -0.11871040704E+03 -0.23816278947E+03  0.26622391397E+03  0.00000000000E+00 0.  1.
         11    1    4    4    0    0  0.67626761835E+02 -0.34892360179E+02 -0.15935108204E+03  0.17658885317E+03  0.00000000000E+00 0. -1.
</event>
<event>
 8    1  0.3710605E-009  0.1610949E+03  0.7561462E-02  0.1187466E+00
          1   -1    0    0  501    0  0.00000000000E+00  0.00000000000E+00  0.85895066731E+03  0.85895066731E+03  0.00000000000E+00 0. -1.
         -1   -1    0    0    0  501 -0.00000000000E+00 -0.00000000000E+00 -0.55167302241E+02  0.55167302241E+02  0.00000000000E+00 0.  1.
         25    2    1    2    0    0  0.65216139470E+02 -0.12400807366E+03  0.68270505750E+03  0.70807117507E+03  0.12508975282E+03 0.  0.
         23    2    1    2    0    0 -0.65216139470E+02  0.12400807366E+03  0.12107830757E+03  0.20604679447E+03  0.90355839708E+02 0.  0.
          5    1    3    3  502    0  0.81685311414E+02 -0.79329614792E+02  0.61332091682E+03  0.62381543528E+03  0.41800000000E+01 0. -1.
         -5    1    3    3    0  502 -0.16469171944E+02 -0.44678458866E+02  0.69384140680E+02  0.84255739798E+02  0.41800000000E+01 0. -1.
        -11    1    4    4    0    0 -0.11036262758E+02  0.10096986551E+03  0.10252160539E+03  0.14431698587E+03  0.00000000000E+00 0. -1.
         11    1    4    4    0    0 -0.54179876712E+02  0.23038208145E+02  0.18556702179E+02  0.61729808609E+02  0.00000000000E+00 0.  1.
</event>
<event>
 8    1  0.3710605E-009  0.6489904E+02  0.7561462E-02  0.1378352E+00
          2   -1    0    0  501    0  0.00000000000E+00  0.00000000000E+00  0.88861028594E+02  0.88861028594E+02  0.00000000000E+00 0.  1.
         -2   -1    0    0    0  501 -0.00000000000E+00 -0.00000000000E+00 -0.25802844418E+03  0.25802844418E+03  0.00000000000E+00 0. -1.
         25    2    1    2    0    0  0.31861005933E+02 -0.36661707108E+02 -0.20398491318E+03  0.24416418898E+03  0.12508837639E+03 0.  0.
         23    2    1    2    0    0 -0.31861005933E+02  0.36661707108E+02  0.34817497596E+02  0.10272528379E+03  0.83552506395E+02 0.  0.
          5    1    3    3  502    0 -0.26909224074E+00 -0.54431137705E+01  0.17162678921E+02  0.18485936435E+02  0.41800000000E+01 0.  1.
         -5    1    3    3    0  502  0.32130098174E+02 -0.31218593337E+02 -0.22114759210E+03  0.22567825254E+03  0.41800000000E+01 0.  1.
        -11    1    4    4    0    0 -0.99592307618E+01 -0.17153497609E+02  0.39740777004E+02  0.44415741742E+02  0.00000000000E+00 0.  1.
         11    1    4    4    0    0 -0.21901775171E+02  0.53815204716E+02 -0.49232794089E+01  0.58309542053E+02  0.00000000000E+00 0. -1.
</event>
<event>
 8    1  0.3710605E-009  0.8804930E+02  0.7561462E-02  0.1307646E+00
          2   -1    0    0  501    0  0.00000000000E+00  0.00000000000E+00  0.12144303784E+03  0.12144303784E+03  0.00000000000E+00 0. -1.
         -2   -1    0    0    0  501 -0.00000000000E+00 -0.00000000000E+00 -0.13156504990E+03  0.13156504990E+03  0.00000000000E+00 0.  1.
         25    2    1    2    0    0 -0.39558622562E+02  0.54472840193E+02 -0.77992897117E+01  0.14227065991E+03  0.12509171361E+03 0.  0.
         23    2    1    2    0    0  0.39558622562E+02 -0.54472840193E+02 -0.23227223556E+01  0.11073742783E+03  0.87893162111E+02 0.  0.
          5    1    3    3  502    0  0.94321360624E+01  0.54440979478E+02 -0.52123014945E+02  0.76072771241E+02  0.41800000000E+01 0. -1.
         -5    1    3    3    0  502 -0.48990758624E+02  0.31860714868E-01  0.44323725234E+02  0.66197888669E+02  0.41800000000E+01 0. -1.
        -11    1    4    4    0    0  0.18886623404E+02 -0.44956641747E+02 -0.42420384281E+02  0.64631982666E+02  0.00000000000E+00 0.  1.
         11    1    4    4    0    0  0.20671999158E+02 -0.95161984458E+01  0.40097661925E+02  0.46105445165E+02  0.00000000000E+00 0. -1.
</event>
<event>
 8    1  0.3710605E-009  0.1718874E+03  0.7561462E-02  0.1175894E+00
          2   -1    0    0  501    0  0.00000000000E+00  0.00000000000E+00  0.94993894070E+03  0.94993894070E+03  0.00000000000E+00 0. -1.
         -2   -1    0    0    0  501 -0.00000000000E+00 -0.00000000000E+00 -0.33789810130E+02  0.33789810130E+02  0.00000000000E+00 0.  1.
         25    2    1    2    0    0  0.10911057328E+03  0.93164523976E+02  0.50943287358E+03  0.54383228580E+03  0.12508779584E+03 0.  0.
         23    2    1    2    0    0 -0.10911057328E+03 -0.93164523976E+02  0.40671625699E+03  0.43989646503E+03  0.86637408282E+02 0.  0.
          5    1    3    3  502    0  0.50599118685E+02 -0.20553764289E+02  0.23099540895E+03  0.23740067269E+03  0.41800000000E+01 0. -1.
         -5    1    3    3    0  502  0.58511454599E+02  0.11371828826E+03  0.27843746463E+03  0.30643161311E+03  0.41800000000E+01 0. -1.
        -11    1    4    4    0    0 -0.40922569520E+02 -0.82412566129E+02  0.16979944945E+03  0.19312778357E+03  0.00000000000E+00 0.  1.
         11    1    4    4    0    0 -0.68188003764E+02 -0.10751957847E+02  0.23691680754E+03  0.24676868146E+03  0.00000000000E+00 0. -1.
</event>
<event>
 8    1  0.3710605E-009  0.5707921E+02  0.7561462E-02  0.1410514E+00
          1   -1    0    0  501    0  0.00000000000E+00  0.00000000000E+00  0.39422259888E+03  0.39422259888E+03  0.00000000000E+00 0. -1.
         -1   -1    0    0    0  501 -0.00000000000E+00 -0.00000000000E+00 -0.41812583075E+02  0.41812583075E+02  0.00000000000E+00 0.  1.
         25    2    1    2    0    0 -0.15326133003E+02 -0.13610588109E+02  0.28773478462E+03  0.31442216648E+03  0.12509937661E+03 0.  0.
         23    2    1    2    0    0  0.15326133003E+02  0.13610588109E+02  0.64675231185E+02  0.12161301548E+03  0.10092919075E+03 0.  0.
          5    1    3    3  502    0 -0.52652225662E+01 -0.84500292472E+01 -0.11017531148E+02  0.15426728608E+02  0.41800000000E+01 0. -1.
         -5    1    3    3    0  502 -0.10060910437E+02 -0.51605588614E+01  0.29875231577E+03  0.29899543787E+03  0.41800000000E+01 0. -1.
        -11    1    4    4    0    0 -0.31724469582E+02 -0.16184267245E+02 -0.84260303825E+00  0.35624183589E+02  0.00000000000E+00 0.  1.
         11    1    4    4    0    0  0.47050602586E+02  0.29794855354E+02  0.65517834223E+02  0.85988831894E+02  0.00000000000E+00 0. -1.
</event>
<event>
 8    1  0.3710605E-009  0.1136528E+03  0.7561462E-02  0.1253951E+00
         -2   -1    0    0    0  501 -0.00000000000E+00  0.00000000000E+00  0.55543574357E+02  0.55543574357E+02  0.00000000000E+00 0.  1.
          2   -1    0    0  501    0  0.00000000000E+00 -0.00000000000E+00 -0.37607917512E+03  0.37607917512E+03  0.00000000000E+00 0. -1.
         25    2    1    2    0    0  0.80035758681E+02  0.37180066974E+02 -0.23371162941E+03  0.27938548504E+03  0.12508814286E+03 0.  0.
         23    2    1    2    0    0 -0.80035758681E+02 -0.37180066974E+02 -0.86823971350E+02  0.15223726443E+03  0.88598547573E+02 0.  0.
          5    1    3    3  502    0  0.54316947934E+02 -0.98224303498E+01 -0.21572453329E+03  0.22271362247E+03  0.41800000000E+01 0.  1.
         -5    1    3    3    0  502  0.25718810747E+02  0.47002497323E+02 -0.17987096121E+02  0.56671862575E+02  0.41800000000E+01 0.  1.
        -11    1    4    4    0    0 -0.70712842098E+01 -0.44333343695E+02 -0.58270698728E+02  0.73558974665E+02  0.00000000000E+00 0. -1.
         11    1    4    4    0    0 -0.72964474471E+02  0.71532767215E+01 -0.28553272622E+02  0.78678289763E+02  0.00000000000E+00 0.  1.
</event>
<event>
 8    1  0.3710605E-009  0.9141299E+02  0.7561462E-02  0.1299466E+00
          1   -1    0    0  501    0  0.00000000000E+00  0.00000000000E+00  0.62592446599E+02  0.62592446599E+02  0.00000000000E+00 0. -1.
         -1   -1    0    0    0  501 -0.00000000000E+00 -0.00000000000E+00 -0.29751921331E+03  0.29751921331E+03  0.00000000000E+00 0.  1.
         25    2    1    2    0    0 -0.13296126345E+02  0.59785701331E+02 -0.20284945902E+03  0.24606305760E+03  0.12509199908E+03 0.  0.
         23    2    1    2    0    0  0.13296126345E+02 -0.59785701331E+02 -0.32077307697E+02  0.11404860231E+03  0.90702882866E+02 0.  0.
          5    1    3    3  502    0  0.31493452726E+02  0.43253915826E+02 -0.18856548040E+03  0.19605395073E+03  0.41800000000E+01 0. -1.
         -5    1    3    3    0  502 -0.44789579071E+02  0.16531785505E+02 -0.14283978622E+02  0.50009106877E+02  0.41800000000E+01 0. -1.
        -11    1    4    4    0    0 -0.20826482636E+02 -0.21068297938E+02 -0.51083502869E+02  0.59052009469E+02  0.00000000000E+00 0. -1.
         11    1    4    4    0    0  0.34122608981E+02 -0.38717403393E+02  0.19006195171E+02  0.54996592840E+02  0.00000000000E+00 0.  1.
</event>
<event>
 8    1  0.3710605E-009  0.9037599E+02  0.7561462E-02  0.1301944E+00
         -1   -1    0    0    0  501 -0.00000000000E+00  0.00000000000E+00  0.19915620268E+03  0.19915620268E+03  0.00000000000E+00 0.  1.
          1   -1    0    0  501    0  0.00000000000E+00 -0.00000000000E+00 -0.66766840909E+02  0.66766840909E+02  0.00000000000E+00 0. -1.
         25    2    1    2    0    0 -0.76204315544E+01  0.99507415066E+01  0.32310081193E+02  0.12980364301E+03  0.12509179093E+03 0.  0.
         23    2    1    2    0    0  0.76204315544E+01 -0.99507415066E+01  0.10007928058E+03  0.13611940058E+03  0.91408646092E+02 0.  0.
          5    1    3    3  502    0 -0.41096382100E+02  0.41697085206E+02 -0.18021638002E+02  0.61398789668E+02  0.41800000000E+01 0.  1.
         -5    1    3    3    0  502  0.33475950546E+02 -0.31746343699E+02  0.50331719195E+02  0.68404853339E+02  0.41800000000E+01 0.  1.
        -11    1    4    4    0    0 -0.18003105521E+02  0.25976167246E+02  0.82978235949E+02  0.88793359630E+02  0.00000000000E+00 0.  1.
         11    1    4    4    0    0  0.25623537075E+02 -0.35926908753E+02  0.17101044627E+02  0.47326040951E+02  0.00000000000E+00 0. -1.
</event>
<event>
 8    1  0.3710605E-009  0.1018119E+03  0.7561462E-02  0.1276531E+00
         -2   -1    0    0    0  501 -0.00000000000E+00  0.00000000000E+00  0.10642099743E+02  0.10642099743E+02  0.00000000000E+00 0. -1.
          2   -1    0    0  501    0  0.00000000000E+00 -0.00000000000E+00 -0.16840441661E+04  0.16840441661E+04  0.00000000000E+00 0.  1.
         25    2    1    2    0    0 -0.32903139330E+02  0.19608356437E+02 -0.13497137397E+04  0.13560387513E+04  0.12508721637E+03 0.  0.
         23    2    1    2    0    0  0.32903139330E+02 -0.19608356437E+02 -0.32368832672E+03  0.33864751460E+03  0.91874381993E+02 0.  0.
          5    1    3    3  502    0  0.25210260249E+01  0.56325597563E+02 -0.31321482605E+03  0.31827649642E+03  0.41800000000E+01 0.  1.
         -5    1    3    3    0  502 -0.35424165355E+02 -0.36717241126E+02 -0.10364989136E+04  0.10377622549E+04  0.41800000000E+01 0.  1.
        -11    1    4    4    0    0 -0.25653219633E+02 -0.26563277009E+02 -0.17158202546E+03  0.17551093078E+03  0.00000000000E+00 0.  1.
         11    1    4    4    0    0  0.58556358963E+02  0.69549205723E+01 -0.15210630127E+03  0.16313658382E+03  0.00000000000E+00 0. -1.
</event>
<event>
 8    1  0.3710605E-009  0.1062855E+03  0.7561462E-02  0.1267607E+00
         -3   -1    0    0    0  501 -0.00000000000E+00  0.00000000000E+00  0.21624141430E+03  0.21624141430E+03  0.00000000000E+00 0.  1.
          3   -1    0    0  501    0  0.00000000000E+00 -0.00000000000E+00 -0.62829100007E+02  0.62829100007E+02  0.00000000000E+00 0. -1.
         25    2    1    2    0    0 -0.21597870116E+02  0.27475010248E+00  0.12740299609E+03  0.17984866644E+03  0.12508987140E+03 0.  0.
         23    2    1    2    0    0  0.21597870116E+02 -0.27475010248E+00  0.26009318209E+02  0.99221847870E+02  0.93284226855E+02 0.  0.
          5    1    3    3  502    0 -0.18169192105E+02 -0.57463565144E+02  0.32419135069E+02  0.68561312556E+02  0.41800000000E+01 0.  1.
         -5    1    3    3    0  502 -0.34286780111E+01  0.57738315246E+02  0.94983861020E+02  0.11128735388E+03  0.41800000000E+01 0.  1.
        -11    1    4    4    0    0 -0.35502209993E+02  0.82144694650E+01  0.18924037586E+02  0.41060974435E+02  0.00000000000E+00 0.  1.
         11    1    4    4    0    0  0.57100080109E+02 -0.84892195675E+01  0.70852806222E+01  0.58160873436E+02  0.00000000000E+00 0. -1.
</event>
<event>
 8    1  0.3710605E-009  0.1460031E+03  0.7561462E-02  0.1205472E+00
          1   -1    0    0  501    0  0.00000000000E+00  0.00000000000E+00  0.69564045291E+02  0.69564045291E+02  0.00000000000E+00 0. -1.
         -1   -1    0    0    0  501 -0.00000000000E+00 -0.00000000000E+00 -0.44883386066E+03  0.44883386066E+03  0.00000000000E+00 0.  1.
         25    2    1    2    0    0  0.12447578608E+03 -0.55232850250E+02 -0.24204787546E+03  0.30459473043E+03  0.12508351901E+03 0.  0.
         23    2    1    2    0    0 -0.12447578608E+03  0.55232850250E+02 -0.13722193991E+03  0.21380317552E+03  0.91307436730E+02 0.  0.
          5    1    3    3  502    0  0.11408356738E+03 -0.57390405604E+02 -0.10043178594E+03  0.16251995271E+03  0.41800000000E+01 0.  1.
         -5    1    3    3    0  502  0.10392218698E+02  0.21575553542E+01 -0.14161608952E+03  0.14207477772E+03  0.41800000000E+01 0.  1.
        -11    1    4    4    0    0 -0.10048566427E+03  0.71946538536E+02 -0.73746207890E+02  0.14391725508E+03  0.00000000000E+00 0. -1.
         11    1    4    4    0    0 -0.23990121812E+02 -0.16713688286E+02 -0.63475732017E+02  0.69885920441E+02  0.00000000000E+00 0.  1.
</event>
<event>
 8    1  0.3710605E-009  0.1631605E+03  0.7561462E-02  0.1185174E+00
          2   -1    0    0  501    0  0.00000000000E+00  0.00000000000E+00  0.19465819693E+04  0.19465819693E+04  0.00000000000E+00 0.  1.
         -2   -1    0    0    0  501 -0.00000000000E+00 -0.00000000000E+00 -0.14674527922E+02  0.14674527922E+02  0.00000000000E+00 0. -1.
         25    2    1    2    0    0  0.55946635224E+02  0.11083204710E+03  0.12357460427E+04  0.12482505722E+04  0.12508972968E+03 0.  0.
         23    2    1    2    0    0 -0.55946635224E+02 -0.11083204710E+03  0.69616139875E+03  0.71300592503E+03  0.91230408032E+02 0.  0.
          5    1    3    3  502    0 -0.20504776225E+02 -0.15316129162E+02  0.11870384943E+03  0.12150352229E+03  0.41800000000E+01 0.  1.
         -5    1    3    3    0  502  0.76451411449E+02  0.12614817626E+03  0.11170421932E+04  0.11267470499E+04  0.41800000000E+01 0.  1.
        -11    1    4    4    0    0  0.21897154405E+02 -0.48093144890E+02  0.19939168314E+03  0.20627525121E+03  0.00000000000E+00 0.  1.
         11    1    4    4    0    0 -0.77843789629E+02 -0.62738902209E+02  0.49676971562E+03  0.50673067382E+03  0.00000000000E+00 0. -1.
</event>
<event>
 8    1  0.3710605E-009  0.1045419E+03  0.7561462E-02  0.1271025E+00
         -2   -1    0    0    0  501 -0.00000000000E+00  0.00000000000E+00  0.44878234548E+03  0.44878234548E+03  0.00000000000E+00 0.  1.
          2   -1    0    0  501    0  0.00000000000E+00 -0.00000000000E+00 -0.27124935183E+02  0.27124935183E+02  0.00000000000E+00 0. -1.
         25    2    1    2    0    0 -0.72583938129E+01  0.26745902319E+01  0.26141912248E+03  0.28991635160E+03  0.12510673690E+03 0.  0.
         23    2    1    2    0    0  0.72583938129E+01 -0.26745902319E+01  0.16023828782E+03  0.18599092905E+03  0.94108868307E+02 0.  0.
          5    1    3    3  502    0  0.15041025048E+00 -0.56369463914E+02  0.73284393385E+02  0.92550601289E+02  0.41800000000E+01 0.  1.
         -5    1    3    3    0  502 -0.74088040634E+01  0.59044054146E+02  0.18813472909E+03  0.19736575032E+03  0.41800000000E+01 0.  1.
        -11    1    4    4    0    0  0.39759590323E+02  0.27670573786E+02  0.10004440573E+03  0.11115470658E+03  0.00000000000E+00 0.  1.
         11    1    4    4    0    0 -0.32501196510E+02 -0.30345164017E+02  0.60193882086E+02  0.74836222475E+02  0.00000000000E+00 0. -1.
</event>
<event>
 8    1  0.3710605E-009  0.1238984E+03  0.7561462E-02  0.1236801E+00
         -2   -1    0    0    0  501 -0.00000000000E+00  0.00000000000E+00  0.75625186579E+02  0.75625186579E+02  0.00000000000E+00 0.  1.
          2   -1    0    0  501    0  0.00000000000E+00 -0.00000000000E+00 -0.27566445661E+03  0.27566445661E+03  0.00000000000E+00 0. -1.
         25    2    1    2    0    0 -0.55624080027E+02  0.21341660632E+02 -0.19643289431E+02  0.13992454411E+03  0.12507403594E+03 0.  0.
         23    2    1    2    0    0  0.55624080027E+02 -0.21341660632E+02 -0.18039598060E+03  0.21136509908E+03  0.92644430676E+02 0.  0.
          5    1    3    3  502    0 -0.87924329712E+02 -0.14989721944E+02 -0.72644032607E+01  0.89585844161E+02  0.41800000000E+01 0. -1.
         -5    1    3    3    0  502  0.32300249685E+02  0.36331382576E+02 -0.12378886170E+02  0.50338699947E+02  0.41800000000E+01 0. -1.
        -11    1    4    4    0    0  0.44775740705E+01 -0.50594280069E+02 -0.92920927840E+02  0.10589678312E+03  0.00000000000E+00 0. -1.
         11    1    4    4    0    0  0.51146505957E+02  0.29252619437E+02 -0.87475052760E+02  0.10546831596E+03  0.00000000000E+00 0.  1.
</event>
<event>
 8    1  0.3710605E-009  0.1422727E+03  0.7561462E-02  0.1210303E+00
         -2   -1    0    0    0  501 -0.00000000000E+00  0.00000000000E+00  0.21118716548E+02  0.21118716548E+02  0.00000000000E+00 0.  1.
          2   -1    0    0  501    0  0.00000000000E+00 -0.00000000000E+00 -0.10348721734E+04  0.10348721734E+04  0.00000000000E+00 0. -1.
         25    2    1    2    0    0  0.66497785140E+02 -0.78127626524E+02 -0.54466137885E+03  0.56818126504E+03  0.12509216950E+03 0.  0.
         23    2    1    2    0    0 -0.66497785140E+02  0.78127626524E+02 -0.46909207803E+03  0.48780962494E+03  0.85935854335E+02 0.  0.
          5    1    3    3  502    0 -0.66309248394E+01 -0.84738390177E+02 -0.23586617078E+03  0.25074865274E+03  0.41800000000E+01 0.  1.
         -5    1    3    3    0  502  0.73128709980E+02  0.66107636526E+01 -0.30879520808E+03  0.31743261230E+03  0.41800000000E+01 0.  1.
        -11    1    4    4    0    0 -0.61293319512E+02  0.15722424501E+02 -0.15290788559E+03  0.16548379717E+03  0.00000000000E+00 0.  1.
         11    1    4    4    0    0 -0.52044656280E+01  0.62405202023E+02 -0.31618419244E+03  0.32232582777E+03  0.00000000000E+00 0. -1.
</event>
<event>
 8    1  0.3710605E-009  0.1635251E+03  0.7561462E-02  0.1184773E+00
          2   -1    0    0  501    0  0.00000000000E+00  0.00000000000E+00  0.56101195436E+03  0.56101195436E+03  0.00000000000E+00 0.  1.
         -2   -1    0    0    0  501 -0.00000000000E+00 -0.00000000000E+00 -0.71438194080E+02  0.71438194080E+02  0.00000000000E+00 0. -1.
         25    2    1    2    0    0 -0.23357189117E+02 -0.14866983618E+03  0.36920564429E+03  0.41786653225E+03  0.12510536570E+03 0.  0.
         23    2    1    2    0    0  0.23357189117E+02  0.14866983618E+03  0.12036811599E+03  0.21458361619E+03  0.94389440712E+02 0.  0.
          5    1    3    3  502    0 -0.92760416397E+00 -0.15010591830E+03  0.21663208932E+03  0.26358979813E+03  0.41800000000E+01 0.  1.
         -5    1    3    3    0  502 -0.22429584953E+02  0.14360821200E+01  0.15257355497E+03  0.15427673411E+03  0.41800000000E+01 0.  1.
        -11    1    4    4    0    0 -0.31864045042E+01  0.84755975591E+02  0.11802208107E+03  0.14533733241E+03  0.00000000000E+00 0.  1.
         11    1    4    4    0    0  0.26543593622E+02  0.63913860587E+02  0.23460349200E+01  0.69246283780E+02  0.00000000000E+00 0. -1.
</event>
<event>
 8    1  0.3710605E-009  0.1034594E+03  0.7561462E-02  0.1273185E+00
          1   -1    0    0  501    0  0.00000000000E+00  0.00000000000E+00  0.15114007227E+03  0.15114007227E+03  0.00000000000E+00 0. -1.
         -1   -1    0    0    0  501 -0.00000000000E+00 -0.00000000000E+00 -0.10343753296E+03  0.10343753296E+03  0.00000000000E+00 0.  1.
         25    2    1    2    0    0  0.31385876093E+02 -0.50273719034E+02  0.60592547230E+01  0.13855393871E+03  0.12509180357E+03 0.  0.
         23    2    1    2    0    0 -0.31385876093E+02  0.50273719034E+02  0.41643284588E+02  0.11602366652E+03  0.90635577995E+02 0.  0.
          5    1    3    3  502    0  0.43518945326E+02  0.13344030058E+02  0.43943075557E+02  0.63406845292E+02  0.41800000000E+01 0. -1.
         -5    1    3    3    0  502 -0.12133069233E+02 -0.63617749092E+02 -0.37883820834E+02  0.75147093421E+02  0.41800000000E+01 0. -1.
        -11    1    4    4    0    0 -0.56755467632E+02  0.33724398654E+02  0.18908466174E+01  0.66046146531E+02  0.00000000000E+00 0.  1.
         11    1    4    4    0    0  0.25369591539E+02  0.16549320380E+02  0.39752437971E+02  0.49977519992E+02  0.00000000000E+00 0. -1.
</event>
<event>
 8    1  0.3710605E-009  0.1173079E+03  0.7561462E-02  0.1247605E+00
         -2   -1    0    0    0  501 -0.00000000000E+00  0.00000000000E+00  0.38290466785E+02  0.38290466785E+02  0.00000000000E+00 0.  1.
          2   -1    0    0  501    0  0.00000000000E+00 -0.00000000000E+00 -0.57929181329E+03  0.57929181329E+03  0.00000000000E+00 0. -1.
         25    2    1    2    0    0  0.74632113221E+02  0.43944748653E+02 -0.18158751391E+03  0.23690253678E+03  0.12509074092E+03 0.  0.
         23    2    1    2    0    0 -0.74632113221E+02 -0.43944748653E+02 -0.35941383260E+03  0.38067974330E+03  0.90761614353E+02 0.  0.
          5    1    3    3  502    0  0.40918717394E+02 -0.13979007932E+02 -0.16086404165E+03  0.16662672773E+03  0.41800000000E+01 0. -1.
         -5    1    3    3    0  502  0.33713395827E+02  0.57923756585E+02 -0.20723472255E+02  0.70275809048E+02  0.41800000000E+01 0. -1.
        -11    1    4    4    0    0 -0.49867993528E+02  0.21307526497E+02 -0.12921711324E+03  0.14013525544E+03  0.00000000000E+00 0. -1.
         11    1    4    4    0    0 -0.24764119692E+02 -0.65252275149E+02 -0.23019671936E+03  0.24054448786E+03  0.00000000000E+00 0.  1.
</event>
<event>
 8    1  0.3710605E-009  0.1014615E+03  0.7561462E-02  0.1277252E+00
          2   -1    0    0  501    0  0.00000000000E+00  0.00000000000E+00  0.68663991754E+03  0.68663991754E+03  0.00000000000E+00 0.  1.
         -2   -1    0    0    0  501 -0.00000000000E+00 -0.00000000000E+00 -0.23202390133E+02  0.23202390133E+02  0.00000000000E+00 0. -1.
         25    2    1    2    0    0  0.33332944384E+02  0.45974864333E+02  0.30194828331E+03  0.33173079255E+03  0.12509108523E+03 0.  0.
         23    2    1    2    0    0 -0.33332944384E+02 -0.45974864333E+02  0.36148924410E+03  0.37811151512E+03  0.95231669808E+02 0.  0.
          5    1    3    3  502    0  0.46276070332E+02  0.59157570279E+02  0.83200881606E+02  0.11216484256E+03  0.41800000000E+01 0. -1.
         -5    1    3    3    0  502 -0.12943125947E+02 -0.13182705946E+02  0.21874740170E+03  0.21956594999E+03  0.41800000000E+01 0. -1.
        -11    1    4    4    0    0 -0.65802798919E+02 -0.26814938931E+02  0.19899347589E+03  0.21129943857E+03  0.00000000000E+00 0. -1.
         11    1    4    4    0    0  0.32469854534E+02 -0.19159925402E+02  0.16249576821E+03  0.16681207655E+03  0.00000000000E+00 0.  1.
</event>
<event>
 8    1  0.3710605E-009  0.9677982E+02  0.7561462E-02  0.1287217E+00
          2   -1    0    0  501    0  0.00000000000E+00  0.00000000000E+00  0.13208727428E+03  0.13208727428E+03  0.00000000000E+00 0. -1.
         -2   -1    0    0    0  501 -0.00000000000E+00 -0.00000000000E+00 -0.92359838953E+02  0.92359838953E+02  0.00000000000E+00 0.  1.
         25    2    1    2    0    0 -0.16366432218E+02 -0.17959479391E+02  0.18483757053E+02  0.12876235544E+03  0.12509073467E+03 0.  0.
         23    2    1    2    0    0  0.16366432218E+02  0.17959479391E+02  0.21243678273E+02  0.95684757789E+02  0.90077055919E+02 0.  0.
          5    1    3    3  502    0 -0.19883112241E+01 -0.70167477239E+02  0.23683751320E+02  0.74201217781E+02  0.41800000000E+01 0. -1.
         -5    1    3    3    0  502 -0.14378120994E+02  0.52207997848E+02 -0.51999942671E+01  0.54561137662E+02  0.41800000000E+01 0. -1.
        -11    1    4    4    0    0  0.22474689622E+02  0.40094831335E+02  0.43803858304E+02  0.63493977476E+02  0.00000000000E+00 0. -1.
         11    1    4    4    0    0 -0.61082574041E+01 -0.22135351943E+02 -0.22560180031E+02  0.32190780314E+02  0.00000000000E+00 0.  1.
</event>
<event>
 8    1  0.3710605E-009  0.8535531E+02  0.7561462E-02  0.1314506E+00
         -2   -1    0    0    0  501 -0.00000000000E+00  0.00000000000E+00  0.56156057179E+02  0.56156057179E+02  0.00000000000E+00 0.  1.
          2   -1    0    0  501    0  0.00000000000E+00 -0.00000000000E+00 -0.24716648860E+03  0.24716648860E+03  0.00000000000E+00 0. -1.
         25    2    1    2    0    0  0.88291671159E+01 -0.46754397232E+02 -0.11628884135E+03  0.17729458438E+03  0.12508535956E+03 0.  0.
         23    2    1    2    0    0 -0.88291671159E+01  0.46754397232E+02 -0.74721590075E+02  0.12602796140E+03  0.89642641526E+02 0.  0.
          5    1    3    3  502    0 -0.22020881556E+02 -0.45785137419E+02  0.57900563204E+01  0.51304923596E+02  0.41800000000E+01 0. -1.
         -5    1    3    3    0  502  0.30850048672E+02 -0.96925981314E+00 -0.12207889767E+03  0.12598966078E+03  0.41800000000E+01 0. -1.
        -11    1    4    4    0    0  0.22857810846E+02 -0.89116101480E+01  0.36580144091E+01  0.24804785456E+02  0.00000000000E+00 0.  1.
         11    1    4    4    0    0 -0.31686977962E+02  0.55666007380E+02 -0.78379604484E+02  0.10122317595E+03  0.00000000000E+00 0. -1.
</event>
<event>
 8    1  0.3710605E-009  0.1377180E+03  0.7561462E-02  0.1216433E+00
         -1   -1    0    0    0  501 -0.00000000000E+00  0.00000000000E+00  0.35459328824E+03  0.35459328824E+03  0.00000000000E+00 0.  1.
          1   -1    0    0  501    0  0.00000000000E+00 -0.00000000000E+00 -0.60000849284E+02  0.60000849284E+02  0.00000000000E+00 0. -1.
         25    2    1    2    0    0 -0.21688941093E+02  0.93326857760E+02  0.17603671841E+03  0.23625629693E+03  0.12509116301E+03 0.  0.
         23    2    1    2    0    0  0.21688941093E+02 -0.93326857760E+02  0.11855572055E+03  0.17833784060E+03  0.92566808142E+02 0.  0.
          5    1    3    3  502    0 -0.15452267947E+02  0.11776996303E+03  0.97709006964E+02  0.15386051871E+03  0.41800000000E+01 0.  1.
         -5    1    3    3    0  502 -0.62366731460E+01 -0.24443105269E+02  0.78327711445E+02  0.82395778213E+02  0.41800000000E+01 0.  1.
        -11    1    4    4    0    0 -0.22499409054E+02  0.51457413294E+01  0.34625241197E+02  0.41612610943E+02  0.00000000000E+00 0.  1.
         11    1    4    4    0    0  0.44188350146E+02 -0.98472599090E+02  0.83930479349E+02  0.13672522965E+03  0.00000000000E+00 0. -1.
</event>
<event>
 8    1  0.3710605E-009  0.1082390E+03  0.7561462E-02  0.1263866E+00
         -1   -1    0    0    0  501 -0.00000000000E+00  0.00000000000E+00  0.10135302424E+03  0.10135302424E+03  0.00000000000E+00 0.  1.
          1   -1    0    0  501    0  0.00000000000E+00 -0.00000000000E+00 -0.83861618922E+03  0.83861618922E+03  0.00000000000E+00 0. -1.
         25    2    1    2    0    0  0.16602079752E+01 -0.87159302666E+02 -0.78820359639E+03  0.80281418161E+03  0.12508477325E+03 0.  0.
         23    2    1    2    0    0 -0.16602079752E+01  0.87159302666E+02  0.50940431410E+02  0.13715503185E+03  0.92828200876E+02 0.  0.
          5    1    3    3  502    0 -0.43131936712E+01 -0.96994330743E+02 -0.78380331392E+03  0.78980479307E+03  0.41800000000E+01 0. -1.
         -5    1    3    3    0  502  0.59734016464E+01  0.98350280773E+01 -0.44002824714E+01  0.13009388546E+02  0.41800000000E+01 0. -1.
        -11    1    4    4    0    0  0.29947412138E+02  0.49885680048E+02  0.64074118193E+02  0.86550107971E+02  0.00000000000E+00 0.  1.
         11    1    4    4    0    0 -0.31607620113E+02  0.37273622617E+02 -0.13133686783E+02  0.50604923879E+02  0.00000000000E+00 0. -1.
</event>
<event>
 8    1  0.3710605E-009  0.7827211E+02  0.7561462E-02  0.1334028E+00
         -1   -1    0    0    0  501 -0.00000000000E+00  0.00000000000E+00  0.10765291933E+04  0.10765291933E+04  0.00000000000E+00 0.  1.
          1   -1    0    0  501    0  0.00000000000E+00 -0.00000000000E+00 -0.13155165112E+02  0.13155165112E+02  0.00000000000E+00 0. -1.
         25    2    1    2    0    0  0.28439367652E+02  0.20630498552E+02  0.77095467073E+03  0.78182677590E+03  0.12509031976E+03 0.  0.
         23    2    1    2    0    0 -0.28439367652E+02 -0.20630498552E+02  0.29241935749E+03  0.30785758254E+03  0.89625863396E+02 0.  0.
          5    1    3    3  502    0  0.87703965160E+01  0.38231579965E+02  0.73950644919E+03  0.74055778597E+03  0.41800000000E+01 0.  1.
         -5    1    3    3    0  502  0.19668971136E+02 -0.17601081413E+02  0.31448221538E+02  0.41268989936E+02  0.41800000000E+01 0.  1.
        -11    1    4    4    0    0  0.27849616145E+02 -0.19636577310E+02  0.16611946202E+03  0.16957851264E+03  0.00000000000E+00 0.  1.
         11    1    4    4    0    0 -0.56288983797E+02 -0.99392124202E+00  0.12629989547E+03  0.13827906990E+03  0.00000000000E+00 0. -1.
</event>
<event>
 8    1  0.3710605E-009  0.1112847E+03  0.7561462E-02  0.1258209E+00
          2   -1    0    0  501    0  0.00000000000E+00  0.00000000000E+00  0.60567755083E+03  0.60567755083E+03  0.00000000000E+00 0. -1.
         -2   -1    0    0    0  501 -0.00000000000E+00 -0.00000000000E+00 -0.48695553362E+02  0.48695553362E+02  0.00000000000E+00 0.  1.
         25    2    1    2    0    0 -0.61724729628E+02 -0.69720291273E+02  0.11488851730E+03  0.19369560064E+03  0.12509097904E+03 0.  0.
         23    2    1    2    0    0  0.61724729628E+02  0.69720291273E+02  0.44209348017E+03  0.46067750355E+03  0.90034747777E+02 0.  0.
          5    1    3    3  502    0 -0.23125614638E+02 -0.74101391031E+01  0.11767446894E+03  0.12022669111E+03  0.41800000000E+01 0. -1.
         -5    1    3    3    0  502 -0.38599114990E+02 -0.62310152170E+02 -0.27859516428E+01  0.73468909534E+02  0.41800000000E+01 0. -1.
        -11    1    4    4    0    0 -0.49048333747E+01 -0.15545376320E+02  0.25545303692E+02  0.30303112977E+02  0.00000000000E+00 0.  1.
         11    1    4    4    0    0  0.66629563003E+02  0.85265667593E+02  0.41654817648E+03  0.43037439058E+03  0.00000000000E+00 0. -1.
</event>
<event>
 8    1  0.3710605E-009  0.1069187E+03  0.7561462E-02  0.1266385E+00
         -2   -1    0    0    0  501 -0.00000000000E+00  0.00000000000E+00  0.16379695361E+03  0.16379695361E+03  0.00000000000E+00 0.  1.
          2   -1    0    0  501    0  0.00000000000E+00 -0.00000000000E+00 -0.11270311429E+03  0.11270311429E+03  0.00000000000E+00 0. -1.
         25    2    1    2    0    0 -0.49559735565E+01  0.32583339559E+02  0.10496763130E+03  0.16658573666E+03  0.12508544418E+03 0.  0.
         23    2    1    2    0    0  0.49559735565E+01 -0.32583339559E+02 -0.53873791990E+02  0.10991433124E+03  0.89958540770E+02 0.  0.
          5    1    3    3  502    0 -0.62199194586E+02  0.10515750607E+02  0.31047227187E+02  0.70432404006E+02  0.41800000000E+01 0.  1.
         -5    1    3    3    0  502  0.57243221030E+02  0.22067588952E+02  0.73920404115E+02  0.96153332654E+02  0.41800000000E+01 0.  1.
        -11    1    4    4    0    0  0.42839020778E+02 -0.27491929972E+02 -0.10267834896E+02  0.51927029072E+02  0.00000000000E+00 0.  1.
         11    1    4    4    0    0 -0.37883047222E+02 -0.50914095868E+01 -0.43605957095E+02  0.57987302166E+02  0.00000000000E+00 0. -1.
</event>
<event>
 8    1  0.3710605E-009  0.1025929E+03  0.7561462E-02  0.1274936E+00
         -2   -1    0    0    0  501 -0.00000000000E+00  0.00000000000E+00  0.44395203335E+03  0.44395203335E+03  0.00000000000E+00 0. -1.
          2   -1    0    0  501    0  0.00000000000E+00 -0.00000000000E+00 -0.34953268678E+02  0.34953268678E+02  0.00000000000E+00 0.  1.
         25    2    1    2    0    0 -0.32643416245E+02 -0.25247272914E+01  0.32617050228E+03  0.35086476270E+03  0.12508764237E+03 0.  0.
         23    2    1    2    0    0  0.32643416245E+02  0.25247272914E+01  0.82828262397E+02  0.12804053933E+03  0.91988541618E+02 0.  0.
          5    1    3    3  502    0  0.13825949255E+01 -0.58317771517E+02  0.10482479640E+03  0.12003576293E+03  0.41800000000E+01 0.  1.
         -5    1    3    3    0  502 -0.34026011170E+02  0.55793044226E+02  0.22134570588E+03  0.23082899976E+03  0.41800000000E+01 0.  1.
        -11    1    4    4    0    0  0.36932021874E+02  0.33551486070E+02  0.82854366409E+02  0.96718780443E+02  0.00000000000E+00 0. -1.
         11    1    4    4    0    0 -0.42886056296E+01 -0.31026758779E+02 -0.26104012177E-01  0.31321758891E+02  0.00000000000E+00 0.  1.
</event>
<event>
 8    1  0.3710605E-009  0.1636914E+03  0.7561462E-02  0.1184591E+00
         -2   -1    0    0    0  501 -0.00000000000E+00  0.00000000000E+00  0.10392169226E+03  0.10392169226E+03  0.00000000000E+00 0.  1.
          2   -1    0    0  501    0  0.00000000000E+00 -0.00000000000E+00 -0.59741003863E+03  0.59741003863E+03  0.00000000000E+00 0. -1.
         25    2    1    2    0    0  0.10171544422E+03 -0.12355680968E+03 -0.47251230595E+03  0.51432356050E+03  0.12509407981E+03 0.  0.
         23    2    1    2    0    0 -0.10171544422E+03  0.12355680968E+03 -0.20976040419E+02  0.18700817039E+03  0.94444400098E+02 0.  0.
          5    1    3    3  502    0  0.62263280823E+01 -0.38021773030E+02 -0.19268341619E+02  0.43280062090E+02  0.41800000000E+01 0. -1.
         -5    1    3    3    0  502  0.95489116137E+02 -0.85535036649E+02 -0.45324396433E+03  0.47104349841E+03  0.41800000000E+01 0. -1.
        -11    1    4    4    0    0 -0.81543772208E+01  0.14821984826E+02 -0.38925723870E+02  0.42442868433E+02  0.00000000000E+00 0. -1.
         11    1    4    4    0    0 -0.93561066999E+02  0.10873482485E+03  0.17949683451E+02  0.14456530196E+03  0.00000000000E+00 0.  1.
</event>
<event>
 8    1  0.3710605E-009  0.1036691E+03  0.7561462E-02  0.1272764E+00
          1   -1    0    0  501    0  0.00000000000E+00  0.00000000000E+00  0.16841873396E+03  0.16841873396E+03  0.00000000000E+00 0. -1.
         -1   -1    0    0    0  501 -0.00000000000E+00 -0.00000000000E+00 -0.79316663667E+02  0.79316663667E+02  0.00000000000E+00 0.  1.
         25    2    1    2    0    0  0.32982545749E+00  0.19443784125E+02  0.88250738856E+02  0.15431931579E+03  0.12509232108E+03 0.  0.
         23    2    1    2    0    0 -0.32982545749E+00 -0.19443784125E+02  0.85133144003E+00  0.93416081837E+02  0.91365584629E+02 0.  0.
          5    1    3    3  502    0 -0.43113409642E+02 -0.35788660896E+02  0.40247263502E+02  0.69115186168E+02  0.41800000000E+01 0.  1.
         -5    1    3    3    0  502  0.43443235099E+02  0.55232445021E+02  0.48003475355E+02  0.85204129625E+02  0.41800000000E+01 0.  1.
        -11    1    4    4    0    0 -0.37018498392E+02  0.39728772136E+01 -0.23021988805E+02  0.43774021349E+02  0.00000000000E+00 0.  1.
         11    1    4    4    0    0  0.36688672935E+02 -0.23416661339E+02  0.23873320245E+02  0.49642060488E+02  0.00000000000E+00 0. -1.
</event>
<event>
 8    1  0.3710605E-009  0.1465907E+03  0.7561462E-02  0.1204726E+00
          1   -1    0    0  501    0  0.00000000000E+00  0.00000000000E+00  0.16632558047E+04  0.16632558047E+04  0.00000000000E+00 0. -1.
         -1   -1    0    0    0  501 -0.00000000000E+00 -0.00000000000E+00 -0.14949006560E+02  0.14949006560E+02  0.00000000000E+00 0.  1.
         25    2    1    2    0    0 -0.72742754866E+02 -0.72931367643E+02  0.11396046151E+04  0.11510677948E+04  0.12509155314E+03 0.  0.
         23    2    1    2    0    0  0.72742754866E+02  0.72931367643E+02  0.50870218309E+03  0.52713701652E+03  0.92114224399E+02 0.  0.
          5    1    3    3  502    0 -0.82222129247E+02 -0.99241017429E+02  0.80402734735E+03  0.81430136053E+03  0.41800000000E+01 0. -1.
         -5    1    3    3    0  502  0.94793743813E+01  0.26309649785E+02  0.33557726773E+03  0.33676643423E+03  0.41800000000E+01 0. -1.
        -11    1    4    4    0    0 -0.10124592428E+02 -0.13069474185E+02  0.99456772110E+02  0.10082146620E+03  0.00000000000E+00 0. -1.
         11    1    4    4    0    0  0.82867347294E+02  0.86000841828E+02  0.40924541098E+03  0.42631555033E+03  0.00000000000E+00 0.  1.
</event>
<event>
 8    1  0.3710605E-009  0.1444181E+03  0.7561462E-02  0.1207505E+00
         -1   -1    0    0    0  501 -0.00000000000E+00  0.00000000000E+00  0.11009260296E+03  0.11009260296E+03  0.00000000000E+00 0.  1.
          1   -1    0    0  501    0  0.00000000000E+00 -0.00000000000E+00 -0.29106521167E+03  0.29106521167E+03  0.00000000000E+00 0. -1.
         25    2    1    2    0    0 -0.82954310882E+02  0.49463332720E+02 -0.21305089948E+03  0.26526607907E+03  0.12508943983E+03 0.  0.
         23    2    1    2    0    0  0.82954310882E+02 -0.49463332720E+02  0.32078290762E+02  0.13589173557E+03  0.90052807171E+02 0.  0.
          5    1    3    3  502    0  0.31218016214E+02  0.25157432607E+02 -0.67767926822E+02  0.78850651598E+02  0.41800000000E+01 0.  1.
         -5    1    3    3    0  502 -0.11417232710E+03  0.24305900114E+02 -0.14528297266E+03  0.18641542747E+03  0.41800000000E+01 0.  1.
        -11    1    4    4    0    0 -0.19557050178E+02 -0.72602062031E+01  0.86551112284E+01  0.22585388111E+02  0.00000000000E+00 0. -1.
         11    1    4    4    0    0  0.10251136106E+03 -0.42203126517E+02  0.23423179534E+02  0.11330634746E+03  0.00000000000E+00 0.  1.
</event>
<event>
 8    1  0.3710605E-009  0.1102440E+03  0.7561462E-02  0.1260119E+00
          1   -1    0    0  501    0  0.00000000000E+00  0.00000000000E+00  0.38275478916E+03  0.38275478916E+03  0.00000000000E+00 0. -1.
         -1   -1    0    0    0  501 -0.00000000000E+00 -0.00000000000E+00 -0.40698556370E+02  0.40698556370E+02  0.00000000000E+00 0.  1.
         25    2    1    2    0    0 -0.62506496716E+02 -0.59687483660E+01  0.19372908260E+03  0.23899994255E+03  0.12508927615E+03 0.  0.
         23    2    1    2    0    0  0.62506496716E+02  0.59687483660E+01  0.14832715020E+03  0.18445340298E+03  0.89885628974E+02 0.  0.
          5    1    3    3  502    0  0.29409217515E+02 -0.25240691154E+02  0.94938090506E+02  0.10262898223E+03  0.41800000000E+01 0.  1.
         -5    1    3    3    0  502 -0.91915714230E+02  0.19271942788E+02  0.98790992090E+02  0.13637096032E+03  0.41800000000E+01 0.  1.
        -11    1    4    4    0    0  0.25845554847E+02  0.33025240171E+02  0.16658479507E+02  0.45123875423E+02  0.00000000000E+00 0.  1.
         11    1    4    4    0    0  0.36660941869E+02 -0.27056491805E+02  0.13166867069E+03  0.13932952755E+03  0.00000000000E+00 0. -1.
</event>
<event>
 8    1  0.3710605E-009  0.2093526E+03  0.7561462E-02  0.1142080E+00
         -1   -1    0    0    0  501 -0.00000000000E+00  0.00000000000E+00  0.36666075374E+03  0.36666075374E+03  0.00000000000E+00 0.  1.
          1   -1    0    0  501    0  0.00000000000E+00 -0.00000000000E+00 -0.23034428488E+03  0.23034428488E+03  0.00000000000E+00 0. -1.
         25    2    1    2    0    0 -0.22858089471E+02 -0.18944516729E+03  0.26456665047E+03  0.34936318057E+03  0.12508859154E+03 0.  0.
         23    2    1    2    0    0  0.22858089471E+02  0.18944516729E+03 -0.12825018160E+03  0.24764185805E+03  0.92013135540E+02 0.  0.
          5    1    3    3  502    0 -0.49360094907E+02 -0.15612212340E+02  0.52583826898E+02  0.73910022288E+02  0.41800000000E+01 0.  1.
         -5    1    3    3    0  502  0.26502005436E+02 -0.17383295495E+03  0.21198282357E+03  0.27545315828E+03  0.41800000000E+01 0.  1.
        -11    1    4    4    0    0  0.71459552413E+01  0.43010697613E+02 -0.82690226040E+02  0.93480790904E+02  0.00000000000E+00 0.  1.
         11    1    4    4    0    0  0.15712134229E+02  0.14643446968E+03 -0.45559955562E+02  0.15416106714E+03  0.00000000000E+00 0. -1.
</event>
<event>
 8    1  0.3710605E-009  0.1374520E+03  0.7561462E-02  0.1216799E+00
          2   -1    0    0  501    0  0.00000000000E+00  0.00000000000E+00  0.51832612507E+02  0.51832612507E+02  0.00000000000E+00 0. -1.
         -2   -1    0    0    0  501 -0.00000000000E+00 -0.00000000000E+00 -0.42399598707E+03  0.42399598707E+03  0.00000000000E+00 0.  1.
         25    2    1    2    0    0 -0.77889421849E+01  0.94328240162E+02 -0.14550121011E+03  0.21395587973E+03  0.12509209333E+03 0.  0.
         23    2    1    2    0    0  0.77889421849E+01 -0.94328240162E+02 -0.22666216444E+03  0.26187271984E+03  0.90791519953E+02 0.  0.
          5    1    3    3  502    0  0.48191559626E+02  0.23011866811E+02 -0.97593588007E+02  0.11132813325E+03  0.41800000000E+01 0.  1.
         -5    1    3    3    0  502 -0.55980501811E+02  0.71316373351E+02 -0.47907622106E+02  0.10262774648E+03  0.41800000000E+01 0.  1.
        -11    1    4    4    0    0  0.48785254651E+02 -0.44306457297E+02 -0.10211071759E+03  0.12153049772E+03  0.00000000000E+00 0. -1.
         11    1    4    4    0    0 -0.40996312466E+02 -0.50021782865E+02 -0.12455144686E+03  0.14034222213E+03  0.00000000000E+00 0.  1.
</event>
<event>
 8    1  0.3710605E-009  0.1079380E+03  0.7561462E-02  0.1264437E+00
         -2   -1    0    0    0  501 -0.00000000000E+00  0.00000000000E+00  0.15642400618E+02  0.15642400618E+02  0.00000000000E+00 0.  1.
          2   -1    0    0  501    0  0.00000000000E+00 -0.00000000000E+00 -0.91024530536E+03  0.91024530536E+03  0.00000000000E+00 0. -1.
         25    2    1    2    0    0 -0.37630998460E+02 -0.32837099838E+02 -0.49503452162E+03  0.51303100940E+03  0.12508905561E+03 0.  0.
         23    2    1    2    0    0  0.37630998460E+02  0.32837099838E+02 -0.39956838312E+03  0.41285669658E+03  0.91111974802E+02 0.  0.
          5    1    3    3  502    0 -0.60863671354E+02 -0.62100499731E+02 -0.42201780200E+03  0.43090295446E+03  0.41800000000E+01 0.  1.
         -5    1    3    3    0  502  0.23232672894E+02  0.29263399893E+02 -0.73016719625E+02  0.82128054938E+02  0.41800000000E+01 0.  1.
        -11    1    4    4    0    0  0.53708397745E+02  0.45790204839E+02 -0.37073633527E+03  0.37739470735E+03  0.00000000000E+00 0.  1.
         11    1    4    4    0    0 -0.16077399286E+02 -0.12953105000E+02 -0.28832047850E+02  0.35461989231E+02  0.00000000000E+00 0. -1.
</event>
<event>
 8    1  0.3710605E-009  0.1029991E+03  0.7561462E-02  0.1274113E+00
         -2   -1    0    0    0  501 -0.00000000000E+00  0.00000000000E+00  0.27512380477E+02  0.27512380477E+02  0.00000000000E+00 0.  1.
          2   -1    0    0  501    0  0.00000000000E+00 -0.00000000000E+00 -0.89518266883E+03  0.89518266883E+03  0.00000000000E+00 0. -1.
         25    2    1    2    0    0 -0.94046117384E+02 -0.39845960232E+02 -0.60371813777E+03  0.62494481944E+03  0.12509222494E+03 0.  0.
         23    2    1    2    0    0  0.94046117384E+02  0.39845960232E+02 -0.26395215059E+03  0.29775022986E+03  0.92477504516E+02 0.  0.
          5    1    3    3  502    0 -0.86963112364E+02 -0.39524230886E+02 -0.20564320608E+03  0.22678480625E+03  0.41800000000E+01 0. -1.
         -5    1    3    3    0  502 -0.70830050201E+01 -0.32172934626E+00 -0.39807493168E+03  0.39816001319E+03  0.41800000000E+01 0. -1.
        -11    1    4    4    0    0  0.48048870969E+02  0.19457358217E+02 -0.33160106298E+02  0.61537593712E+02  0.00000000000E+00 0.  1.
         11    1    4    4    0    0  0.45997246416E+02  0.20388602015E+02 -0.23079204429E+03  0.23621263615E+03  0.00000000000E+00 0. -1.
</event>
<event>
 8    1  0.3710605E-009  0.2461693E+03  0.7561462E-02  0.1115750E+00
         -1   -1    0    0    0  501 -0.00000000000E+00  0.00000000000E+00  0.17738790648E+03  0.17738790648E+03  0.00000000000E+00 0.  1.
          1   -1    0    0  501    0  0.00000000000E+00 -0.00000000000E+00 -0.39117967838E+03  0.39117967838E+03  0.00000000000E+00 0. -1.
         25    2    1    2    0    0 -0.10934301369E+03 -0.20649313223E+03 -0.16503400323E+03  0.31221696513E+03  0.12509157763E+03 0.  0.
         23    2    1    2    0    0  0.10934301369E+03  0.20649313223E+03 -0.48757768678E+02  0.25635061972E+03  0.93504074374E+02 0.  0.
          5    1    3    3  502    0 -0.10951941530E+03 -0.11275230005E+03 -0.14976027135E+03  0.21714786384E+03  0.41800000000E+01 0.  1.
         -5    1    3    3    0  502  0.17640161350E+00 -0.93740832184E+02 -0.15273731879E+02  0.95069101298E+02  0.41800000000E+01 0.  1.
        -11    1    4    4    0    0  0.15756737790E+02  0.92225189777E+02 -0.54977920017E+02  0.10851880991E+03  0.00000000000E+00 0. -1.
         11    1    4    4    0    0  0.93586275901E+02  0.11426794245E+03  0.62201513389E+01  0.14783180981E+03  0.00000000000E+00 0.  1.
</event>
<event>
 8    1  0.3710605E-009  0.9485788E+02  0.7561462E-02  0.1291496E+00
          2   -1    0    0  501    0  0.00000000000E+00  0.00000000000E+00  0.10256847285E+03  0.10256847285E+03  0.00000000000E+00 0. -1.
         -2   -1    0    0    0  501 -0.00000000000E+00 -0.00000000000E+00 -0.12542228862E+03  0.12542228862E+03  0.00000000000E+00 0.  1.
         25    2    1    2    0    0  0.29177056118E+02  0.19388392235E+02 -0.10918505145E+02  0.13036495495E+03  0.12509435386E+03 0.  0.
         23    2    1    2    0    0 -0.29177056118E+02 -0.19388392235E+02 -0.11935310623E+02  0.97625806516E+02  0.90339006532E+02 0.  0.
          5    1    3    3  502    0 -0.47967195967E+01  0.67996112861E+02  0.59929726474E+01  0.68555583320E+02  0.41800000000E+01 0. -1.
         -5    1    3    3    0  502  0.33973775714E+02 -0.48607720626E+02 -0.16911477793E+02  0.61809371635E+02  0.41800000000E+01 0. -1.
        -11    1    4    4    0    0 -0.33224333137E+02 -0.33565589726E+02  0.28104439769E+02  0.54957844397E+02  0.00000000000E+00 0. -1.
         11    1    4    4    0    0  0.40472770199E+01  0.14177197491E+02 -0.40039750392E+02  0.42667962119E+02  0.00000000000E+00 0.  1.
</event>
<event>
 8    1  0.3710605E-009  0.1158625E+03  0.7561462E-02  0.1250083E+00
          2   -1    0    0  501    0  0.00000000000E+00  0.00000000000E+00  0.36630692283E+03  0.36630692283E+03  0.00000000000E+00 0. -1.
         -2   -1    0    0    0  501 -0.00000000000E+00 -0.00000000000E+00 -0.57982557826E+02  0.57982557826E+02  0.00000000000E+00 0.  1.
         25    2    1    2    0    0  0.38934107121E+02  0.90054311192E+02  0.17456527393E+03  0.23610650293E+03  0.12509037613E+03 0.  0.
         23    2    1    2    0    0 -0.38934107121E+02 -0.90054311192E+02  0.13375909107E+03  0.18818297772E+03  0.88857723353E+02 0.  0.
          5    1    3    3  502    0  0.81594430643E+00  0.14256987616E+02 -0.19345574144E+02  0.24405964434E+02  0.41800000000E+01 0.  1.
         -5    1    3    3    0  502  0.38118162814E+02  0.75797323576E+02  0.19391084807E+03  0.21170053849E+03  0.41800000000E+01 0.  1.
        -11    1    4    4    0    0 -0.66046936300E+02 -0.47161277346E+02  0.74497696599E+02  0.11016483411E+03  0.00000000000E+00 0.  1.
         11    1    4    4    0    0  0.27112829179E+02 -0.42893033846E+02  0.59261394472E+02  0.78018143616E+02  0.00000000000E+00 0. -1.
</event>
<event>
 8    1  0.3710605E-009  0.9248390E+02  0.7561462E-02  0.1296946E+00
          2   -1    0    0  501    0  0.00000000000E+00  0.00000000000E+00  0.87885120409E+02  0.87885120409E+02  0.00000000000E+00 0. -1.
         -2   -1    0    0    0  501 -0.00000000000E+00 -0.00000000000E+00 -0.18531250747E+03  0.18531250747E+03  0.00000000000E+00 0.  1.
         25    2    1    2    0    0 -0.33747697519E+02 -0.23821699636E+02  0.35043699975E+01  0.13177764812E+03  0.12508671982E+03 0.  0.
         23    2    1    2    0    0  0.33747697519E+02  0.23821699636E+02 -0.10093175705E+03  0.14141997975E+03  0.90033386195E+02 0.  0.
          5    1    3    3  502    0 -0.31726337247E+02 -0.54032511312E+02  0.47125652420E+02  0.78513516479E+02  0.41800000000E+01 0. -1.
         -5    1    3    3    0  502 -0.20213602715E+01  0.30210811676E+02 -0.43621282423E+02  0.53264131643E+02  0.41800000000E+01 0. -1.
        -11    1    4    4    0    0 -0.15685875977E+02  0.37217657993E+02 -0.72111455340E+02  0.82651453483E+02  0.00000000000E+00 0.  1.
         11    1    4    4    0    0  0.49433573496E+02 -0.13395958358E+02 -0.28820301714E+02  0.58768526269E+02  0.00000000000E+00 0. -1.
</event>
<event>
 8    1  0.3710605E-009  0.1799826E+03  0.7561462E-02  0.1167820E+00
         -3   -1    0    0    0  501 -0.00000000000E+00  0.00000000000E+00  0.18061269660E+03  0.18061269660E+03  0.00000000000E+00 0.  1.
          3   -1    0    0  501    0  0.00000000000E+00 -0.00000000000E+00 -0.23383117581E+03  0.23383117581E+03  0.00000000000E+00 0. -1.
         25    2    1    2    0    0 -0.28474607753E+02 -0.17131354524E+03 -0.16456200463E+02  0.21465824563E+03  0.12509285276E+03 0.  0.
         23    2    1    2    0    0  0.28474607753E+02  0.17131354524E+03 -0.36762278747E+02  0.19978562679E+03  0.91671682989E+02 0.  0.
          5    1    3    3  502    0 -0.26893017931E+02 -0.54701357109E+02  0.51245684485E+02  0.79743748728E+02  0.41800000000E+01 0. -1.
         -5    1    3    3    0  502 -0.15815898220E+01 -0.11661218813E+03 -0.67701884948E+02  0.13491449690E+03  0.41800000000E+01 0. -1.
        -11    1    4    4    0    0  0.27310583011E+02  0.28942445053E+02 -0.41281014322E+02  0.57338078216E+02  0.00000000000E+00 0. -1.
         11    1    4    4    0    0  0.11640247413E+01  0.14237110019E+03  0.45187355752E+01  0.14244754857E+03  0.00000000000E+00 0.  1.
</event>
<event>
 8    1  0.3710605E-009  0.1054731E+03  0.7561462E-02  0.1269190E+00
         -1   -1    0    0    0  501 -0.00000000000E+00  0.00000000000E+00  0.30991512706E+03  0.30991512706E+03  0.00000000000E+00 0.  1.
          1   -1    0    0  501    0  0.00000000000E+00 -0.00000000000E+00 -0.73830619307E+02  0.73830619307E+02  0.00000000000E+00 0. -1.
         25    2    1    2    0    0 -0.19939773251E+02  0.65783126524E+02  0.22585585259E+03  0.26717771078E+03  0.12509216082E+03 0.  0.
         23    2    1    2    0    0  0.19939773251E+02 -0.65783126524E+02  0.10228655163E+02  0.11656803558E+03  0.93586683030E+02 0.  0.
          5    1    3    3  502    0  0.19880391717E+02 -0.31127732932E+02  0.71338628590E+02  0.80441519512E+02  0.41800000000E+01 0.  1.
         -5    1    3    3    0  502 -0.39820164967E+02  0.96910859456E+02  0.15451722400E+03  0.18673619127E+03  0.41800000000E+01 0.  1.
        -11    1    4    4    0    0  0.17823298835E+02 -0.51880433710E+02 -0.37737061296E+02  0.66583295042E+02  0.00000000000E+00 0. -1.
         11    1    4    4    0    0  0.21164744160E+01 -0.13902692814E+02  0.47965716460E+02  0.49984740541E+02  0.00000000000E+00 0.  1.
</event>
<event>
 8    1  0.3710605E-009  0.1125396E+03  0.7561462E-02  0.1255938E+00
         -2   -1    0    0    0  501 -0.00000000000E+00  0.00000000000E+00  0.85356180847E+02  0.85356180847E+02  0.00000000000E+00 0.  1.
          2   -1    0    0  501    0  0.00000000000E+00 -0.00000000000E+00 -0.17101920918E+03  0.17101920918E+03  0.00000000000E+00 0. -1.
         25    2    1    2    0    0 -0.42807136199E+02  0.14609974912E+02 -0.75892599310E+02  0.15314259886E+03  0.12508823558E+03 0.  0.
         23    2    1    2    0    0  0.42807136199E+02 -0.14609974912E+02 -0.97704290193E+01  0.10323279116E+03  0.92280255803E+02 0.  0.
          5    1    3    3  502    0 -0.59969039714E+02 -0.42006467683E+02 -0.36260863656E+02  0.81811684279E+02  0.41800000000E+01 0. -1.
         -5    1    3    3    0  502  0.17161903515E+02  0.56616442596E+02 -0.39631735654E+02  0.71330914584E+02  0.41800000000E+01 0. -1.
        -11    1    4    4    0    0  0.20580660512E+01  0.31117271433E+02  0.17972388983E+02  0.35993429720E+02  0.00000000000E+00 0.  1.
         11    1    4    4    0    0  0.40749070148E+02 -0.45727246345E+02 -0.27742818002E+02  0.67239361441E+02  0.00000000000E+00 0. -1.
</event>
<event>
 8    1  0.3710605E-009  0.1070308E+03  0.7561462E-02  0.1266169E+00
         -1   -1    0    0    0  501 -0.00000000000E+00  0.00000000000E+00  0.28155309716E+02  0.28155309716E+02  0.00000000000E+00 0.  1.
          1   -1    0    0  501    0  0.00000000000E+00 -0.00000000000E+00 -0.57130150790E+03  0.57130150790E+03  0.00000000000E+00 0. -1.
         25    2    1    2    0    0 -0.24344402672E+02  0.50025969294E+02 -0.22613026860E+03  0.26434123933E+03  0.12508455096E+03 0.  0.
         23    2    1    2    0    0  0.24344402672E+02 -0.50025969294E+02 -0.31701592958E+03  0.33511557828E+03  0.93317220565E+02 0.  0.
          5    1    3    3  502    0  0.28005480505E+02  0.46811090449E+02 -0.19646420249E+03  0.20393930565E+03  0.41800000000E+01 0.  1.
         -5    1    3    3    0  502 -0.52349883176E+02  0.32148788455E+01 -0.29666066114E+02  0.60401933688E+02  0.41800000000E+01 0.  1.
        -11    1    4    4    0    0  0.11697380944E+02  0.26608943878E+02 -0.60897131938E+02  0.67478332029E+02  0.00000000000E+00 0.  1.
         11    1    4    4    0    0  0.12647021727E+02 -0.76634913172E+02 -0.25611879765E+03  0.26763724625E+03  0.00000000000E+00 0. -1.
</event>
<event>
 8    1  0.3710605E-009  0.9431181E+02  0.7561462E-02  0.1292734E+00
          1   -1    0    0  501    0  0.00000000000E+00  0.00000000000E+00  0.19015102447E+03  0.19015102447E+03  0.00000000000E+00 0. -1.
         -1   -1    0    0    0  501 -0.00000000000E+00 -0.00000000000E+00 -0.11634860833E+03  0.11634860833E+03  0.00000000000E+00 0.  1.
         25    2    1    2    0    0  0.25382876905E+02 -0.88558994970E+02 -0.27766140812E+01  0.15537740811E+03  0.12508974112E+03 0.  0.
         23    2    1    2    0    0 -0.25382876905E+02  0.88558994970E+02  0.76579030212E+02  0.15112222469E+03  0.92122705661E+02 0.  0.
          5    1    3    3  502    0  0.15290541855E+02 -0.75950243698E+02 -0.58526030680E+02  0.97185435407E+02  0.41800000000E+01 0.  1.
         -5    1    3    3    0  502  0.10092335051E+02 -0.12608751271E+02  0.55749416599E+02  0.58191972698E+02  0.41800000000E+01 0.  1.
        -11    1    4    4    0    0 -0.95790758468E+01  0.86796141555E+01 -0.20611257292E+02  0.24329371614E+02  0.00000000000E+00 0.  1.
         11    1    4    4    0    0 -0.15803801059E+02  0.79879380814E+02  0.97190287504E+02  0.12679285308E+03  0.00000000000E+00 0. -1.
</event>
<event>
 8    1  0.3710605E-009  0.5722793E+02  0.7561462E-02  0.1409847E+00
          1   -1    0    0  501    0  0.00000000000E+00  0.00000000000E+00  0.10940459161E+03  0.10940459161E+03  0.00000000000E+00 0. -1.
         -1   -1    0    0    0  501 -0.00000000000E+00 -0.00000000000E+00 -0.14851389008E+03  0.14851389008E+03  0.00000000000E+00 0.  1.
         25    2    1    2    0    0 -0.47786647238E+02 -0.13858415943E+02 -0.65736334081E+02  0.14981723743E+03  0.12509324389E+03 0.  0.
         23    2    1    2    0    0  0.47786647238E+02  0.13858415943E+02  0.26627035616E+02  0.10810124426E+03  0.92202281090E+02 0.  0.
          5    1    3    3  502    0  0.51008937141E-01 -0.11862827212E+02 -0.93480433070E+02  0.94322812927E+02  0.41800000000E+01 0.  1.
         -5    1    3    3    0  502 -0.47837656175E+02 -0.19955887311E+01  0.27744098989E+02  0.55494424507E+02  0.41800000000E+01 0.  1.
        -11    1    4    4    0    0  0.52635880873E+01  0.97698062618E+01 -0.32962873201E+02  0.34780820629E+02  0.00000000000E+00 0.  1.
         11    1    4    4    0    0  0.42523059150E+02  0.40886096817E+01  0.59589908817E+02  0.73320423631E+02  0.00000000000E+00 0. -1.
</event>
<event>
 8    1  0.3710605E-009  0.7752626E+02  0.7561462E-02  0.1336222E+00
         -1   -1    0    0    0  501 -0.00000000000E+00  0.00000000000E+00  0.12647816755E+02  0.12647816755E+02  0.00000000000E+00 0.  1.
          1   -1    0    0  501    0  0.00000000000E+00 -0.00000000000E+00 -0.11149428042E+04  0.11149428042E+04  0.00000000000E+00 0. -1.
         25    2    1    2    0    0 -0.27943317692E+02  0.27740215720E+02 -0.76095784080E+03  0.77217521990E+03  0.12508951269E+03 0.  0.
         23    2    1    2    0    0  0.27943317692E+02 -0.27740215720E+02 -0.34133714667E+03  0.35541540108E+03  0.90877450745E+02 0.  0.
          5    1    3    3  502    0  0.14956832306E+02  0.18498667840E+02 -0.24516510637E+02  0.34415683028E+02  0.41800000000E+01 0.  1.
         -5    1    3    3    0  502 -0.42900149999E+02  0.92415478805E+01 -0.73644133016E+03  0.73775953687E+03  0.41800000000E+01 0.  1.
        -11    1    4    4    0    0 -0.18597484308E+02  0.14796392103E+02 -0.32817754749E+02  0.40519188894E+02  0.00000000000E+00 0.  1.
         11    1    4    4    0    0  0.46540802000E+02 -0.42536607824E+02 -0.30851939192E+03  0.31489621219E+03  0.00000000000E+00 0. -1.
</event>
<event>
 8    1  0.3710605E-009  0.1255023E+03  0.7561462E-02  0.1234286E+00
          2   -1    0    0  501    0  0.00000000000E+00  0.00000000000E+00  0.14549016887E+03  0.14549016887E+03  0.00000000000E+00 0. -1.
         -2   -1    0    0    0  501 -0.00000000000E+00 -0.00000000000E+00 -0.13118816282E+03  0.13118816282E+03  0.00000000000E+00 0.  1.
         25    2    1    2    0    0 -0.71935522130E+02 -0.26675355400E+02  0.43274070548E+02  0.15298731076E+03  0.12508468389E+03 0.  0.
         23    2    1    2    0    0  0.71935522130E+02  0.26675355400E+02 -0.28972064505E+02  0.12369102092E+03  0.92594784982E+02 0.  0.
          5    1    3    3  502    0 -0.88091780865E+02  0.12727543726E+02  0.59586594551E+02  0.10719228925E+03  0.41800000000E+01 0.  1.
         -5    1    3    3    0  502  0.16156258735E+02 -0.39402899126E+02 -0.16312524003E+02  0.45795021511E+02  0.41800000000E+01 0.  1.
        -11    1    4    4    0    0  0.75944577751E+02 -0.14856360913E+02 -0.10622796983E+02  0.78109757170E+02  0.00000000000E+00 0. -1.
         11    1    4    4    0    0 -0.40090556210E+01  0.41531716313E+02 -0.18349267523E+02  0.45581263755E+02  0.00000000000E+00 0.  1.
</event>
<event>
 8    1  0.3710605E-009  0.1329791E+03  0.7561462E-02  0.1223101E+00
         -1   -1    0    0    0  501 -0.00000000000E+00  0.00000000000E+00  0.12716586075E+03  0.12716586075E+03  0.00000000000E+00 0.  1.
          1   -1    0    0  501    0  0.00000000000E+00 -0.00000000000E+00 -0.18557579797E+03  0.18557579797E+03  0.00000000000E+00 0. -1.
         25    2    1    2    0    0  0.20748105811E+02 -0.10478638833E+03 -0.12013744936E+02  0.16493738395E+03  0.12509732006E+03 0.  0.
         23    2    1    2    0    0 -0.20748105811E+02  0.10478638833E+03 -0.46396192283E+02  0.14780427476E+03  0.91010031900E+02 0.  0.
          5    1    3    3  502    0  0.58169012403E+02 -0.66672119778E+02 -0.47658613052E+02  0.10058638754E+03  0.41800000000E+01 0.  1.
         -5    1    3    3    0  502 -0.37420906591E+02 -0.38114268548E+02  0.35644868116E+02  0.64350996418E+02  0.41800000000E+01 0.  1.
        -11    1    4    4    0    0  0.21068110929E+02  0.19014927887E+02  0.17149823339E+02  0.33159451461E+02  0.00000000000E+00 0.  1.
         11    1    4    4    0    0 -0.41816216740E+02  0.85771460439E+02 -0.63546015622E+02  0.11464482330E+03  0.00000000000E+00 0. -1.
</event>
<event>
 8    1  0.3710605E-009  0.1206227E+03  0.7561462E-02  0.1242073E+00
         -2   -1    0    0    0  501 -0.00000000000E+00  0.00000000000E+00  0.30886993180E+03  0.30886993180E+03  0.00000000000E+00 0.  1.
          2   -1    0    0  501    0  0.00000000000E+00 -0.00000000000E+00 -0.53339461539E+02  0.53339461539E+02  0.00000000000E+00 0. -1.
         25    2    1    2    0    0  0.18089438491E+01  0.58037609469E+02  0.88609660296E+02  0.16392285013E+03  0.12508953796E+03 0.  0.
         23    2    1    2    0    0 -0.18089438491E+01 -0.58037609469E+02  0.16692080997E+03  0.19828654321E+03  0.89907508181E+02 0.  0.
          5    1    3    3  502    0  0.53090996632E+02 -0.71250261521E+01  0.24638204770E+02  0.59109503934E+02  0.41800000000E+01 0. -1.
         -5    1    3    3    0  502 -0.51282052783E+02  0.65162635621E+02  0.63971455526E+02  0.10481334620E+03  0.41800000000E+01 0. -1.
        -11    1    4    4    0    0 -0.31745219799E+02 -0.66235571974E+02  0.13545962406E+03  0.15409159524E+03  0.00000000000E+00 0.  1.
         11    1    4    4    0    0  0.29936275950E+02  0.81979625048E+01  0.31461185913E+02  0.44194947969E+02  0.00000000000E+00 0. -1.
</event>
<event>
 8    1  0.3710605E-009  0.1746506E+03  0.7561462E-02  0.1173083E+00
          3   -1    0    0  501    0  0.00000000000E+00  0.00000000000E+00  0.82878711661E+03  0.82878711661E+03  0.00000000000E+00 0. -1.
         -3   -1    0    0    0  501 -0.00000000000E+00 -0.00000000000E+00 -0.40150562741E+02  0.40150562741E+02  0.00000000000E+00 0.  1.
         25    2    1    2    0    0 -0.56301259859E+02  0.12612377177E+03  0.51507793181E+03  0.54774627560E+03  0.12507465344E+03 0.  0.
         23    2    1    2    0    0  0.56301259859E+02 -0.12612377177E+03  0.27355862206E+03  0.32119140375E+03  0.96190230647E+02 0.  0.
          5    1    3    3  502    0 -0.95240170632E+02  0.99550317239E+02  0.35502549110E+03  0.38084317966E+03  0.41800000000E+01 0. -1.
         -5    1    3    3    0  502  0.38938910773E+02  0.26573454527E+02  0.16005244071E+03  0.16690309594E+03  0.41800000000E+01 0. -1.
        -11    1    4    4    0    0  0.63353453380E+02 -0.13713581369E+03  0.22577629425E+03  0.27165203201E+03  0.00000000000E+00 0.  1.
         11    1    4    4    0    0 -0.70521935202E+01  0.11012041926E+02  0.47782327808E+02  0.49539371731E+02  0.00000000000E+00 0. -1.
</event>
<event>
 8    1  0.3710605E-009  0.8354530E+02  0.7561462E-02  0.1319281E+00
         -1   -1    0    0    0  501 -0.00000000000E+00  0.00000000000E+00  0.37916646334E+02  0.37916646334E+02  0.00000000000E+00 0.  1.
          1   -1    0    0  501    0  0.00000000000E+00 -0.00000000000E+00 -0.33775873587E+03  0.33775873587E+03  0.00000000000E+00 0. -1.
         25    2    1    2    0    0 -0.76868806563E+01  0.10797271335E+02 -0.12109133463E+03  0.17460204118E+03  0.12508833782E+03 0.  0.
         23    2    1    2    0    0  0.76868806563E+01 -0.10797271335E+02 -0.17875075491E+03  0.20107334103E+03  0.91120726997E+02 0.  0.
          5    1    3    3  502    0 -0.30489962529E+02  0.31537736541E+02  0.53516499423E+01  0.44388953561E+02  0.41800000000E+01 0. -1.
         -5    1    3    3    0  502  0.22803081872E+02 -0.20740465206E+02 -0.12644298457E+03  0.13021308762E+03  0.41800000000E+01 0. -1.
        -11    1    4    4    0    0  0.31752126323E+02  0.30560066109E+02 -0.79779251586E+02  0.91141890205E+02  0.00000000000E+00 0.  1.
         11    1    4    4    0    0 -0.24065245667E+02 -0.41357337444E+02 -0.98971503326E+02  0.10993145082E+03  0.00000000000E+00 0. -1.
</event>
<event>
 8    1  0.3710605E-009  0.1405502E+03  0.7561462E-02  0.1212591E+00
          1   -1    0    0  501    0  0.00000000000E+00  0.00000000000E+00  0.20178666580E+03  0.20178666580E+03  0.00000000000E+00 0. -1.
         -1   -1    0    0    0  501 -0.00000000000E+00 -0.00000000000E+00 -0.12590265841E+03  0.12590265841E+03  0.00000000000E+00 0.  1.
         25    2    1    2    0    0  0.55658544716E+02 -0.10056904424E+03  0.59159809907E+02  0.17988872572E+03  0.12509222307E+03 0.  0.
         23    2    1    2    0    0 -0.55658544716E+02  0.10056904424E+03  0.16724197485E+02  0.14780059849E+03  0.91396454380E+02 0.  0.
          5    1    3    3  502    0  0.17846647860E+02 -0.98300377050E+02 -0.10440070571E+02  0.10053822378E+03  0.41800000000E+01 0.  1.
         -5    1    3    3    0  502  0.37811896856E+02 -0.22686671897E+01  0.69599880478E+02  0.79350501934E+02  0.41800000000E+01 0.  1.
        -11    1    4    4    0    0 -0.68921119767E+02  0.37330878130E+02 -0.76231146288E+01  0.78751679910E+02  0.00000000000E+00 0.  1.
         11    1    4    4    0    0  0.13262575051E+02  0.63238166110E+02  0.24347312114E+02  0.69048918580E+02  0.00000000000E+00 0. -1.
</event>
<event>
 8    1  0.3710605E-009  0.1315879E+03  0.7561462E-02  0.1225118E+00
          4   -1    0    0  501    0  0.00000000000E+00  0.00000000000E+00  0.53617238456E+03  0.53617238456E+03  0.00000000000E+00 0. -1.
         -4   -1    0    0    0  501 -0.00000000000E+00 -0.00000000000E+00 -0.39184342970E+02  0.39184342970E+02  0.00000000000E+00 0.  1.
         25    2    1    2    0    0 -0.27348237960E+02  0.89343158570E+02  0.22384528683E+03  0.27291787616E+03  0.12508928247E+03 0.  0.
         23    2    1    2    0    0  0.27348237960E+02 -0.89343158570E+02  0.27314275476E+03  0.30243885136E+03  0.90178535339E+02 0.  0.
          5    1    3    3  502    0 -0.31717158491E+02  0.11406060489E+03  0.13086691103E+03  0.17652031195E+03  0.41800000000E+01 0. -1.
         -5    1    3    3    0  502  0.43689205309E+01 -0.24717446315E+02  0.92978375802E+02  0.96397564210E+02  0.41800000000E+01 0. -1.
        -11    1    4    4    0    0 -0.25826277277E+02 -0.30041139850E+02  0.15479319803E+03  0.15978235459E+03  0.00000000000E+00 0. -1.
         11    1    4    4    0    0  0.53174515237E+02 -0.59302018720E+02  0.11834955672E+03  0.14265649677E+03  0.00000000000E+00 0.  1.
</event>
<event>
 8    1  0.3710605E-009  0.9638834E+02  0.7561462E-02  0.1288079E+00
         -1   -1    0    0    0  501 -0.00000000000E+00  0.00000000000E+00  0.21683012599E+02  0.21683012599E+02  0.00000000000E+00 0.  1.
          1   -1    0    0  501    0  0.00000000000E+00 -0.00000000000E+00 -0.59499559797E+03  0.59499559797E+03  0.00000000000E+00 0. -1.
         25    2    1    2    0    0  0.80313974043E+01  0.10450882825E+02 -0.46112965883E+03  0.47797695763E+03  0.12509070899E+03 0.  0.
         23    2    1    2    0    0 -0.80313974043E+01 -0.10450882825E+02 -0.11218292654E+03  0.13870165294E+03  0.80494814897E+02 0.  0.
          5    1    3    3  502    0  0.56323147574E+02  0.24415078577E+02 -0.35710334270E+03  0.36236537194E+03  0.41800000000E+01 0. -1.
         -5    1    3    3    0  502 -0.48291750169E+02 -0.13964195753E+02 -0.10402631613E+03  0.11561158569E+03  0.41800000000E+01 0. -1.
        -11    1    4    4    0    0  0.33093614848E+02  0.10407274778E+02 -0.38939921372E+02  0.52151856999E+02  0.00000000000E+00 0.  1.
         11    1    4    4    0    0 -0.41125012252E+02 -0.20858157603E+02 -0.73243005169E+02  0.86549795942E+02  0.00000000000E+00 0. -1.
</event>
<event>
 8    1  0.3710605E-009  0.1178098E+03  0.7561462E-02  0.1246754E+00
          1   -1    0    0  501    0  0.00000000000E+00  0.00000000000E+00  0.47293405187E+03  0.47293405187E+03  0.00000000000E+00 0. -1.
         -1   -1    0    0    0  501 -0.00000000000E+00 -0.00000000000E+00 -0.33748401562E+02  0.33748401562E+02  0.00000000000E+00 0.  1.
         25    2    1    2    0    0 -0.66742121898E+02  0.67765466913E+01  0.25293026270E+03  0.29003611759E+03  0.12508716679E+03 0.  0.
         23    2    1    2    0    0  0.66742121898E+02 -0.67765466913E+01  0.18625538761E+03  0.21664633584E+03  0.88000755683E+02 0.  0.
          5    1    3    3  502    0  0.30249387407E+02 -0.24435679938E+02  0.56540149188E+02  0.68748736445E+02  0.41800000000E+01 0.  1.
         -5    1    3    3    0  502 -0.96991509305E+02  0.31212226630E+02  0.19639011351E+03  0.22128738114E+03  0.41800000000E+01 0.  1.
        -11    1    4    4    0    0  0.29234433230E+02 -0.36437495182E+02  0.36035313435E+02  0.58999041990E+02  0.00000000000E+00 0.  1.
         11    1    4    4    0    0  0.37507688668E+02  0.29660948490E+02  0.15022007417E+03  0.15764729385E+03  0.00000000000E+00 0. -1.
</event>
<event>
 8    1  0.3710605E-009  0.1392177E+03  0.7561462E-02  0.1214386E+00
          3   -1    0    0  501    0  0.00000000000E+00  0.00000000000E+00  0.44513771040E+03  0.44513771040E+03  0.00000000000E+00 0. -1.
         -3   -1    0    0    0  501 -0.00000000000E+00 -0.00000000000E+00 -0.53533575755E+02  0.53533575755E+02  0.00000000000E+00 0.  1.
         25    2    1    2    0    0 -0.82303606659E+02  0.56490076057E+02  0.14311950317E+03  0.21469851015E+03  0.12508895119E+03 0.  0.
         23    2    1    2    0    0  0.82303606659E+02 -0.56490076057E+02  0.24848463147E+03  0.28397277601E+03  0.94503508252E+02 0.  0.
          5    1    3    3  502    0  0.12109681541E+00 -0.32962116853E+02  0.10848459100E+02  0.34952500293E+02  0.41800000000E+01 0. -1.
         -5    1    3    3    0  502 -0.82424703475E+02  0.89452192911E+02  0.13227104407E+03  0.17974600986E+03  0.41800000000E+01 0. -1.
        -11    1    4    4    0    0  0.84743954274E+02 -0.69910968544E+02  0.24690235022E+03  0.27024035941E+03  0.00000000000E+00 0. -1.
         11    1    4    4    0    0 -0.24403476145E+01  0.13420892487E+02  0.15822812522E+01  0.13732416597E+02  0.00000000000E+00 0.  1.
</event>
<event>
 8    1  0.3710605E-009  0.9982828E+02  0.7561462E-02  0.1280657E+00
         -1   -1    0    0    0  501 -0.00000000000E+00  0.00000000000E+00  0.31593376206E+02  0.31593376206E+02  0.00000000000E+00 0.  1.
          1   -1    0    0  501    0  0.00000000000E+00 -0.00000000000E+00 -0.51177974874E+03  0.51177974874E+03  0.00000000000E+00 0. -1.
         25    2    1    2    0    0  0.44759758808E+02  0.45548621014E+02 -0.23070353226E+03  0.27008740461E+03  0.12507986828E+03 0.  0.
         23    2    1    2    0    0 -0.44759758808E+02 -0.45548621014E+02 -0.24948284028E+03  0.27328572034E+03  0.91461929026E+02 0.  0.
          5    1    3    3  502    0  0.87022262017E+01  0.51484074446E+02 -0.19796898864E+02  0.55997573760E+02  0.41800000000E+01 0.  1.
         -5    1    3    3    0  502  0.36057532606E+02 -0.59354534321E+01 -0.21090663339E+03  0.21408983085E+03  0.41800000000E+01 0.  1.
        -11    1    4    4    0    0 -0.42373579679E+02  0.18617818558E+02 -0.12339610687E+03  0.13179052550E+03  0.00000000000E+00 0. -1.
         11    1    4    4    0    0 -0.23861791284E+01 -0.64166439571E+02 -0.12608673341E+03  0.14149519483E+03  0.00000000000E+00 0.  1.
</event>
<event>
 8    1  0.3710605E-009  0.8628701E+02  0.7561462E-02  0.1312101E+00
          1   -1    0    0  501    0  0.00000000000E+00  0.00000000000E+00  0.50292778288E+03  0.50292778288E+03  0.00000000000E+00 0. -1.
         -1   -1    0    0    0  501 -0.00000000000E+00 -0.00000000000E+00 -0.24865611216E+02  0.24865611216E+02  0.00000000000E+00 0.  1.
         25    2    1    2    0    0  0.13698698495E+02 -0.75651130355E+01  0.22989129081E+03  0.26218722622E+03  0.12508897126E+03 0.  0.
         23    2    1    2    0    0 -0.13698698495E+02  0.75651130355E+01  0.24817088086E+03  0.26560616788E+03  0.93343264522E+02 0.  0.
          5    1    3    3  502    0  0.37778677438E+02 -0.27558281672E+02  0.21886514278E+02  0.51799413751E+02  0.41800000000E+01 0.  1.
         -5    1    3    3    0  502 -0.24079978942E+02  0.19993168636E+02  0.20800477653E+03  0.21038781247E+03  0.41800000000E+01 0.  1.
        -11    1    4    4    0    0  0.13228380167E+02  0.45581883858E+02  0.14011070741E+03  0.14793143178E+03  0.00000000000E+00 0. -1.
         11    1    4    4    0    0 -0.26927078662E+02 -0.38016770823E+02  0.10806017345E+03  0.11767473609E+03  0.00000000000E+00 0.  1.
</event>
<event>
 8    1  0.3710605E-009  0.1056869E+03  0.7561462E-02  0.1268772E+00
         -1   -1    0    0    0  501 -0.00000000000E+00  0.00000000000E+00  0.21946771789E+02  0.21946771789E+02  0.00000000000E+00 0.  1.
          1   -1    0    0  501    0  0.00000000000E+00 -0.00000000000E+00 -0.64816965502E+03  0.64816965502E+03  0.00000000000E+00 0. -1.
         25    2    1    2    0    0 -0.67833226406E+00 -0.40038309640E+02 -0.44563756230E+03  0.46459001671E+03  0.12509004884E+03 0.  0.
         23    2    1    2    0    0  0.67833226406E+00  0.40038309640E+02 -0.18058532093E+03  0.20552641010E+03  0.89590851875E+02 0.  0.
          5    1    3    3  502    0  0.39394752556E+02 -0.70401377345E+02 -0.26495862920E+03  0.27699972572E+03  0.41800000000E+01 0.  1.
         -5    1    3    3    0  502 -0.40073084820E+02  0.30363067704E+02 -0.18067893310E+03  0.18759029099E+03  0.41800000000E+01 0.  1.
        -11    1    4    4    0    0 -0.33425834532E+02  0.29121806568E+02 -0.37615099466E+02  0.58140018402E+02  0.00000000000E+00 0.  1.
         11    1    4    4    0    0  0.34104166796E+02  0.10916503073E+02 -0.14297022147E+03  0.14738639170E+03  0.00000000000E+00 0. -1.
</event>
<event>
 8    1  0.3710605E-009  0.1058339E+03  0.7561462E-02  0.1268485E+00
         -1   -1    0    0    0  501 -0.00000000000E+00  0.00000000000E+00  0.16636991114E+03  0.16636991114E+03  0.00000000000E+00 0.  1.
          1   -1    0    0  501    0  0.00000000000E+00 -0.00000000000E+00 -0.10148776682E+03  0.10148776682E+03  0.00000000000E+00 0. -1.
         25    2    1    2    0    0  0.12839733159E+02  0.64608937833E+02  0.64060465455E+01  0.14151813321E+03  0.12508865256E+03 0.  0.
         23    2    1    2    0    0 -0.12839733159E+02 -0.64608937833E+02  0.58476097769E+02  0.12633954475E+03  0.90570706981E+02 0.  0.
          5    1    3    3  502    0  0.48105216946E+02  0.11083908649E+02 -0.38836485903E+02  0.62950059298E+02  0.41800000000E+01 0.  1.
         -5    1    3    3    0  502 -0.35265483787E+02  0.53525029184E+02  0.45242532448E+02  0.78568073912E+02  0.41800000000E+01 0.  1.
        -11    1    4    4    0    0  0.24319565615E+02 -0.11423282219E+01  0.45577112760E+02  0.51672230385E+02  0.00000000000E+00 0.  1.
         11    1    4    4    0    0 -0.37159298774E+02 -0.63466609611E+02  0.12898985010E+02  0.74667314369E+02  0.00000000000E+00 0. -1.
</event>
<event>
 8    1  0.3710605E-009  0.1358981E+03  0.7561462E-02  0.1218957E+00
         -1   -1    0    0    0  501 -0.00000000000E+00  0.00000000000E+00  0.43237776706E+02  0.43237776706E+02  0.00000000000E+00 0.  1.
          1   -1    0    0  501    0  0.00000000000E+00 -0.00000000000E+00 -0.49938200130E+03  0.49938200130E+03  0.00000000000E+00 0. -1.
         25    2    1    2    0    0 -0.79831554576E+02  0.51535359824E+02 -0.19358835650E+03  0.24930532275E+03  0.12509085404E+03 0.  0.
         23    2    1    2    0    0  0.79831554576E+02 -0.51535359824E+02 -0.26255586810E+03  0.29331445525E+03  0.89826584979E+02 0.  0.
          5    1    3    3  502    0 -0.66708742317E+02 -0.21127598040E+02 -0.44918187094E+02  0.83255916500E+02  0.41800000000E+01 0. -1.
         -5    1    3    3    0  502 -0.13122812259E+02  0.72662957864E+02 -0.14867016940E+03  0.16604940625E+03  0.41800000000E+01 0. -1.
        -11    1    4    4    0    0  0.95892132841E+02 -0.56031452131E+02 -0.24553153520E+03  0.26948202083E+03  0.00000000000E+00 0. -1.
         11    1    4    4    0    0 -0.16060578265E+02  0.44960923071E+01 -0.17024332897E+02  0.23832434429E+02  0.00000000000E+00 0.  1.
</event>
<event>
 8    1  0.3710605E-009  0.2051583E+03  0.7561462E-02  0.1145459E+00
          2   -1    0    0  501    0  0.00000000000E+00  0.00000000000E+00  0.93054331612E+03  0.93054331612E+03  0.00000000000E+00 0. -1.
         -2   -1    0    0    0  501 -0.00000000000E+00 -0.00000000000E+00 -0.52739678606E+02  0.52739678606E+02  0.00000000000E+00 0.  1.
         25    2    1    2    0    0  0.12880574388E+03  0.12543124501E+03  0.61195915281E+03  0.64997289070E+03  0.12508731768E+03 0.  0.
         23    2    1    2    0    0 -0.12880574388E+03 -0.12543124501E+03  0.26584448470E+03  0.33331010403E+03  0.89991213587E+02 0.  0.
          5    1    3    3  502    0  0.58781689961E+02 -0.78414988031E+01  0.26752549489E+03  0.27405134372E+03  0.41800000000E+01 0.  1.
         -5    1    3    3    0  502  0.70024053923E+02  0.13327274381E+03  0.34443365792E+03  0.37592154698E+03  0.41800000000E+01 0.  1.
        -11    1    4    4    0    0 -0.72242063578E+02 -0.11623932142E+02  0.11166237137E+03  0.13350099898E+03  0.00000000000E+00 0. -1.
         11    1    4    4    0    0 -0.56563680305E+02 -0.11380731286E+03  0.15418211334E+03  0.19980910506E+03  0.00000000000E+00 0.  1.
</event>
<event>
 8    1  0.3710605E-009  0.1064270E+03  0.7561462E-02  0.1267333E+00
         -2   -1    0    0    0  501 -0.00000000000E+00  0.00000000000E+00  0.12693619578E+03  0.12693619578E+03  0.00000000000E+00 0.  1.
          2   -1    0    0  501    0  0.00000000000E+00 -0.00000000000E+00 -0.10921737131E+03  0.10921737131E+03  0.00000000000E+00 0. -1.
         25    2    1    2    0    0 -0.40480373423E+02 -0.24176919510E+02  0.10522149809E+02  0.13409477868E+03  0.12509000745E+03 0.  0.
         23    2    1    2    0    0  0.40480373423E+02  0.24176919510E+02  0.71966746560E+01  0.10205878841E+03  0.90227601632E+02 0.  0.
          5    1    3    3  502    0 -0.75597738491E+02  0.12481677615E+02  0.25733628844E+02  0.80935174026E+02  0.41800000000E+01 0. -1.
         -5    1    3    3    0  502  0.35117365068E+02 -0.36658597124E+02 -0.15211479035E+02  0.53159604653E+02  0.41800000000E+01 0. -1.
        -11    1    4    4    0    0 -0.12808387043E+02  0.28973065714E+02  0.30248274214E+02  0.43800130233E+02  0.00000000000E+00 0.  1.
         11    1    4    4    0    0  0.53288760466E+02 -0.47961462039E+01 -0.23051599558E+02  0.58258658177E+02  0.00000000000E+00 0. -1.
</event>
<event>
 8    1  0.3710605E-009  0.1358537E+03  0.7561462E-02  0.1219020E+00
          2   -1    0    0  501    0  0.00000000000E+00  0.00000000000E+00  0.33470368555E+03  0.33470368555E+03  0.00000000000E+00 0. -1.
         -2   -1    0    0    0  501 -0.00000000000E+00 -0.00000000000E+00 -0.78596920580E+02  0.78596920580E+02  0.00000000000E+00 0.  1.
         25    2    1    2    0    0  0.11807721968E+03 -0.13843789809E+02  0.11787093084E+03  0.20898732420E+03  0.12509302545E+03 0.  0.
         23    2    1    2    0    0 -0.11807721968E+03  0.13843789809E+02  0.13823583413E+03  0.20431328192E+03  0.92200276620E+02 0.  0.
          5    1    3    3  502    0  0.91868725182E+02 -0.32034625834E+02  0.13956453259E+03  0.17018170018E+03  0.41800000000E+01 0. -1.
         -5    1    3    3    0  502  0.26208494503E+02  0.18190836025E+02 -0.21693601746E+02  0.38805624027E+02  0.41800000000E+01 0. -1.
        -11    1    4    4    0    0 -0.62688592639E+02  0.46316391137E+02  0.10840330263E+03  0.13351533154E+03  0.00000000000E+00 0.  1.
         11    1    4    4    0    0 -0.55388627046E+02 -0.32472601329E+02  0.29832531498E+02  0.70797950385E+02  0.00000000000E+00 0. -1.
</event>
<event>
 8    1  0.3710605E-009  0.9851192E+02  0.7561462E-02  0.1283457E+00
          1   -1    0    0  501    0  0.00000000000E+00  0.00000000000E+00  0.30406928347E+03  0.30406928347E+03  0.00000000000E+00 0. -1.
         -1   -1    0    0    0  501 -0.00000000000E+00 -0.00000000000E+00 -0.73418708891E+02  0.73418708891E+02  0.00000000000E+00 0.  1.
         25    2    1    2    0    0 -0.15362244972E+02  0.57802092413E+02  0.19711070527E+02  0.14004852724E+03  0.12509189911E+03 0.  0.
         23    2    1    2    0    0  0.15362244972E+02 -0.57802092413E+02  0.21093950405E+03  0.23743946512E+03  0.91131469700E+02 0.  0.
          5    1    3    3  502    0 -0.48241887770E+02  0.54219871606E+02 -0.31270026273E+02  0.79135081700E+02  0.41800000000E+01 0.  1.
         -5    1    3    3    0  502  0.32879642798E+02  0.35822208068E+01  0.50981096800E+02  0.60913445539E+02  0.41800000000E+01 0.  1.
        -11    1    4    4    0    0 -0.15114473256E+02 -0.58586578567E+02  0.66871663932E+02  0.90181228241E+02  0.00000000000E+00 0.  1.
         11    1    4    4    0    0  0.30476718228E+02  0.78448615448E+00  0.14406784012E+03  0.14725823688E+03  0.00000000000E+00 0. -1.
</event>
<event>
 8    1  0.3710605E-009  0.2073717E+03  0.7561462E-02  0.1143664E+00
         -2   -1    0    0    0  501 -0.00000000000E+00  0.00000000000E+00  0.55662515827E+02  0.55662515827E+02  0.00000000000E+00 0.  1.
          2   -1    0    0  501    0  0.00000000000E+00 -0.00000000000E+00 -0.11217132810E+04  0.11217132810E+04  0.00000000000E+00 0. -1.
         25    2    1    2    0    0 -0.47813328019E+02  0.18148787584E+03 -0.83932158337E+03  0.86909822145E+03  0.12508810816E+03 0.  0.
         23    2    1    2    0    0  0.47813328019E+02 -0.18148787584E+03 -0.22672918182E+03  0.30827757539E+03  0.91678668110E+02 0.  0.
          5    1    3    3  502    0  0.34306853823E+02  0.11323257631E+03 -0.46316382521E+03  0.47805520386E+03  0.41800000000E+01 0. -1.
         -5    1    3    3    0  502 -0.82120181841E+02  0.68255299531E+02 -0.37615775816E+03  0.39104301759E+03  0.41800000000E+01 0. -1.
        -11    1    4    4    0    0 -0.20523792464E+01 -0.28636741493E+02  0.19029336426E+01  0.28773188567E+02  0.00000000000E+00 0.  1.
         11    1    4    4    0    0  0.49865707265E+02 -0.15285113435E+03 -0.22863211546E+03  0.27950438683E+03  0.00000000000E+00 0. -1.
</event>
<event>
 8    1  0.3710605E-009  0.1201972E+03  0.7561462E-02  0.1242772E+00
          3   -1    0    0  501    0  0.00000000000E+00  0.00000000000E+00  0.36648831864E+03  0.36648831864E+03  0.00000000000E+00 0. -1.
         -3   -1    0    0    0  501 -0.00000000000E+00 -0.00000000000E+00 -0.11925835351E+03  0.11925835351E+03  0.00000000000E+00 0.  1.
         25    2    1    2    0    0  0.64726369724E+02  0.43642491895E+02  0.31226479411E+03  0.34532853659E+03  0.12509327122E+03 0.  0.
         23    2    1    2    0    0 -0.64726369724E+02 -0.43642491895E+02 -0.65034828983E+02  0.14041813557E+03  0.96920347600E+02 0.  0.
          5    1    3    3  502    0  0.79408673755E+02  0.55578309591E+01  0.28531027552E+03  0.29623648099E+03  0.41800000000E+01 0.  1.
         -5    1    3    3    0  502 -0.14682304031E+02  0.38084660936E+02  0.26954518591E+02  0.49092055597E+02  0.41800000000E+01 0.  1.
        -11    1    4    4    0    0 -0.87270653628E+02 -0.26111701575E+02 -0.31534478516E+02  0.96397153895E+02  0.00000000000E+00 0. -1.
         11    1    4    4    0    0  0.22544283904E+02 -0.17530790321E+02 -0.33500350467E+02  0.44020981672E+02  0.00000000000E+00 0.  1.
</event>
<event>
 8    1  0.3710605E-009  0.9317363E+02  0.7561462E-02  0.1295343E+00
         -2   -1    0    0    0  501 -0.00000000000E+00  0.00000000000E+00  0.53234986496E+02  0.53234986496E+02  0.00000000000E+00 0.  1.
          2   -1    0    0  501    0  0.00000000000E+00 -0.00000000000E+00 -0.46697453240E+03  0.46697453240E+03  0.00000000000E+00 0. -1.
         25    2    1    2    0    0 -0.17083176689E+02  0.26967097891E+02 -0.39348751345E+03  0.41412414090E+03  0.12508925430E+03 0.  0.
         23    2    1    2    0    0  0.17083176689E+02 -0.26967097891E+02 -0.20252032456E+02  0.10608537800E+03  0.99120650278E+02 0.  0.
          5    1    3    3  502    0  0.76551336295E+01 -0.23970986989E+02 -0.11571834203E+02  0.28010516506E+02  0.41800000000E+01 0.  1.
         -5    1    3    3    0  502 -0.24738310318E+02  0.50938084880E+02 -0.38191567924E+03  0.38611362439E+03  0.41800000000E+01 0.  1.
        -11    1    4    4    0    0  0.57732748829E+02 -0.26202102090E+02 -0.14327489000E+02  0.64999210629E+02  0.00000000000E+00 0. -1.
         11    1    4    4    0    0 -0.40649572141E+02 -0.76499580138E+00 -0.59245434564E+01  0.41086167368E+02  0.00000000000E+00 0.  1.
</event>
<event>
 8    1  0.3710605E-009  0.1617930E+03  0.7561462E-02  0.1186687E+00
          2   -1    0    0  501    0  0.00000000000E+00  0.00000000000E+00  0.34160951608E+03  0.34160951608E+03  0.00000000000E+00 0. -1.
         -2   -1    0    0    0  501 -0.00000000000E+00 -0.00000000000E+00 -0.84933497470E+02  0.84933497470E+02  0.00000000000E+00 0.  1.
         25    2    1    2    0    0  0.10771795097E+03  0.65525411215E+02  0.93901625019E+02  0.20089963556E+03  0.12508561833E+03 0.  0.
         23    2    1    2    0    0 -0.10771795097E+03 -0.65525411215E+02  0.16277439359E+03  0.22564337799E+03  0.92318439898E+02 0.  0.
          5    1    3    3  502    0  0.33238272163E+02  0.89335502620E+02  0.72182795148E+02  0.11963880257E+03  0.41800000000E+01 0.  1.
         -5    1    3    3    0  502  0.74479678807E+02 -0.23810091405E+02  0.21718829871E+02  0.81260832994E+02  0.41800000000E+01 0.  1.
        -11    1    4    4    0    0 -0.10839360778E+03 -0.27483765935E+02  0.14640131596E+03  0.18422235725E+03  0.00000000000E+00 0. -1.
         11    1    4    4    0    0  0.67565680861E+00 -0.38041645280E+02  0.16373077634E+02  0.41421020738E+02  0.00000000000E+00 0.  1.
</event>
<event>
 8    1  0.3710605E-009  0.1724720E+03  0.7561462E-02  0.1175294E+00
          2   -1    0    0  501    0  0.00000000000E+00  0.00000000000E+00  0.15276372304E+03  0.15276372304E+03  0.00000000000E+00 0. -1.
         -2   -1    0    0    0  501 -0.00000000000E+00 -0.00000000000E+00 -0.23864531860E+03  0.23864531860E+03  0.00000000000E+00 0.  1.
         25    2    1    2    0    0  0.14452842333E+03 -0.10915230562E+02 -0.10118126396E+03  0.21653719256E+03  0.12507237977E+03 0.  0.
         23    2    1    2    0    0 -0.14452842333E+03  0.10915230562E+02  0.15299668403E+02  0.17487184908E+03  0.96635792225E+02 0.  0.
          5    1    3    3  502    0  0.10229957353E+03  0.48820946128E+02 -0.37528282370E+02  0.11947607251E+03  0.41800000000E+01 0. -1.
         -5    1    3    3    0  502  0.42228849794E+02 -0.59736176691E+02 -0.63652981588E+02  0.97061120051E+02  0.41800000000E+01 0. -1.
        -11    1    4    4    0    0 -0.11993282321E+03  0.33842263904E+02  0.42456963909E+02  0.13165019823E+03  0.00000000000E+00 0. -1.
         11    1    4    4    0    0 -0.24595600117E+02 -0.22927033341E+02 -0.27157295506E+02  0.43221650849E+02  0.00000000000E+00 0.  1.
</event>
<event>
 8    1  0.3710605E-009  0.1806987E+03  0.7561462E-02  0.1167129E+00
         -1   -1    0    0    0  501 -0.00000000000E+00  0.00000000000E+00  0.38011219079E+03  0.38011219079E+03  0.00000000000E+00 0.  1.
          1   -1    0    0  501    0  0.00000000000E+00 -0.00000000000E+00 -0.16420734482E+03  0.16420734482E+03  0.00000000000E+00 0. -1.
         25    2    1    2    0    0 -0.15524531505E+03  0.74480937491E+02 -0.46120802725E+02  0.21776913728E+03  0.12509097014E+03 0.  0.
         23    2    1    2    0    0  0.15524531505E+03 -0.74480937491E+02  0.26202564869E+03  0.32655039834E+03  0.91264473842E+02 0.  0.
          5    1    3    3  502    0 -0.34910376742E+02  0.27289195422E+02 -0.73172060741E+02  0.85644950021E+02  0.41800000000E+01 0.  1.
         -5    1    3    3    0  502 -0.12033493831E+03  0.47191742068E+02  0.27051258016E+02  0.13212418726E+03  0.41800000000E+01 0.  1.
        -11    1    4    4    0    0  0.77700528722E+02 -0.77791255207E+02  0.19563178936E+03  0.22441178346E+03  0.00000000000E+00 0. -1.
         11    1    4    4    0    0  0.77544786333E+02  0.33103177167E+01  0.66393859334E+02  0.10213861487E+03  0.00000000000E+00 0.  1.
</event>
<event>
 8    1  0.3710605E-009  0.1125140E+03  0.7561462E-02  0.1255984E+00
         -3   -1    0    0    0  501 -0.00000000000E+00  0.00000000000E+00  0.25584309012E+03  0.25584309012E+03  0.00000000000E+00 0.  1.
          3   -1    0    0  501    0  0.00000000000E+00 -0.00000000000E+00 -0.65755275375E+02  0.65755275375E+02  0.00000000000E+00 0. -1.
         25    2    1    2    0    0 -0.36573050196E+01 -0.62710597405E+02  0.14414371057E+03  0.20091622218E+03  0.12507567361E+03 0.  0.
         23    2    1    2    0    0  0.36573050196E+01  0.62710597405E+02  0.45944104171E+02  0.12068214332E+03  0.92235156531E+02 0.  0.
          5    1    3    3  502    0  0.49386273207E+02 -0.39076352952E+02  0.12430156923E+03  0.13940702226E+03  0.41800000000E+01 0.  1.
         -5    1    3    3    0  502 -0.53043578226E+02 -0.23634244454E+02  0.19842141344E+02  0.61509199922E+02  0.41800000000E+01 0.  1.
        -11    1    4    4    0    0  0.40671065790E+02  0.15092781831E+02 -0.23100578642E+01  0.43442652121E+02  0.00000000000E+00 0.  1.
         11    1    4    4    0    0 -0.37013760771E+02  0.47617815574E+02  0.48254162035E+02  0.77239491196E+02  0.00000000000E+00 0. -1.
</event>
<event>
 8    1  0.3710605E-009  0.1242209E+03  0.7561462E-02  0.1236292E+00
          1   -1    0    0  501    0  0.00000000000E+00  0.00000000000E+00  0.52422937758E+03  0.52422937758E+03  0.00000000000E+00 0. -1.
         -1   -1    0    0    0  501 -0.00000000000E+00 -0.00000000000E+00 -0.34215782952E+02  0.34215782952E+02  0.00000000000E+00 0.  1.
         25    2    1    2    0    0  0.48382899133E+02  0.60766894556E+02  0.30321869038E+03  0.33707883271E+03  0.12508814838E+03 0.  0.
         23    2    1    2    0    0 -0.48382899133E+02 -0.60766894556E+02  0.18679490424E+03  0.22136632781E+03  0.89873213120E+02 0.  0.
          5    1    3    3  502    0  0.73918754246E+01  0.91234602143E+02  0.15276570908E+03  0.17813822364E+03  0.41800000000E+01 0.  1.
         -5    1    3    3    0  502  0.40991023708E+02 -0.30467707586E+02  0.15045298131E+03  0.15894060908E+03  0.41800000000E+01 0.  1.
        -11    1    4    4    0    0 -0.37123630752E+02  0.62204026935E+01  0.12130411208E+03  0.12701001920E+03  0.00000000000E+00 0. -1.
         11    1    4    4    0    0 -0.11259268381E+02 -0.66987297250E+02  0.65490792168E+02  0.94356308618E+02  0.00000000000E+00 0.  1.
</event>
<event>
 8    1  0.3710605E-009  0.1689470E+03  0.7561462E-02  0.1178950E+00
         -2   -1    0    0    0  501 -0.00000000000E+00  0.00000000000E+00  0.39764853154E+02  0.39764853154E+02  0.00000000000E+00 0.  1.
          2   -1    0    0  501    0  0.00000000000E+00 -0.00000000000E+00 -0.12125511790E+04  0.12125511790E+04  0.00000000000E+00 0. -1.
         25    2    1    2    0    0  0.12499147915E+03 -0.78767520436E+02 -0.94056677001E+03  0.96028160789E+03  0.12509086886E+03 0.  0.
         23    2    1    2    0    0 -0.12499147915E+03  0.78767520436E+02 -0.23221955582E+03  0.29203442425E+03  0.97626792954E+02 0.  0.
          5    1    3    3  502    0  0.26497124381E+02  0.21938485464E+02 -0.67108498318E+02  0.75527595563E+02  0.41800000000E+01 0. -1.
         -5    1    3    3    0  502  0.98494354773E+02 -0.10070600590E+03 -0.87345827169E+03  0.88475401233E+03  0.41800000000E+01 0. -1.
        -11    1    4    4    0    0 -0.10297303219E+03  0.27596585612E+02 -0.90785837431E+02  0.14002530190E+03  0.00000000000E+00 0. -1.
         11    1    4    4    0    0 -0.22018446966E+02  0.51170934824E+02 -0.14143371839E+03  0.15200912234E+03  0.00000000000E+00 0.  1.
</event>
<event>
 8    1  0.3710605E-009  0.9590744E+02  0.7561462E-02  0.1289145E+00
          1   -1    0    0  501    0  0.00000000000E+00  0.00000000000E+00  0.90536913908E+02  0.90536913908E+02  0.00000000000E+00 0. -1.
         -1   -1    0    0    0  501 -0.00000000000E+00 -0.00000000000E+00 -0.16703109595E+03  0.16703109595E+03  0.00000000000E+00 0.  1.
         25    2    1    2    0    0 -0.24937587866E+02 -0.19104929816E+01  0.10690240668E+02  0.12801302001E+03  0.12509004267E+03 0.  0.
         23    2    1    2    0    0  0.24937587866E+02  0.19104929816E+01 -0.87184422714E+02  0.12955498985E+03  0.92508586405E+02 0.  0.
          5    1    3    3  502    0 -0.44842345156E+02  0.47701523440E+02  0.28482039350E+02  0.71519020009E+02  0.41800000000E+01 0. -1.
         -5    1    3    3    0  502  0.19904757289E+02 -0.49612016421E+02 -0.17791798682E+02  0.56494000004E+02  0.41800000000E+01 0. -1.
        -11    1    4    4    0    0  0.50210973963E+01 -0.32472209907E+02  0.95614006725E+00  0.32872025175E+02  0.00000000000E+00 0.  1.
         11    1    4    4    0    0  0.19916490470E+02  0.34382702889E+02 -0.88140562781E+02  0.96682964673E+02  0.00000000000E+00 0. -1.
</event>
<event>
 8    1  0.3710605E-009  0.2857297E+03  0.7561462E-02  0.1092600E+00
         -2   -1    0    0    0  501 -0.00000000000E+00  0.00000000000E+00  0.11120339560E+04  0.11120339560E+04  0.00000000000E+00 0.  1.
          2   -1    0    0  501    0  0.00000000000E+00 -0.00000000000E+00 -0.11607631024E+03  0.11607631024E+03  0.00000000000E+00 0. -1.
         25    2    1    2    0    0  0.23846059401E+03  0.14264601079E+03  0.84514293058E+03  0.89840165929E+03  0.12509048332E+03 0.  0.
         23    2    1    2    0    0 -0.23846059401E+03 -0.14264601079E+03  0.15081471519E+03  0.32970860695E+03  0.93548639173E+02 0.  0.
          5    1    3    3  502    0  0.20382134632E+03  0.11567489008E+03  0.80615104634E+03  0.83953606434E+03  0.41800000000E+01 0.  1.
         -5    1    3    3    0  502  0.34639247687E+02  0.26971120709E+02  0.38991884249E+02  0.58865594959E+02  0.41800000000E+01 0.  1.
        -11    1    4    4    0    0 -0.18624603304E+03 -0.15140098976E+03  0.12851103502E+03  0.27225894043E+03  0.00000000000E+00 0. -1.
         11    1    4    4    0    0 -0.52214560973E+02  0.87549789719E+01  0.22303680176E+02  0.57449666524E+02  0.00000000000E+00 0.  1.
</event>
<event>
 8    1  0.3710605E-009  0.1073224E+03  0.7561462E-02  0.1265610E+00
          1   -1    0    0  501    0  0.00000000000E+00  0.00000000000E+00  0.25251111888E+03  0.25251111888E+03  0.00000000000E+00 0. -1.
         -1   -1    0    0    0  501 -0.00000000000E+00 -0.00000000000E+00 -0.48415449017E+02  0.48415449017E+02  0.00000000000E+00 0.  1.
         25    2    1    2    0    0 -0.14494376528E+02 -0.14168056087E+02  0.10100523970E+03  0.16205102985E+03  0.12509059543E+03 0.  0.
         23    2    1    2    0    0  0.14494376528E+02  0.14168056087E+02  0.10309043017E+03  0.13887553805E+03  0.90818266396E+02 0.  0.
          5    1    3    3  502    0  0.38242977225E+02 -0.47107666056E+02  0.30794637858E+02  0.68172132350E+02  0.41800000000E+01 0. -1.
         -5    1    3    3    0  502 -0.52737353753E+02  0.32939609969E+02  0.70210601839E+02  0.93878897503E+02  0.41800000000E+01 0. -1.
        -11    1    4    4    0    0 -0.30823684549E+02 -0.18217173190E+02  0.28387511956E+02  0.45692622635E+02  0.00000000000E+00 0. -1.
         11    1    4    4    0    0  0.45318061077E+02  0.32385229277E+02  0.74702918215E+02  0.93182915413E+02  0.00000000000E+00 0.  1.
</event>
<event>
 8    1  0.3710605E-009  0.9090766E+02  0.7561462E-02  0.1300668E+00
          1   -1    0    0  501    0  0.00000000000E+00  0.00000000000E+00  0.10693473368E+03  0.10693473368E+03  0.00000000000E+00 0. -1.
         -1   -1    0    0    0  501 -0.00000000000E+00 -0.00000000000E+00 -0.11535595373E+03  0.11535595373E+03  0.00000000000E+00 0.  1.
         25    2    1    2    0    0 -0.61464033445E+01 -0.12107999654E+02  0.18623450667E+02  0.12719418333E+03  0.12508855035E+03 0.  0.
         23    2    1    2    0    0  0.61464033445E+01  0.12107999654E+02 -0.27044670716E+02  0.95096504080E+02  0.90152919777E+02 0.  0.
          5    1    3    3  502    0 -0.37448506313E+02  0.35896408206E+02 -0.22332130255E+02  0.56631609450E+02  0.41800000000E+01 0.  1.
         -5    1    3    3    0  502  0.31302102968E+02 -0.48004407860E+02  0.40955580922E+02  0.70562573883E+02  0.41800000000E+01 0.  1.
        -11    1    4    4    0    0  0.36298127552E+01 -0.29954990898E+02  0.16592182964E+02  0.34435120964E+02  0.00000000000E+00 0. -1.
         11    1    4    4    0    0  0.25165905893E+01  0.42062990552E+02 -0.43636853680E+02  0.60661383116E+02  0.00000000000E+00 0.  1.
</event>
<event>
 8    1  0.3710605E-009  0.2011848E+03  0.7561462E-02  0.1148743E+00
         -2   -1    0    0    0  501 -0.00000000000E+00  0.00000000000E+00  0.76471726325E+02  0.76471726325E+02  0.00000000000E+00 0.  1.
          2   -1    0    0  501    0  0.00000000000E+00 -0.00000000000E+00 -0.68691211523E+03  0.68691211523E+03  0.00000000000E+00 0. -1.
         25    2    1    2    0    0 -0.68576827142E+02  0.16539158460E+03 -0.16275994525E+03  0.27238900981E+03  0.12509122835E+03 0.  0.
         23    2    1    2    0    0  0.68576827142E+02 -0.16539158460E+03 -0.44768044365E+03  0.49099483174E+03  0.92741510096E+02 0.  0.
          5    1    3    3  502    0 -0.69742866241E+02  0.50088853692E+02 -0.12356712673E+03  0.15052995670E+03  0.41800000000E+01 0. -1.
         -5    1    3    3    0  502  0.11660390993E+01  0.11530273091E+03 -0.39192818529E+02  0.12185905311E+03  0.41800000000E+01 0. -1.
        -11    1    4    4    0    0  0.81909046817E+02 -0.79666803173E+02 -0.27335357623E+03  0.29627363892E+03  0.00000000000E+00 0.  1.
         11    1    4    4    0    0 -0.13332219674E+02 -0.85724781426E+02 -0.17432686742E+03  0.19472119283E+03  0.00000000000E+00 0. -1.
</event>
<event>
 8    1  0.3710605E-009  0.1812257E+03  0.7561462E-02  0.1166622E+00
         -1   -1    0    0    0  501 -0.00000000000E+00  0.00000000000E+00  0.23503950850E+02  0.23503950850E+02  0.00000000000E+00 0.  1.
          1   -1    0    0  501    0  0.00000000000E+00 -0.00000000000E+00 -0.15196917635E+04  0.15196917635E+04  0.00000000000E+00 0. -1.
         25    2    1    2    0    0  0.38013793422E+02 -0.14811050056E+03 -0.86915625605E+03  0.89132572413E+03  0.12508868933E+03 0.  0.
         23    2    1    2    0    0 -0.38013793422E+02  0.14811050056E+03 -0.62703155658E+03  0.65186999020E+03  0.91564962253E+02 0.  0.
          5    1    3    3  502    0  0.79910135251E+02 -0.12748647158E+03 -0.67737321296E+03  0.69389507289E+03  0.41800000000E+01 0. -1.
         -5    1    3    3    0  502 -0.41896341829E+02 -0.20624028974E+02 -0.19178304310E+03  0.19743065124E+03  0.41800000000E+01 0. -1.
        -11    1    4    4    0    0  0.13772513972E+02  0.69920998950E+02 -0.15480392660E+03  0.17041972869E+03  0.00000000000E+00 0.  1.
         11    1    4    4    0    0 -0.51786307394E+02  0.78189501605E+02 -0.47222762997E+03  0.48145026151E+03  0.00000000000E+00 0. -1.
</event>
<event>
 8    1  0.3710605E-009  0.1089807E+03  0.7561462E-02  0.1262469E+00
          2   -1    0    0  501    0  0.00000000000E+00  0.00000000000E+00  0.29085087034E+03  0.29085087034E+03  0.00000000000E+00 0. -1.
         -2   -1    0    0    0  501 -0.00000000000E+00 -0.00000000000E+00 -0.42473379762E+02  0.42473379762E+02  0.00000000000E+00 0.  1.
         25    2    1    2    0    0 -0.82081571476E+01 -0.77274785841E+01  0.11100630445E+03  0.16761826323E+03  0.12508554981E+03 0.  0.
         23    2    1    2    0    0  0.82081571476E+01  0.77274785841E+01  0.13737118613E+03  0.16570598687E+03  0.91981212961E+02 0.  0.
          5    1    3    3  502    0 -0.40356995753E+02 -0.54860143138E+02  0.56246961139E+02  0.88428024114E+02  0.41800000000E+01 0.  1.
         -5    1    3    3    0  502  0.32148838606E+02  0.47132664554E+02  0.54759343311E+02  0.79190239118E+02  0.41800000000E+01 0.  1.
        -11    1    4    4    0    0 -0.41984068515E+02  0.45410983357E+01  0.58066519710E+02  0.71798358577E+02  0.00000000000E+00 0.  1.
         11    1    4    4    0    0  0.50192225663E+02  0.31863802485E+01  0.79304666422E+02  0.93907628297E+02  0.00000000000E+00 0. -1.
</event>
<event>
 8    1  0.3710605E-009  0.1453301E+03  0.7561462E-02  0.1206332E+00
          1   -1    0    0  501    0  0.00000000000E+00  0.00000000000E+00  0.48869255770E+03  0.48869255770E+03  0.00000000000E+00 0. -1.
         -1   -1    0    0    0  501 -0.00000000000E+00 -0.00000000000E+00 -0.62910994581E+02  0.62910994581E+02  0.00000000000E+00 0.  1.
         25    2    1    2    0    0 -0.75520707086E+02  0.97729782923E+02  0.12696353342E+03  0.21684609988E+03  0.12509198434E+03 0.  0.
         23    2    1    2    0    0  0.75520707086E+02 -0.97729782923E+02  0.29881802970E+03  0.33475745240E+03  0.86693998600E+02 0.  0.
          5    1    3    3  502    0 -0.55886746339E+02  0.77733871288E+01 -0.39775370531E+01  0.56719019427E+02  0.41800000000E+01 0. -1.
         -5    1    3    3    0  502 -0.19633960748E+02  0.89956395794E+02  0.13094107047E+03  0.16012708045E+03  0.41800000000E+01 0. -1.
        -11    1    4    4    0    0  0.21947059246E+02 -0.83702919695E+02  0.23409079397E+03  0.24957233821E+03  0.00000000000E+00 0.  1.
         11    1    4    4    0    0  0.53573647841E+02 -0.14026863228E+02  0.64727235728E+02  0.85185114192E+02  0.00000000000E+00 0. -1.
</event>
<event>
 8    1  0.3710605E-009  0.6793193E+02  0.7561462E-02  0.1367270E+00
         -2   -1    0    0    0  501 -0.00000000000E+00  0.00000000000E+00  0.64288385281E+02  0.64288385281E+02  0.00000000000E+00 0.  1.
          2   -1    0    0  501    0  0.00000000000E+00 -0.00000000000E+00 -0.19458866297E+03  0.19458866297E+03  0.00000000000E+00 0. -1.
         25    2    1    2    0    0  0.11530144697E+02  0.26851486568E+02 -0.86552167954E+02  0.15489521082E+03  0.12508917615E+03 0.  0.
         23    2    1    2    0    0 -0.11530144697E+02 -0.26851486568E+02 -0.43748109732E+02  0.10398183743E+03  0.89690461271E+02 0.  0.
          5    1    3    3  502    0  0.41632662353E+02 -0.69278022667E+01 -0.99067748411E+02  0.10776439205E+03  0.41800000000E+01 0.  1.
         -5    1    3    3    0  502 -0.30102517656E+02  0.33779288835E+02  0.12515580456E+02  0.47130818766E+02  0.41800000000E+01 0.  1.
        -11    1    4    4    0    0  0.10095595150E+02  0.35530542967E+01  0.24201526140E+02  0.26462409259E+02  0.00000000000E+00 0.  1.
         11    1    4    4    0    0 -0.21625739847E+02 -0.30404540865E+02 -0.67949635872E+02  0.77519428173E+02  0.00000000000E+00 0. -1.
</event>
<event>
 8    1  0.3710605E-009  0.1127173E+03  0.7561462E-02  0.1255619E+00
         -1   -1    0    0    0  501 -0.00000000000E+00  0.00000000000E+00  0.30702946003E+03  0.30702946003E+03  0.00000000000E+00 0.  1.
          1   -1    0    0  501    0  0.00000000000E+00 -0.00000000000E+00 -0.49898057232E+02  0.49898057232E+02  0.00000000000E+00 0. -1.
         25    2    1    2    0    0 -0.55947320456E+02 -0.15435539512E+02  0.16071836120E+03  0.21176537238E+03  0.12508326334E+03 0.  0.
         23    2    1    2    0    0  0.55947320456E+02  0.15435539512E+02  0.96413041597E+02  0.14516214488E+03  0.91696320370E+02 0.  0.
          5    1    3    3  502    0 -0.53078308391E+02 -0.55856912765E+02  0.15146518272E+03  0.16998963352E+03  0.41800000000E+01 0. -1.
         -5    1    3    3    0  502 -0.28690120650E+01  0.40421373253E+02  0.92531784756E+01  0.41775738866E+02  0.41800000000E+01 0. -1.
        -11    1    4    4    0    0  0.19538704571E+02 -0.38081640492E+02  0.48138503936E+02  0.64414966274E+02  0.00000000000E+00 0. -1.
         11    1    4    4    0    0  0.36408615885E+02  0.53517180003E+02  0.48274537661E+02  0.80747178604E+02  0.00000000000E+00 0.  1.
</event>
<event>
 8    1  0.3710605E-009  0.1215768E+03  0.7561462E-02  0.1240518E+00
         -2   -1    0    0    0  501 -0.00000000000E+00  0.00000000000E+00  0.20053923735E+03  0.20053923735E+03  0.00000000000E+00 0.  1.
          2   -1    0    0  501    0  0.00000000000E+00 -0.00000000000E+00 -0.84500564368E+02  0.84500564368E+02  0.00000000000E+00 0. -1.
         25    2    1    2    0    0 -0.49532501397E+02  0.37846695009E+02  0.25135457439E+02  0.14200035147E+03  0.12508584084E+03 0.  0.
         23    2    1    2    0    0  0.49532501397E+02 -0.37846695009E+02  0.90903215542E+02  0.14303945025E+03  0.91164953325E+02 0.  0.
          5    1    3    3  502    0 -0.19185251008E+02  0.79017997227E+02  0.36835530870E+02  0.89365801493E+02  0.41800000000E+01 0.  1.
         -5    1    3    3    0  502 -0.30347250389E+02 -0.41171302218E+02 -0.11700073430E+02  0.52634549972E+02  0.41800000000E+01 0.  1.
        -11    1    4    4    0    0  0.64453779280E+02 -0.57064005901E+02  0.72115929567E+02  0.11230003442E+03  0.00000000000E+00 0.  1.
         11    1    4    4    0    0 -0.14921277882E+02  0.19217310892E+02  0.18787285975E+02  0.30739415834E+02  0.00000000000E+00 0. -1.
</event>
<event>
 8    1  0.3710605E-009  0.1315364E+03  0.7561462E-02  0.1225194E+00
         -2   -1    0    0    0  501 -0.00000000000E+00  0.00000000000E+00  0.18672205277E+03  0.18672205277E+03  0.00000000000E+00 0.  1.
          2   -1    0    0  501    0  0.00000000000E+00 -0.00000000000E+00 -0.10317077092E+03  0.10317077092E+03  0.00000000000E+00 0. -1.
         25    2    1    2    0    0 -0.52015224114E+01 -0.80774145248E+02  0.11249865182E+02  0.14941743414E+03  0.12508993478E+03 0.  0.
         23    2    1    2    0    0  0.52015224114E+01  0.80774145248E+02  0.72301416669E+02  0.14047538955E+03  0.89187004894E+02 0.  0.
          5    1    3    3  502    0  0.24002507902E+02  0.26012585153E+02 -0.90837711482E+01  0.36779916670E+02  0.41800000000E+01 0.  1.
         -5    1    3    3    0  502 -0.29204030314E+02 -0.10678673040E+03  0.20333636330E+02  0.11263751747E+03  0.41800000000E+01 0.  1.
        -11    1    4    4    0    0 -0.29593910312E+02  0.75956271685E+02  0.33493278528E+02  0.88130326463E+02  0.00000000000E+00 0. -1.
         11    1    4    4    0    0  0.34795432723E+02  0.48178735632E+01  0.38808138141E+02  0.52345063091E+02  0.00000000000E+00 0.  1.
</event>
<event>
 8    1  0.3710605E-009  0.1307270E+03  0.7561462E-02  0.1226381E+00
          1   -1    0    0  501    0  0.00000000000E+00  0.00000000000E+00  0.36639894985E+03  0.36639894985E+03  0.00000000000E+00 0. -1.
         -1   -1    0    0    0  501 -0.00000000000E+00 -0.00000000000E+00 -0.58816290847E+02  0.58816290847E+02  0.00000000000E+00 0.  1.
         25    2    1    2    0    0  0.16952157119E+02 -0.94322118511E+02  0.14184342744E+03  0.21201506193E+03  0.12508713325E+03 0.  0.
         23    2    1    2    0    0 -0.16952157119E+02  0.94322118511E+02  0.16573923156E+03  0.21320017877E+03  0.93812502774E+02 0.  0.
          5    1    3    3  502    0 -0.45721900920E+02 -0.16558355592E+02  0.82235504495E+02  0.95628562486E+02  0.41800000000E+01 0.  1.
         -5    1    3    3    0  502  0.62674058040E+02 -0.77763762919E+02  0.59607922946E+02  0.11638649944E+03  0.41800000000E+01 0.  1.
        -11    1    4    4    0    0 -0.38918633651E+02  0.68479044480E+02  0.16062706051E+03  0.17889967061E+03  0.00000000000E+00 0. -1.
         11    1    4    4    0    0  0.21966476532E+02  0.25843074031E+02  0.51121710502E+01  0.34300508152E+02  0.00000000000E+00 0.  1.
</event>
<event>
 8    1  0.3710605E-009  0.1304735E+03  0.7561462E-02  0.1226755E+00
         -1   -1    0    0    0  501 -0.00000000000E+00  0.00000000000E+00  0.34824640576E+03  0.34824640576E+03  0.00000000000E+00 0.  1.
          1   -1    0    0  501    0  0.00000000000E+00 -0.00000000000E+00 -0.58722961233E+02  0.58722961233E+02  0.00000000000E+00 0. -1.
         25    2    1    2    0    0 -0.92436920184E+02  0.13225421795E+02  0.15495320801E+03  0.21995039569E+03  0.12509270122E+03 0.  0.
         23    2    1    2    0    0  0.92436920184E+02 -0.13225421795E+02  0.13457023652E+03  0.18701897130E+03  0.90263232132E+02 0.  0.
          5    1    3    3  502    0 -0.11275339185E+03  0.29069789647E+02  0.15492459959E+03  0.19384912691E+03  0.41800000000E+01 0.  1.
         -5    1    3    3    0  502  0.20316471670E+02 -0.15844367852E+02  0.28608419019E-01  0.26101268784E+02  0.41800000000E+01 0.  1.
        -11    1    4    4    0    0  0.56999316498E+02 -0.43515659929E+02  0.41317896149E+02  0.82762934231E+02  0.00000000000E+00 0.  1.
         11    1    4    4    0    0  0.35437603686E+02  0.30290238133E+02  0.93252340367E+02  0.10425603707E+03  0.00000000000E+00 0. -1.
</event>
<event>
 8    1  0.3710605E-009  0.1145991E+03  0.7561462E-02  0.1252282E+00
          1   -1    0    0  501    0  0.00000000000E+00  0.00000000000E+00  0.14624244161E+03  0.14624244161E+03  0.00000000000E+00 0. -1.
         -1   -1    0    0    0  501 -0.00000000000E+00 -0.00000000000E+00 -0.10975219950E+03  0.10975219950E+03  0.00000000000E+00 0.  1.
         25    2    1    2    0    0  0.25544916640E+02 -0.54711389263E+02  0.81107652257E+01  0.13913571011E+03  0.12508829855E+03 0.  0.
         23    2    1    2    0    0 -0.25544916640E+02  0.54711389263E+02  0.28379476889E+02  0.11685893101E+03  0.95941316262E+02 0.  0.
          5    1    3    3  502    0  0.25164641507E+02  0.37053320434E+02 -0.85109525851E+01  0.45783364351E+02  0.41800000000E+01 0. -1.
         -5    1    3    3    0  502  0.38027513337E+00 -0.91764709698E+02  0.16621717811E+02  0.93352345755E+02  0.41800000000E+01 0. -1.
        -11    1    4    4    0    0 -0.46958446108E+02  0.53089649857E+02 -0.11269553909E+02  0.71767746433E+02  0.00000000000E+00 0.  1.
         11    1    4    4    0    0  0.21413529468E+02  0.16217394059E+01  0.39649030798E+02  0.45091184573E+02  0.00000000000E+00 0. -1.
</event>
<event>
 8    1  0.3710605E-009  0.7400878E+02  0.7561462E-02  0.1346968E+00
         -1   -1    0    0    0  501 -0.00000000000E+00  0.00000000000E+00  0.17202435778E+02  0.17202435778E+02  0.00000000000E+00 0.  1.
          1   -1    0    0  501    0  0.00000000000E+00 -0.00000000000E+00 -0.89239314526E+03  0.89239314526E+03  0.00000000000E+00 0. -1.
         25    2    1    2    0    0 -0.28889028294E+02 -0.34178362680E+02 -0.62544500638E+03  0.63939868259E+03  0.12508590195E+03 0.  0.
         23    2    1    2    0    0  0.28889028294E+02  0.34178362680E+02 -0.24974570311E+03  0.27019689845E+03  0.92901621514E+02 0.  0.
          5    1    3    3  502    0  0.70977629934E+00  0.14049365555E+02 -0.51520048621E+03  0.51540945068E+03  0.41800000000E+01 0. -1.
         -5    1    3    3    0  502 -0.29598804594E+02 -0.48227728234E+02 -0.11024452017E+03  0.12398923191E+03  0.41800000000E+01 0. -1.
        -11    1    4    4    0    0  0.31362437421E+02 -0.95651037058E+01 -0.25031466470E+02  0.41251278811E+02  0.00000000000E+00 0.  1.
         11    1    4    4    0    0 -0.24734091271E+01  0.43743466385E+02 -0.22471423664E+03  0.22894561964E+03  0.00000000000E+00 0. -1.
</event>
<event>
 8    1  0.3710605E-009  0.1140798E+03  0.7561462E-02  0.1253196E+00
         -2   -1    0    0    0  501 -0.00000000000E+00  0.00000000000E+00  0.12264848601E+03  0.12264848601E+03  0.00000000000E+00 0.  1.
          2   -1    0    0  501    0  0.00000000000E+00 -0.00000000000E+00 -0.13880132640E+03  0.13880132640E+03  0.00000000000E+00 0. -1.
         25    2    1    2    0    0  0.64297110174E+02  0.29278128228E+02 -0.22710452691E+02  0.14544963063E+03  0.12509397755E+03 0.  0.
         23    2    1    2    0    0 -0.64297110174E+02 -0.29278128228E+02  0.65576122974E+01  0.11600018178E+03  0.91769890072E+02 0.  0.
          5    1    3    3  502    0 -0.25062401018E+01  0.59910302111E+02  0.16110386062E+02  0.62229755564E+02  0.41800000000E+01 0.  1.
         -5    1    3    3    0  502  0.66803350276E+02 -0.30632173883E+02 -0.38820838753E+02  0.83219875068E+02  0.41800000000E+01 0.  1.
        -11    1    4    4    0    0 -0.31974106572E+02 -0.47557977376E+02  0.36803378488E+02  0.68107219671E+02  0.00000000000E+00 0.  1.
         11    1    4    4    0    0 -0.32323003602E+02  0.18279849149E+02 -0.30245766190E+02  0.47892962105E+02  0.00000000000E+00 0. -1.
</event>
<event>
 8    1  0.3710605E-009  0.1000147E+03  0.7561462E-02  0.1280265E+00
          1   -1    0    0  501    0  0.00000000000E+00  0.00000000000E+00  0.98522259434E+03  0.98522259434E+03  0.00000000000E+00 0. -1.
         -1   -1    0    0    0  501 -0.00000000000E+00 -0.00000000000E+00 -0.28685612637E+02  0.28685612637E+02  0.00000000000E+00 0.  1.
         25    2    1    2    0    0 -0.23429950586E+02  0.19211479545E+02  0.87893843376E+03  0.88831233737E+03  0.12509194559E+03 0.  0.
         23    2    1    2    0    0  0.23429950586E+02 -0.19211479545E+02  0.77598547940E+02  0.12559586960E+03  0.93993320445E+02 0.  0.
          5    1    3    3  502    0  0.41006114383E+02  0.27764331172E+02  0.19327967454E+03  0.19956669184E+03  0.41800000000E+01 0. -1.
         -5    1    3    3    0  502 -0.64436064969E+02 -0.85528516276E+01  0.68565875922E+03  0.68874564553E+03  0.41800000000E+01 0. -1.
        -11    1    4    4    0    0  0.38857714050E+02  0.19534774504E+02  0.76516787565E+01  0.44159682334E+02  0.00000000000E+00 0.  1.
         11    1    4    4    0    0 -0.15427763464E+02 -0.38746254049E+02  0.69946869183E+02  0.81436187268E+02  0.00000000000E+00 0. -1.
</event>
<event>
 8    1  0.3710605E-009  0.1061367E+03  0.7561462E-02  0.1267896E+00
          4   -1    0    0  501    0  0.00000000000E+00  0.00000000000E+00  0.30231953377E+03  0.30231953377E+03  0.00000000000E+00 0. -1.
         -4   -1    0    0    0  501 -0.00000000000E+00 -0.00000000000E+00 -0.64570302405E+02  0.64570302405E+02  0.00000000000E+00 0.  1.
         25    2    1    2    0    0 -0.67179549531E+02  0.52441205571E+02  0.15559947081E+03  0.21707553367E+03  0.12508964819E+03 0.  0.
         23    2    1    2    0    0  0.67179549531E+02 -0.52441205571E+02  0.82149760563E+02  0.14981430251E+03  0.91829026780E+02 0.  0.
          5    1    3    3  502    0 -0.50989709293E+02  0.78306814806E+02  0.47960979182E+02  0.10511724703E+03  0.41800000000E+01 0.  1.
         -5    1    3    3    0  502 -0.16189840237E+02 -0.25865609235E+02  0.10763849163E+03  0.11195828664E+03  0.41800000000E+01 0.  1.
        -11    1    4    4    0    0  0.51607055860E+02 -0.50565414624E+02  0.10169862987E+03  0.12475079434E+03  0.00000000000E+00 0.  1.
         11    1    4    4    0    0  0.15572493670E+02 -0.18757909469E+01 -0.19548869306E+02  0.25063508173E+02  0.00000000000E+00 0. -1.
</event>
<event>
 8    1  0.3710605E-009  0.1822394E+03  0.7561462E-02  0.1165653E+00
         -1   -1    0    0    0  501 -0.00000000000E+00  0.00000000000E+00  0.76441115907E+02  0.76441115907E+02  0.00000000000E+00 0.  1.
          1   -1    0    0  501    0  0.00000000000E+00 -0.00000000000E+00 -0.56744654353E+03  0.56744654353E+03  0.00000000000E+00 0. -1.
         25    2    1    2    0    0  0.10716515174E+03 -0.11308371420E+03 -0.38567895619E+03  0.43435904456E+03  0.12508887312E+03 0.  0.
         23    2    1    2    0    0 -0.10716515174E+03  0.11308371420E+03 -0.10532647144E+03  0.20952861488E+03  0.92391983982E+02 0.  0.
          5    1    3    3  502    0  0.10168830115E+03 -0.13021777554E+03 -0.38100931341E+03  0.41531042482E+03  0.41800000000E+01 0.  1.
         -5    1    3    3    0  502  0.54768505854E+01  0.17134061340E+02 -0.46696427789E+01  0.19048619741E+02  0.41800000000E+01 0.  1.
        -11    1    4    4    0    0 -0.10657069463E+03  0.50110656285E+02 -0.61997448328E+02  0.13308671769E+03  0.00000000000E+00 0.  1.
         11    1    4    4    0    0 -0.59445711135E+00  0.62973057912E+02 -0.43329023109E+02  0.76441897187E+02  0.00000000000E+00 0. -1.
</event>
<event>
 8    1  0.3710605E-009  0.1934605E+03  0.7561462E-02  0.1155377E+00
          2   -1    0    0  501    0  0.00000000000E+00  0.00000000000E+00  0.27371073061E+03  0.27371073061E+03  0.00000000000E+00 0. -1.
         -2   -1    0    0    0  501 -0.00000000000E+00 -0.00000000000E+00 -0.16078871955E+03  0.16078871955E+03  0.00000000000E+00 0.  1.
         25    2    1    2    0    0  0.97083353867E+02 -0.13531693601E+03  0.12643902040E+03  0.24366040585E+03  0.12509083391E+03 0.  0.
         23    2    1    2    0    0 -0.97083353867E+02  0.13531693601E+03 -0.13517009340E+02  0.19083904431E+03  0.92200762056E+02 0.  0.
          5    1    3    3  502    0  0.57266355778E+02  0.76587893037E+01  0.21258995599E+02  0.61705022904E+02  0.41800000000E+01 0.  1.
         -5    1    3    3    0  502  0.39816998089E+02 -0.14297572531E+03  0.10518002480E+03  0.18195538294E+03  0.41800000000E+01 0.  1.
        -11    1    4    4    0    0 -0.46285774127E+02  0.13006069315E+02  0.23229099913E+02  0.53395896924E+02  0.00000000000E+00 0.  1.
         11    1    4    4    0    0 -0.50797579740E+02  0.12231086669E+03 -0.36746109253E+02  0.13744314739E+03  0.00000000000E+00 0. -1.
</event>
<event>
 8    1  0.3710605E-009  0.3367500E+03  0.7561462E-02  0.1068189E+00
         -1   -1    0    0    0  501 -0.00000000000E+00  0.00000000000E+00  0.14701329443E+03  0.14701329443E+03  0.00000000000E+00 0.  1.
          1   -1    0    0  501    0  0.00000000000E+00 -0.00000000000E+00 -0.97340773469E+03  0.97340773469E+03  0.00000000000E+00 0. -1.
         25    2    1    2    0    0 -0.12273389098E+03  0.31072684678E+03 -0.21211644900E+03  0.41503658025E+03  0.12508874332E+03 0.  0.
         23    2    1    2    0    0  0.12273389098E+03 -0.31072684678E+03 -0.61427799126E+03  0.70538444887E+03  0.92816964293E+02 0.  0.
          5    1    3    3  502    0 -0.36877869468E+02  0.61775762564E+02  0.70356944588E+01  0.72409912950E+02  0.41800000000E+01 0. -1.
         -5    1    3    3    0  502 -0.85856021507E+02  0.24895108422E+03 -0.21915214346E+03  0.34262666730E+03  0.41800000000E+01 0. -1.
        -11    1    4    4    0    0  0.45433500205E+02 -0.18477496465E+03 -0.42167864154E+03  0.46262173235E+03  0.00000000000E+00 0. -1.
         11    1    4    4    0    0  0.77300390770E+02 -0.12595188213E+03 -0.19259934971E+03  0.24276271653E+03  0.00000000000E+00 0.  1.
</event>
<event>
 8    1  0.3710605E-009  0.1277883E+03  0.7561462E-02  0.1230775E+00
         -1   -1    0    0    0  501 -0.00000000000E+00  0.00000000000E+00  0.31989537107E+02  0.31989537107E+02  0.00000000000E+00 0.  1.
          1   -1    0    0  501    0  0.00000000000E+00 -0.00000000000E+00 -0.70060651973E+03  0.70060651973E+03  0.00000000000E+00 0. -1.
         25    2    1    2    0    0 -0.77939852724E+02  0.67531836022E+02 -0.30981638870E+03  0.34967010010E+03  0.12509122541E+03 0.  0.
         23    2    1    2    0    0  0.77939852724E+02 -0.67531836022E+02 -0.35880059392E+03  0.38292595674E+03  0.85201247807E+02 0.  0.
          5    1    3    3  502    0  0.14541453276E+02 -0.18747647226E+02 -0.13861110721E+02  0.27794440637E+02  0.41800000000E+01 0.  1.
         -5    1    3    3    0  502 -0.92481306000E+02  0.86279483248E+02 -0.29595527798E+03  0.32187565946E+03  0.41800000000E+01 0.  1.
        -11    1    4    4    0    0  0.24501695398E+02 -0.10135837239E+02 -0.15354451645E+02  0.30640291435E+02  0.00000000000E+00 0.  1.
         11    1    4    4    0    0  0.53438157326E+02 -0.57395998783E+02 -0.34344614228E+03  0.35228566531E+03  0.00000000000E+00 0. -1.
</event>
<event>
 8    1  0.3710605E-009  0.1234398E+03  0.7561462E-02  0.1237528E+00
          2   -1    0    0  501    0  0.00000000000E+00  0.00000000000E+00  0.11860174033E+04  0.11860174033E+04  0.00000000000E+00 0.  1.
         -2   -1    0    0    0  501 -0.00000000000E+00 -0.00000000000E+00 -0.17982885074E+02  0.17982885074E+02  0.00000000000E+00 0. -1.
         25    2    1    2    0    0  0.94425982936E+02  0.22553950650E+02  0.69184756702E+03  0.70973595285E+03  0.12508844803E+03 0.  0.
         23    2    1    2    0    0 -0.94425982936E+02 -0.22553950650E+02  0.47618695122E+03  0.49426433554E+03  0.90101464636E+02 0.  0.
          5    1    3    3  502    0  0.66117972998E+02  0.48492055502E+02  0.19754029151E+03  0.21392219373E+03  0.41800000000E+01 0.  1.
         -5    1    3    3    0  502  0.28308009939E+02 -0.25938104852E+02  0.49430727551E+03  0.49581375912E+03  0.41800000000E+01 0.  1.
        -11    1    4    4    0    0 -0.60981166049E+02  0.26742011077E+02  0.32527329639E+03  0.33201890777E+03  0.00000000000E+00 0.  1.
         11    1    4    4    0    0 -0.33444816888E+02 -0.49295961727E+02  0.15091365483E+03  0.16224542777E+03  0.00000000000E+00 0. -1.
</event>
<event>
 8    1  0.3710605E-009  0.1097956E+03  0.7561462E-02  0.1260949E+00
          2   -1    0    0  501    0  0.00000000000E+00  0.00000000000E+00  0.37878115794E+03  0.37878115794E+03  0.00000000000E+00 0. -1.
         -2   -1    0    0    0  501 -0.00000000000E+00 -0.00000000000E+00 -0.38582217320E+02  0.38582217320E+02  0.00000000000E+00 0.  1.
         25    2    1    2    0    0  0.22850651763E+02  0.45328747128E+02  0.16411741873E+03  0.21250574016E+03  0.12508922763E+03 0.  0.
         23    2    1    2    0    0 -0.22850651763E+02 -0.45328747128E+02  0.17608152190E+03  0.20485763510E+03  0.91570195504E+02 0.  0.
          5    1    3    3  502    0  0.43873013961E+02 -0.18484859791E+02  0.17011014117E+02  0.50728477178E+02  0.41800000000E+01 0.  1.
         -5    1    3    3    0  502 -0.21022362198E+02  0.63813606920E+02  0.14710640461E+03  0.16177726298E+03  0.41800000000E+01 0.  1.
        -11    1    4    4    0    0  0.19932772500E+02  0.18795208300E+02  0.40550342772E+02  0.48937772462E+02  0.00000000000E+00 0.  1.
         11    1    4    4    0    0 -0.42783424263E+02 -0.64123955428E+02  0.13553117912E+03  0.15591986264E+03  0.00000000000E+00 0. -1.
</event>
<event>
 8    1  0.3710605E-009  0.1359374E+03  0.7561462E-02  0.1218902E+00
         -3   -1    0    0    0  501 -0.00000000000E+00  0.00000000000E+00  0.46434424334E+02  0.46434424334E+02  0.00000000000E+00 0.  1.
          3   -1    0    0  501    0  0.00000000000E+00 -0.00000000000E+00 -0.50409780197E+03  0.50409780197E+03  0.00000000000E+00 0. -1.
         25    2    1    2    0    0 -0.83490423493E+02  0.29089510805E+02 -0.35177597062E+03  0.38368148505E+03  0.12509315734E+03 0.  0.
         23    2    1    2    0    0  0.83490423493E+02 -0.29089510805E+02 -0.10588740701E+03  0.16685074125E+03  0.93862540115E+02 0.  0.
          5    1    3    3  502    0 -0.15583042664E+02  0.68797809755E+02 -0.12471020270E+03  0.14333902785E+03  0.41800000000E+01 0. -1.
         -5    1    3    3    0  502 -0.67907380828E+02 -0.39708298950E+02 -0.22706576792E+03  0.24034245721E+03  0.41800000000E+01 0. -1.
        -11    1    4    4    0    0  0.40564390138E+02  0.29245700102E+02 -0.69979950879E+02  0.86011477413E+02  0.00000000000E+00 0. -1.
         11    1    4    4    0    0  0.42926033355E+02 -0.58335210907E+02 -0.35907456133E+02  0.80839263833E+02  0.00000000000E+00 0.  1.
</event>
<event>
 8    1  0.3710605E-009  0.1466411E+03  0.7561462E-02  0.1204662E+00
          1   -1    0    0  501    0  0.00000000000E+00  0.00000000000E+00  0.23233517576E+03  0.23233517576E+03  0.00000000000E+00 0. -1.
         -1   -1    0    0    0  501 -0.00000000000E+00 -0.00000000000E+00 -0.99789806421E+02  0.99789806421E+02  0.00000000000E+00 0.  1.
         25    2    1    2    0    0 -0.59488591414E+02 -0.88920225510E+02  0.73547264827E+02  0.18029572986E+03  0.12510655869E+03 0.  0.
         23    2    1    2    0    0  0.59488591414E+02  0.88920225510E+02  0.58998104514E+02  0.15182925232E+03  0.90142368019E+02 0.  0.
          5    1    3    3  502    0 -0.97043386444E+02 -0.79850372743E+02  0.57069030740E+02  0.13808637713E+03  0.41800000000E+01 0.  1.
         -5    1    3    3    0  502  0.37554795029E+02 -0.90698527668E+01  0.16478234087E+02  0.42209352726E+02  0.41800000000E+01 0.  1.
        -11    1    4    4    0    0  0.17165460927E+01  0.66794450966E+02  0.69376594957E+00  0.66820105669E+02  0.00000000000E+00 0.  1.
         11    1    4    4    0    0  0.57772045322E+02  0.22125774543E+02  0.58304338564E+02  0.85009146656E+02  0.00000000000E+00 0. -1.
</event>
<event>
 8    1  0.3710605E-009  0.1633767E+03  0.7561462E-02  0.1184936E+00
         -1   -1    0    0    0  501 -0.00000000000E+00  0.00000000000E+00  0.51199042553E+02  0.51199042553E+02  0.00000000000E+00 0.  1.
          1   -1    0    0  501    0  0.00000000000E+00 -0.00000000000E+00 -0.56574696554E+03  0.56574696554E+03  0.00000000000E+00 0. -1.
         25    2    1    2    0    0 -0.10208651404E+03 -0.75346068581E+02 -0.29488743258E+03  0.34453576271E+03  0.12509039729E+03 0.  0.
         23    2    1    2    0    0  0.10208651404E+03  0.75346068581E+02 -0.21966049042E+03  0.27241024539E+03  0.99287080438E+02 0.  0.
          5    1    3    3  502    0 -0.30061784490E+02 -0.88758983754E+02 -0.22246894055E+03  0.24143688615E+03  0.41800000000E+01 0. -1.
         -5    1    3    3    0  502 -0.72024729555E+02  0.13412915173E+02 -0.72418492026E+02  0.10309887656E+03  0.41800000000E+01 0. -1.
        -11    1    4    4    0    0  0.14073956029E+02  0.69990125235E+02 -0.79788376861E+02  0.10706483527E+03  0.00000000000E+00 0. -1.
         11    1    4    4    0    0  0.88012558016E+02  0.53559433465E+01 -0.13987211355E+03  0.16534541012E+03  0.00000000000E+00 0.  1.
</event>
<event>
 8    1  0.3710605E-009  0.1074535E+03  0.7561462E-02  0.1265360E+00
          1   -1    0    0  501    0  0.00000000000E+00  0.00000000000E+00  0.13064088628E+03  0.13064088628E+03  0.00000000000E+00 0. -1.
         -1   -1    0    0    0  501 -0.00000000000E+00 -0.00000000000E+00 -0.11742021281E+03  0.11742021281E+03  0.00000000000E+00 0.  1.
         25    2    1    2    0    0  0.46737701724E+02 -0.31458223175E+01 -0.30566428690E+02  0.13701937341E+03  0.12508274528E+03 0.  0.
         23    2    1    2    0    0 -0.46737701724E+02  0.31458223175E+01  0.43787102158E+02  0.11104172568E+03  0.90656745839E+02 0.  0.
          5    1    3    3  502    0 -0.31770524424E+02  0.10459965368E+02  0.23098404483E+02  0.40863012460E+02  0.41800000000E+01 0.  1.
         -5    1    3    3    0  502  0.78508226148E+02 -0.13605787685E+02 -0.53664833173E+02  0.96156360949E+02  0.41800000000E+01 0.  1.
        -11    1    4    4    0    0  0.18829278927E+02 -0.23949968671E+02  0.18931912777E+02  0.35868650179E+02  0.00000000000E+00 0. -1.
         11    1    4    4    0    0 -0.65566980652E+02  0.27095790989E+02  0.24855189381E+02  0.75173075501E+02  0.00000000000E+00 0.  1.
</event>
<event>
 8    1  0.3710605E-009  0.1240850E+03  0.7561462E-02  0.1236506E+00
          1   -1    0    0  501    0  0.00000000000E+00  0.00000000000E+00  0.20705323469E+03  0.20705323469E+03  0.00000000000E+00 0. -1.
         -1   -1    0    0    0  501 -0.00000000000E+00 -0.00000000000E+00 -0.99232699887E+02  0.99232699887E+02  0.00000000000E+00 0.  1.
         25    2    1    2    0    0  0.31315553209E+02 -0.85753813900E+02  0.80389774147E+02  0.17448262464E+03  0.12508912840E+03 0.  0.
         23    2    1    2    0    0 -0.31315553209E+02  0.85753813900E+02  0.27430760657E+02  0.13180330994E+03  0.91023543155E+02 0.  0.
          5    1    3    3  502    0 -0.39761152871E+02 -0.45763709962E+01  0.63881499103E+00  0.40246402743E+02  0.41800000000E+01 0. -1.
         -5    1    3    3    0  502  0.71076706080E+02 -0.81177442904E+02  0.79750959156E+02  0.13423622190E+03  0.41800000000E+01 0. -1.
        -11    1    4    4    0    0  0.94167628647E+01  0.88320442894E+01 -0.26451810854E+02  0.29434312063E+02  0.00000000000E+00 0.  1.
         11    1    4    4    0    0 -0.40732316073E+02  0.76921769611E+02  0.53882571511E+02  0.10236899787E+03  0.00000000000E+00 0. -1.
</event>
<event>
 8    1  0.3710605E-009  0.1759241E+03  0.7561462E-02  0.1171807E+00
          1   -1    0    0  501    0  0.00000000000E+00  0.00000000000E+00  0.13011836957E+04  0.13011836957E+04  0.00000000000E+00 0. -1.
         -1   -1    0    0    0  501 -0.00000000000E+00 -0.00000000000E+00 -0.35643222651E+02  0.35643222651E+02  0.00000000000E+00 0.  1.
         25    2    1    2    0    0  0.15868762097E+03  0.73154304325E+02  0.85611918610E+03  0.88267755492E+03  0.12508513844E+03 0.  0.
         23    2    1    2    0    0 -0.15868762097E+03 -0.73154304325E+02  0.40942128692E+03  0.45414936340E+03  0.89958550478E+02 0.  0.
          5    1    3    3  502    0  0.11697809670E+03  0.58897563046E+02  0.33553451786E+03  0.36021338554E+03  0.41800000000E+01 0.  1.
         -5    1    3    3    0  502  0.41709524270E+02  0.14256741279E+02  0.52058466823E+03  0.52246416938E+03  0.41800000000E+01 0.  1.
        -11    1    4    4    0    0 -0.29448073459E+02 -0.24960750464E+02  0.19789061769E+03  0.20162074463E+03  0.00000000000E+00 0.  1.
         11    1    4    4    0    0 -0.12923954751E+03 -0.48193553861E+02  0.21153066923E+03  0.25252861877E+03  0.00000000000E+00 0. -1.
</event>
<event>
 8    1  0.3710605E-009  0.1228293E+03  0.7561462E-02  0.1238501E+00
          1   -1    0    0  501    0  0.00000000000E+00  0.00000000000E+00  0.67569001010E+02  0.67569001010E+02  0.00000000000E+00 0. -1.
         -1   -1    0    0    0  501 -0.00000000000E+00 -0.00000000000E+00 -0.35741412304E+03  0.35741412304E+03  0.00000000000E+00 0.  1.
         25    2    1    2    0    0 -0.73187269881E+02 -0.74258480231E+02 -0.10457572497E+03  0.19353225779E+03  0.12509178307E+03 0.  0.
         23    2    1    2    0    0  0.73187269881E+02  0.74258480231E+02 -0.18526939706E+03  0.23145086626E+03  0.91509866398E+02 0.  0.
          5    1    3    3  502    0 -0.63763302571E+02  0.24984430252E+01 -0.68655681996E+00  0.63952675727E+02  0.41800000000E+01 0.  1.
         -5    1    3    3    0  502 -0.94239673094E+01 -0.76756923256E+02 -0.10388916815E+03  0.12957958206E+03  0.41800000000E+01 0.  1.
        -11    1    4    4    0    0  0.56164025547E+02  0.57232885599E+02 -0.50981258104E+02  0.95021521970E+02  0.00000000000E+00 0. -1.
         11    1    4    4    0    0  0.17023244334E+02  0.17025594632E+02 -0.13428813895E+03  0.13642934429E+03  0.00000000000E+00 0.  1.
</event>
<event>
 8    1  0.3710605E-009  0.1072825E+03  0.7561462E-02  0.1265687E+00
          1   -1    0    0  501    0  0.00000000000E+00  0.00000000000E+00  0.11127337369E+03  0.11127337369E+03  0.00000000000E+00 0. -1.
         -1   -1    0    0    0  501 -0.00000000000E+00 -0.00000000000E+00 -0.13839661645E+03  0.13839661645E+03  0.00000000000E+00 0.  1.
         25    2    1    2    0    0  0.46352331961E+01 -0.23050827408E+02 -0.69964049042E+02  0.14524225937E+03  0.12509004644E+03 0.  0.
         23    2    1    2    0    0 -0.46352331961E+01  0.23050827408E+02  0.42840806284E+02  0.10442773076E+03  0.92287541074E+02 0.  0.
          5    1    3    3  502    0 -0.48373975453E+02 -0.47975034963E+02 -0.32647277071E+02  0.75663482480E+02  0.41800000000E+01 0.  1.
         -5    1    3    3    0  502  0.53009208649E+02  0.24924207556E+02 -0.37316771971E+02  0.69578776895E+02  0.41800000000E+01 0.  1.
        -11    1    4    4    0    0  0.25765173893E+02 -0.21561217827E+02 -0.28296973900E+01  0.33715537772E+02  0.00000000000E+00 0. -1.
         11    1    4    4    0    0 -0.30400407089E+02  0.44612045235E+02  0.45670503674E+02  0.70712192987E+02  0.00000000000E+00 0.  1.
</event>
<event>
 8    1  0.3710605E-009  0.9720247E+02  0.7561462E-02  0.1286291E+00
         -1   -1    0    0    0  501 -0.00000000000E+00  0.00000000000E+00  0.38298738680E+02  0.38298738680E+02  0.00000000000E+00 0.  1.
          1   -1    0    0  501    0  0.00000000000E+00 -0.00000000000E+00 -0.47162409566E+03  0.47162409566E+03  0.00000000000E+00 0. -1.
         25    2    1    2    0    0 -0.72015065925E+02 -0.13896583826E+02 -0.18983704855E+03  0.23888174239E+03  0.12508835711E+03 0.  0.
         23    2    1    2    0    0  0.72015065925E+02  0.13896583826E+02 -0.24348830843E+03  0.27104109195E+03  0.93794628954E+02 0.  0.
          5    1    3    3  502    0 -0.86661387957E+02  0.14990049536E+02 -0.63931122627E+02  0.10880973572E+03  0.41800000000E+01 0.  1.
         -5    1    3    3    0  502  0.14646322032E+02 -0.28886633362E+02 -0.12590592592E+03  0.13007200667E+03  0.41800000000E+01 0.  1.
        -11    1    4    4    0    0  0.55543442739E+02  0.75723024094E+01 -0.24680235029E+03  0.25308854953E+03  0.00000000000E+00 0. -1.
         11    1    4    4    0    0  0.16471623186E+02  0.63242814163E+01  0.33140418603E+01  0.17952542418E+02  0.00000000000E+00 0.  1.
</event>
<event>
 8    1  0.3710605E-009  0.1364067E+03  0.7561462E-02  0.1218247E+00
         -2   -1    0    0    0  501 -0.00000000000E+00  0.00000000000E+00  0.41175127763E+02  0.41175127763E+02  0.00000000000E+00 0.  1.
          2   -1    0    0  501    0  0.00000000000E+00 -0.00000000000E+00 -0.60852945894E+03  0.60852945894E+03  0.00000000000E+00 0. -1.
         25    2    1    2    0    0  0.10353382462E+03 -0.56577756169E+02 -0.35226767285E+03  0.39199605561E+03  0.12509236167E+03 0.  0.
         23    2    1    2    0    0 -0.10353382462E+03  0.56577756169E+02 -0.21508665833E+03  0.25770853109E+03  0.78937450377E+02 0.  0.
          5    1    3    3  502    0 -0.16357130783E+02 -0.15295975373E+02 -0.65038439915E+01  0.23691664710E+02  0.41800000000E+01 0.  1.
         -5    1    3    3    0  502  0.11989095540E+03 -0.41281780795E+02 -0.34576382886E+03  0.36830439090E+03  0.41800000000E+01 0.  1.
        -11    1    4    4    0    0 -0.43773258738E+02  0.46958387926E+01 -0.22384027166E+02  0.49388194487E+02  0.00000000000E+00 0.  1.
         11    1    4    4    0    0 -0.59760565881E+02  0.51881917376E+02 -0.19270263117E+03  0.20832033661E+03  0.00000000000E+00 0. -1.
</event>
<event>
 8    1  0.3710605E-009  0.1818452E+03  0.7561462E-02  0.1166029E+00
          1   -1    0    0  501    0  0.00000000000E+00  0.00000000000E+00  0.13490251058E+03  0.13490251058E+03  0.00000000000E+00 0. -1.
         -1   -1    0    0    0  501 -0.00000000000E+00 -0.00000000000E+00 -0.28648865850E+03  0.28648865850E+03  0.00000000000E+00 0.  1.
         25    2    1    2    0    0  0.46847805168E+02  0.15591780913E+03 -0.10024293635E+03  0.22847490749E+03  0.12508819692E+03 0.  0.
         23    2    1    2    0    0 -0.46847805168E+02 -0.15591780913E+03 -0.51343211568E+02  0.19291626159E+03  0.89863666511E+02 0.  0.
          5    1    3    3  502    0 -0.17802508335E+02  0.17810433288E+02 -0.67895194888E+02  0.72535306754E+02  0.41800000000E+01 0. -1.
         -5    1    3    3    0  502  0.64650313503E+02  0.13810737585E+03 -0.32347741462E+02  0.15593960073E+03  0.41800000000E+01 0. -1.
        -11    1    4    4    0    0 -0.73780100659E+02 -0.11421380391E+03 -0.42748890046E+02  0.14253337805E+03  0.00000000000E+00 0.  1.
         11    1    4    4    0    0  0.26932295492E+02 -0.41704005221E+02 -0.85943215227E+01  0.50382883546E+02  0.00000000000E+00 0. -1.
</event>
<event>
 8    1  0.3710605E-009  0.1034922E+03  0.7561462E-02  0.1273119E+00
         -4   -1    0    0    0  501 -0.00000000000E+00  0.00000000000E+00  0.18945470655E+03  0.18945470655E+03  0.00000000000E+00 0.  1.
          4   -1    0    0  501    0  0.00000000000E+00 -0.00000000000E+00 -0.88775214955E+02  0.88775214955E+02  0.00000000000E+00 0. -1.
         25    2    1    2    0    0 -0.23166462711E+02  0.51964142198E+02  0.94823765342E+02  0.16696348961E+03  0.12509317855E+03 0.  0.
         23    2    1    2    0    0  0.23166462711E+02 -0.51964142198E+02  0.58557262519E+01  0.11126643190E+03  0.95440936021E+02 0.  0.
          5    1    3    3  502    0 -0.88882187028E+01 -0.30627061676E+02  0.73718919368E+02  0.80429899984E+02  0.41800000000E+01 0. -1.
         -5    1    3    3    0  502 -0.14278244009E+02  0.82591203874E+02  0.21104845974E+02  0.86533589622E+02  0.41800000000E+01 0. -1.
        -11    1    4    4    0    0  0.35988728880E+02  0.14014824403E+01 -0.29007888804E+02  0.46245111875E+02  0.00000000000E+00 0. -1.
         11    1    4    4    0    0 -0.12822266169E+02 -0.53365624639E+02  0.34863615056E+02  0.65021320023E+02  0.00000000000E+00 0.  1.
</event>
<event>
 8    1  0.3710605E-009  0.1294482E+03  0.7561462E-02  0.1228277E+00
         -1   -1    0    0    0  501 -0.00000000000E+00  0.00000000000E+00  0.60685940855E+02  0.60685940855E+02  0.00000000000E+00 0.  1.
          1   -1    0    0  501    0  0.00000000000E+00 -0.00000000000E+00 -0.43677242766E+03  0.43677242766E+03  0.00000000000E+00 0. -1.
         25    2    1    2    0    0  0.58751509623E+02 -0.93704760808E+02 -0.27571233661E+03  0.32232953480E+03  0.12508682730E+03 0.  0.
         23    2    1    2    0    0 -0.58751509623E+02  0.93704760808E+02 -0.10037415020E+03  0.17512883372E+03  0.91448435149E+02 0.  0.
          5    1    3    3  502    0  0.38210669683E+02 -0.11311997770E+03 -0.14188359813E+03  0.18548480383E+03  0.41800000000E+01 0.  1.
         -5    1    3    3    0  502  0.20540839940E+02  0.19415216889E+02 -0.13382873847E+03  0.13684473097E+03  0.41800000000E+01 0.  1.
        -11    1    4    4    0    0 -0.32004392781E+02  0.44008764491E+02 -0.10524717377E+03  0.11848215096E+03  0.00000000000E+00 0. -1.
         11    1    4    4    0    0 -0.26747116842E+02  0.49695996317E+02  0.48730235694E+01  0.56646682763E+02  0.00000000000E+00 0.  1.
</event>
<event>
 8    1  0.3710605E-009  0.9779792E+02  0.7561462E-02  0.1284996E+00
          1   -1    0    0  501    0  0.00000000000E+00  0.00000000000E+00  0.34391145107E+03  0.34391145107E+03  0.00000000000E+00 0. -1.
         -1   -1    0    0    0  501 -0.00000000000E+00 -0.00000000000E+00 -0.44734603156E+02  0.44734603156E+02  0.00000000000E+00 0.  1.
         25    2    1    2    0    0 -0.43409949593E+02  0.35054427451E+02  0.14196667880E+03  0.19726925300E+03  0.12508950268E+03 0.  0.
         23    2    1    2    0    0  0.43409949593E+02 -0.35054427451E+02  0.15721016911E+03  0.19137680123E+03  0.93791290476E+02 0.  0.
          5    1    3    3  502    0 -0.54094847138E+01  0.46151440776E+02 -0.31794950442E+01  0.46763229136E+02  0.41800000000E+01 0. -1.
         -5    1    3    3    0  502 -0.38000464879E+02 -0.11097013325E+02  0.14514617385E+03  0.15050602386E+03  0.41800000000E+01 0. -1.
        -11    1    4    4    0    0  0.34702165347E+02  0.28548962213E+02  0.64742995712E+02  0.78809510955E+02  0.00000000000E+00 0.  1.
         11    1    4    4    0    0  0.87077842459E+01 -0.63603389663E+02  0.92467173401E+02  0.11256729028E+03  0.00000000000E+00 0. -1.
</event>
<event>
 8    1  0.3710605E-009  0.1048069E+03  0.7561462E-02  0.1270500E+00
          2   -1    0    0  501    0  0.00000000000E+00  0.00000000000E+00  0.68153252075E+03  0.68153252075E+03  0.00000000000E+00 0. -1.
         -2   -1    0    0    0  501 -0.00000000000E+00 -0.00000000000E+00 -0.27269440845E+02  0.27269440845E+02  0.00000000000E+00 0.  1.
         25    2    1    2    0    0  0.69881493170E+02 -0.30249728362E+02  0.43701323985E+03  0.46089820305E+03  0.12509241631E+03 0.  0.
         23    2    1    2    0    0 -0.69881493170E+02  0.30249728362E+02  0.21724984005E+03  0.24790375854E+03  0.91979950758E+02 0.  0.
          5    1    3    3  502    0 -0.16355043678E+02 -0.95454915371E+01  0.27881238647E+03  0.27948599806E+03  0.41800000000E+01 0.  1.
         -5    1    3    3    0  502  0.86236536847E+02 -0.20704236825E+02  0.15820085338E+03  0.18141220499E+03  0.41800000000E+01 0.  1.
        -11    1    4    4    0    0 -0.19890564419E+01  0.33410463836E+02  0.14458056162E+03  0.14840402366E+03  0.00000000000E+00 0. -1.
         11    1    4    4    0    0 -0.67892436728E+02 -0.31607354740E+01  0.72669278429E+02  0.99499734879E+02  0.00000000000E+00 0.  1.
</event>
<event>
 8    1  0.3710605E-009  0.9724865E+02  0.7561462E-02  0.1286190E+00
         -2   -1    0    0    0  501 -0.00000000000E+00  0.00000000000E+00  0.59554348055E+03  0.59554348055E+03  0.00000000000E+00 0.  1.
          2   -1    0    0  501    0  0.00000000000E+00 -0.00000000000E+00 -0.28762097647E+02  0.28762097647E+02  0.00000000000E+00 0. -1.
         25    2    1    2    0    0 -0.46682255939E+02 -0.42300891674E+02  0.40154647004E+03  0.42526992016E+03  0.12508532662E+03 0.  0.
         23    2    1    2    0    0  0.46682255939E+02  0.42300891674E+02  0.16523491287E+03  0.19903565804E+03  0.91345598063E+02 0.  0.
          5    1    3    3  502    0 -0.83981544449E+02 -0.41588102726E+02  0.20884174522E+03  0.22894282483E+03  0.41800000000E+01 0.  1.
         -5    1    3    3    0  502  0.37299288510E+02 -0.71278894873E+00  0.19270472482E+03  0.19632709532E+03  0.41800000000E+01 0.  1.
        -11    1    4    4    0    0  0.20578562035E+02  0.21606391208E+02  0.16293515007E+03  0.16564472972E+03  0.00000000000E+00 0.  1.
         11    1    4    4    0    0  0.26103693905E+02  0.20694500466E+02  0.22997627966E+01  0.33390928318E+02  0.00000000000E+00 0. -1.
</event>
<event>
 8    1  0.3710605E-009  0.1500260E+03  0.7561462E-02  0.1200441E+00
         -3   -1    0    0    0  501 -0.00000000000E+00  0.00000000000E+00  0.31865642551E+02  0.31865642551E+02  0.00000000000E+00 0.  1.
          3   -1    0    0  501    0  0.00000000000E+00 -0.00000000000E+00 -0.89484185022E+03  0.89484185022E+03  0.00000000000E+00 0. -1.
         25    2    1    2    0    0  0.76591135976E+02 -0.80408854895E+02 -0.64259281685E+03  0.66400563414E+03  0.12508464275E+03 0.  0.
         23    2    1    2    0    0 -0.76591135976E+02  0.80408854895E+02 -0.22038339081E+03  0.26270185862E+03  0.90064651898E+02 0.  0.
          5    1    3    3  502    0  0.74700335935E+02 -0.11199362135E+03 -0.54124290384E+03  0.55774910558E+03  0.41800000000E+01 0.  1.
         -5    1    3    3    0  502  0.18908000412E+01  0.31584766452E+02 -0.10134991301E+03  0.10625652857E+03  0.41800000000E+01 0.  1.
        -11    1    4    4    0    0  0.10777804266E+02  0.31566669019E+02 -0.20485788595E+02  0.39144389025E+02  0.00000000000E+00 0.  1.
         11    1    4    4    0    0 -0.87368940242E+02  0.48842185876E+02 -0.19989760222E+03  0.22355746960E+03  0.00000000000E+00 0. -1.
</event>
<event>
 8    1  0.3710605E-009  0.9939163E+02  0.7561462E-02  0.1281580E+00
          1   -1    0    0  501    0  0.00000000000E+00  0.00000000000E+00  0.14501966019E+03  0.14501966019E+03  0.00000000000E+00 0. -1.
         -1   -1    0    0    0  501 -0.00000000000E+00 -0.00000000000E+00 -0.11639334930E+03  0.11639334930E+03  0.00000000000E+00 0.  1.
         25    2    1    2    0    0 -0.77168200002E+01 -0.65228231405E+02 -0.97925666302E+01  0.14162522210E+03  0.12509011828E+03 0.  0.
         23    2    1    2    0    0  0.77168200002E+01  0.65228231405E+02  0.38418877514E+02  0.11978778738E+03  0.92513957723E+02 0.  0.
          5    1    3    3  502    0  0.40671462202E+02 -0.60222009849E+02  0.29909449339E+02  0.78695018061E+02  0.41800000000E+01 0. -1.
         -5    1    3    3    0  502 -0.48388282202E+02 -0.50062215563E+01 -0.39702015969E+02  0.62930204042E+02  0.41800000000E+01 0. -1.
        -11    1    4    4    0    0 -0.75259923112E+01  0.60843063483E+02 -0.15788860339E+02  0.63307243228E+02  0.00000000000E+00 0.  1.
         11    1    4    4    0    0  0.15242812311E+02  0.43851679215E+01  0.54207737853E+02  0.56480544155E+02  0.00000000000E+00 0. -1.
</event>
<event>
 8    1  0.3710605E-009  0.1402761E+03  0.7561462E-02  0.1212958E+00
         -3   -1    0    0    0  501 -0.00000000000E+00  0.00000000000E+00  0.36584029347E+03  0.36584029347E+03  0.00000000000E+00 0.  1.
          3   -1    0    0  501    0  0.00000000000E+00 -0.00000000000E+00 -0.10949749393E+03  0.10949749393E+03  0.00000000000E+00 0. -1.
         25    2    1    2    0    0 -0.82876705726E+02  0.47700894432E+02  0.29719495335E+03  0.33632521039E+03  0.12508350477E+03 0.  0.
         23    2    1    2    0    0  0.82876705726E+02 -0.47700894432E+02 -0.40852153808E+02  0.13901257702E+03  0.92258736265E+02 0.  0.
          5    1    3    3  502    0 -0.94860520404E+02 -0.65050687140E+01  0.13767788180E+03  0.16737235670E+03  0.41800000000E+01 0. -1.
         -5    1    3    3    0  502  0.11983814678E+02  0.54205963146E+02  0.15951707155E+03  0.16895285369E+03  0.41800000000E+01 0. -1.
        -11    1    4    4    0    0  0.27126947407E+01  0.22793434287E+02 -0.19562914162E+02  0.30159691143E+02  0.00000000000E+00 0.  1.
         11    1    4    4    0    0  0.80164010985E+02 -0.70494328719E+02 -0.21289239646E+02  0.10885288588E+03  0.00000000000E+00 0. -1.
</event>
<event>
 8    1  0.3710605E-009  0.8890196E+02  0.7561462E-02  0.1305533E+00
          2   -1    0    0  501    0  0.00000000000E+00  0.00000000000E+00  0.33463815032E+03  0.33463815032E+03  0.00000000000E+00 0. -1.
         -2   -1    0    0    0  501 -0.00000000000E+00 -0.00000000000E+00 -0.50779530276E+02  0.50779530276E+02  0.00000000000E+00 0.  1.
         25    2    1    2    0    0 -0.45402297294E+02 -0.55717143547E+02  0.17216786519E+03  0.22462117446E+03  0.12508848679E+03 0.  0.
         23    2    1    2    0    0  0.45402297294E+02  0.55717143547E+02  0.11169075485E+03  0.16079650613E+03  0.90636212307E+02 0.  0.
          5    1    3    3  502    0  0.16213840834E+02 -0.13975171785E+02 -0.12736995082E+02  0.25256632886E+02  0.41800000000E+01 0. -1.
         -5    1    3    3    0  502 -0.61616138128E+02 -0.41741971762E+02  0.18490486027E+03  0.19936454157E+03  0.41800000000E+01 0. -1.
        -11    1    4    4    0    0  0.45808926796E+02  0.27907869840E+02  0.12027115250E+03  0.13169076314E+03  0.00000000000E+00 0. -1.
         11    1    4    4    0    0 -0.40662950255E+00  0.27809273707E+02 -0.85803976442E+01  0.29105742997E+02  0.00000000000E+00 0.  1.
</event>
<event>
 8    1  0.3710605E-009  0.1032928E+03  0.7561462E-02  0.1273520E+00
          1   -1    0    0  501    0  0.00000000000E+00  0.00000000000E+00  0.39574060764E+03  0.39574060764E+03  0.00000000000E+00 0. -1.
         -1   -1    0    0    0  501 -0.00000000000E+00 -0.00000000000E+00 -0.57003311545E+02  0.57003311545E+02  0.00000000000E+00 0.  1.
         25    2    1    2    0    0 -0.51634354062E+02  0.11538375056E+02  0.30946452614E+03  0.33795748943E+03  0.12509089136E+03 0.  0.
         23    2    1    2    0    0  0.51634354062E+02 -0.11538375056E+02  0.29272769948E+02  0.11478642975E+03  0.97569404921E+02 0.  0.
          5    1    3    3  502    0 -0.40398298892E+02  0.48568483326E+02  0.28508429157E+03  0.29202987146E+03  0.41800000000E+01 0. -1.
         -5    1    3    3    0  502 -0.11236055170E+02 -0.37030108271E+02  0.24380234577E+02  0.45927617969E+02  0.41800000000E+01 0. -1.
        -11    1    4    4    0    0 -0.10026089997E+02 -0.36483612817E+02  0.29969655257E+02  0.48267553502E+02  0.00000000000E+00 0.  1.
         11    1    4    4    0    0  0.61660444059E+02  0.24945237762E+02 -0.69688530938E+00  0.66518876251E+02  0.00000000000E+00 0. -1.
</event>
<event>
 8    1  0.3710605E-009  0.1768944E+03  0.7561462E-02  0.1170843E+00
          2   -1    0    0  501    0  0.00000000000E+00  0.00000000000E+00  0.12426556539E+04  0.12426556539E+04  0.00000000000E+00 0.  1.
         -2   -1    0    0    0  501 -0.00000000000E+00 -0.00000000000E+00 -0.28715954754E+02  0.28715954754E+02  0.00000000000E+00 0. -1.
         25    2    1    2    0    0  0.80873174193E+02  0.13039591461E+03  0.58712607691E+03  0.61960337421E+03  0.12509095208E+03 0.  0.
         23    2    1    2    0    0 -0.80873174193E+02 -0.13039591461E+03  0.62681362226E+03  0.65176823447E+03  0.91449163801E+02 0.  0.
          5    1    3    3  502    0  0.68462944062E+01 -0.23909684983E+02  0.52630499355E+02  0.58360831432E+02  0.41800000000E+01 0. -1.
         -5    1    3    3    0  502  0.74026879787E+02  0.15430559959E+03  0.53449557755E+03  0.56124254277E+03  0.41800000000E+01 0. -1.
        -11    1    4    4    0    0 -0.59732238017E+02 -0.11948605886E+03  0.60472857872E+03  0.61930728434E+03  0.00000000000E+00 0.  1.
         11    1    4    4    0    0 -0.21140936177E+02 -0.10909855745E+02  0.22085043542E+02  0.32460950126E+02  0.00000000000E+00 0. -1.
</event>
<event>
 8    1  0.3710605E-009  0.9992122E+02  0.7561462E-02  0.1280462E+00
         -2   -1    0    0    0  501 -0.00000000000E+00  0.00000000000E+00  0.24181640118E+02  0.24181640118E+02  0.00000000000E+00 0.  1.
          2   -1    0    0  501    0  0.00000000000E+00 -0.00000000000E+00 -0.49784567613E+03  0.49784567613E+03  0.00000000000E+00 0. -1.
         25    2    1    2    0    0  0.30653364696E+02  0.55151264519E+01 -0.27391275072E+03  0.30273039219E+03  0.12508976762E+03 0.  0.
         23    2    1    2    0    0 -0.30653364696E+02 -0.55151264519E+01 -0.19975128529E+03  0.21929692405E+03  0.84973640248E+02 0.  0.
          5    1    3    3  502    0 -0.17231683898E+02  0.48469212105E+02 -0.59146452422E+02  0.78498220911E+02  0.41800000000E+01 0.  1.
         -5    1    3    3    0  502  0.47885048594E+02 -0.42954085653E+02 -0.21476629830E+03  0.22423217128E+03  0.41800000000E+01 0.  1.
        -11    1    4    4    0    0 -0.54722975540E+02 -0.16717697853E+02 -0.17025097464E+03  0.17960924208E+03  0.00000000000E+00 0. -1.
         11    1    4    4    0    0  0.24069610844E+02  0.11202571401E+02 -0.29500310649E+02  0.39687681975E+02  0.00000000000E+00 0.  1.
</event>
<event>
 8    1  0.3710605E-009  0.1446280E+03  0.7561462E-02  0.1207234E+00
          1   -1    0    0  501    0  0.00000000000E+00  0.00000000000E+00  0.12655242084E+03  0.12655242084E+03  0.00000000000E+00 0. -1.
         -1   -1    0    0    0  501 -0.00000000000E+00 -0.00000000000E+00 -0.19615830185E+03  0.19615830185E+03  0.00000000000E+00 0.  1.
         25    2    1    2    0    0 -0.61132298034E+02 -0.96239158872E+02 -0.58601470688E+02  0.17911130407E+03  0.12509034062E+03 0.  0.
         23    2    1    2    0    0  0.61132298034E+02  0.96239158872E+02 -0.11004410316E+02  0.14359941861E+03  0.86605787432E+02 0.  0.
          5    1    3    3  502    0 -0.71913106266E+02 -0.23976154707E+02  0.12656497186E+02  0.76967591676E+02  0.41800000000E+01 0.  1.
         -5    1    3    3    0  502  0.10780808232E+02 -0.72263004164E+02 -0.71257967875E+02  0.10214371240E+03  0.41800000000E+01 0.  1.
        -11    1    4    4    0    0  0.47722964892E+00  0.76306014123E+02 -0.20592023083E+02  0.79037123899E+02  0.00000000000E+00 0. -1.
         11    1    4    4    0    0  0.60655068385E+02  0.19933144748E+02  0.95876127668E+01  0.64562294716E+02  0.00000000000E+00 0.  1.
</event>
<event>
 8    1  0.3710605E-009  0.7409437E+02  0.7561462E-02  0.1346699E+00
          2   -1    0    0  501    0  0.00000000000E+00  0.00000000000E+00  0.67974536985E+02  0.67974536985E+02  0.00000000000E+00 0. -1.
         -2   -1    0    0    0  501 -0.00000000000E+00 -0.00000000000E+00 -0.33427844854E+03  0.33427844854E+03  0.00000000000E+00 0.  1.
         25    2    1    2    0    0 -0.35210411672E+02 -0.39751850310E+02 -0.25872761403E+03  0.29224543266E+03  0.12508969564E+03 0.  0.
         23    2    1    2    0    0  0.35210411672E+02  0.39751850310E+02 -0.75762975269E+01  0.11000755287E+03  0.96043108607E+02 0.  0.
          5    1    3    3  502    0  0.59075743615E+01  0.10874305972E+02 -0.21079147117E+03  0.21119580177E+03  0.41800000000E+01 0.  1.
         -5    1    3    3    0  502 -0.41117986033E+02 -0.50626156283E+02 -0.47936142858E+02  0.81049630891E+02  0.41800000000E+01 0.  1.
        -11    1    4    4    0    0 -0.67418105195E+01  0.24051363016E+02 -0.45112208274E+02  0.51565796875E+02  0.00000000000E+00 0.  1.
         11    1    4    4    0    0  0.41952222191E+02  0.15700487295E+02  0.37535910747E+02  0.58441755994E+02  0.00000000000E+00 0. -1.
</event>
<event>
 8    1  0.3710605E-009  0.1131393E+03  0.7561462E-02  0.1254864E+00
         -2   -1    0    0    0  501 -0.00000000000E+00  0.00000000000E+00  0.15297762112E+02  0.15297762112E+02  0.00000000000E+00 0. -1.
          2   -1    0    0  501    0  0.00000000000E+00 -0.00000000000E+00 -0.93380957104E+03  0.93380957104E+03  0.00000000000E+00 0.  1.
         25    2    1    2    0    0  0.25776560508E+02  0.23846426350E+01 -0.36325948252E+03  0.38506517221E+03  0.12509043775E+03 0.  0.
         23    2    1    2    0    0 -0.25776560508E+02 -0.23846426350E+01 -0.55525232640E+03  0.56404216094E+03  0.95751217989E+02 0.  0.
          5    1    3    3  502    0 -0.37682892159E+02 -0.36448279585E+02 -0.13175276823E+03  0.14186169949E+03  0.41800000000E+01 0. -1.
         -5    1    3    3    0  502  0.63459452668E+02  0.38832922220E+02 -0.23150671430E+03  0.24320347272E+03  0.41800000000E+01 0. -1.
        -11    1    4    4    0    0  0.22745524414E+02 -0.34254338052E+02 -0.22492558503E+03  0.22865309392E+03  0.00000000000E+00 0.  1.
         11    1    4    4    0    0 -0.48522084922E+02  0.31869695417E+02 -0.33032674137E+03  0.33538906702E+03  0.00000000000E+00 0. -1.
</event>
<event>
 8    1  0.3710605E-009  0.1143900E+03  0.7561462E-02  0.1252650E+00
         -2   -1    0    0    0  501 -0.00000000000E+00  0.00000000000E+00  0.34904624406E+02  0.34904624406E+02  0.00000000000E+00 0.  1.
          2   -1    0    0  501    0  0.00000000000E+00 -0.00000000000E+00 -0.89237418139E+03  0.89237418139E+03  0.00000000000E+00 0. -1.
         25    2    1    2    0    0 -0.81383235219E+02  0.13843786820E+02 -0.74590180210E+03  0.76081007890E+03  0.12509035280E+03 0.  0.
         23    2    1    2    0    0  0.81383235219E+02 -0.13843786820E+02 -0.11156775488E+03  0.16646872690E+03  0.91921660656E+02 0.  0.
          5    1    3    3  502    0  0.43077124015E+00 -0.42483552016E+02 -0.12722964837E+03  0.13420094478E+03  0.41800000000E+01 0.  1.
         -5    1    3    3    0  502 -0.81814006459E+02  0.56327338835E+02 -0.61867215374E+03  0.62660913412E+03  0.41800000000E+01 0.  1.
        -11    1    4    4    0    0  0.13277960995E+02 -0.12969691472E+02  0.14248451762E+02  0.23399476975E+02  0.00000000000E+00 0.  1.
         11    1    4    4    0    0  0.68105274224E+02 -0.87409534765E+00 -0.12581620664E+03  0.14306924992E+03  0.00000000000E+00 0. -1.
</event>
<event>
 8    1  0.3710605E-009  0.1222133E+03  0.7561462E-02  0.1239490E+00
          1   -1    0    0  501    0  0.00000000000E+00  0.00000000000E+00  0.34572841753E+03  0.34572841753E+03  0.00000000000E+00 0. -1.
         -1   -1    0    0    0  501 -0.00000000000E+00 -0.00000000000E+00 -0.56745753227E+02  0.56745753227E+02  0.00000000000E+00 0.  1.
         25    2    1    2    0    0 -0.65714831379E+02  0.50684883471E+02  0.19875836491E+03  0.24907440944E+03  0.12508308175E+03 0.  0.
         23    2    1    2    0    0  0.65714831379E+02 -0.50684883471E+02  0.90224299388E+02  0.15339976131E+03  0.92215324622E+02 0.  0.
          5    1    3    3  502    0 -0.99293953140E+02  0.52056378057E+02  0.12530748649E+03  0.16819213477E+03  0.41800000000E+01 0.  1.
         -5    1    3    3    0  502  0.33579121761E+02 -0.13714945865E+01  0.73450878422E+02  0.80882274675E+02  0.41800000000E+01 0.  1.
        -11    1    4    4    0    0  0.18635283215E+02 -0.47683047457E+02 -0.43934028613E+00  0.51197068424E+02  0.00000000000E+00 0.  1.
         11    1    4    4    0    0  0.47079548164E+02 -0.30018360136E+01  0.90663639674E+02  0.10220269289E+03  0.00000000000E+00 0. -1.
</event>
<event>
 8    1  0.3710605E-009  0.2391349E+03  0.7561462E-02  0.1120370E+00
          1   -1    0    0  501    0  0.00000000000E+00  0.00000000000E+00  0.78954362886E+03  0.78954362886E+03  0.00000000000E+00 0. -1.
         -1   -1    0    0    0  501 -0.00000000000E+00 -0.00000000000E+00 -0.88538046433E+02  0.88538046433E+02  0.00000000000E+00 0.  1.
         25    2    1    2    0    0  0.11238375252E+03  0.20174186582E+03  0.47115353754E+03  0.53940845200E+03  0.12508370757E+03 0.  0.
         23    2    1    2    0    0 -0.11238375252E+03 -0.20174186582E+03  0.22985204489E+03  0.33867322329E+03  0.92399682794E+02 0.  0.
          5    1    3    3  502    0  0.11147540963E+03  0.11639582259E+03  0.38805425840E+03  0.42021224914E+03  0.41800000000E+01 0.  1.
         -5    1    3    3    0  502  0.90834288990E+00  0.85346043232E+02  0.83099279140E+02  0.11919620286E+03  0.41800000000E+01 0.  1.
        -11    1    4    4    0    0 -0.57394369406E+02 -0.12080099184E+03  0.69246484983E+02  0.15060567370E+03  0.00000000000E+00 0.  1.
         11    1    4    4    0    0 -0.54989383110E+02 -0.80940873984E+02  0.16060555991E+03  0.18806754959E+03  0.00000000000E+00 0. -1.
</event>
<event>
 8    1  0.3710605E-009  0.1330977E+03  0.7561462E-02  0.1222930E+00
          2   -1    0    0  501    0  0.00000000000E+00  0.00000000000E+00  0.10396386036E+04  0.10396386036E+04  0.00000000000E+00 0. -1.
         -2   -1    0    0    0  501 -0.00000000000E+00 -0.00000000000E+00 -0.26222320295E+02  0.26222320295E+02  0.00000000000E+00 0.  1.
         25    2    1    2    0    0  0.82363800924E+02 -0.91814170916E+02  0.44889774328E+03  0.48204627706E+03  0.12508313882E+03 0.  0.
         23    2    1    2    0    0 -0.82363800924E+02  0.91814170916E+02  0.56451854004E+03  0.58381464686E+03  0.83334999554E+02 0.  0.
          5    1    3    3  502    0  0.20019132073E+02 -0.18070952343E+02  0.31883508691E+03  0.32000095314E+03  0.41800000000E+01 0.  1.
         -5    1    3    3    0  502  0.62344668851E+02 -0.73743218573E+02  0.13006265637E+03  0.16204532391E+03  0.41800000000E+01 0.  1.
        -11    1    4    4    0    0 -0.69812146533E+02  0.24826933464E+02  0.20708429329E+03  0.21994093970E+03  0.00000000000E+00 0. -1.
         11    1    4    4    0    0 -0.12551654391E+02  0.66987237452E+02  0.35743424675E+03  0.36387370716E+03  0.00000000000E+00 0.  1.
</event>
<event>
 8    1  0.3710605E-009  0.1806757E+03  0.7561462E-02  0.1167151E+00
         -2   -1    0    0    0  501 -0.00000000000E+00  0.00000000000E+00  0.21912700998E+02  0.21912700998E+02  0.00000000000E+00 0.  1.
          2   -1    0    0  501    0  0.00000000000E+00 -0.00000000000E+00 -0.16826370883E+04  0.16826370883E+04  0.00000000000E+00 0. -1.
         25    2    1    2    0    0  0.75409099912E+02  0.13709418240E+03 -0.96087978720E+03  0.98153874820E+03  0.12508797528E+03 0.  0.
         23    2    1    2    0    0 -0.75409099912E+02 -0.13709418240E+03 -0.69984460014E+03  0.72301104114E+03  0.92093181471E+02 0.  0.
          5    1    3    3  502    0  0.10197665648E+03  0.62038457110E+02 -0.52357680352E+03  0.53702714104E+03  0.41800000000E+01 0. -1.
         -5    1    3    3    0  502 -0.26567556569E+02  0.75055725286E+02 -0.43730298368E+03  0.44451160715E+03  0.41800000000E+01 0. -1.
        -11    1    4    4    0    0 -0.26086067535E+02 -0.91038070732E+02 -0.55742888964E+03  0.56541611247E+03  0.00000000000E+00 0.  1.
         11    1    4    4    0    0 -0.49323032377E+02 -0.46056111664E+02 -0.14241571050E+03  0.15759492867E+03  0.00000000000E+00 0. -1.
</event>
<event>
 8    1  0.3710605E-009  0.2339979E+03  0.7561462E-02  0.1123857E+00
         -2   -1    0    0    0  501 -0.00000000000E+00  0.00000000000E+00  0.41783500777E+03  0.41783500777E+03  0.00000000000E+00 0.  1.
          2   -1    0    0  501    0  0.00000000000E+00 -0.00000000000E+00 -0.16717405069E+03  0.16717405069E+03  0.00000000000E+00 0. -1.
         25    2    1    2    0    0 -0.19496026674E+03  0.10313425627E+03  0.23375182270E+03  0.34487103118E+03  0.12509969267E+03 0.  0.
         23    2    1    2    0    0  0.19496026674E+03 -0.10313425627E+03  0.16909134382E+02  0.24013802728E+03  0.93456796937E+02 0.  0.
          5    1    3    3  502    0 -0.39326777786E+02 -0.19961806372E+02  0.93229699575E+01  0.45270954634E+02  0.41800000000E+01 0.  1.
         -5    1    3    3    0  502 -0.15563348896E+03  0.12309606264E+03  0.22442885274E+03  0.29960007654E+03  0.41800000000E+01 0.  1.
        -11    1    4    4    0    0  0.50949374548E+02 -0.50932113771E+02  0.44237299904E+02  0.84539089673E+02  0.00000000000E+00 0. -1.
         11    1    4    4    0    0  0.14401089220E+03 -0.52202142497E+02 -0.27328165522E+02  0.15559893760E+03  0.00000000000E+00 0.  1.
</event>
<event>
 8    1  0.3710605E-009  0.7459935E+02  0.7561462E-02  0.1345116E+00
         -1   -1    0    0    0  501 -0.00000000000E+00  0.00000000000E+00  0.44423781816E+02  0.44423781816E+02  0.00000000000E+00 0.  1.
          1   -1    0    0  501    0  0.00000000000E+00 -0.00000000000E+00 -0.29561371361E+03  0.29561371361E+03  0.00000000000E+00 0. -1.
         25    2    1    2    0    0  0.51747559970E+01 -0.32944388498E+02 -0.14327664925E+03  0.19309988973E+03  0.12508900175E+03 0.  0.
         23    2    1    2    0    0 -0.51747559970E+01  0.32944388498E+02 -0.10791328253E+03  0.14693760569E+03  0.93985491359E+02 0.  0.
          5    1    3    3  502    0  0.24832889554E+02 -0.15751333475E+02 -0.15938713130E+03  0.16213114116E+03  0.41800000000E+01 0.  1.
         -5    1    3    3    0  502 -0.19658133557E+02 -0.17193055024E+02  0.16110482047E+02  0.30968748567E+02  0.41800000000E+01 0.  1.
        -11    1    4    4    0    0 -0.96500994266E+01  0.62456769103E+02 -0.95703725046E+02  0.11468729404E+03  0.00000000000E+00 0. -1.
         11    1    4    4    0    0  0.44753434296E+01 -0.29512380605E+02 -0.12209557489E+02  0.32250311655E+02  0.00000000000E+00 0.  1.
</event>
<event>
 8    1  0.3710605E-009  0.1355378E+03  0.7561462E-02  0.1219463E+00
         -2   -1    0    0    0  501 -0.00000000000E+00  0.00000000000E+00  0.19875385276E+02  0.19875385276E+02  0.00000000000E+00 0.  1.
          2   -1    0    0  501    0  0.00000000000E+00 -0.00000000000E+00 -0.15560616603E+04  0.15560616603E+04  0.00000000000E+00 0. -1.
         25    2    1    2    0    0  0.69351158922E+02 -0.68513026091E+02 -0.12439960057E+04  0.12540636497E+04  0.12508380167E+03 0.  0.
         23    2    1    2    0    0 -0.69351158922E+02  0.68513026091E+02 -0.29219026933E+03  0.32187339583E+03  0.93400810832E+02 0.  0.
          5    1    3    3  502    0  0.45713298809E+01  0.29370168010E+02 -0.11068710259E+03  0.11468483294E+03  0.41800000000E+01 0. -1.
         -5    1    3    3    0  502  0.64779829041E+02 -0.97883194101E+02 -0.11333089031E+04  0.11393788168E+04  0.41800000000E+01 0. -1.
        -11    1    4    4    0    0 -0.37646946686E+02  0.81165565439E+02 -0.14187543194E+03  0.16773127257E+03  0.00000000000E+00 0.  1.
         11    1    4    4    0    0 -0.31704212236E+02 -0.12652539349E+02 -0.15031483739E+03  0.15414212326E+03  0.00000000000E+00 0. -1.
</event>
<event>
 8    1  0.3710605E-009  0.2335680E+03  0.7561462E-02  0.1124153E+00
          2   -1    0    0  501    0  0.00000000000E+00  0.00000000000E+00  0.26681492780E+03  0.26681492780E+03  0.00000000000E+00 0. -1.
         -2   -1    0    0    0  501 -0.00000000000E+00 -0.00000000000E+00 -0.24970066811E+03  0.24970066811E+03  0.00000000000E+00 0.  1.
         25    2    1    2    0    0  0.89112111618E+02  0.21106947210E+03 -0.38105894005E+02  0.26380068258E+03  0.12508976969E+03 0.  0.
         23    2    1    2    0    0 -0.89112111618E+02 -0.21106947210E+03  0.55220153691E+02  0.25271491333E+03  0.91237446020E+02 0.  0.
          5    1    3    3  502    0 -0.22273963786E+01  0.12366560152E+02  0.31574405872E+02  0.34238992549E+02  0.41800000000E+01 0.  1.
         -5    1    3    3    0  502  0.91339507997E+02  0.19870291195E+03 -0.69680299877E+02  0.22956169003E+03  0.41800000000E+01 0.  1.
        -11    1    4    4    0    0 -0.57554389672E+02 -0.70081029114E+02 -0.15264691464E+02  0.91961237582E+02  0.00000000000E+00 0.  1.
         11    1    4    4    0    0 -0.31557721946E+02 -0.14098844299E+03  0.70484845155E+02  0.16075367575E+03  0.00000000000E+00 0. -1.
</event>
<event>
 8    1  0.3710605E-009  0.1337894E+03  0.7561462E-02  0.1221939E+00
         -2   -1    0    0    0  501 -0.00000000000E+00  0.00000000000E+00  0.33168405971E+02  0.33168405971E+02  0.00000000000E+00 0.  1.
          2   -1    0    0  501    0  0.00000000000E+00 -0.00000000000E+00 -0.75194624233E+03  0.75194624233E+03  0.00000000000E+00 0. -1.
         25    2    1    2    0    0  0.45737812820E+02 -0.94200287017E+02 -0.50635556292E+03  0.53198552860E+03  0.12508798881E+03 0.  0.
         23    2    1    2    0    0 -0.45737812820E+02  0.94200287017E+02 -0.21242227344E+03  0.25312911970E+03  0.89361554323E+02 0.  0.
          5    1    3    3  502    0  0.64321123809E+02 -0.10407516164E+03 -0.48985230882E+03  0.50491742206E+03  0.41800000000E+01 0.  1.
         -5    1    3    3    0  502 -0.18583310989E+02  0.98748746203E+01 -0.16503254097E+02  0.27068106544E+02  0.41800000000E+01 0.  1.
        -11    1    4    4    0    0 -0.86083608794E+01  0.85023772026E+02 -0.19110608687E+03  0.20934345494E+03  0.00000000000E+00 0. -1.
         11    1    4    4    0    0 -0.37129451940E+02  0.91765149912E+01 -0.21316186570E+02  0.43785664762E+02  0.00000000000E+00 0.  1.
</event>
<event>
 8    1  0.3710605E-009  0.1018439E+03  0.7561462E-02  0.1276466E+00
         -4   -1    0    0    0  501 -0.00000000000E+00  0.00000000000E+00  0.21465371092E+03  0.21465371092E+03  0.00000000000E+00 0.  1.
          4   -1    0    0  501    0  0.00000000000E+00 -0.00000000000E+00 -0.10234510393E+03  0.10234510393E+03  0.00000000000E+00 0. -1.
         25    2    1    2    0    0 -0.82477593225E+02 -0.27796376493E+02  0.83352009679E+01  0.15261184562E+03  0.12508280424E+03 0.  0.
         23    2    1    2    0    0  0.82477593225E+02  0.27796376493E+02  0.10397340602E+03  0.16438696924E+03  0.92937691844E+02 0.  0.
          5    1    3    3  502    0  0.61254279355E+01 -0.24850947238E+02  0.48652623384E+02  0.55132935784E+02  0.41800000000E+01 0.  1.
         -5    1    3    3    0  502 -0.88603021160E+02 -0.29454292551E+01 -0.40317422416E+02  0.97478909834E+02  0.41800000000E+01 0.  1.
        -11    1    4    4    0    0  0.21942862008E+02  0.16426580005E+02  0.98851226551E+02  0.10258112260E+03  0.00000000000E+00 0.  1.
         11    1    4    4    0    0  0.60534731217E+02  0.11369796488E+02  0.51221794679E+01  0.61805846634E+02  0.00000000000E+00 0. -1.
</event>
<event>
 8    1  0.3710605E-009  0.1539626E+03  0.7561462E-02  0.1195687E+00
          1   -1    0    0  501    0  0.00000000000E+00  0.00000000000E+00  0.30313331553E+03  0.30313331553E+03  0.00000000000E+00 0. -1.
         -1   -1    0    0    0  501 -0.00000000000E+00 -0.00000000000E+00 -0.84352013152E+02  0.84352013152E+02  0.00000000000E+00 0.  1.
         25    2    1    2    0    0 -0.71510347607E+02  0.84783647602E+02  0.70623380668E+02  0.18148548914E+03  0.12508926475E+03 0.  0.
         23    2    1    2    0    0  0.71510347607E+02 -0.84783647602E+02  0.14815792171E+03  0.20599983954E+03  0.90460861207E+02 0.  0.
          5    1    3    3  502    0 -0.79112543804E+02  0.11169506642E+03  0.68540934024E+02  0.15313364910E+03  0.41800000000E+01 0.  1.
         -5    1    3    3    0  502  0.76021961974E+01 -0.26911418816E+02  0.20824466440E+01  0.28351840041E+02  0.41800000000E+01 0.  1.
        -11    1    4    4    0    0  0.44137604603E+02  0.89734698156E+01  0.39631872724E+02  0.59994471714E+02  0.00000000000E+00 0.  1.
         11    1    4    4    0    0  0.27372743004E+02 -0.93757117418E+02  0.10852604899E+03  0.14600536783E+03  0.00000000000E+00 0. -1.
</event>
<event>
 8    1  0.3710605E-009  0.8755172E+02  0.7561462E-02  0.1308891E+00
         -2   -1    0    0    0  501 -0.00000000000E+00  0.00000000000E+00  0.56844806971E+02  0.56844806971E+02  0.00000000000E+00 0. -1.
          2   -1    0    0  501    0  0.00000000000E+00 -0.00000000000E+00 -0.29299822230E+03  0.29299822230E+03  0.00000000000E+00 0.  1.
         25    2    1    2    0    0  0.31966799705E+02 -0.12475631449E+02 -0.21699665688E+03  0.25280874872E+03  0.12508875516E+03 0.  0.
         23    2    1    2    0    0 -0.31966799705E+02  0.12475631449E+02 -0.19156758450E+02  0.97034280553E+02  0.88719516144E+02 0.  0.
          5    1    3    3  502    0 -0.38846075723E+02 -0.93718295296E+01 -0.23157910531E+02  0.46374669897E+02  0.41800000000E+01 0. -1.
         -5    1    3    3    0  502  0.70812875429E+02 -0.31038019191E+01 -0.19383874635E+03  0.20643407882E+03  0.41800000000E+01 0. -1.
        -11    1    4    4    0    0 -0.38305984063E+02  0.27804241640E+02 -0.45660909924E+02  0.65767339640E+02  0.00000000000E+00 0.  1.
         11    1    4    4    0    0  0.63391843581E+01 -0.15328610192E+02  0.26504151474E+02  0.31266940913E+02  0.00000000000E+00 0. -1.
</event>
<event>
 8    1  0.3710605E-009  0.1208235E+03  0.7561462E-02  0.1241745E+00
          1   -1    0    0  501    0  0.00000000000E+00  0.00000000000E+00  0.60719987100E+03  0.60719987100E+03  0.00000000000E+00 0. -1.
         -1   -1    0    0    0  501 -0.00000000000E+00 -0.00000000000E+00 -0.39463774811E+02  0.39463774811E+02  0.00000000000E+00 0.  1.
         25    2    1    2    0    0  0.69534672296E+02  0.41722270212E+02  0.47924033398E+03  0.50189052939E+03  0.12508791823E+03 0.  0.
         23    2    1    2    0    0 -0.69534672296E+02 -0.41722270212E+02  0.88495762208E+02  0.14477311643E+03  0.80944035163E+02 0.  0.
          5    1    3    3  502    0  0.95527237189E+02  0.48486055052E+02  0.44721096286E+03  0.45988201561E+03  0.41800000000E+01 0.  1.
         -5    1    3    3    0  502 -0.25992564894E+02 -0.67637848409E+01  0.32029371125E+02  0.42008513777E+02  0.41800000000E+01 0.  1.
        -11    1    4    4    0    0 -0.81993515053E+02 -0.23706096030E+02  0.45985876943E+02  0.96951618748E+02  0.00000000000E+00 0. -1.
         11    1    4    4    0    0  0.12458842757E+02 -0.18016174182E+02  0.42509885265E+02  0.47821497679E+02  0.00000000000E+00 0.  1.
</event>
<event>
 8    1  0.3710605E-009  0.1078788E+03  0.7561462E-02  0.1264549E+00
         -1   -1    0    0    0  501 -0.00000000000E+00  0.00000000000E+00  0.30008071188E+03  0.30008071188E+03  0.00000000000E+00 0.  1.
          1   -1    0    0  501    0  0.00000000000E+00 -0.00000000000E+00 -0.64935974967E+02  0.64935974967E+02  0.00000000000E+00 0. -1.
         25    2    1    2    0    0 -0.31111984449E+02 -0.77113246569E+02  0.16475839832E+03  0.22295200707E+03  0.12509140365E+03 0.  0.
         23    2    1    2    0    0  0.31111984449E+02  0.77113246569E+02  0.70386338592E+02  0.14206467978E+03  0.91179647985E+02 0.  0.
          5    1    3    3  502    0  0.28245135944E+02 -0.39162174703E+02  0.14001174357E+03  0.14816283059E+03  0.41800000000E+01 0.  1.
         -5    1    3    3    0  502 -0.59357120393E+02 -0.37951071865E+02  0.24746654754E+02  0.74789176481E+02  0.41800000000E+01 0.  1.
        -11    1    4    4    0    0 -0.12710851362E+02  0.84637898931E+01 -0.16835553988E+02  0.22729658154E+02  0.00000000000E+00 0. -1.
         11    1    4    4    0    0  0.43822835812E+02  0.68649456676E+02  0.87221892579E+02  0.11933502162E+03  0.00000000000E+00 0.  1.
</event>
<event>
 8    1  0.3710605E-009  0.1357228E+03  0.7561462E-02  0.1219203E+00
         -2   -1    0    0    0  501 -0.00000000000E+00  0.00000000000E+00  0.22762695230E+02  0.22762695230E+02  0.00000000000E+00 0.  1.
          2   -1    0    0  501    0  0.00000000000E+00 -0.00000000000E+00 -0.88155758768E+03  0.88155758768E+03  0.00000000000E+00 0. -1.
         25    2    1    2    0    0  0.51175984944E+02 -0.65047079930E+02 -0.58374161174E+03  0.60270198947E+03  0.12508123278E+03 0.  0.
         23    2    1    2    0    0 -0.51175984944E+02  0.65047079930E+02 -0.27505328071E+03  0.30161829344E+03  0.92028167781E+02 0.  0.
          5    1    3    3  502    0  0.91509038305E+02 -0.39562241571E+02 -0.44072140807E+03  0.45187598629E+03  0.41800000000E+01 0. -1.
         -5    1    3    3    0  502 -0.40333053361E+02 -0.25484838359E+02 -0.14302020367E+03  0.15082600319E+03  0.41800000000E+01 0. -1.
        -11    1    4    4    0    0 -0.85996634058E+01 -0.23768884751E+02 -0.55791075482E+02  0.61249964869E+02  0.00000000000E+00 0.  1.
         11    1    4    4    0    0 -0.42576321538E+02  0.88815964681E+02 -0.21926220523E+03  0.24036832857E+03  0.00000000000E+00 0. -1.
</event>
<event>
 8    1  0.3710605E-009  0.9160934E+02  0.7561462E-02  0.1299001E+00
          2   -1    0    0  501    0  0.00000000000E+00  0.00000000000E+00  0.64359082259E+03  0.64359082259E+03  0.00000000000E+00 0. -1.
         -2   -1    0    0    0  501 -0.00000000000E+00 -0.00000000000E+00 -0.21407469503E+02  0.21407469503E+02  0.00000000000E+00 0.  1.
         25    2    1    2    0    0 -0.30583681467E+02  0.28024312379E+02  0.36287964532E+03  0.38607413865E+03  0.12510347674E+03 0.  0.
         23    2    1    2    0    0  0.30583681467E+02 -0.28024312379E+02  0.25930370777E+03  0.27892415344E+03  0.94018864352E+02 0.  0.
          5    1    3    3  502    0 -0.36306899345E+02  0.54068711839E+02  0.35024255845E+03  0.35627087825E+03  0.41800000000E+01 0. -1.
         -5    1    3    3    0  502  0.57232178780E+01 -0.26044399460E+02  0.12637086871E+02  0.29803260404E+02  0.41800000000E+01 0. -1.
        -11    1    4    4    0    0  0.58429736104E+02 -0.15619589668E+02  0.10109872991E+03  0.11780899301E+03  0.00000000000E+00 0.  1.
         11    1    4    4    0    0 -0.27846054638E+02 -0.12404722711E+02  0.15820497786E+03  0.16111516044E+03  0.00000000000E+00 0. -1.
</event>
<event>
 8    1  0.3710605E-009  0.1227765E+03  0.7561462E-02  0.1238586E+00
          1   -1    0    0  501    0  0.00000000000E+00  0.00000000000E+00  0.51670000526E+03  0.51670000526E+03  0.00000000000E+00 0. -1.
         -1   -1    0    0    0  501 -0.00000000000E+00 -0.00000000000E+00 -0.37238512216E+02  0.37238512216E+02  0.00000000000E+00 0.  1.
         25    2    1    2    0    0  0.57073126147E+02 -0.41151857782E+01  0.13566621197E+03  0.19319550914E+03  0.12507960346E+03 0.  0.
         23    2    1    2    0    0 -0.57073126147E+02  0.41151857782E+01  0.34379528108E+03  0.36074300833E+03  0.93091601593E+02 0.  0.
          5    1    3    3  502    0 -0.34237960196E+02 -0.26423471380E+02  0.41931256515E+02  0.60383279400E+02  0.41800000000E+01 0. -1.
         -5    1    3    3    0  502  0.91311086344E+02  0.22308285602E+02  0.93734955451E+02  0.13281222974E+03  0.41800000000E+01 0. -1.
        -11    1    4    4    0    0 -0.34899972445E+02 -0.43333204156E+02  0.20425982234E+03  0.21170226659E+03  0.00000000000E+00 0. -1.
         11    1    4    4    0    0 -0.22173153702E+02  0.47448389934E+02  0.13953545874E+03  0.14904074174E+03  0.00000000000E+00 0.  1.
</event>
<event>
 8    1  0.3710605E-009  0.1036255E+03  0.7561462E-02  0.1272852E+00
          1   -1    0    0  501    0  0.00000000000E+00  0.00000000000E+00  0.68234118108E+03  0.68234118108E+03  0.00000000000E+00 0. -1.
         -1   -1    0    0    0  501 -0.00000000000E+00 -0.00000000000E+00 -0.21259571097E+02  0.21259571097E+02  0.00000000000E+00 0.  1.
         25    2    1    2    0    0  0.16393493712E+02 -0.43213921924E+02  0.45281257989E+03  0.47204051821E+03  0.12508728410E+03 0.  0.
         23    2    1    2    0    0 -0.16393493712E+02  0.43213921924E+02  0.20826903010E+03  0.23156023397E+03  0.90044230099E+02 0.  0.
          5    1    3    3  502    0 -0.40388077596E+02 -0.40888161543E+02  0.10667415929E+03  0.12124309146E+03  0.41800000000E+01 0.  1.
         -5    1    3    3    0  502  0.56781571308E+02 -0.23257603811E+01  0.34613842059E+03  0.35079742675E+03  0.41800000000E+01 0.  1.
        -11    1    4    4    0    0 -0.19620143537E+02 -0.20774333349E+02  0.27044992572E+02  0.39344053956E+02  0.00000000000E+00 0.  1.
         11    1    4    4    0    0  0.32266498246E+01  0.63988255273E+02  0.18122403752E+03  0.19221618001E+03  0.00000000000E+00 0. -1.
</event>
<event>
 8    1  0.3710605E-009  0.1572399E+03  0.7561462E-02  0.1191849E+00
          3   -1    0    0  501    0  0.00000000000E+00  0.00000000000E+00  0.27222623389E+03  0.27222623389E+03  0.00000000000E+00 0. -1.
         -3   -1    0    0    0  501 -0.00000000000E+00 -0.00000000000E+00 -0.11380801327E+03  0.11380801327E+03  0.00000000000E+00 0.  1.
         25    2    1    2    0    0 -0.13531246448E+03 -0.48775807586E+00  0.65200445259E+02  0.19547168954E+03  0.12509349463E+03 0.  0.
         23    2    1    2    0    0  0.13531246448E+03  0.48775807586E+00  0.93217775360E+02  0.19056255761E+03  0.96513386474E+02 0.  0.
          5    1    3    3  502    0 -0.15174746343E+03 -0.57900175585E+01  0.80587792066E+02  0.17196709450E+03  0.41800000000E+01 0. -1.
         -5    1    3    3    0  502  0.16434998951E+02  0.53022594827E+01 -0.15387346807E+02  0.23504595038E+02  0.41800000000E+01 0. -1.
        -11    1    4    4    0    0  0.24247478961E+02 -0.20516867770E+02 -0.14050833458E+02  0.34731945237E+02  0.00000000000E+00 0.  1.
         11    1    4    4    0    0  0.11106498552E+03  0.21004625846E+02  0.10726860882E+03  0.15583061238E+03  0.00000000000E+00 0. -1.
</event>
<event>
 8    1  0.3710605E-009  0.1496530E+03  0.7561462E-02  0.1200900E+00
         -1   -1    0    0    0  501 -0.00000000000E+00  0.00000000000E+00  0.64837387856E+02  0.64837387856E+02  0.00000000000E+00 0.  1.
          1   -1    0    0  501    0  0.00000000000E+00 -0.00000000000E+00 -0.36575057787E+03  0.36575057787E+03  0.00000000000E+00 0. -1.
         25    2    1    2    0    0 -0.23378647670E+01  0.10374760881E+03 -0.14752028725E+03  0.21949637523E+03  0.12508953451E+03 0.  0.
         23    2    1    2    0    0  0.23378647670E+01 -0.10374760881E+03 -0.15339290277E+03  0.21109159050E+03  0.10129780359E+03 0.  0.
          5    1    3    3  502    0 -0.27383084640E+02 -0.18494529781E+02 -0.54227146758E+02  0.63639113773E+02  0.41800000000E+01 0. -1.
         -5    1    3    3    0  502  0.25045219873E+02  0.12224213860E+03 -0.93293140488E+02  0.15585726146E+03  0.41800000000E+01 0. -1.
        -11    1    4    4    0    0  0.47594815845E+02 -0.36009816625E+02 -0.89430950128E+02  0.10751682766E+03  0.00000000000E+00 0. -1.
         11    1    4    4    0    0 -0.45256951078E+02 -0.67737792189E+02 -0.63961952640E+02  0.10357476284E+03  0.00000000000E+00 0.  1.
</event>
<event>
 8    1  0.3710605E-009  0.1718491E+03  0.7561462E-02  0.1175933E+00
          1   -1    0    0  501    0  0.00000000000E+00  0.00000000000E+00  0.69186052396E+03  0.69186052396E+03  0.00000000000E+00 0. -1.
         -1   -1    0    0    0  501 -0.00000000000E+00 -0.00000000000E+00 -0.45964454954E+02  0.45964454954E+02  0.00000000000E+00 0.  1.
         25    2    1    2    0    0  0.14096229907E+03 -0.50067321887E+01  0.39430025994E+03  0.43705281941E+03  0.12508810829E+03 0.  0.
         23    2    1    2    0    0 -0.14096229907E+03  0.50067321887E+01  0.25159580907E+03  0.30077215951E+03  0.85252587472E+02 0.  0.
          5    1    3    3  502    0  0.12265216616E+02  0.46554737929E+02  0.12751443646E+03  0.13636415610E+03  0.41800000000E+01 0.  1.
         -5    1    3    3    0  502  0.12869708245E+03 -0.51561470117E+02  0.26678582348E+03  0.30068866331E+03  0.41800000000E+01 0.  1.
        -11    1    4    4    0    0 -0.76417894069E+02  0.36687936531E+02  0.18168171913E+03  0.20048427940E+03  0.00000000000E+00 0. -1.
         11    1    4    4    0    0 -0.64544404998E+02 -0.31681204342E+02  0.69914089937E+02  0.10028788011E+03  0.00000000000E+00 0.  1.
</event>
<event>
 8    1  0.3710605E-009  0.1052234E+03  0.7561462E-02  0.1269680E+00
          1   -1    0    0  501    0  0.00000000000E+00  0.00000000000E+00  0.36367260234E+03  0.36367260234E+03  0.00000000000E+00 0. -1.
         -1   -1    0    0    0  501 -0.00000000000E+00 -0.00000000000E+00 -0.35445141474E+02  0.35445141474E+02  0.00000000000E+00 0.  1.
         25    2    1    2    0    0 -0.18165468797E+02 -0.23946411297E+02  0.20424829111E+03  0.24138985996E+03  0.12509310612E+03 0.  0.
         23    2    1    2    0    0  0.18165468797E+02  0.23946411297E+02  0.12397916975E+03  0.15772788385E+03  0.92756864654E+02 0.  0.
          5    1    3    3  502    0 -0.49293992365E+02  0.25945057488E+02  0.15436999861E+03  0.16416641728E+03  0.41800000000E+01 0. -1.
         -5    1    3    3    0  502  0.31128523568E+02 -0.49891468785E+02  0.49878292504E+02  0.77223442685E+02  0.41800000000E+01 0. -1.
        -11    1    4    4    0    0  0.40522273339E+01  0.58326313963E+02  0.90289460827E+02  0.10756656629E+03  0.00000000000E+00 0. -1.
         11    1    4    4    0    0  0.14113241463E+02 -0.34379902666E+02  0.33689708927E+02  0.50161317561E+02  0.00000000000E+00 0.  1.
</event>
<event>
 8    1  0.3710605E-009  0.1090636E+03  0.7561462E-02  0.1262314E+00
          2   -1    0    0  501    0  0.00000000000E+00  0.00000000000E+00  0.67646610970E+02  0.67646610970E+02  0.00000000000E+00 0.  1.
         -2   -1    0    0    0  501 -0.00000000000E+00 -0.00000000000E+00 -0.26231954937E+03  0.26231954937E+03  0.00000000000E+00 0. -1.
         25    2    1    2    0    0 -0.35867759860E+01  0.29676241040E+02 -0.19488192337E+03  0.23349399156E+03  0.12508771241E+03 0.  0.
         23    2    1    2    0    0  0.35867759860E+01 -0.29676241040E+02  0.20898496949E+00  0.96472168776E+02  0.91723995930E+02 0.  0.
          5    1    3    3  502    0  0.53679825873E+01  0.78408370377E+02 -0.11330377608E+03  0.13795617368E+03  0.41800000000E+01 0.  1.
         -5    1    3    3    0  502 -0.89547585733E+01 -0.48732129337E+02 -0.81578147292E+02  0.95537817886E+02  0.41800000000E+01 0.  1.
        -11    1    4    4    0    0  0.39799720032E+02  0.43155860126E+01 -0.17569843379E+02  0.43718890581E+02  0.00000000000E+00 0. -1.
         11    1    4    4    0    0 -0.36212944046E+02 -0.33991827052E+02  0.17778828348E+02  0.52753278195E+02  0.00000000000E+00 0.  1.
</event>
<event>
 8    1  0.3710605E-009  0.6663831E+02  0.7561462E-02  0.1371913E+00
         -1   -1    0    0    0  501 -0.00000000000E+00  0.00000000000E+00  0.48943030447E+02  0.48943030447E+02  0.00000000000E+00 0.  1.
          1   -1    0    0  501    0  0.00000000000E+00 -0.00000000000E+00 -0.30612823270E+03  0.30612823270E+03  0.00000000000E+00 0. -1.
         25    2    1    2    0    0  0.13049781949E+02  0.29871181841E+01 -0.21870426730E+03  0.25230561050E+03  0.12508934757E+03 0.  0.
         23    2    1    2    0    0 -0.13049781949E+02 -0.29871181841E+01 -0.38480934954E+02  0.10276565264E+03  0.94343931037E+02 0.  0.
          5    1    3    3  502    0  0.40316705606E+01 -0.35554834453E+02 -0.20798831322E+03  0.21108531795E+03  0.41800000000E+01 0.  1.
         -5    1    3    3    0  502  0.90181113885E+01  0.38541952637E+02 -0.10715954078E+02  0.41220292549E+02  0.41800000000E+01 0.  1.
        -11    1    4    4    0    0 -0.28197962167E+02 -0.20073491390E+02  0.20006260368E+02  0.39979001750E+02  0.00000000000E+00 0.  1.
         11    1    4    4    0    0  0.15148180218E+02  0.17086373206E+02 -0.58487195322E+02  0.62786650889E+02  0.00000000000E+00 0. -1.
</event>
<event>
 8    1  0.3710605E-009  0.1847071E+03  0.7561462E-02  0.1163324E+00
          3   -1    0    0  501    0  0.00000000000E+00  0.00000000000E+00  0.10594554891E+03  0.10594554891E+03  0.00000000000E+00 0. -1.
         -3   -1    0    0    0  501 -0.00000000000E+00 -0.00000000000E+00 -0.38561182376E+03  0.38561182376E+03  0.00000000000E+00 0.  1.
         25    2    1    2    0    0 -0.15044480895E+03 -0.64551973883E+02 -0.93787850480E+02  0.22637983068E+03  0.12510423243E+03 0.  0.
         23    2    1    2    0    0  0.15044480895E+03  0.64551973883E+02 -0.18587842437E+03  0.26517754199E+03  0.94698163949E+02 0.  0.
          5    1    3    3  502    0 -0.16617652723E+03 -0.44010935185E+02 -0.56893643476E+02  0.18112415545E+03  0.41800000000E+01 0.  1.
         -5    1    3    3    0  502  0.15731718281E+02 -0.20541038698E+02 -0.36894207004E+02  0.45255675239E+02  0.41800000000E+01 0.  1.
        -11    1    4    4    0    0  0.76009907410E+01 -0.80008526303E+01 -0.61147812831E+02  0.62135687950E+02  0.00000000000E+00 0.  1.
         11    1    4    4    0    0  0.14284381821E+03  0.72552826514E+02 -0.12473061154E+03  0.20304185404E+03  0.00000000000E+00 0. -1.
</event>
<event>
 8    1  0.3710605E-009  0.1011736E+03  0.7561462E-02  0.1277847E+00
         -2   -1    0    0    0  501 -0.00000000000E+00  0.00000000000E+00  0.67023581719E+02  0.67023581719E+02  0.00000000000E+00 0.  1.
          2   -1    0    0  501    0  0.00000000000E+00 -0.00000000000E+00 -0.23616116823E+03  0.23616116823E+03  0.00000000000E+00 0. -1.
         25    2    1    2    0    0 -0.53547346849E+02  0.29732251442E+02 -0.84425111688E+02  0.16286964117E+03  0.12509034896E+03 0.  0.
         23    2    1    2    0    0  0.53547346849E+02 -0.29732251442E+02 -0.84712474823E+02  0.14031510878E+03  0.93599151865E+02 0.  0.
          5    1    3    3  502    0 -0.13696399823E+02  0.45693827199E+02 -0.10475959944E+03  0.11518490911E+03  0.41800000000E+01 0. -1.
         -5    1    3    3    0  502 -0.39850947026E+02 -0.15961575757E+02  0.20334487753E+02  0.47684732060E+02  0.41800000000E+01 0. -1.
        -11    1    4    4    0    0  0.22275943984E+02 -0.62310325203E+02 -0.43593135881E+02  0.79241124444E+02  0.00000000000E+00 0.  1.
         11    1    4    4    0    0  0.31271402865E+02  0.32578073761E+02 -0.41119338942E+02  0.61073984332E+02  0.00000000000E+00 0. -1.
</event>
<event>
 8    1  0.3710605E-009  0.1040797E+03  0.7561462E-02  0.1271943E+00
         -2   -1    0    0    0  501 -0.00000000000E+00  0.00000000000E+00  0.32385773535E+03  0.32385773535E+03  0.00000000000E+00 0.  1.
          2   -1    0    0  501    0  0.00000000000E+00 -0.00000000000E+00 -0.54562244745E+02  0.54562244745E+02  0.00000000000E+00 0. -1.
         25    2    1    2    0    0 -0.58662547016E+02  0.25963067160E+02  0.20880283167E+03  0.25171748251E+03  0.12509073991E+03 0.  0.
         23    2    1    2    0    0  0.58662547016E+02 -0.25963067160E+02  0.60492658936E+02  0.12670249758E+03  0.90987833418E+02 0.  0.
          5    1    3    3  502    0 -0.34163968352E+02 -0.24740976692E+02  0.18608478326E+03  0.19085154341E+03  0.41800000000E+01 0. -1.
         -5    1    3    3    0  502 -0.24498578664E+02  0.50704043852E+02  0.22718048414E+02  0.60865939106E+02  0.41800000000E+01 0. -1.
        -11    1    4    4    0    0 -0.41449134881E+01  0.26895885803E+02  0.26074055925E+02  0.37688531059E+02  0.00000000000E+00 0.  1.
         11    1    4    4    0    0  0.62807460504E+02 -0.52858952964E+02  0.34418603011E+02  0.89013966525E+02  0.00000000000E+00 0. -1.
</event>
<event>
 8    1  0.3710605E-009  0.1220652E+03  0.7561462E-02  0.1239728E+00
          1   -1    0    0  501    0  0.00000000000E+00  0.00000000000E+00  0.92130382722E+02  0.92130382722E+02  0.00000000000E+00 0. -1.
         -1   -1    0    0    0  501 -0.00000000000E+00 -0.00000000000E+00 -0.19894151086E+03  0.19894151086E+03  0.00000000000E+00 0.  1.
         25    2    1    2    0    0  0.63818022129E+02 -0.36819835987E+02 -0.95666462906E+02  0.17386368798E+03  0.12509224438E+03 0.  0.
         23    2    1    2    0    0 -0.63818022129E+02  0.36819835987E+02 -0.11144665236E+02  0.11720820560E+03  0.90471650956E+02 0.  0.
          5    1    3    3  502    0  0.61037284846E+02 -0.78198228485E+02 -0.47189718831E+02  0.10993113773E+03  0.41800000000E+01 0. -1.
         -5    1    3    3    0  502  0.27807372831E+01  0.41378392498E+02 -0.48476744075E+02  0.63932550252E+02  0.41800000000E+01 0. -1.
        -11    1    4    4    0    0 -0.45636622395E+02  0.58930500792E+02  0.17659578379E+02  0.76598733251E+02  0.00000000000E+00 0. -1.
         11    1    4    4    0    0 -0.18181399735E+02 -0.22110664805E+02 -0.28804243615E+02  0.40609472351E+02  0.00000000000E+00 0.  1.
</event>
<event>
 8    1  0.3710605E-009  0.1039220E+03  0.7561462E-02  0.1272258E+00
         -1   -1    0    0    0  501 -0.00000000000E+00  0.00000000000E+00  0.50908496486E+02  0.50908496486E+02  0.00000000000E+00 0.  1.
          1   -1    0    0  501    0  0.00000000000E+00 -0.00000000000E+00 -0.35661642084E+03  0.35661642084E+03  0.00000000000E+00 0. -1.
         25    2    1    2    0    0 -0.67673851798E+02 -0.55668087409E+01 -0.24198185635E+03  0.28073700911E+03  0.12508920778E+03 0.  0.
         23    2    1    2    0    0  0.67673851798E+02  0.55668087409E+01 -0.63726068000E+02  0.12678790822E+03  0.86043142381E+02 0.  0.
          5    1    3    3  502    0 -0.61648274504E+02  0.25883225400E+02 -0.44024501269E+02  0.80162835643E+02  0.41800000000E+01 0. -1.
         -5    1    3    3    0  502 -0.60255772941E+01 -0.31450034140E+02 -0.19795735508E+03  0.20057417346E+03  0.41800000000E+01 0. -1.
        -11    1    4    4    0    0  0.58379496179E+02  0.41380817241E+02 -0.33502026704E+02  0.79012172499E+02  0.00000000000E+00 0.  1.
         11    1    4    4    0    0  0.92943556184E+01 -0.35814008500E+02 -0.30224041297E+02  0.47775735719E+02  0.00000000000E+00 0. -1.
</event>
<event>
 8    1  0.3710605E-009  0.9647536E+02  0.7561462E-02  0.1287887E+00
         -3   -1    0    0    0  501 -0.00000000000E+00  0.00000000000E+00  0.60817324446E+03  0.60817324446E+03  0.00000000000E+00 0.  1.
          3   -1    0    0  501    0  0.00000000000E+00 -0.00000000000E+00 -0.21803742102E+02  0.21803742102E+02  0.00000000000E+00 0. -1.
         25    2    1    2    0    0  0.14300127017E+02  0.33760563914E+02  0.38730650791E+03  0.40865536824E+03  0.12509440280E+03 0.  0.
         23    2    1    2    0    0 -0.14300127017E+02 -0.33760563914E+02  0.19906299445E+03  0.22132161833E+03  0.89514879601E+02 0.  0.
          5    1    3    3  502    0  0.23684441835E+02 -0.26591796615E+02  0.29935574849E+03  0.30149529513E+03  0.41800000000E+01 0. -1.
         -5    1    3    3    0  502 -0.93843148172E+01  0.60352360529E+02  0.87950759418E+02  0.10716007311E+03  0.41800000000E+01 0. -1.
        -11    1    4    4    0    0 -0.50357565421E+02 -0.32224679714E+02  0.10944811965E+03  0.12471249045E+03  0.00000000000E+00 0. -1.
         11    1    4    4    0    0  0.36057438404E+02 -0.15358841999E+01  0.89614874798E+02  0.96609127880E+02  0.00000000000E+00 0.  1.
</event>
<event>
 8    1  0.3710605E-009  0.1026089E+03  0.7561462E-02  0.1274903E+00
          2   -1    0    0  501    0  0.00000000000E+00  0.00000000000E+00  0.88300150020E+02  0.88300150020E+02  0.00000000000E+00 0. -1.
         -2   -1    0    0    0  501 -0.00000000000E+00 -0.00000000000E+00 -0.19281093173E+03  0.19281093173E+03  0.00000000000E+00 0.  1.
         25    2    1    2    0    0 -0.67966269369E+02 -0.33968964339E+01 -0.33956212966E+02  0.14639439159E+03  0.12508933133E+03 0.  0.
         23    2    1    2    0    0  0.67966269369E+02  0.33968964339E+01 -0.70554568740E+02  0.13471669015E+03  0.92410425593E+02 0.  0.
          5    1    3    3  502    0  0.20770680738E+02 -0.24309611349E+02  0.22280573445E+02  0.39195340734E+02  0.41800000000E+01 0.  1.
         -5    1    3    3    0  502 -0.88736950106E+02  0.20912714915E+02 -0.56236786411E+02  0.10719905086E+03  0.41800000000E+01 0.  1.
        -11    1    4    4    0    0  0.22001169931E+02  0.22917648971E+02  0.15402638620E+02  0.35305968180E+02  0.00000000000E+00 0. -1.
         11    1    4    4    0    0  0.45965099438E+02 -0.19520752537E+02 -0.85957207360E+02  0.99410721972E+02  0.00000000000E+00 0.  1.
</event>
<event>
 8    1  0.3710605E-009  0.3879203E+03  0.7561462E-02  0.1048045E+00
         -2   -1    0    0    0  501 -0.00000000000E+00  0.00000000000E+00  0.18567832515E+03  0.18567832515E+03  0.00000000000E+00 0.  1.
          2   -1    0    0  501    0  0.00000000000E+00 -0.00000000000E+00 -0.92270581366E+03  0.92270581366E+03  0.00000000000E+00 0. -1.
         25    2    1    2    0    0 -0.26479817014E+03  0.26452396150E+03 -0.55817455942E+03  0.68359139615E+03  0.12508941198E+03 0.  0.
         23    2    1    2    0    0  0.26479817014E+03 -0.26452396150E+03 -0.17885292909E+03  0.42479274266E+03  0.91485008897E+02 0.  0.
          5    1    3    3  502    0 -0.83613246066E+02  0.16465767815E+03 -0.22155842348E+03  0.28845958696E+03  0.41800000000E+01 0.  1.
         -5    1    3    3    0  502 -0.18118492407E+03  0.99866283346E+02 -0.33661613594E+03  0.39513180919E+03  0.41800000000E+01 0.  1.
        -11    1    4    4    0    0  0.22180755487E+03 -0.25876729001E+03 -0.16850414402E+03  0.38020093152E+03  0.00000000000E+00 0.  1.
         11    1    4    4    0    0  0.42990615271E+02 -0.57566714885E+01 -0.10348785069E+02  0.44591811136E+02  0.00000000000E+00 0. -1.
</event>
<event>
 8    1  0.3710605E-009  0.1126959E+03  0.7561462E-02  0.1255657E+00
          2   -1    0    0  501    0  0.00000000000E+00  0.00000000000E+00  0.37962057512E+03  0.37962057512E+03  0.00000000000E+00 0. -1.
         -2   -1    0    0    0  501 -0.00000000000E+00 -0.00000000000E+00 -0.55596635785E+02  0.55596635785E+02  0.00000000000E+00 0.  1.
         25    2    1    2    0    0 -0.27580791771E+02  0.87279532858E+02  0.12729292392E+03  0.20057254042E+03  0.12508972203E+03 0.  0.
         23    2    1    2    0    0  0.27580791771E+02 -0.87279532858E+02  0.19673101541E+03  0.23464467049E+03  0.89311880685E+02 0.  0.
          5    1    3    3  502    0  0.22054462112E+02  0.40775002595E+02  0.12388679424E+03  0.13234202025E+03  0.41800000000E+01 0. -1.
         -5    1    3    3    0  502 -0.49635253883E+02  0.46504530263E+02  0.34061296761E+01  0.68230520168E+02  0.41800000000E+01 0. -1.
        -11    1    4    4    0    0 -0.36192016859E+01 -0.78092881613E+02  0.18363433782E+03  0.19958248121E+03  0.00000000000E+00 0. -1.
         11    1    4    4    0    0  0.31199993457E+02 -0.91866512450E+01  0.13096677592E+02  0.35062189275E+02  0.00000000000E+00 0.  1.
</event>
<event>
 8    1  0.3710605E-009  0.1562059E+03  0.7561462E-02  0.1193048E+00
          1   -1    0    0  501    0  0.00000000000E+00  0.00000000000E+00  0.10689770575E+04  0.10689770575E+04  0.00000000000E+00 0. -1.
         -1   -1    0    0    0  501 -0.00000000000E+00 -0.00000000000E+00 -0.27255439235E+02  0.27255439235E+02  0.00000000000E+00 0.  1.
         25    2    1    2    0    0 -0.77891000938E+02 -0.10334875739E+03  0.49203459830E+03  0.52392094043E+03  0.12508849751E+03 0.  0.
         23    2    1    2    0    0  0.77891000938E+02  0.10334875739E+03  0.54968701992E+03  0.57231155626E+03  0.92933975943E+02 0.  0.
          5    1    3    3  502    0 -0.10159429698E+02  0.15625067676E+02  0.20493826801E+03  0.20582643865E+03  0.41800000000E+01 0. -1.
         -5    1    3    3    0  502 -0.67731571240E+02 -0.11897382507E+03  0.28709633029E+03  0.31809450178E+03  0.41800000000E+01 0. -1.
        -11    1    4    4    0    0  0.97424272503E+02  0.81321054827E+02  0.48340939335E+03  0.49978919997E+03  0.00000000000E+00 0. -1.
         11    1    4    4    0    0 -0.19533271565E+02  0.22027702567E+02  0.66277626566E+02  0.72522356289E+02  0.00000000000E+00 0.  1.
</event>
<event>
 8    1  0.3710605E-009  0.1156817E+03  0.7561462E-02  0.1250396E+00
         -2   -1    0    0    0  501 -0.00000000000E+00  0.00000000000E+00  0.67288431574E+02  0.67288431574E+02  0.00000000000E+00 0.  1.
          2   -1    0    0  501    0  0.00000000000E+00 -0.00000000000E+00 -0.23580226777E+03  0.23580226777E+03  0.00000000000E+00 0. -1.
         25    2    1    2    0    0  0.49551323729E+02 -0.38235860987E+02 -0.84690552256E+02  0.16351741970E+03  0.12509253438E+03 0.  0.
         23    2    1    2    0    0 -0.49551323729E+02  0.38235860987E+02 -0.83823283941E+02  0.13957327964E+03  0.92396118479E+02 0.  0.
          5    1    3    3  502    0  0.40633030538E+02  0.32515848503E+02 -0.75067630357E+02  0.91438203733E+02  0.41800000000E+01 0. -1.
         -5    1    3    3    0  502  0.89182931913E+01 -0.70751709490E+02 -0.96229218991E+01  0.72079215972E+02  0.41800000000E+01 0. -1.
        -11    1    4    4    0    0 -0.10814602099E+02 -0.28541086713E+02 -0.41557588830E+02  0.51561443334E+02  0.00000000000E+00 0.  1.
         11    1    4    4    0    0 -0.38736721630E+02  0.66776947700E+02 -0.42265695111E+02  0.88011836306E+02  0.00000000000E+00 0. -1.
</event>
<event>
 8    1  0.3710605E-009  0.1050596E+03  0.7561462E-02  0.1270002E+00
         -4   -1    0    0    0  501 -0.00000000000E+00  0.00000000000E+00  0.54837528187E+02  0.54837528187E+02  0.00000000000E+00 0. -1.
          4   -1    0    0  501    0  0.00000000000E+00 -0.00000000000E+00 -0.26699280948E+03  0.26699280948E+03  0.00000000000E+00 0.  1.
         25    2    1    2    0    0  0.48460402249E+02  0.17882091305E+02 -0.13926579955E+03  0.19419270893E+03  0.12509062915E+03 0.  0.
         23    2    1    2    0    0 -0.48460402249E+02 -0.17882091305E+02 -0.72889481740E+02  0.12763762873E+03  0.91160890431E+02 0.  0.
          5    1    3    3  502    0  0.52219285957E+02  0.67422646202E+02 -0.91412235042E+02  0.12508531553E+03  0.41800000000E+01 0.  1.
         -5    1    3    3    0  502 -0.37588837074E+01 -0.49540554897E+02 -0.47853564507E+02  0.69107393398E+02  0.41800000000E+01 0.  1.
        -11    1    4    4    0    0 -0.33878296864E+02 -0.37433701541E+02 -0.86165835781E+02  0.99867773908E+02  0.00000000000E+00 0.  1.
         11    1    4    4    0    0 -0.14582105385E+02  0.19551610236E+02  0.13276354041E+02  0.27769854823E+02  0.00000000000E+00 0. -1.
</event>
<event>
 8    1  0.3710605E-009  0.7499125E+02  0.7561462E-02  0.1343898E+00
          2   -1    0    0  501    0  0.00000000000E+00  0.00000000000E+00  0.57137045120E+03  0.57137045120E+03  0.00000000000E+00 0. -1.
         -2   -1    0    0    0  501 -0.00000000000E+00 -0.00000000000E+00 -0.28244733823E+02  0.28244733823E+02  0.00000000000E+00 0.  1.
         25    2    1    2    0    0 -0.24232030617E+02  0.64376023336E+01  0.43968633249E+03  0.45782058205E+03  0.12508789048E+03 0.  0.
         23    2    1    2    0    0  0.24232030617E+02 -0.64376023336E+01  0.10343938489E+03  0.14179460297E+03  0.93687614193E+02 0.  0.
          5    1    3    3  502    0  0.38571016984E+02 -0.19167934962E+02  0.72764325705E+02  0.84659627788E+02  0.41800000000E+01 0.  1.
         -5    1    3    3    0  502 -0.62803047601E+02  0.25605537296E+02  0.36692200678E+03  0.37316095427E+03  0.41800000000E+01 0.  1.
        -11    1    4    4    0    0  0.18254917742E+02  0.10317314628E+02  0.11735228503E+03  0.11921093828E+03  0.00000000000E+00 0. -1.
         11    1    4    4    0    0  0.59771128745E+01 -0.16754916962E+02 -0.13912900139E+02  0.22583664694E+02  0.00000000000E+00 0.  1.
</event>
<event>
 8    1  0.3710605E-009  0.1180727E+03  0.7561462E-02  0.1246311E+00
          2   -1    0    0  501    0  0.00000000000E+00  0.00000000000E+00  0.78831639206E+03  0.78831639206E+03  0.00000000000E+00 0. -1.
         -2   -1    0    0    0  501 -0.00000000000E+00 -0.00000000000E+00 -0.22212277630E+02  0.22212277630E+02  0.00000000000E+00 0.  1.
         25    2    1    2    0    0  0.57226433631E+02 -0.45155831178E+02  0.36079809096E+03  0.38876283574E+03  0.12508943287E+03 0.  0.
         23    2    1    2    0    0 -0.57226433631E+02  0.45155831178E+02  0.40530602347E+03  0.42176583395E+03  0.91101768533E+02 0.  0.
          5    1    3    3  502    0 -0.35809261617E+02 -0.31856447857E+02  0.89408853392E+02  0.10153103936E+03  0.41800000000E+01 0. -1.
         -5    1    3    3    0  502  0.93035695248E+02 -0.13299383321E+02  0.27138923757E+03  0.28723179638E+03  0.41800000000E+01 0. -1.
        -11    1    4    4    0    0  0.15293219653E+01  0.34148504115E+02  0.44874445549E+02  0.56410770446E+02  0.00000000000E+00 0.  1.
         11    1    4    4    0    0 -0.58755755596E+02  0.11007327064E+02  0.36043157792E+03  0.36535506350E+03  0.00000000000E+00 0. -1.
</event>
<event>
 8    1  0.3710605E-009  0.1790805E+03  0.7561462E-02  0.1168696E+00
          1   -1    0    0  501    0  0.00000000000E+00  0.00000000000E+00  0.45483707875E+03  0.45483707875E+03  0.00000000000E+00 0. -1.
         -1   -1    0    0    0  501 -0.00000000000E+00 -0.00000000000E+00 -0.14396040247E+03  0.14396040247E+03  0.00000000000E+00 0.  1.
         25    2    1    2    0    0 -0.11045489599E+03 -0.13583074580E+03 -0.17678201638E+02  0.21589431850E+03  0.12509021702E+03 0.  0.
         23    2    1    2    0    0  0.11045489599E+03  0.13583074580E+03  0.32855487791E+03  0.38290316272E+03  0.89533505857E+02 0.  0.
          5    1    3    3  502    0 -0.85522709856E+02 -0.69438849553E+02  0.46978517880E+02  0.11983464136E+03  0.41800000000E+01 0.  1.
         -5    1    3    3    0  502 -0.24932186134E+02 -0.66391896247E+02 -0.64656719518E+02  0.96059677136E+02  0.41800000000E+01 0.  1.
        -11    1    4    4    0    0  0.34376012203E+02  0.25251084127E+02  0.16948968712E+03  0.17477437313E+03  0.00000000000E+00 0. -1.
         11    1    4    4    0    0  0.76078883788E+02  0.11057966167E+03  0.15906519079E+03  0.20812878959E+03  0.00000000000E+00 0.  1.
</event>
<event>
 8    1  0.3710605E-009  0.1544185E+03  0.7561462E-02  0.1195146E+00
          1   -1    0    0  501    0  0.00000000000E+00  0.00000000000E+00  0.40855141122E+02  0.40855141122E+02  0.00000000000E+00 0. -1.
         -1   -1    0    0    0  501 -0.00000000000E+00 -0.00000000000E+00 -0.70891620023E+03  0.70891620023E+03  0.00000000000E+00 0.  1.
         25    2    1    2    0    0 -0.12531613859E+03  0.36520861944E+02 -0.33120301373E+03  0.37733336486E+03  0.12508846465E+03 0.  0.
         23    2    1    2    0    0  0.12531613859E+03 -0.36520861944E+02 -0.33685804538E+03  0.37243797649E+03  0.90547201210E+02 0.  0.
          5    1    3    3  502    0 -0.12122074327E+03  0.60389940413E+02 -0.18630443378E+03  0.23036542264E+03  0.41800000000E+01 0. -1.
         -5    1    3    3    0  502 -0.40953953150E+01 -0.23869078468E+02 -0.14489857995E+03  0.14696794222E+03  0.41800000000E+01 0. -1.
        -11    1    4    4    0    0  0.73779492947E+02 -0.57078021745E+02 -0.14250807937E+03  0.17032283121E+03  0.00000000000E+00 0.  1.
         11    1    4    4    0    0  0.51536645642E+02  0.20557159801E+02 -0.19434996602E+03  0.20211514529E+03  0.00000000000E+00 0. -1.
</event>
<event>
 8    1  0.3710605E-009  0.1323806E+03  0.7561462E-02  0.1223965E+00
          2   -1    0    0  501    0  0.00000000000E+00  0.00000000000E+00  0.19242750875E+04  0.19242750875E+04  0.00000000000E+00 0. -1.
         -2   -1    0    0    0  501 -0.00000000000E+00 -0.00000000000E+00 -0.16189835263E+02  0.16189835263E+02  0.00000000000E+00 0.  1.
         25    2    1    2    0    0 -0.13639402761E+02  0.79898311375E+02  0.16355014359E+04  0.16422793525E+04  0.12508697482E+03 0.  0.
         23    2    1    2    0    0  0.13639402761E+02 -0.79898311375E+02  0.27258381638E+03  0.29818557032E+03  0.89682350169E+02 0.  0.
          5    1    3    3  502    0  0.51663073425E+02  0.54515503657E+02  0.66438580752E+03  0.66863068052E+03  0.41800000000E+01 0. -1.
         -5    1    3    3    0  502 -0.65302476187E+02  0.25382807719E+02  0.97111562838E+03  0.97364867196E+03  0.41800000000E+01 0. -1.
        -11    1    4    4    0    0  0.26278621789E+01  0.19333227691E+02  0.29192461912E+02  0.35112379370E+02  0.00000000000E+00 0. -1.
         11    1    4    4    0    0  0.11011540582E+02 -0.99231539066E+02  0.24339135446E+03  0.26307319095E+03  0.00000000000E+00 0.  1.
</event>
<event>
 8    1  0.3710605E-009  0.6833842E+02  0.7561462E-02  0.1365836E+00
          2   -1    0    0  501    0  0.00000000000E+00  0.00000000000E+00  0.19930159296E+03  0.19930159296E+03  0.00000000000E+00 0. -1.
         -2   -1    0    0    0  501 -0.00000000000E+00 -0.00000000000E+00 -0.69317754834E+02  0.69317754834E+02  0.00000000000E+00 0.  1.
         25    2    1    2    0    0  0.16561822016E+02  0.29587266301E+02  0.10174904181E+03  0.16477563506E+03  0.12509373336E+03 0.  0.
         23    2    1    2    0    0 -0.16561822016E+02 -0.29587266301E+02  0.28234796323E+02  0.10384371274E+03  0.94003258859E+02 0.  0.
          5    1    3    3  502    0  0.18940093364E+02 -0.60189155950E+01 -0.25472872932E+02  0.32577509681E+02  0.41800000000E+01 0. -1.
         -5    1    3    3    0  502 -0.23782713480E+01  0.35606181896E+02  0.12722191474E+03  0.13219812538E+03  0.41800000000E+01 0. -1.
        -11    1    4    4    0    0  0.28780724959E+02 -0.62839757986E+01  0.41755194818E+02  0.51101025189E+02  0.00000000000E+00 0. -1.
         11    1    4    4    0    0 -0.45342546976E+02 -0.23303290502E+02 -0.13520398495E+02  0.52742687550E+02  0.00000000000E+00 0.  1.
</event>
<event>
 8    1  0.3710605E-009  0.1139054E+03  0.7561462E-02  0.1253504E+00
         -2   -1    0    0    0  501 -0.00000000000E+00  0.00000000000E+00  0.31369206187E+02  0.31369206187E+02  0.00000000000E+00 0.  1.
          2   -1    0    0  501    0  0.00000000000E+00 -0.00000000000E+00 -0.51727406398E+03  0.51727406398E+03  0.00000000000E+00 0. -1.
         25    2    1    2    0    0  0.32109236590E+02 -0.44856884493E+02 -0.16854148232E+03  0.21702855024E+03  0.12510802211E+03 0.  0.
         23    2    1    2    0    0 -0.32109236590E+02  0.44856884493E+02 -0.31736337547E+03  0.33161471993E+03  0.78776057415E+02 0.  0.
          5    1    3    3  502    0 -0.46257917363E+02 -0.32773855365E+02 -0.61441425528E+02  0.83704490233E+02  0.41800000000E+01 0. -1.
         -5    1    3    3    0  502  0.78367153952E+02 -0.12083029128E+02 -0.10710005679E+03  0.13332406001E+03  0.41800000000E+01 0. -1.
        -11    1    4    4    0    0  0.23793250265E+02  0.15773959672E+02 -0.15187797959E+03  0.15453755934E+03  0.00000000000E+00 0. -1.
         11    1    4    4    0    0 -0.55902486854E+02  0.29082924821E+02 -0.16548539588E+03  0.17707716059E+03  0.00000000000E+00 0.  1.
</event>
<event>
 8    1  0.3710605E-009  0.7935865E+02  0.7561462E-02  0.1330881E+00
         -4   -1    0    0    0  501 -0.00000000000E+00  0.00000000000E+00  0.13604271718E+02  0.13604271718E+02  0.00000000000E+00 0.  1.
          4   -1    0    0  501    0  0.00000000000E+00 -0.00000000000E+00 -0.10981878580E+04  0.10981878580E+04  0.00000000000E+00 0. -1.
         25    2    1    2    0    0 -0.57761828290E+01  0.53243656722E+02 -0.69001411020E+03  0.70330294426E+03  0.12508919966E+03 0.  0.
         23    2    1    2    0    0  0.57761828290E+01 -0.53243656722E+02 -0.39456947606E+03  0.40848918542E+03  0.91159705483E+02 0.  0.
          5    1    3    3  502    0 -0.37914531321E+01 -0.69715421904E-03 -0.58895324176E+03  0.58898027853E+03  0.41800000000E+01 0.  1.
         -5    1    3    3    0  502 -0.19847296969E+01  0.53244353876E+02 -0.10106086844E+03  0.11432266574E+03  0.41800000000E+01 0.  1.
        -11    1    4    4    0    0 -0.35180046976E+02 -0.37386437149E+01 -0.21228411852E+03  0.21521189590E+03  0.00000000000E+00 0. -1.
         11    1    4    4    0    0  0.40956229805E+02 -0.49505013007E+02 -0.18228535754E+03  0.19327728952E+03  0.00000000000E+00 0.  1.
</event>
<event>
 8    1  0.3710605E-009  0.8841119E+02  0.7561462E-02  0.1306745E+00
          1   -1    0    0  501    0  0.00000000000E+00  0.00000000000E+00  0.28676678951E+02  0.28676678951E+02  0.00000000000E+00 0. -1.
         -1   -1    0    0    0  501 -0.00000000000E+00 -0.00000000000E+00 -0.61456460762E+03  0.61456460762E+03  0.00000000000E+00 0.  1.
         25    2    1    2    0    0 -0.36979812758E+02  0.52595192939E+02 -0.22260386184E+03  0.26330933170E+03  0.12508222889E+03 0.  0.
         23    2    1    2    0    0  0.36979812758E+02 -0.52595192939E+02 -0.36328406683E+03  0.37993195487E+03  0.90770128596E+02 0.  0.
          5    1    3    3  502    0 -0.97873478163E+01  0.64280490552E+02 -0.36224590067E+02  0.74548420295E+02  0.41800000000E+01 0.  1.
         -5    1    3    3    0  502 -0.27192464941E+02 -0.11685297613E+02 -0.18637927177E+03  0.18876091141E+03  0.41800000000E+01 0.  1.
        -11    1    4    4    0    0  0.49794783572E+02 -0.42381468799E+02 -0.35607479171E+03  0.36202895831E+03  0.00000000000E+00 0.  1.
         11    1    4    4    0    0 -0.12814970814E+02 -0.10213724139E+02 -0.72092751199E+01  0.17902996551E+02  0.00000000000E+00 0. -1.
</event>
<event>
 8    1  0.3710605E-009  0.2556457E+03  0.7561462E-02  0.1109788E+00
         -3   -1    0    0    0  501 -0.00000000000E+00  0.00000000000E+00  0.10606599636E+04  0.10606599636E+04  0.00000000000E+00 0.  1.
          3   -1    0    0  501    0  0.00000000000E+00 -0.00000000000E+00 -0.69438926414E+02  0.69438926414E+02  0.00000000000E+00 0. -1.
         25    2    1    2    0    0 -0.15688904716E+03 -0.19260816621E+03  0.49230975137E+03  0.56544496771E+03  0.12508813456E+03 0.  0.
         23    2    1    2    0    0  0.15688904716E+03  0.19260816621E+03  0.49891128578E+03  0.56465392227E+03  0.90606302458E+02 0.  0.
          5    1    3    3  502    0 -0.84134391612E+01 -0.33837380739E+02  0.10185511434E+02  0.36564618649E+02  0.41800000000E+01 0.  1.
         -5    1    3    3    0  502 -0.14847560800E+03 -0.15877078547E+03  0.48212423994E+03  0.52888034907E+03  0.41800000000E+01 0.  1.
        -11    1    4    4    0    0  0.10681030487E+03  0.17622169322E+03  0.43841674444E+03  0.48442932218E+03  0.00000000000E+00 0.  1.
         11    1    4    4    0    0  0.50078742294E+02  0.16386472989E+02  0.60494541344E+02  0.80224600087E+02  0.00000000000E+00 0. -1.
</event>
<event>
 8    1  0.3710605E-009  0.9070023E+02  0.7561462E-02  0.1301165E+00
          3   -1    0    0  501    0  0.00000000000E+00  0.00000000000E+00  0.32866761073E+03  0.32866761073E+03  0.00000000000E+00 0. -1.
         -3   -1    0    0    0  501 -0.00000000000E+00 -0.00000000000E+00 -0.60231863621E+02  0.60231863621E+02  0.00000000000E+00 0.  1.
         25    2    1    2    0    0  0.88397376551E+02  0.16279521472E+02  0.14130288883E+03  0.20903353924E+03  0.12509754248E+03 0.  0.
         23    2    1    2    0    0 -0.88397376551E+02 -0.16279521472E+02  0.12713285828E+03  0.17986593512E+03  0.90054827523E+02 0.  0.
          5    1    3    3  502    0  0.50410334379E+02  0.21990668634E+01 -0.10631331156E+02  0.51735242432E+02  0.41800000000E+01 0.  1.
         -5    1    3    3    0  502  0.37987042172E+02  0.14080454609E+02  0.15193421999E+03  0.15729829680E+03  0.41800000000E+01 0.  1.
        -11    1    4    4    0    0 -0.73382251195E+02 -0.15531534093E+02  0.14080977817E+03  0.15954177186E+03  0.00000000000E+00 0. -1.
         11    1    4    4    0    0 -0.15015125356E+02 -0.74798737896E+00 -0.13676919883E+02  0.20324163256E+02  0.00000000000E+00 0.  1.
</event>
<event>
 8    1  0.3710605E-009  0.7118981E+02  0.7561462E-02  0.1356093E+00
         -1   -1    0    0    0  501 -0.00000000000E+00  0.00000000000E+00  0.53275710261E+03  0.53275710261E+03  0.00000000000E+00 0.  1.
          1   -1    0    0  501    0  0.00000000000E+00 -0.00000000000E+00 -0.27783720127E+02  0.27783720127E+02  0.00000000000E+00 0. -1.
         25    2    1    2    0    0  0.11925755160E+02  0.52809196485E+02  0.26740954671E+03  0.30014425636E+03  0.12509066347E+03 0.  0.
         23    2    1    2    0    0 -0.11925755160E+02 -0.52809196485E+02  0.23756383577E+03  0.26039656637E+03  0.91862728256E+02 0.  0.
          5    1    3    3  502    0  0.18625163978E+02  0.54970567887E+02  0.35655170664E+02  0.68245319709E+02  0.41800000000E+01 0. -1.
         -5    1    3    3    0  502 -0.66994088178E+01 -0.21613714025E+01  0.23175437605E+03  0.23189893665E+03  0.41800000000E+01 0. -1.
        -11    1    4    4    0    0 -0.30736021091E+02 -0.15967197823E+02  0.20457679484E+03  0.20748811866E+03  0.00000000000E+00 0.  1.
         11    1    4    4    0    0  0.18810265930E+02 -0.36841998662E+02  0.32987040932E+02  0.52908447712E+02  0.00000000000E+00 0. -1.
</event>
<event>
 8    1  0.3710605E-009  0.2333117E+03  0.7561462E-02  0.1124330E+00
          2   -1    0    0  501    0  0.00000000000E+00  0.00000000000E+00  0.97566253820E+03  0.97566253820E+03  0.00000000000E+00 0. -1.
         -2   -1    0    0    0  501 -0.00000000000E+00 -0.00000000000E+00 -0.65295683932E+02  0.65295683932E+02  0.00000000000E+00 0.  1.
         25    2    1    2    0    0  0.21818297346E+03 -0.23174657510E+02  0.59144894900E+03  0.64311971862E+03  0.12510091341E+03 0.  0.
         23    2    1    2    0    0 -0.21818297346E+03  0.23174657510E+02  0.31891790527E+03  0.39783850352E+03  0.91793082109E+02 0.  0.
          5    1    3    3  502    0 -0.23503812591E+01  0.63893800340E+01 -0.28793121219E+01  0.84918377032E+01  0.41800000000E+01 0. -1.
         -5    1    3    3    0  502  0.22053335472E+03 -0.29564037544E+02  0.59432826112E+03  0.63462788091E+03  0.41800000000E+01 0. -1.
        -11    1    4    4    0    0 -0.10009355780E+03 -0.32900790234E+02  0.16651765910E+03  0.19705154936E+03  0.00000000000E+00 0. -1.
         11    1    4    4    0    0 -0.11808941565E+03  0.56075447744E+02  0.15240024617E+03  0.20078695416E+03  0.00000000000E+00 0.  1.
</event>
<event>
 8    1  0.3710605E-009  0.1229529E+03  0.7561462E-02  0.1238304E+00
         -2   -1    0    0    0  501 -0.00000000000E+00  0.00000000000E+00  0.91525767953E+02  0.91525767953E+02  0.00000000000E+00 0.  1.
          2   -1    0    0  501    0  0.00000000000E+00 -0.00000000000E+00 -0.24268865423E+03  0.24268865423E+03  0.00000000000E+00 0. -1.
         25    2    1    2    0    0 -0.62267151701E+02 -0.73944605755E+02 -0.11322801085E+03  0.19445916429E+03  0.12509508876E+03 0.  0.
         23    2    1    2    0    0  0.62267151701E+02  0.73944605755E+02 -0.37934875425E+02  0.13975525790E+03  0.93527933986E+02 0.  0.
          5    1    3    3  502    0 -0.42882819059E+02 -0.98946836907E+02 -0.12046596866E+03  0.16173723971E+03  0.41800000000E+01 0. -1.
         -5    1    3    3    0  502 -0.19384332641E+02  0.25002231152E+02  0.72379578072E+01  0.32721924573E+02  0.41800000000E+01 0. -1.
        -11    1    4    4    0    0  0.69071712776E+02  0.65108964062E+02 -0.61900819254E+02  0.11332162252E+03  0.00000000000E+00 0. -1.
         11    1    4    4    0    0 -0.68045610753E+01  0.88356416921E+01  0.23965943829E+02  0.26433635375E+02  0.00000000000E+00 0.  1.
</event>
<event>
 8    1  0.3710605E-009  0.6862117E+02  0.7561462E-02  0.1364846E+00
          1   -1    0    0  501    0  0.00000000000E+00  0.00000000000E+00  0.18362157146E+03  0.18362157146E+03  0.00000000000E+00 0. -1.
         -1   -1    0    0    0  501 -0.00000000000E+00 -0.00000000000E+00 -0.67879411364E+02  0.67879411364E+02  0.00000000000E+00 0.  1.
         25    2    1    2    0    0  0.25565018755E+02  0.40163190855E+01  0.56841407883E+02  0.13982273629E+03  0.12509896455E+03 0.  0.
         23    2    1    2    0    0 -0.25565018755E+02 -0.40163190855E+01  0.58900752212E+02  0.11167824653E+03  0.91285437693E+02 0.  0.
          5    1    3    3  502    0  0.35194144678E+02 -0.30729307602E+02 -0.22907051986E+02  0.52202716366E+02  0.41800000000E+01 0. -1.
         -5    1    3    3    0  502 -0.96291259234E+01  0.34745626688E+02  0.79748459869E+02  0.87620019924E+02  0.41800000000E+01 0. -1.
        -11    1    4    4    0    0 -0.18463565577E+01  0.20115846898E+02 -0.18382282975E+02  0.27312353548E+02  0.00000000000E+00 0.  1.
         11    1    4    4    0    0 -0.23718662197E+02 -0.24132165983E+02  0.77283035187E+02  0.84365892985E+02  0.00000000000E+00 0. -1.
</event>
<event>
 8    1  0.3710605E-009  0.1347414E+03  0.7561462E-02  0.1220585E+00
         -1   -1    0    0    0  501 -0.00000000000E+00  0.00000000000E+00  0.30362122197E+02  0.30362122197E+02  0.00000000000E+00 0.  1.
          1   -1    0    0  501    0  0.00000000000E+00 -0.00000000000E+00 -0.78365069974E+03  0.78365069974E+03  0.00000000000E+00 0. -1.
         25    2    1    2    0    0 -0.74563469085E+02 -0.50794677844E+02 -0.56341328607E+03  0.58414221294E+03  0.12509110197E+03 0.  0.
         23    2    1    2    0    0  0.74563469085E+02  0.50794677844E+02 -0.18987529147E+03  0.22987060900E+03  0.92994947988E+02 0.  0.
          5    1    3    3  502    0  0.94231827267E+01  0.25134595205E+02 -0.38368456590E+02  0.47012286797E+02  0.41800000000E+01 0. -1.
         -5    1    3    3    0  502 -0.83986651811E+02 -0.75929273049E+02 -0.52504482948E+03  0.53712992614E+03  0.41800000000E+01 0. -1.
        -11    1    4    4    0    0 -0.10205323479E+02  0.42655776403E+02 -0.74830579268E+02  0.86736840394E+02  0.00000000000E+00 0. -1.
         11    1    4    4    0    0  0.84768792564E+02  0.81389014404E+01 -0.11504471220E+03  0.14313376860E+03  0.00000000000E+00 0.  1.
</event>
<event>
 8    1  0.3710605E-009  0.8135544E+02  0.7561462E-02  0.1325248E+00
          3   -1    0    0  501    0  0.00000000000E+00  0.00000000000E+00  0.27058489263E+03  0.27058489263E+03  0.00000000000E+00 0. -1.
         -3   -1    0    0    0  501 -0.00000000000E+00 -0.00000000000E+00 -0.65184198242E+02  0.65184198242E+02  0.00000000000E+00 0.  1.
         25    2    1    2    0    0 -0.25996141246E+02  0.12512690287E+02  0.20104092738E+03  0.23854130561E+03  0.12510848582E+03 0.  0.
         23    2    1    2    0    0  0.25996141246E+02 -0.12512690287E+02  0.43597670164E+01  0.97227785265E+02  0.92746255348E+02 0.  0.
          5    1    3    3  502    0 -0.13439797330E+02 -0.51803210061E+02  0.13558846048E+03  0.14582833655E+03  0.41800000000E+01 0.  1.
         -5    1    3    3    0  502 -0.12556343916E+02  0.64315900348E+02  0.65452466898E+02  0.92712969067E+02  0.41800000000E+01 0.  1.
        -11    1    4    4    0    0  0.10476710863E+02 -0.22563110666E+02 -0.41161418777E+02  0.48094883607E+02  0.00000000000E+00 0.  1.
         11    1    4    4    0    0  0.15519430382E+02  0.10050420379E+02  0.45521185794E+02  0.49132901657E+02  0.00000000000E+00 0. -1.
</event>
<event>
 8    1  0.3710605E-009  0.1021875E+03  0.7561462E-02  0.1275762E+00
         -1   -1    0    0    0  501 -0.00000000000E+00  0.00000000000E+00  0.18902461926E+02  0.18902461926E+02  0.00000000000E+00 0.  1.
          1   -1    0    0  501    0  0.00000000000E+00 -0.00000000000E+00 -0.80107712168E+03  0.80107712168E+03  0.00000000000E+00 0. -1.
         25    2    1    2    0    0  0.34284471946E+02  0.45659126307E+02 -0.50804307024E+03  0.52632360950E+03  0.12509436385E+03 0.  0.
         23    2    1    2    0    0 -0.34284471946E+02 -0.45659126307E+02 -0.27413158951E+03  0.29365597410E+03  0.88461980118E+02 0.  0.
          5    1    3    3  502    0 -0.26551694882E+02  0.28727136841E+01 -0.35587472455E+03  0.35689989768E+03  0.41800000000E+01 0. -1.
         -5    1    3    3    0  502  0.60836166828E+02  0.42786412623E+02 -0.15216834569E+03  0.16942371183E+03  0.41800000000E+01 0. -1.
        -11    1    4    4    0    0 -0.57032321887E+02 -0.54077987627E+02 -0.17925796693E+03  0.19573076711E+03  0.00000000000E+00 0.  1.
         11    1    4    4    0    0  0.22747849941E+02  0.84188613201E+01 -0.94873622580E+02  0.97925206991E+02  0.00000000000E+00 0. -1.
</event>
<event>
 8    1  0.3710605E-009  0.7898727E+02  0.7561462E-02  0.1331950E+00
          2   -1    0    0  501    0  0.00000000000E+00  0.00000000000E+00  0.73688438048E+03  0.73688438048E+03  0.00000000000E+00 0. -1.
         -2   -1    0    0    0  501 -0.00000000000E+00 -0.00000000000E+00 -0.17162143907E+02  0.17162143907E+02  0.00000000000E+00 0.  1.
         25    2    1    2    0    0  0.39124267750E+02 -0.10182564751E+02  0.41399962286E+03  0.43437130747E+03  0.12509337342E+03 0.  0.
         23    2    1    2    0    0 -0.39124267750E+02  0.10182564751E+02  0.30572261371E+03  0.31967521692E+03  0.84211251170E+02 0.  0.
          5    1    3    3  502    0 -0.40661857589E+01 -0.23893411420E+02  0.37083346906E+03  0.37164817119E+03  0.41800000000E+01 0. -1.
         -5    1    3    3    0  502  0.43190453509E+02  0.13710846669E+02  0.43166153804E+02  0.62723136281E+02  0.41800000000E+01 0. -1.
        -11    1    4    4    0    0 -0.72601133253E+00  0.39534482836E+02  0.19331370478E+03  0.19731622052E+03  0.00000000000E+00 0. -1.
         11    1    4    4    0    0 -0.38398256418E+02 -0.29351918085E+02  0.11240890893E+03  0.12235899640E+03  0.00000000000E+00 0.  1.
</event>
<event>
 8    1  0.3710605E-009  0.9597317E+02  0.7561462E-02  0.1288999E+00
          1   -1    0    0  501    0  0.00000000000E+00  0.00000000000E+00  0.19922603339E+03  0.19922603339E+03  0.00000000000E+00 0. -1.
         -1   -1    0    0    0  501 -0.00000000000E+00 -0.00000000000E+00 -0.76003405901E+02  0.76003405901E+02  0.00000000000E+00 0.  1.
         25    2    1    2    0    0  0.48803661239E+02 -0.22230043096E+02  0.89421663808E+02  0.16284648501E+03  0.12508705591E+03 0.  0.
         23    2    1    2    0    0 -0.48803661239E+02  0.22230043096E+02  0.33800963682E+02  0.11238295428E+03  0.92797904614E+02 0.  0.
          5    1    3    3  502    0  0.51069275893E+02 -0.49720663424E+02  0.10789979375E+03  0.12938335752E+03  0.41800000000E+01 0.  1.
         -5    1    3    3    0  502 -0.22656146544E+01  0.27490620328E+02 -0.18478129938E+02  0.33463127496E+02  0.41800000000E+01 0.  1.
        -11    1    4    4    0    0 -0.67233213456E+02  0.28720189213E+02  0.48670717390E+02  0.87829340151E+02  0.00000000000E+00 0. -1.
         11    1    4    4    0    0  0.18429552218E+02 -0.64901461169E+01 -0.14869753707E+02  0.24553614131E+02  0.00000000000E+00 0.  1.
</event>
<event>
 8    1  0.3710605E-009  0.9923653E+02  0.7561462E-02  0.1281910E+00
         -1   -1    0    0    0  501 -0.00000000000E+00  0.00000000000E+00  0.16694970648E+02  0.16694970648E+02  0.00000000000E+00 0.  1.
          1   -1    0    0  501    0  0.00000000000E+00 -0.00000000000E+00 -0.70894637479E+03  0.70894637479E+03  0.00000000000E+00 0. -1.
         25    2    1    2    0    0 -0.62703895179E+01 -0.10778430977E+02 -0.40113322143E+03  0.42036715856E+03  0.12508075113E+03 0.  0.
         23    2    1    2    0    0  0.62703895179E+01  0.10778430977E+02 -0.29111818271E+03  0.30527418688E+03  0.91033183558E+02 0.  0.
          5    1    3    3  502    0 -0.61365277987E+02 -0.16044992028E+02 -0.27997905066E+03  0.28710430216E+03  0.41800000000E+01 0. -1.
         -5    1    3    3    0  502  0.55094888469E+02  0.52665610513E+01 -0.12115417077E+03  0.13326285640E+03  0.41800000000E+01 0. -1.
        -11    1    4    4    0    0  0.41506863521E+02  0.14510219919E+02 -0.23371807676E+03  0.23781821966E+03  0.00000000000E+00 0.  1.
         11    1    4    4    0    0 -0.35236474003E+02 -0.37317889423E+01 -0.57400105957E+02  0.67455967214E+02  0.00000000000E+00 0. -1.
</event>
<event>
 8    1  0.3710605E-009  0.1183602E+03  0.7561462E-02  0.1245827E+00
         -2   -1    0    0    0  501 -0.00000000000E+00  0.00000000000E+00  0.26182021012E+02  0.26182021012E+02  0.00000000000E+00 0.  1.
          2   -1    0    0  501    0  0.00000000000E+00 -0.00000000000E+00 -0.55684213086E+03  0.55684213086E+03  0.00000000000E+00 0. -1.
         25    2    1    2    0    0 -0.56677259540E+01  0.53079283208E+02 -0.29594718332E+03  0.32570218198E+03  0.12509053764E+03 0.  0.
         23    2    1    2    0    0  0.56677259540E+01 -0.53079283208E+02 -0.23471292653E+03  0.25732196989E+03  0.90966504201E+02 0.  0.
          5    1    3    3  502    0  0.20826682605E+02 -0.34102368979E+02 -0.55347897501E+02  0.68392868313E+02  0.41800000000E+01 0.  1.
         -5    1    3    3    0  502 -0.26494408559E+02  0.87181652187E+02 -0.24059928582E+03  0.25730931367E+03  0.41800000000E+01 0.  1.
        -11    1    4    4    0    0 -0.15207908855E+02  0.22367261396E+02 -0.54564296840E+02  0.60900224661E+02  0.00000000000E+00 0. -1.
         11    1    4    4    0    0  0.20875634809E+02 -0.75446544604E+02 -0.18014862969E+03  0.19642174523E+03  0.00000000000E+00 0.  1.
</event>
<event>
 8    1  0.3710605E-009  0.9665728E+02  0.7561462E-02  0.1287486E+00
         -2   -1    0    0    0  501 -0.00000000000E+00  0.00000000000E+00  0.67059423634E+02  0.67059423634E+02  0.00000000000E+00 0.  1.
          2   -1    0    0  501    0  0.00000000000E+00 -0.00000000000E+00 -0.19578409586E+03  0.19578409586E+03  0.00000000000E+00 0. -1.
         25    2    1    2    0    0  0.61899538812E+01  0.38251354847E+02 -0.64502264052E+02  0.14597873137E+03  0.12509103192E+03 0.  0.
         23    2    1    2    0    0 -0.61899538812E+01 -0.38251354847E+02 -0.64222408169E+02  0.11686478812E+03  0.89617963128E+02 0.  0.
          5    1    3    3  502    0 -0.40575372542E+02 -0.27597900618E+02 -0.32483949369E+02  0.58997324872E+02  0.41800000000E+01 0. -1.
         -5    1    3    3    0  502  0.46765326423E+02  0.65849255465E+02 -0.32018314683E+02  0.86981406495E+02  0.41800000000E+01 0. -1.
        -11    1    4    4    0    0 -0.13690604146E+02  0.83196957511E+01 -0.67696074546E+02  0.69565857201E+02  0.00000000000E+00 0. -1.
         11    1    4    4    0    0  0.75006502645E+01 -0.46571050598E+02  0.34736663768E+01  0.47298930921E+02  0.00000000000E+00 0.  1.
</event>
<event>
 8    1  0.3710605E-009  0.1366155E+03  0.7561462E-02  0.1217957E+00
         -1   -1    0    0    0  501 -0.00000000000E+00  0.00000000000E+00  0.48387765798E+02  0.48387765798E+02  0.00000000000E+00 0.  1.
          1   -1    0    0  501    0  0.00000000000E+00 -0.00000000000E+00 -0.54219654921E+03  0.54219654921E+03  0.00000000000E+00 0. -1.
         25    2    1    2    0    0 -0.46916515394E+02  0.69337581213E+02 -0.10936016729E+03  0.18605441499E+03  0.12509092517E+03 0.  0.
         23    2    1    2    0    0  0.46916515394E+02 -0.69337581213E+02 -0.38444861612E+03  0.40452990003E+03  0.93993840181E+02 0.  0.
          5    1    3    3  502    0  0.19479052114E+02 -0.26591491257E+02 -0.17817323282E+02  0.37702391004E+02  0.41800000000E+01 0.  1.
         -5    1    3    3    0  502 -0.66395567508E+02  0.95929072470E+02 -0.91542844013E+02  0.14835202398E+03  0.41800000000E+01 0.  1.
        -11    1    4    4    0    0 -0.27407418611E+02 -0.22008796374E+02 -0.15017066289E+03  0.15422963952E+03  0.00000000000E+00 0. -1.
         11    1    4    4    0    0  0.74323934005E+02 -0.47328784839E+02 -0.23427795323E+03  0.25030026051E+03  0.00000000000E+00 0.  1.
</event>
<event>
 8    1  0.3710605E-009  0.9093611E+02  0.7561462E-02  0.1300600E+00
          1   -1    0    0  501    0  0.00000000000E+00  0.00000000000E+00  0.90966726792E+03  0.90966726792E+03  0.00000000000E+00 0. -1.
         -1   -1    0    0    0  501 -0.00000000000E+00 -0.00000000000E+00 -0.17619727055E+02  0.17619727055E+02  0.00000000000E+00 0.  1.
         25    2    1    2    0    0 -0.47847929639E+02 -0.17188208903E+02  0.64267871429E+03  0.65671198685E+03  0.12509934041E+03 0.  0.
         23    2    1    2    0    0  0.47847929639E+02  0.17188208903E+02  0.24936882658E+03  0.27057500813E+03  0.91875809983E+02 0.  0.
          5    1    3    3  502    0 -0.40340380226E+02  0.16391515424E+02  0.60062028327E+03  0.60221111343E+03  0.41800000000E+01 0.  1.
         -5    1    3    3    0  502 -0.75075494129E+01 -0.33579724326E+02  0.42058431019E+02  0.54500873422E+02  0.41800000000E+01 0.  1.
        -11    1    4    4    0    0  0.27465677343E+02  0.54455595680E+02  0.16905324825E+03  0.17971860248E+03  0.00000000000E+00 0. -1.
         11    1    4    4    0    0  0.20382252296E+02 -0.37267386778E+02  0.80315578323E+02  0.90856405648E+02  0.00000000000E+00 0.  1.
</event>
<event>
 8    1  0.3710605E-009  0.9107498E+02  0.7561462E-02  0.1300269E+00
          2   -1    0    0  501    0  0.00000000000E+00  0.00000000000E+00  0.34228075268E+03  0.34228075268E+03  0.00000000000E+00 0. -1.
         -2   -1    0    0    0  501 -0.00000000000E+00 -0.00000000000E+00 -0.43135719772E+02  0.43135719772E+02  0.00000000000E+00 0.  1.
         25    2    1    2    0    0  0.35628068095E+01  0.27878263083E+02  0.24290328823E+03  0.27465695354E+03  0.12507814977E+03 0.  0.
         23    2    1    2    0    0 -0.35628068095E+01 -0.27878263083E+02  0.56241744683E+02  0.11075951892E+03  0.91184680955E+02 0.  0.
          5    1    3    3  502    0  0.36707783646E+02 -0.80921052969E+01  0.21477256885E+03  0.21807721632E+03  0.41800000000E+01 0. -1.
         -5    1    3    3    0  502 -0.33144976836E+02  0.35970368380E+02  0.28130719382E+02  0.56579737219E+02  0.41800000000E+01 0. -1.
        -11    1    4    4    0    0  0.42517458901E+02 -0.24412717538E+02  0.32344409957E+02  0.58735644582E+02  0.00000000000E+00 0.  1.
         11    1    4    4    0    0 -0.46080265710E+02 -0.34655455447E+01  0.23897334725E+02  0.52023874335E+02  0.00000000000E+00 0. -1.
</event>
<event>
 8    1  0.3710605E-009  0.6336588E+02  0.7561462E-02  0.1384226E+00
          1   -1    0    0  501    0  0.00000000000E+00  0.00000000000E+00  0.40520296954E+03  0.40520296954E+03  0.00000000000E+00 0. -1.
         -1   -1    0    0    0  501 -0.00000000000E+00 -0.00000000000E+00 -0.50747208615E+02  0.50747208615E+02  0.00000000000E+00 0.  1.
         25    2    1    2    0    0 -0.13121293486E+02  0.13448581139E+02  0.33631586926E+03  0.35931673515E+03  0.12508844696E+03 0.  0.
         23    2    1    2    0    0  0.13121293486E+02 -0.13448581139E+02  0.18139891658E+02  0.96633443003E+02  0.93037271885E+02 0.  0.
          5    1    3    3  502    0  0.29779442903E+02  0.11263424593E+02  0.30325396839E+03  0.30494937563E+03  0.41800000000E+01 0. -1.
         -5    1    3    3    0  502 -0.42900736389E+02  0.21851565461E+01  0.33061900876E+02  0.54367359522E+02  0.41800000000E+01 0. -1.
        -11    1    4    4    0    0  0.30946172827E+02 -0.13174939930E+02  0.49920780824E+02  0.60194094501E+02  0.00000000000E+00 0. -1.
         11    1    4    4    0    0 -0.17824879341E+02 -0.27364120969E+00 -0.31780889166E+02  0.36439348501E+02  0.00000000000E+00 0.  1.
</event>
<event>
 8    1  0.3710605E-009  0.1396489E+03  0.7561462E-02  0.1213802E+00
         -2   -1    0    0    0  501 -0.00000000000E+00  0.00000000000E+00  0.27987014431E+02  0.27987014431E+02  0.00000000000E+00 0.  1.
          2   -1    0    0  501    0  0.00000000000E+00 -0.00000000000E+00 -0.87405549036E+03  0.87405549036E+03  0.00000000000E+00 0. -1.
         25    2    1    2    0    0 -0.60651468759E+02 -0.87631662415E+02 -0.55780902157E+03  0.58151215217E+03  0.12509024604E+03 0.  0.
         23    2    1    2    0    0  0.60651468759E+02  0.87631662415E+02 -0.28825945436E+03  0.32053035262E+03  0.91040018700E+02 0.  0.
          5    1    3    3  502    0 -0.95018716234E+02 -0.88156581486E+02 -0.43597472085E+03  0.45485334880E+03  0.41800000000E+01 0. -1.
         -5    1    3    3    0  502  0.34367247475E+02  0.52491907092E+00 -0.12183430072E+03  0.12665880337E+03  0.41800000000E+01 0. -1.
        -11    1    4    4    0    0  0.49289551066E+02  0.33300858217E+02 -0.23908805884E+03  0.24637675799E+03  0.00000000000E+00 0. -1.
         11    1    4    4    0    0  0.11361917693E+02  0.54330804198E+02 -0.49171395522E+02  0.74153594627E+02  0.00000000000E+00 0.  1.
</event>
<event>
 8    1  0.3710605E-009  0.1139954E+03  0.7561462E-02  0.1253345E+00
         -3   -1    0    0    0  501 -0.00000000000E+00  0.00000000000E+00  0.44669275874E+03  0.44669275874E+03  0.00000000000E+00 0.  1.
          3   -1    0    0  501    0  0.00000000000E+00 -0.00000000000E+00 -0.35922629945E+02  0.35922629945E+02  0.00000000000E+00 0. -1.
         25    2    1    2    0    0 -0.45136131205E+02 -0.47947764565E+02  0.21539601884E+03  0.25764239288E+03  0.12509156331E+03 0.  0.
         23    2    1    2    0    0  0.45136131205E+02  0.47947764565E+02  0.19537410995E+03  0.22497299580E+03  0.90030814351E+02 0.  0.
          5    1    3    3  502    0 -0.85297204882E+02 -0.52606831841E+02  0.14404841668E+03  0.17552923023E+03  0.41800000000E+01 0.  1.
         -5    1    3    3    0  502  0.40161073678E+02  0.46590672760E+01  0.71347602160E+02  0.82113162653E+02  0.41800000000E+01 0.  1.
        -11    1    4    4    0    0 -0.42804802831E+01  0.35931852693E+02  0.17929330182E+02  0.40384173016E+02  0.00000000000E+00 0. -1.
         11    1    4    4    0    0  0.49416611488E+02  0.12015911871E+02  0.17744477977E+03  0.18458882278E+03  0.00000000000E+00 0.  1.
</event>
<event>
 8    1  0.3710605E-009  0.1176433E+03  0.7561462E-02  0.1247036E+00
         -2   -1    0    0    0  501 -0.00000000000E+00  0.00000000000E+00  0.54348380995E+02  0.54348380995E+02  0.00000000000E+00 0.  1.
          2   -1    0    0  501    0  0.00000000000E+00 -0.00000000000E+00 -0.36189713362E+03  0.36189713362E+03  0.00000000000E+00 0. -1.
         25    2    1    2    0    0  0.24600919045E+02 -0.54078624652E+02 -0.25350758729E+03  0.28886552787E+03  0.12508994172E+03 0.  0.
         23    2    1    2    0    0 -0.24600919045E+02  0.54078624652E+02 -0.54041165335E+02  0.12737998674E+03  0.98871181893E+02 0.  0.
          5    1    3    3  502    0  0.61364847862E+02 -0.72709791715E+02 -0.15385727975E+03  0.18094721135E+03  0.41800000000E+01 0.  1.
         -5    1    3    3    0  502 -0.36763928816E+02  0.18631167063E+02 -0.99650307537E+02  0.10791831652E+03  0.41800000000E+01 0.  1.
        -11    1    4    4    0    0  0.92118782322E+01  0.62987456973E+02 -0.77503744592E+00  0.63662226787E+02  0.00000000000E+00 0.  1.
         11    1    4    4    0    0 -0.33812797277E+02 -0.89088323212E+01 -0.53266127889E+02  0.63717759952E+02  0.00000000000E+00 0. -1.
</event>
<event>
 8    1  0.3710605E-009  0.1187601E+03  0.7561462E-02  0.1245157E+00
          1   -1    0    0  501    0  0.00000000000E+00  0.00000000000E+00  0.93438655634E+02  0.93438655634E+02  0.00000000000E+00 0. -1.
         -1   -1    0    0    0  501 -0.00000000000E+00 -0.00000000000E+00 -0.21350593018E+03  0.21350593018E+03  0.00000000000E+00 0.  1.
         25    2    1    2    0    0 -0.71711906363E+02  0.68683128059E+01 -0.60328424010E+01  0.14448040735E+03  0.12509365166E+03 0.  0.
         23    2    1    2    0    0  0.71711906363E+02 -0.68683128059E+01 -0.11403443215E+03  0.16246417846E+03  0.90559297334E+02 0.  0.
          5    1    3    3  502    0 -0.40193119102E+02  0.59803506828E+02 -0.30106688837E+02  0.78203781014E+02  0.41800000000E+01 0. -1.
         -5    1    3    3    0  502 -0.31518787261E+02 -0.52935194022E+02  0.24073846436E+02  0.66276626339E+02  0.41800000000E+01 0. -1.
        -11    1    4    4    0    0 -0.23227379296E+01 -0.26818173153E+02 -0.23884363547E+01  0.27024325171E+02  0.00000000000E+00 0. -1.
         11    1    4    4    0    0  0.74034644293E+02  0.19949860347E+02 -0.11164599579E+03  0.13543985329E+03  0.00000000000E+00 0.  1.
</event>
<event>
 8    1  0.3710605E-009  0.6738638E+02  0.7561462E-02  0.1369213E+00
         -2   -1    0    0    0  501 -0.00000000000E+00  0.00000000000E+00  0.27114917885E+02  0.27114917885E+02  0.00000000000E+00 0.  1.
          2   -1    0    0  501    0  0.00000000000E+00 -0.00000000000E+00 -0.46593740366E+03  0.46593740366E+03  0.00000000000E+00 0. -1.
         25    2    1    2    0    0 -0.20751755309E+02 -0.39209834219E+01 -0.30923318026E+03  0.33424268334E+03  0.12508797757E+03 0.  0.
         23    2    1    2    0    0  0.20751755309E+02  0.39209834219E+01 -0.12958930552E+03  0.15880963821E+03  0.89337022693E+02 0.  0.
          5    1    3    3  502    0 -0.21475558398E+02 -0.23590348715E+02 -0.31224380315E+03  0.31389706779E+03  0.41800000000E+01 0.  1.
         -5    1    3    3    0  502  0.72380308922E+00  0.19669365293E+02  0.30106228904E+01  0.20345615551E+02  0.41800000000E+01 0.  1.
        -11    1    4    4    0    0  0.37368306793E+02  0.32430422844E+02 -0.40946959357E+02  0.64224420270E+02  0.00000000000E+00 0.  1.
         11    1    4    4    0    0 -0.16616551484E+02 -0.28509439422E+02 -0.88642346164E+02  0.94585217940E+02  0.00000000000E+00 0. -1.
</event>
<event>
 8    1  0.3710605E-009  0.1774493E+03  0.7561462E-02  0.1170295E+00
         -1   -1    0    0    0  501 -0.00000000000E+00  0.00000000000E+00  0.28679074275E+03  0.28679074275E+03  0.00000000000E+00 0.  1.
          1   -1    0    0  501    0  0.00000000000E+00 -0.00000000000E+00 -0.14291344552E+03  0.14291344552E+03  0.00000000000E+00 0. -1.
         25    2    1    2    0    0 -0.14891690607E+03  0.29021614945E+02 -0.74216184277E+01  0.19678532082E+03  0.12510348926E+03 0.  0.
         23    2    1    2    0    0  0.14891690607E+03 -0.29021614945E+02  0.15129891566E+03  0.23291886745E+03  0.91330925122E+02 0.  0.
          5    1    3    3  502    0  0.10780077499E+02 -0.18451958952E+02 -0.20117929422E+02  0.29646051074E+02  0.41800000000E+01 0.  1.
         -5    1    3    3    0  502 -0.15969698357E+03  0.47473573897E+02  0.12696310994E+02  0.16713926975E+03  0.41800000000E+01 0.  1.
        -11    1    4    4    0    0  0.12967533437E+03 -0.49097893775E+02  0.15114203833E+03  0.20511024174E+03  0.00000000000E+00 0.  1.
         11    1    4    4    0    0  0.19241571704E+02  0.20076278830E+02  0.15687733852E+00  0.27808625709E+02  0.00000000000E+00 0. -1.
</event>
<event>
 8    1  0.3710605E-009  0.1180654E+03  0.7561462E-02  0.1246323E+00
         -1   -1    0    0    0  501 -0.00000000000E+00  0.00000000000E+00  0.80775976806E+02  0.80775976806E+02  0.00000000000E+00 0.  1.
          1   -1    0    0  501    0  0.00000000000E+00 -0.00000000000E+00 -0.27415917971E+03  0.27415917971E+03  0.00000000000E+00 0. -1.
         25    2    1    2    0    0  0.79087975384E+02  0.62815424445E+02 -0.95762591609E+02  0.18713180536E+03  0.12508858153E+03 0.  0.
         23    2    1    2    0    0 -0.79087975384E+02 -0.62815424445E+02 -0.97620611294E+02  0.16780335115E+03  0.91801391654E+02 0.  0.
          5    1    3    3  502    0  0.14543838926E+02  0.60418757225E+01  0.30352862828E+02  0.34449908488E+02  0.41800000000E+01 0. -1.
         -5    1    3    3    0  502  0.64544136458E+02  0.56773548723E+02 -0.12611545444E+03  0.15268189688E+03  0.41800000000E+01 0. -1.
        -11    1    4    4    0    0  0.45629920107E+01 -0.48733724817E+02 -0.52285301466E+02  0.71620873913E+02  0.00000000000E+00 0. -1.
         11    1    4    4    0    0 -0.83650967395E+02 -0.14081699628E+02 -0.45335309828E+02  0.96182477238E+02  0.00000000000E+00 0.  1.
</event>
<event>
 8    1  0.3710605E-009  0.1692308E+03  0.7561462E-02  0.1178652E+00
          2   -1    0    0  501    0  0.00000000000E+00  0.00000000000E+00  0.21316702376E+04  0.21316702376E+04  0.00000000000E+00 0. -1.
         -2   -1    0    0    0  501 -0.00000000000E+00 -0.00000000000E+00 -0.16330153890E+02  0.16330153890E+02  0.00000000000E+00 0.  1.
         25    2    1    2    0    0 -0.13389744043E+03 -0.14752073622E+02  0.14942119848E+04  0.15054776768E+04  0.12508969439E+03 0.  0.
         23    2    1    2    0    0  0.13389744043E+03  0.14752073622E+02  0.62112809893E+03  0.64252271469E+03  0.94282423517E+02 0.  0.
          5    1    3    3  502    0 -0.12870158436E+03 -0.57170980853E+02  0.11446185749E+04  0.11532570283E+04  0.41800000000E+01 0. -1.
         -5    1    3    3    0  502 -0.51958560783E+01  0.42418907231E+02  0.34959340985E+03  0.35222064848E+03  0.41800000000E+01 0. -1.
        -11    1    4    4    0    0  0.64468082753E+02 -0.30947745074E+02  0.18100207769E+03  0.19461667130E+03  0.00000000000E+00 0.  1.
         11    1    4    4    0    0  0.69429357681E+02  0.45699818696E+02  0.44012602123E+03  0.44790604339E+03  0.00000000000E+00 0. -1.
</event>
<event>
 8    1  0.3710605E-009  0.1251467E+03  0.7561462E-02  0.1234840E+00
         -2   -1    0    0    0  501 -0.00000000000E+00  0.00000000000E+00  0.23492140616E+02  0.23492140616E+02  0.00000000000E+00 0.  1.
          2   -1    0    0  501    0  0.00000000000E+00 -0.00000000000E+00 -0.86670987118E+03  0.86670987118E+03  0.00000000000E+00 0. -1.
         25    2    1    2    0    0 -0.19079334606E+02 -0.86681223964E+02 -0.38642430320E+03  0.41575081435E+03  0.12508933580E+03 0.  0.
         23    2    1    2    0    0  0.19079334606E+02  0.86681223964E+02 -0.45679342736E+03  0.47445119745E+03  0.92552946358E+02 0.  0.
          5    1    3    3  502    0  0.31684534205E+02 -0.11437108093E+02 -0.22666088404E+02  0.40815941895E+02  0.41800000000E+01 0. -1.
         -5    1    3    3    0  502 -0.50763868810E+02 -0.75244115870E+02 -0.36375821480E+03  0.37493487245E+03  0.41800000000E+01 0. -1.
        -11    1    4    4    0    0  0.85561917838E+01  0.10446906845E+03 -0.41191855508E+03  0.42504575130E+03  0.00000000000E+00 0. -1.
         11    1    4    4    0    0  0.10523142822E+02 -0.17787844487E+02 -0.44874872286E+02  0.49405446147E+02  0.00000000000E+00 0.  1.
</event>
<event>
 8    1  0.3710605E-009  0.1132809E+03  0.7561462E-02  0.1254612E+00
         -4   -1    0    0    0  501 -0.00000000000E+00  0.00000000000E+00  0.56117914030E+03  0.56117914030E+03  0.00000000000E+00 0.  1.
          4   -1    0    0  501    0  0.00000000000E+00 -0.00000000000E+00 -0.26459969306E+02  0.26459969306E+02  0.00000000000E+00 0. -1.
         25    2    1    2    0    0 -0.44003240329E+02 -0.11671816075E+02  0.22588303939E+03  0.26219184024E+03  0.12509555210E+03 0.  0.
         23    2    1    2    0    0  0.44003240329E+02  0.11671816075E+02  0.30883613160E+03  0.32544726937E+03  0.91998111419E+02 0.  0.
          5    1    3    3  502    0  0.35436110487E+01 -0.59490174271E+02  0.68333832207E+02  0.90766860903E+02  0.41800000000E+01 0.  1.
         -5    1    3    3    0  502 -0.47546851378E+02  0.47818358196E+02  0.15754920719E+03  0.17142497934E+03  0.41800000000E+01 0.  1.
        -11    1    4    4    0    0 -0.22318757706E+02 -0.15929671050E+02  0.12719179410E+03  0.13011392643E+03  0.00000000000E+00 0.  1.
         11    1    4    4    0    0  0.66321998035E+02  0.27601487125E+02  0.18164433750E+03  0.19533334293E+03  0.00000000000E+00 0. -1.
</event>
<event>
 8    1  0.3710605E-009  0.1154822E+03  0.7561462E-02  0.1250742E+00
          1   -1    0    0  501    0  0.00000000000E+00  0.00000000000E+00  0.23741836933E+03  0.23741836933E+03  0.00000000000E+00 0. -1.
         -1   -1    0    0    0  501 -0.00000000000E+00 -0.00000000000E+00 -0.65441914110E+02  0.65441914110E+02  0.00000000000E+00 0.  1.
         25    2    1    2    0    0  0.23184766527E+00  0.57129870996E+02  0.12474342905E+03  0.18566429485E+03  0.12508569613E+03 0.  0.
         23    2    1    2    0    0 -0.23184766527E+00 -0.57129870996E+02  0.47233026172E+02  0.11719598860E+03  0.90774804148E+02 0.  0.
          5    1    3    3  502    0  0.52546929862E+02  0.23303517837E+01  0.20225290087E+02  0.56507921007E+02  0.41800000000E+01 0.  1.
         -5    1    3    3    0  502 -0.52315082197E+02  0.54799519213E+02  0.10451813896E+03  0.12915637384E+03  0.41800000000E+01 0.  1.
        -11    1    4    4    0    0 -0.22673856537E+02  0.14731257902E+02 -0.22076535782E+01  0.27129088889E+02  0.00000000000E+00 0.  1.
         11    1    4    4    0    0  0.22442008872E+02 -0.71861128898E+02  0.49440679750E+02  0.90066899707E+02  0.00000000000E+00 0. -1.
</event>
<event>
 8    1  0.3710605E-009  0.9384515E+02  0.7561462E-02  0.1293798E+00
          2   -1    0    0  501    0  0.00000000000E+00  0.00000000000E+00  0.10855577255E+03  0.10855577255E+03  0.00000000000E+00 0.  1.
         -2   -1    0    0    0  501 -0.00000000000E+00 -0.00000000000E+00 -0.14817736861E+03  0.14817736861E+03  0.00000000000E+00 0. -1.
         25    2    1    2    0    0 -0.19555677106E+02 -0.14616765508E+02 -0.73624769756E+02  0.14718527288E+03  0.12508726350E+03 0.  0.
         23    2    1    2    0    0  0.19555677106E+02  0.14616765508E+02  0.34003173702E+02  0.10954786828E+03  0.10123460516E+03 0.  0.
          5    1    3    3  502    0 -0.47402783175E+02  0.11641486775E+02 -0.92222145418E+02  0.10442674261E+03  0.41800000000E+01 0.  1.
         -5    1    3    3    0  502  0.27847106069E+02 -0.26258252283E+02  0.18597375662E+02  0.42758530270E+02  0.41800000000E+01 0.  1.
        -11    1    4    4    0    0  0.32661619334E+02  0.51540044746E+02  0.35022485270E+02  0.70354332236E+02  0.00000000000E+00 0.  1.
         11    1    4    4    0    0 -0.13105942229E+02 -0.36923279238E+02 -0.10193115678E+01  0.39193536041E+02  0.00000000000E+00 0. -1.
</event>
<event>
 8    1  0.3710605E-009  0.1186182E+03  0.7561462E-02  0.1245394E+00
         -1   -1    0    0    0  501 -0.00000000000E+00  0.00000000000E+00  0.80138632963E+02  0.80138632963E+02  0.00000000000E+00 0.  1.
          1   -1    0    0  501    0  0.00000000000E+00 -0.00000000000E+00 -0.20427738763E+03  0.20427738763E+03  0.00000000000E+00 0. -1.
         25    2    1    2    0    0  0.55614611122E+02  0.24679379164E+02 -0.86340907796E+02  0.16372069150E+03  0.12509059013E+03 0.  0.
         23    2    1    2    0    0 -0.55614611122E+02 -0.24679379164E+02 -0.37797846868E+02  0.12069532909E+03  0.97142310607E+02 0.  0.
          5    1    3    3  502    0  0.84645384119E+02 -0.46787633014E+01 -0.87902142574E+02  0.12219243409E+03  0.41800000000E+01 0.  1.
         -5    1    3    3    0  502 -0.29030772998E+02  0.29358142465E+02  0.15612347776E+01  0.41528257414E+02  0.41800000000E+01 0.  1.
        -11    1    4    4    0    0  0.72414301315E+00  0.31376442195E+02 -0.25153199746E+02  0.40220504290E+02  0.00000000000E+00 0. -1.
         11    1    4    4    0    0 -0.56338754135E+02 -0.56055821359E+02 -0.12644647122E+02  0.80474824800E+02  0.00000000000E+00 0.  1.
</event>
<event>
 8    1  0.3710605E-009  0.1072923E+03  0.7561462E-02  0.1265668E+00
         -1   -1    0    0    0  501 -0.00000000000E+00  0.00000000000E+00  0.35141696572E+03  0.35141696572E+03  0.00000000000E+00 0.  1.
          1   -1    0    0  501    0  0.00000000000E+00 -0.00000000000E+00 -0.41737248795E+02  0.41737248795E+02  0.00000000000E+00 0. -1.
         25    2    1    2    0    0  0.16568445369E+02  0.48305839199E+00  0.25808647842E+03  0.28728049251E+03  0.12508678710E+03 0.  0.
         23    2    1    2    0    0 -0.16568445369E+02 -0.48305839199E+00  0.51593238509E+02  0.10587372201E+03  0.90954032478E+02 0.  0.
          5    1    3    3  502    0  0.59676494752E+02 -0.32300900014E+02  0.17770767927E+03  0.19026855715E+03  0.41800000000E+01 0.  1.
         -5    1    3    3    0  502 -0.43108049383E+02  0.32783958406E+02  0.80378799146E+02  0.97011935361E+02  0.41800000000E+01 0.  1.
        -11    1    4    4    0    0 -0.53129927704E+02  0.10388039044E+02  0.33435650096E+02  0.63628949939E+02  0.00000000000E+00 0.  1.
         11    1    4    4    0    0  0.36561482335E+02 -0.10871097436E+02  0.18157588413E+02  0.42244772066E+02  0.00000000000E+00 0. -1.
</event>
<event>
 8    1  0.3710605E-009  0.8915877E+02  0.7561462E-02  0.1304902E+00
         -1   -1    0    0    0  501 -0.00000000000E+00  0.00000000000E+00  0.10858246538E+03  0.10858246538E+03  0.00000000000E+00 0.  1.
          1   -1    0    0  501    0  0.00000000000E+00 -0.00000000000E+00 -0.16533776530E+03  0.16533776530E+03  0.00000000000E+00 0. -1.
         25    2    1    2    0    0  0.70275491913E+02  0.57823380421E-01 -0.55073371319E+02  0.15368260033E+03  0.12508643935E+03 0.  0.
         23    2    1    2    0    0 -0.70275491913E+02 -0.57823380421E-01 -0.16819285922E+01  0.12023763035E+03  0.97547992090E+02 0.  0.
          5    1    3    3  502    0  0.18689812348E+02  0.38210514580E+02  0.26137501292E+02  0.50099839160E+02  0.41800000000E+01 0.  1.
         -5    1    3    3    0  502  0.51585679565E+02 -0.38152691199E+02 -0.81210872610E+02  0.10358276117E+03  0.41800000000E+01 0.  1.
        -11    1    4    4    0    0 -0.16003082621E+02  0.50127562446E+01 -0.46650919693E+02  0.49573528085E+02  0.00000000000E+00 0. -1.
         11    1    4    4    0    0 -0.54272409292E+02 -0.50705796250E+01  0.44968991101E+02  0.70664102264E+02  0.00000000000E+00 0.  1.
</event>
<event>
 8    1  0.3710605E-009  0.1233149E+03  0.7561462E-02  0.1237727E+00
          1   -1    0    0  501    0  0.00000000000E+00  0.00000000000E+00  0.72440834016E+03  0.72440834016E+03  0.00000000000E+00 0. -1.
         -1   -1    0    0    0  501 -0.00000000000E+00 -0.00000000000E+00 -0.23834090800E+02  0.23834090800E+02  0.00000000000E+00 0.  1.
         25    2    1    2    0    0  0.56089705291E+02 -0.39981154091E+02  0.30681270938E+03  0.33841851962E+03  0.12509399692E+03 0.  0.
         23    2    1    2    0    0 -0.56089705291E+02  0.39981154091E+02  0.39376153998E+03  0.40982391134E+03  0.90348991216E+02 0.  0.
          5    1    3    3  502    0  0.89268867039E+02 -0.92248503007E+01  0.14706854945E+03  0.17233879169E+03  0.41800000000E+01 0. -1.
         -5    1    3    3    0  502 -0.33179161748E+02 -0.30756303790E+02  0.15974415993E+03  0.16607972793E+03  0.41800000000E+01 0. -1.
        -11    1    4    4    0    0 -0.61101072355E+02  0.63019360963E+02  0.33945736804E+03  0.35062242600E+03  0.00000000000E+00 0.  1.
         11    1    4    4    0    0  0.50113670641E+01 -0.23038206872E+02  0.54304171945E+02  0.59201485339E+02  0.00000000000E+00 0. -1.
</event>
<event>
 8    1  0.3710605E-009  0.1257706E+03  0.7561462E-02  0.1233870E+00
          2   -1    0    0  501    0  0.00000000000E+00  0.00000000000E+00  0.57843141958E+03  0.57843141958E+03  0.00000000000E+00 0.  1.
         -2   -1    0    0    0  501 -0.00000000000E+00 -0.00000000000E+00 -0.39778646253E+02  0.39778646253E+02  0.00000000000E+00 0. -1.
         25    2    1    2    0    0 -0.89702084501E+02 -0.51056076946E+02  0.24501587668E+03  0.29382597037E+03  0.12509090326E+03 0.  0.
         23    2    1    2    0    0  0.89702084501E+02  0.51056076946E+02  0.29363689664E+03  0.32438409546E+03  0.91374106628E+02 0.  0.
          5    1    3    3  502    0 -0.72198848484E+01 -0.45619074587E+02  0.18721661548E+03  0.19287498597E+03  0.41800000000E+01 0.  1.
         -5    1    3    3    0  502 -0.82482199653E+02 -0.54370023595E+01  0.57799261202E+02  0.10095098439E+03  0.41800000000E+01 0.  1.
        -11    1    4    4    0    0  0.36655336427E+02 -0.13304117420E+02  0.17545252584E+03  0.17973369760E+03  0.00000000000E+00 0.  1.
         11    1    4    4    0    0  0.53046748074E+02  0.64360194366E+02  0.11818437080E+03  0.14465039786E+03  0.00000000000E+00 0. -1.
</event>
<event>
 8    1  0.3710605E-009  0.1067625E+03  0.7561462E-02  0.1266685E+00
          1   -1    0    0  501    0  0.00000000000E+00  0.00000000000E+00  0.43171596166E+03  0.43171596166E+03  0.00000000000E+00 0.  1.
         -1   -1    0    0    0  501 -0.00000000000E+00 -0.00000000000E+00 -0.40945335099E+02  0.40945335099E+02  0.00000000000E+00 0. -1.
         25    2    1    2    0    0 -0.32769820355E+02 -0.62102265003E+02  0.24249316442E+03  0.28174614984E+03  0.12508959075E+03 0.  0.
         23    2    1    2    0    0  0.32769820355E+02  0.62102265003E+02  0.14827746214E+03  0.19091514692E+03  0.97631117475E+02 0.  0.
          5    1    3    3  502    0 -0.73209394083E+01  0.18068996808E+02  0.16839640598E+03  0.16957271817E+03  0.41800000000E+01 0.  1.
         -5    1    3    3    0  502 -0.25448880946E+02 -0.80171261811E+02  0.74096758437E+02  0.11217343167E+03  0.41800000000E+01 0.  1.
        -11    1    4    4    0    0  0.61325009590E+02  0.39427842100E+02  0.56742897283E+02  0.92385431351E+02  0.00000000000E+00 0. -1.
         11    1    4    4    0    0 -0.28555189235E+02  0.22674422903E+02  0.91534564854E+02  0.98529715565E+02  0.00000000000E+00 0.  1.
</event>
<event>
 8    1  0.3710605E-009  0.2008027E+03  0.7561462E-02  0.1149064E+00
          1   -1    0    0  501    0  0.00000000000E+00  0.00000000000E+00  0.17017664687E+04  0.17017664687E+04  0.00000000000E+00 0. -1.
         -1   -1    0    0    0  501 -0.00000000000E+00 -0.00000000000E+00 -0.26368799516E+02  0.26368799516E+02  0.00000000000E+00 0.  1.
         25    2    1    2    0    0 -0.88544446690E+02 -0.15235333549E+03  0.69407279073E+03  0.72693628885E+03  0.12509065248E+03 0.  0.
         23    2    1    2    0    0  0.88544446690E+02  0.15235333549E+03  0.98132487843E+03  0.10011989793E+04  0.91374073694E+02 0.  0.
          5    1    3    3  502    0 -0.10863049190E+03 -0.15235615968E+03  0.66819223546E+03  0.69391016644E+03  0.41800000000E+01 0.  1.
         -5    1    3    3    0  502  0.20086045208E+02  0.28241972413E-02  0.25880555275E+02  0.33026122410E+02  0.41800000000E+01 0.  1.
        -11    1    4    4    0    0  0.29101646110E+02  0.12526452999E+03  0.74472047932E+03  0.75574248299E+03  0.00000000000E+00 0. -1.
         11    1    4    4    0    0  0.59442800580E+02  0.27088805492E+02  0.23660439912E+03  0.24545649636E+03  0.00000000000E+00 0.  1.
</event>
<event>
 8    1  0.3710605E-009  0.1086640E+03  0.7561462E-02  0.1263064E+00
         -1   -1    0    0    0  501 -0.00000000000E+00  0.00000000000E+00  0.66875387245E+03  0.66875387245E+03  0.00000000000E+00 0.  1.
          1   -1    0    0  501    0  0.00000000000E+00 -0.00000000000E+00 -0.22439276812E+02  0.22439276812E+02  0.00000000000E+00 0. -1.
         25    2    1    2    0    0 -0.83038609488E+01  0.56431746201E+02  0.32102815899E+03  0.34922718649E+03  0.12508818025E+03 0.  0.
         23    2    1    2    0    0  0.83038609488E+01 -0.56431746201E+02  0.32528643666E+03  0.34196596277E+03  0.88746592822E+02 0.  0.
          5    1    3    3  502    0  0.44969656305E+02  0.23609452027E+02  0.51323122269E+02  0.72327114505E+02  0.41800000000E+01 0. -1.
         -5    1    3    3    0  502 -0.53273517254E+02  0.32822294174E+02  0.26970503672E+03  0.27690007199E+03  0.41800000000E+01 0. -1.
        -11    1    4    4    0    0 -0.32237535556E+02 -0.54185029083E+02  0.16555344111E+03  0.17715309181E+03  0.00000000000E+00 0.  1.
         11    1    4    4    0    0  0.40541396505E+02 -0.22467171182E+01  0.15973299555E+03  0.16481287096E+03  0.00000000000E+00 0. -1.
</event>
<event>
 8    1  0.3710605E-009  0.2157684E+03  0.7561462E-02  0.1137078E+00
         -1   -1    0    0    0  501 -0.00000000000E+00  0.00000000000E+00  0.74660714000E+02  0.74660714000E+02  0.00000000000E+00 0.  1.
          1   -1    0    0  501    0  0.00000000000E+00 -0.00000000000E+00 -0.73895130011E+03  0.73895130011E+03  0.00000000000E+00 0. -1.
         25    2    1    2    0    0 -0.16807468488E+03 -0.91041276886E+02 -0.48343177250E+03  0.53468771345E+03  0.12508820274E+03 0.  0.
         23    2    1    2    0    0  0.16807468488E+03  0.91041276886E+02 -0.18085881362E+03  0.27892430066E+03  0.92472921670E+02 0.  0.
          5    1    3    3  502    0  0.16883457721E+02 -0.30924450138E+00 -0.77776087782E+02  0.79697798009E+02  0.41800000000E+01 0.  1.
         -5    1    3    3    0  502 -0.18495814260E+03 -0.90732032385E+02 -0.40565568471E+03  0.45498991544E+03  0.41800000000E+01 0.  1.
        -11    1    4    4    0    0  0.64831217036E+02  0.81875100484E+02 -0.11854253225E+03  0.15798402050E+03  0.00000000000E+00 0. -1.
         11    1    4    4    0    0  0.10324346784E+03  0.91661764026E+01 -0.62316281372E+02  0.12094028016E+03  0.00000000000E+00 0.  1.
</event>
<event>
 8    1  0.3710605E-009  0.1445496E+03  0.7561462E-02  0.1207335E+00
         -1   -1    0    0    0  501 -0.00000000000E+00  0.00000000000E+00  0.20995479323E+03  0.20995479323E+03  0.00000000000E+00 0.  1.
          1   -1    0    0  501    0  0.00000000000E+00 -0.00000000000E+00 -0.15035319661E+03  0.15035319661E+03  0.00000000000E+00 0. -1.
         25    2    1    2    0    0 -0.12641389278E+03 -0.41704790183E+02  0.76428250177E+02  0.19800775655E+03  0.12508410138E+03 0.  0.
         23    2    1    2    0    0  0.12641389278E+03  0.41704790183E+02 -0.16826653559E+02  0.16230023329E+03  0.91315210356E+02 0.  0.
          5    1    3    3  502    0 -0.11552280329E+03 -0.19586891598E+02  0.10684837322E+03  0.15862916397E+03  0.41800000000E+01 0.  1.
         -5    1    3    3    0  502 -0.10891089491E+02 -0.22117898585E+02 -0.30420123039E+02  0.39378592583E+02  0.41800000000E+01 0.  1.
        -11    1    4    4    0    0  0.67235033862E+02  0.54203506662E+02  0.23624410959E+02  0.89535929693E+02  0.00000000000E+00 0.  1.
         11    1    4    4    0    0  0.59178858919E+02 -0.12498716480E+02 -0.40451064517E+02  0.72764303592E+02  0.00000000000E+00 0. -1.
</event>
<event>
 8    1  0.3710605E-009  0.1370429E+03  0.7561462E-02  0.1217364E+00
         -1   -1    0    0    0  501 -0.00000000000E+00  0.00000000000E+00  0.13315654701E+03  0.13315654701E+03  0.00000000000E+00 0.  1.
          1   -1    0    0  501    0  0.00000000000E+00 -0.00000000000E+00 -0.21725501597E+03  0.21725501597E+03  0.00000000000E+00 0. -1.
         25    2    1    2    0    0  0.11094433230E+03  0.46033915865E+02 -0.98112171563E+02  0.19925142667E+03  0.12508943418E+03 0.  0.
         23    2    1    2    0    0 -0.11094433230E+03 -0.46033915865E+02  0.14013702597E+02  0.15116013630E+03  0.90693090510E+02 0.  0.
          5    1    3    3  502    0  0.22331591753E+02 -0.27323653970E+02 -0.73350984200E+02  0.81505345466E+02  0.41800000000E+01 0.  1.
         -5    1    3    3    0  502  0.88612740552E+02  0.73357569836E+02 -0.24761187363E+02  0.11774608121E+03  0.41800000000E+01 0.  1.
        -11    1    4    4    0    0 -0.33544505249E+02 -0.32022071338E+00  0.44955710741E+02  0.56092355111E+02  0.00000000000E+00 0.  1.
         11    1    4    4    0    0 -0.77399827056E+02 -0.45713695152E+02 -0.30942008144E+02  0.95067781192E+02  0.00000000000E+00 0. -1.
</event>
<event>
 8    1  0.3710605E-009  0.1150248E+03  0.7561462E-02  0.1251538E+00
          2   -1    0    0  501    0  0.00000000000E+00  0.00000000000E+00  0.70989518204E+03  0.70989518204E+03  0.00000000000E+00 0. -1.
         -2   -1    0    0    0  501 -0.00000000000E+00 -0.00000000000E+00 -0.20557824515E+02  0.20557824515E+02  0.00000000000E+00 0.  1.
         25    2    1    2    0    0 -0.48574679582E+02  0.24311759622E+02  0.42165190538E+03  0.44315657118E+03  0.12508739390E+03 0.  0.
         23    2    1    2    0    0  0.48574679582E+02 -0.24311759622E+02  0.26768545214E+03  0.28729643538E+03  0.89068396976E+02 0.  0.
          5    1    3    3  502    0 -0.16716348012E+02  0.71987867889E+02  0.17728520363E+03  0.19211768591E+03  0.41800000000E+01 0.  1.
         -5    1    3    3    0  502 -0.31858331570E+02 -0.47676108266E+02  0.24436670176E+03  0.25103888527E+03  0.41800000000E+01 0.  1.
        -11    1    4    4    0    0 -0.18233285327E+02  0.12642935015E+02  0.10854720279E+03  0.11079165913E+03  0.00000000000E+00 0. -1.
         11    1    4    4    0    0  0.66807964909E+02 -0.36954694638E+02  0.15913824936E+03  0.17650477625E+03  0.00000000000E+00 0.  1.
</event>
<event>
 8    1  0.3710605E-009  0.1280695E+03  0.7561462E-02  0.1230349E+00
         -1   -1    0    0    0  501 -0.00000000000E+00  0.00000000000E+00  0.54771650046E+03  0.54771650046E+03  0.00000000000E+00 0.  1.
          1   -1    0    0  501    0  0.00000000000E+00 -0.00000000000E+00 -0.37154280740E+02  0.37154280740E+02  0.00000000000E+00 0. -1.
         25    2    1    2    0    0  0.66594342876E+02  0.64353865475E+02  0.26775018452E+03  0.30969931119E+03  0.12508907042E+03 0.  0.
         23    2    1    2    0    0 -0.66594342876E+02 -0.64353865475E+02  0.24281203520E+03  0.27517147001E+03  0.90473349466E+02 0.  0.
          5    1    3    3  502    0 -0.22759130986E+02  0.12466621615E+02  0.15294482855E+03  0.15518694429E+03  0.41800000000E+01 0. -1.
         -5    1    3    3    0  502  0.89353473862E+02  0.51887243860E+02  0.11480535597E+03  0.15451236690E+03  0.41800000000E+01 0. -1.
        -11    1    4    4    0    0 -0.51849542221E+02  0.81233420280E+01  0.72585663153E+02  0.89571436349E+02  0.00000000000E+00 0. -1.
         11    1    4    4    0    0 -0.14744800655E+02 -0.72477207503E+02  0.17022637205E+03  0.18560003366E+03  0.00000000000E+00 0.  1.
</event>
<event>
 8    1  0.3710605E-009  0.1415637E+03  0.7561462E-02  0.1211240E+00
          1   -1    0    0  501    0  0.00000000000E+00  0.00000000000E+00  0.25124441230E+03  0.25124441230E+03  0.00000000000E+00 0. -1.
         -1   -1    0    0    0  501 -0.00000000000E+00 -0.00000000000E+00 -0.10036209496E+03  0.10036209496E+03  0.00000000000E+00 0.  1.
         25    2    1    2    0    0  0.46415204708E+02 -0.10359876610E+03  0.64857252502E+02  0.18094467520E+03  0.12508971468E+03 0.  0.
         23    2    1    2    0    0 -0.46415204708E+02  0.10359876610E+03  0.86025064842E+02  0.17066183206E+03  0.94011029010E+02 0.  0.
          5    1    3    3  502    0 -0.30120872712E+02 -0.37671533168E+02 -0.16526326176E+02  0.51156653927E+02  0.41800000000E+01 0. -1.
         -5    1    3    3    0  502  0.76536077420E+02 -0.65927232928E+02  0.81383578679E+02  0.12978802128E+03  0.41800000000E+01 0. -1.
        -11    1    4    4    0    0 -0.22775418217E+02 -0.42791584538E+01 -0.91075382459E+01  0.24899359930E+02  0.00000000000E+00 0.  1.
         11    1    4    4    0    0 -0.23639786491E+02  0.10787792455E+03  0.95132603088E+02  0.14576247213E+03  0.00000000000E+00 0. -1.
</event>
<event>
 8    1  0.3710605E-009  0.1988298E+03  0.7561462E-02  0.1150730E+00
         -2   -1    0    0    0  501 -0.00000000000E+00  0.00000000000E+00  0.29896830961E+03  0.29896830961E+03  0.00000000000E+00 0.  1.
          2   -1    0    0  501    0  0.00000000000E+00 -0.00000000000E+00 -0.16495329373E+03  0.16495329373E+03  0.00000000000E+00 0. -1.
         25    2    1    2    0    0 -0.95934022661E+02  0.15976465993E+03  0.12372252450E+03  0.25628688173E+03  0.12509044492E+03 0.  0.
         23    2    1    2    0    0  0.95934022661E+02 -0.15976465993E+03  0.10292491371E+02  0.20763472162E+03  0.90984388640E+02 0.  0.
          5    1    3    3  502    0 -0.21949982379E+02  0.96801205416E+02  0.53857382877E+00  0.99348062680E+02  0.41800000000E+01 0.  1.
         -5    1    3    3    0  502 -0.73984040281E+02  0.62963454511E+02  0.12318395067E+03  0.15693881905E+03  0.41800000000E+01 0.  1.
        -11    1    4    4    0    0  0.76169983254E+02 -0.53732260373E+02  0.30137208180E+02  0.97965674961E+02  0.00000000000E+00 0.  1.
         11    1    4    4    0    0  0.19764039407E+02 -0.10603239955E+03 -0.19844716809E+02  0.10966904666E+03  0.00000000000E+00 0. -1.
</event>
<event>
 8    1  0.3710605E-009  0.1373791E+03  0.7561462E-02  0.1216900E+00
          1   -1    0    0  501    0  0.00000000000E+00  0.00000000000E+00  0.47362880224E+03  0.47362880224E+03  0.00000000000E+00 0. -1.
         -1   -1    0    0    0  501 -0.00000000000E+00 -0.00000000000E+00 -0.55431029006E+02  0.55431029006E+02  0.00000000000E+00 0.  1.
         25    2    1    2    0    0 -0.36679055538E+02 -0.10606683419E+03  0.15550479220E+03  0.22896382440E+03  0.12508863281E+03 0.  0.
         23    2    1    2    0    0  0.36679055538E+02  0.10606683419E+03  0.26269298104E+03  0.30009600685E+03  0.91948271368E+02 0.  0.
          5    1    3    3  502    0  0.15912831101E+02 -0.10065452209E+03  0.56362860705E+02  0.11652808879E+03  0.41800000000E+01 0.  1.
         -5    1    3    3    0  502 -0.52591886639E+02 -0.54123120991E+01  0.99141931491E+02  0.11243573561E+03  0.41800000000E+01 0.  1.
        -11    1    4    4    0    0  0.31847828274E+02  0.30778147577E+02  0.25307023626E+02  0.51010038020E+02  0.00000000000E+00 0.  1.
         11    1    4    4    0    0  0.48312272639E+01  0.75288686610E+02  0.23738595741E+03  0.24908596883E+03  0.00000000000E+00 0. -1.
</event>
<event>
 8    1  0.3710605E-009  0.1065469E+03  0.7561462E-02  0.1267102E+00
         -2   -1    0    0    0  501 -0.00000000000E+00  0.00000000000E+00  0.47903353154E+02  0.47903353154E+02  0.00000000000E+00 0.  1.
          2   -1    0    0  501    0  0.00000000000E+00 -0.00000000000E+00 -0.32820492154E+03  0.32820492154E+03  0.00000000000E+00 0. -1.
         25    2    1    2    0    0  0.25268933218E+02  0.15591272183E+02 -0.24417678628E+03  0.27595600077E+03  0.12509118534E+03 0.  0.
         23    2    1    2    0    0 -0.25268933218E+02 -0.15591272183E+02 -0.36124782106E+02  0.10015227392E+03  0.88565632926E+02 0.  0.
          5    1    3    3  502    0  0.71465982090E+02  0.37546722502E+00 -0.18994824202E+03  0.20299097177E+03  0.41800000000E+01 0.  1.
         -5    1    3    3    0  502 -0.46197048872E+02  0.15215804958E+02 -0.54228544255E+02  0.72965029001E+02  0.41800000000E+01 0.  1.
        -11    1    4    4    0    0 -0.36144184501E+02  0.29280521167E+02 -0.24348083178E+02  0.52503144167E+02  0.00000000000E+00 0. -1.
         11    1    4    4    0    0  0.10875251283E+02 -0.44871793350E+02 -0.11776698928E+02  0.47649129757E+02  0.00000000000E+00 0.  1.
</event>
<event>
 8    1  0.3710605E-009  0.1121835E+03  0.7561462E-02  0.1256579E+00
         -2   -1    0    0    0  501 -0.00000000000E+00  0.00000000000E+00  0.38732149396E+02  0.38732149396E+02  0.00000000000E+00 0.  1.
          2   -1    0    0  501    0  0.00000000000E+00 -0.00000000000E+00 -0.33754343229E+03  0.33754343229E+03  0.00000000000E+00 0. -1.
         25    2    1    2    0    0  0.31655931767E+02  0.16894440242E+02 -0.16553627195E+03  0.21056406779E+03  0.12508976451E+03 0.  0.
         23    2    1    2    0    0 -0.31655931767E+02 -0.16894440242E+02 -0.13327501094E+03  0.16571151389E+03  0.91709089887E+02 0.  0.
          5    1    3    3  502    0  0.40305561557E+01 -0.53755479242E+02 -0.64938306818E+02  0.84500609607E+02  0.41800000000E+01 0. -1.
         -5    1    3    3    0  502  0.27625375612E+02  0.70649919484E+02 -0.10059796513E+03  0.12606345819E+03  0.41800000000E+01 0. -1.
        -11    1    4    4    0    0  0.29424263627E+02 -0.15435820099E+02 -0.71411018896E+02  0.78762843092E+02  0.00000000000E+00 0. -1.
         11    1    4    4    0    0 -0.61080195395E+02 -0.14586201420E+01 -0.61863992046E+02  0.86948670801E+02  0.00000000000E+00 0.  1.
</event>
<event>
 8    1  0.3710605E-009  0.8709485E+02  0.7561462E-02  0.1310043E+00
          2   -1    0    0  501    0  0.00000000000E+00  0.00000000000E+00  0.64731687990E+03  0.64731687990E+03  0.00000000000E+00 0. -1.
         -2   -1    0    0    0  501 -0.00000000000E+00 -0.00000000000E+00 -0.33666186526E+02  0.33666186526E+02  0.00000000000E+00 0.  1.
         25    2    1    2    0    0 -0.37509522518E+01  0.17213326688E+02  0.56625567384E+03  0.58017542279E+03  0.12509062632E+03 0.  0.
         23    2    1    2    0    0  0.37509522518E+01 -0.17213326688E+02  0.47395019538E+02  0.10080764364E+03  0.87209660479E+02 0.  0.
          5    1    3    3  502    0  0.26267757471E+02 -0.44057825785E+02  0.33826666522E+03  0.34215916807E+03  0.41800000000E+01 0.  1.
         -5    1    3    3    0  502 -0.30018709723E+02  0.61271152473E+02  0.22798900861E+03  0.23801625471E+03  0.41800000000E+01 0.  1.
        -11    1    4    4    0    0  0.27466979060E+02 -0.12548037811E+02  0.64485146533E+02  0.71205493573E+02  0.00000000000E+00 0. -1.
         11    1    4    4    0    0 -0.23716026808E+02 -0.46652888775E+01 -0.17090126996E+02  0.29602150067E+02  0.00000000000E+00 0.  1.
</event>
<event>
 8    1  0.3710605E-009  0.9396020E+02  0.7561462E-02  0.1293535E+00
         -1   -1    0    0    0  501 -0.00000000000E+00  0.00000000000E+00  0.38684621567E+02  0.38684621567E+02  0.00000000000E+00 0.  1.
          1   -1    0    0  501    0  0.00000000000E+00 -0.00000000000E+00 -0.37500904914E+03  0.37500904914E+03  0.00000000000E+00 0. -1.
         25    2    1    2    0    0  0.54998914958E+01 -0.38772697998E+02 -0.25536745176E+03  0.28703704493E+03  0.12507661182E+03 0.  0.
         23    2    1    2    0    0 -0.54998914958E+01  0.38772697998E+02 -0.80956975808E+02  0.12665662577E+03  0.89186871255E+02 0.  0.
          5    1    3    3  502    0 -0.30170670445E+02  0.22782734794E+02 -0.17729280123E+03  0.18132714118E+03  0.41800000000E+01 0.  1.
         -5    1    3    3    0  502  0.35670561941E+02 -0.61555432792E+02 -0.78074650536E+02  0.10570990375E+03  0.41800000000E+01 0.  1.
        -11    1    4    4    0    0 -0.27930175018E+01  0.58569475304E+02 -0.19124678821E+02  0.61676070921E+02  0.00000000000E+00 0.  1.
         11    1    4    4    0    0 -0.27068739939E+01 -0.19796777307E+02 -0.61832296987E+02  0.64980554854E+02  0.00000000000E+00 0. -1.
</event>
<event>
 8    1  0.3710605E-009  0.9026111E+02  0.7561462E-02  0.1302221E+00
         -1   -1    0    0    0  501 -0.00000000000E+00  0.00000000000E+00  0.23766785966E+02  0.23766785966E+02  0.00000000000E+00 0.  1.
          1   -1    0    0  501    0  0.00000000000E+00 -0.00000000000E+00 -0.58043482892E+03  0.58043482892E+03  0.00000000000E+00 0. -1.
         25    2    1    2    0    0 -0.37959964956E+02 -0.19964647926E+01 -0.38573572773E+03  0.40728925654E+03  0.12509013564E+03 0.  0.
         23    2    1    2    0    0  0.37959964956E+02  0.19964647926E+01 -0.17093231522E+03  0.19691235834E+03  0.90064841474E+02 0.  0.
          5    1    3    3  502    0 -0.28443481862E+02 -0.36804686420E+02 -0.45779544981E+02  0.65397673824E+02  0.41800000000E+01 0.  1.
         -5    1    3    3    0  502 -0.95164830944E+01  0.34808221628E+02 -0.33995618275E+03  0.34189158271E+03  0.41800000000E+01 0.  1.
        -11    1    4    4    0    0 -0.99394769545E+01  0.36906820553E+02 -0.60040743082E+02  0.71174415595E+02  0.00000000000E+00 0. -1.
         11    1    4    4    0    0  0.47899441911E+02 -0.34910355761E+02 -0.11089157214E+03  0.12573794275E+03  0.00000000000E+00 0.  1.
</event>
<event>
 8    1  0.3710605E-009  0.1161018E+03  0.7561462E-02  0.1249670E+00
          1   -1    0    0  501    0  0.00000000000E+00  0.00000000000E+00  0.46072115299E+02  0.46072115299E+02  0.00000000000E+00 0. -1.
         -1   -1    0    0    0  501 -0.00000000000E+00 -0.00000000000E+00 -0.45804546029E+03  0.45804546029E+03  0.00000000000E+00 0.  1.
         25    2    1    2    0    0 -0.69098110473E+02  0.26437082016E+01 -0.10537430160E+03  0.17757387619E+03  0.12508876849E+03 0.  0.
         23    2    1    2    0    0  0.69098110473E+02 -0.26437082016E+01 -0.30659904340E+03  0.32654369941E+03  0.88579208313E+02 0.  0.
          5    1    3    3  502    0 -0.53567627101E+02  0.49206965267E+02 -0.14618575319E+02  0.74310101927E+02  0.41800000000E+01 0.  1.
         -5    1    3    3    0  502 -0.15530483371E+02 -0.46563257065E+02 -0.90755726276E+02  0.10326377426E+03  0.41800000000E+01 0.  1.
        -11    1    4    4    0    0  0.18407740455E+02 -0.42033436491E+02 -0.16119248222E+03  0.16759675121E+03  0.00000000000E+00 0.  1.
         11    1    4    4    0    0  0.50690370017E+02  0.39389728290E+02 -0.14540656118E+03  0.15894694820E+03  0.00000000000E+00 0. -1.
</event>
<event>
 8    1  0.3710605E-009  0.1237518E+03  0.7561462E-02  0.1237033E+00
          2   -1    0    0  501    0  0.00000000000E+00  0.00000000000E+00  0.47525149315E+02  0.47525149315E+02  0.00000000000E+00 0.  1.
         -2   -1    0    0    0  501 -0.00000000000E+00 -0.00000000000E+00 -0.46119663902E+03  0.46119663902E+03  0.00000000000E+00 0. -1.
         25    2    1    2    0    0 -0.67754408867E+01 -0.82769871616E+02 -0.12698232401E+03  0.19663970380E+03  0.12508358906E+03 0.  0.
         23    2    1    2    0    0  0.67754408867E+01  0.82769871616E+02 -0.28668916569E+03  0.31208208453E+03  0.91147087253E+02 0.  0.
          5    1    3    3  502    0  0.54534059475E+02 -0.13356438807E+02 -0.59914192155E+02  0.82216427324E+02  0.41800000000E+01 0.  1.
         -5    1    3    3    0  502 -0.61309500362E+02 -0.69413432809E+02 -0.67068131860E+02  0.11442327648E+03  0.41800000000E+01 0.  1.
        -11    1    4    4    0    0  0.29980779186E+02  0.42347047878E+02 -0.54452703329E+02  0.75214469913E+02  0.00000000000E+00 0.  1.
         11    1    4    4    0    0 -0.23205338299E+02  0.40422823738E+02 -0.23223646236E+03  0.23686761462E+03  0.00000000000E+00 0. -1.
</event>
<event>
 8    1  0.3710605E-009  0.9365702E+02  0.7561462E-02  0.1294230E+00
          1   -1    0    0  501    0  0.00000000000E+00  0.00000000000E+00  0.55714325244E+03  0.55714325244E+03  0.00000000000E+00 0. -1.
         -1   -1    0    0    0  501 -0.00000000000E+00 -0.00000000000E+00 -0.24457683221E+02  0.24457683221E+02  0.00000000000E+00 0.  1.
         25    2    1    2    0    0  0.16385377109E+02  0.26753263918E+02  0.25332585322E+03  0.28426390478E+03  0.12509101462E+03 0.  0.
         23    2    1    2    0    0 -0.16385377109E+02 -0.26753263918E+02  0.27935971600E+03  0.29733703088E+03  0.96867132176E+02 0.  0.
          5    1    3    3  502    0  0.48575204649E+02  0.10234841794E+02  0.30352783722E+02  0.58335806953E+02  0.41800000000E+01 0.  1.
         -5    1    3    3    0  502 -0.32189827539E+02  0.16518422125E+02  0.22297306950E+03  0.22592809783E+03  0.41800000000E+01 0.  1.
        -11    1    4    4    0    0 -0.22676027871E+02 -0.61612541015E+02  0.16370004193E+03  0.17637463304E+03  0.00000000000E+00 0.  1.
         11    1    4    4    0    0  0.62906507615E+01  0.34859277096E+02  0.11565967406E+03  0.12096239784E+03  0.00000000000E+00 0. -1.
</event>
<event>
 8    1  0.3710605E-009  0.9422646E+02  0.7561462E-02  0.1292928E+00
         -2   -1    0    0    0  501 -0.00000000000E+00  0.00000000000E+00  0.17229632355E+02  0.17229632355E+02  0.00000000000E+00 0.  1.
          2   -1    0    0  501    0  0.00000000000E+00 -0.00000000000E+00 -0.79387028890E+03  0.79387028890E+03  0.00000000000E+00 0. -1.
         25    2    1    2    0    0  0.28798960045E+02  0.30000215475E+02 -0.43521892417E+03  0.45474443094E+03  0.12509033729E+03 0.  0.
         23    2    1    2    0    0 -0.28798960045E+02 -0.30000215475E+02 -0.34142173238E+03  0.35635549032E+03  0.93225764217E+02 0.  0.
          5    1    3    3  502    0  0.59935364076E+02  0.14661594406E+02 -0.99111374147E+02  0.11682357255E+03  0.41800000000E+01 0. -1.
         -5    1    3    3    0  502 -0.31136404031E+02  0.15338621069E+02 -0.33610755002E+03  0.33792085839E+03  0.41800000000E+01 0. -1.
        -11    1    4    4    0    0  0.11638519767E+02 -0.46529727394E+02 -0.25553224806E+03  0.25999461624E+03  0.00000000000E+00 0. -1.
         11    1    4    4    0    0 -0.40437479812E+02  0.16529511919E+02 -0.85889484321E+02  0.96360874087E+02  0.00000000000E+00 0.  1.
</event>
<event>
 8    1  0.3710605E-009  0.2174026E+03  0.7561462E-02  0.1135834E+00
          2   -1    0    0  501    0  0.00000000000E+00  0.00000000000E+00  0.94297287764E+03  0.94297287764E+03  0.00000000000E+00 0. -1.
         -2   -1    0    0    0  501 -0.00000000000E+00 -0.00000000000E+00 -0.57693991005E+02  0.57693991005E+02  0.00000000000E+00 0.  1.
         25    2    1    2    0    0  0.19968326629E+03  0.46130723039E+02  0.40260497539E+03  0.46876268127E+03  0.12508490996E+03 0.  0.
         23    2    1    2    0    0 -0.19968326629E+03 -0.46130723039E+02  0.48267391124E+03  0.53190418737E+03  0.89143196636E+02 0.  0.
          5    1    3    3  502    0 -0.63561740399E+01 -0.15062196323E+01 -0.52210345080E+01  0.93488634250E+01  0.41800000000E+01 0. -1.
         -5    1    3    3    0  502  0.20603944033E+03  0.47636942672E+02  0.40782600990E+03  0.45941381784E+03  0.41800000000E+01 0. -1.
        -11    1    4    4    0    0 -0.11779372626E+03 -0.60454566172E+02  0.22404571874E+03  0.26024334881E+03  0.00000000000E+00 0.  1.
         11    1    4    4    0    0 -0.81889540031E+02  0.14323843133E+02  0.25862819251E+03  0.27166083856E+03  0.00000000000E+00 0. -1.
</event>
<event>
 8    1  0.3710605E-009  0.8616003E+02  0.7561462E-02  0.1312427E+00
         -2   -1    0    0    0  501 -0.00000000000E+00  0.00000000000E+00  0.37152080541E+02  0.37152080541E+02  0.00000000000E+00 0.  1.
          2   -1    0    0  501    0  0.00000000000E+00 -0.00000000000E+00 -0.60821853050E+03  0.60821853050E+03  0.00000000000E+00 0. -1.
         25    2    1    2    0    0 -0.42526713711E-02  0.60910730836E+02 -0.12946412539E+03  0.19004599639E+03  0.12508558603E+03 0.  0.
         23    2    1    2    0    0  0.42526713711E-02 -0.60910730836E+02 -0.44160232457E+03  0.45532461465E+03  0.92724185057E+02 0.  0.
          5    1    3    3  502    0 -0.19523655960E+01  0.22709992743E+02 -0.14624371288E+03  0.14806840128E+03  0.41800000000E+01 0.  1.
         -5    1    3    3    0  502  0.19481129246E+01  0.38200738093E+02  0.16779587488E+02  0.41977595108E+02  0.41800000000E+01 0.  1.
        -11    1    4    4    0    0  0.46199226527E+02 -0.29983756077E+02 -0.23573401887E+03  0.24208246904E+03  0.00000000000E+00 0. -1.
         11    1    4    4    0    0 -0.46194973855E+02 -0.30926974760E+02 -0.20586830570E+03  0.21324214562E+03  0.00000000000E+00 0.  1.
</event>
<event>
 8    1  0.3710605E-009  0.3582294E+03  0.7561462E-02  0.1059287E+00
         -4   -1    0    0    0  501 -0.00000000000E+00  0.00000000000E+00  0.37110247826E+03  0.37110247826E+03  0.00000000000E+00 0.  1.
          4   -1    0    0  501    0  0.00000000000E+00 -0.00000000000E+00 -0.39928191886E+03  0.39928191886E+03  0.00000000000E+00 0. -1.
         25    2    1    2    0    0  0.33656337477E+03  0.10737852534E+03 -0.12258166398E+03  0.39431032038E+03  0.12509720810E+03 0.  0.
         23    2    1    2    0    0 -0.33656337477E+03 -0.10737852534E+03  0.94402223378E+02  0.37607407675E+03  0.87834380997E+02 0.  0.
          5    1    3    3  502    0  0.94196541413E+02  0.19137298881E+02 -0.94437352379E+02  0.13481509762E+03  0.41800000000E+01 0.  1.
         -5    1    3    3    0  502  0.24236683336E+03  0.88241226455E+02 -0.28144311600E+02  0.25949522276E+03  0.41800000000E+01 0.  1.
        -11    1    4    4    0    0 -0.11519666629E+03  0.23329458510E+01  0.13022156603E+02  0.11595383186E+03  0.00000000000E+00 0.  1.
         11    1    4    4    0    0 -0.22136670848E+03 -0.10971147119E+03  0.81380066775E+02  0.26012024489E+03  0.00000000000E+00 0. -1.
</event>
<event>
 8    1  0.3710605E-009  0.1006253E+03  0.7561462E-02  0.1278986E+00
          1   -1    0    0  501    0  0.00000000000E+00  0.00000000000E+00  0.10601045446E+04  0.10601045446E+04  0.00000000000E+00 0. -1.
         -1   -1    0    0    0  501 -0.00000000000E+00 -0.00000000000E+00 -0.14620445783E+02  0.14620445783E+02  0.00000000000E+00 0.  1.
         25    2    1    2    0    0  0.37008146889E+02  0.30733054046E+02  0.73403710417E+03  0.74617143467E+03  0.12508883272E+03 0.  0.
         23    2    1    2    0    0 -0.37008146889E+02 -0.30733054046E+02  0.31144699466E+03  0.32855355573E+03  0.92919776966E+02 0.  0.
          5    1    3    3  502    0  0.27694499082E+02  0.74456021474E+02  0.58888731114E+03  0.59423599861E+03  0.41800000000E+01 0.  1.
         -5    1    3    3    0  502  0.93136478069E+01 -0.43722967428E+02  0.14514979302E+03  0.15193543606E+03  0.41800000000E+01 0.  1.
        -11    1    4    4    0    0  0.13236508108E+02  0.60287680565E+01  0.43095510711E+01  0.15169819432E+02  0.00000000000E+00 0.  1.
         11    1    4    4    0    0 -0.50244654997E+02 -0.36761822103E+02  0.30713744359E+03  0.31338373630E+03  0.00000000000E+00 0. -1.
</event>
<event>
 8    1  0.3710605E-009  0.1086932E+03  0.7561462E-02  0.1263009E+00
          2   -1    0    0  501    0  0.00000000000E+00  0.00000000000E+00  0.99897442984E+03  0.99897442984E+03  0.00000000000E+00 0.  1.
         -2   -1    0    0    0  501 -0.00000000000E+00 -0.00000000000E+00 -0.13921694096E+02  0.13921694096E+02  0.00000000000E+00 0. -1.
         25    2    1    2    0    0  0.32409932140E+02 -0.78488739011E+01  0.69554736021E+03  0.70749461439E+03  0.12510192074E+03 0.  0.
         23    2    1    2    0    0 -0.32409932140E+02  0.78488739011E+01  0.28950537553E+03  0.30540150955E+03  0.91349389970E+02 0.  0.
          5    1    3    3  502    0 -0.35227647408E+02  0.30543364927E+02  0.17500763781E+03  0.18116023287E+03  0.41800000000E+01 0. -1.
         -5    1    3    3    0  502  0.67637579548E+02 -0.38392238828E+02  0.52053972239E+03  0.52633438151E+03  0.41800000000E+01 0. -1.
        -11    1    4    4    0    0 -0.43522368017E+02  0.39727866608E+02  0.22508478356E+03  0.23267071086E+03  0.00000000000E+00 0.  1.
         11    1    4    4    0    0  0.11112435877E+02 -0.31878992707E+02  0.64420591979E+02  0.72730798689E+02  0.00000000000E+00 0. -1.
</event>
<event>
 8    1  0.3710605E-009  0.6186867E+02  0.7561462E-02  0.1390153E+00
         -1   -1    0    0    0  501 -0.00000000000E+00  0.00000000000E+00  0.17584327653E+03  0.17584327653E+03  0.00000000000E+00 0.  1.
          1   -1    0    0  501    0  0.00000000000E+00 -0.00000000000E+00 -0.71216956200E+02  0.71216956200E+02  0.00000000000E+00 0. -1.
         25    2    1    2    0    0  0.16417247368E+02 -0.13839257920E+02  0.32649715052E+02  0.13105049002E+03  0.12508867244E+03 0.  0.
         23    2    1    2    0    0 -0.16417247368E+02  0.13839257920E+02  0.71976605278E+02  0.11600974271E+03  0.88411411167E+02 0.  0.
          5    1    3    3  502    0 -0.32499624077E+02  0.23919158327E+01 -0.33611026928E+02  0.47001280384E+02  0.41800000000E+01 0.  1.
         -5    1    3    3    0  502  0.48916871445E+02 -0.16231173753E+02  0.66260741981E+02  0.84049209641E+02  0.41800000000E+01 0.  1.
        -11    1    4    4    0    0  0.12980825820E+01  0.20282130292E+02  0.88584952401E+02  0.90886432538E+02  0.00000000000E+00 0.  1.
         11    1    4    4    0    0 -0.17715329950E+02 -0.64428723719E+01 -0.16608347123E+02  0.25123310168E+02  0.00000000000E+00 0. -1.
</event>
<event>
 8    1  0.3710605E-009  0.1673104E+03  0.7561462E-02  0.1180682E+00
         -2   -1    0    0    0  501 -0.00000000000E+00  0.00000000000E+00  0.11957598812E+03  0.11957598812E+03  0.00000000000E+00 0.  1.
          2   -1    0    0  501    0  0.00000000000E+00 -0.00000000000E+00 -0.28592829028E+03  0.28592829028E+03  0.00000000000E+00 0. -1.
         25    2    1    2    0    0 -0.11923887191E+03 -0.80879861813E+02 -0.13142171515E+03  0.23168619093E+03  0.12508942095E+03 0.  0.
         23    2    1    2    0    0  0.11923887191E+03  0.80879861813E+02 -0.34930587019E+02  0.17381808747E+03  0.90736547226E+02 0.  0.
          5    1    3    3  502    0 -0.76118411436E+00  0.18515423876E+02  0.10533487783E+02  0.21721581145E+02  0.41800000000E+01 0. -1.
         -5    1    3    3    0  502 -0.11847768779E+03 -0.99395285688E+02 -0.14195520293E+03  0.20996460978E+03  0.41800000000E+01 0. -1.
        -11    1    4    4    0    0  0.57727649784E+02 -0.19332752846E+01  0.14315941862E+02  0.59507691052E+02  0.00000000000E+00 0.  1.
         11    1    4    4    0    0  0.61511222124E+02  0.82813137097E+02 -0.49246528881E+02  0.11431039642E+03  0.00000000000E+00 0. -1.
</event>
<event>
 8    1  0.3710605E-009  0.1652044E+03  0.7561462E-02  0.1182943E+00
         -2   -1    0    0    0  501 -0.00000000000E+00  0.00000000000E+00  0.43272973054E+02  0.43272973054E+02  0.00000000000E+00 0.  1.
          2   -1    0    0  501    0  0.00000000000E+00 -0.00000000000E+00 -0.69848493576E+03  0.69848493576E+03  0.00000000000E+00 0. -1.
         25    2    1    2    0    0 -0.60688418016E+02  0.11504245971E+03 -0.26799682181E+03  0.32309114355E+03  0.12509092260E+03 0.  0.
         23    2    1    2    0    0  0.60688418016E+02 -0.11504245971E+03 -0.38721514089E+03  0.41866676526E+03  0.91806554154E+02 0.  0.
          5    1    3    3  502    0 -0.75851915448E+02  0.13496002735E+03 -0.22463406124E+03  0.27284731248E+03  0.41800000000E+01 0. -1.
         -5    1    3    3    0  502  0.15163497432E+02 -0.19917567642E+02 -0.43362760574E+02  0.50243831061E+02  0.41800000000E+01 0. -1.
        -11    1    4    4    0    0  0.62577103467E+02 -0.38248137721E+02 -0.12007363561E+03  0.14070000670E+03  0.00000000000E+00 0. -1.
         11    1    4    4    0    0 -0.18886854514E+01 -0.76794321992E+02 -0.26714150528E+03  0.27796675856E+03  0.00000000000E+00 0.  1.
</event>
<event>
 8    1  0.3710605E-009  0.1364047E+03  0.7561462E-02  0.1218250E+00
         -2   -1    0    0    0  501 -0.00000000000E+00  0.00000000000E+00  0.13151048857E+02  0.13151048857E+02  0.00000000000E+00 0.  1.
          2   -1    0    0  501    0  0.00000000000E+00 -0.00000000000E+00 -0.16741387886E+04  0.16741387886E+04  0.00000000000E+00 0. -1.
         25    2    1    2    0    0 -0.88693044692E+02 -0.35943960144E+02 -0.11082363853E+04  0.11193720440E+04  0.12508981884E+03 0.  0.
         23    2    1    2    0    0  0.88693044692E+02  0.35943960144E+02 -0.55275135449E+03  0.56791779349E+03  0.88533246980E+02 0.  0.
          5    1    3    3  502    0 -0.66837289347E+01  0.34796841602E+02 -0.11949087790E+03  0.12470378791E+03  0.41800000000E+01 0.  1.
         -5    1    3    3    0  502 -0.82009315758E+02 -0.70740801746E+02 -0.98874550735E+03  0.99466825606E+03  0.41800000000E+01 0.  1.
        -11    1    4    4    0    0  0.33291363534E+02 -0.28455408519E+02 -0.14780987003E+03  0.15416154786E+03  0.00000000000E+00 0.  1.
         11    1    4    4    0    0  0.55401681159E+02  0.64399368664E+02 -0.40494148446E+03  0.41375624563E+03  0.00000000000E+00 0. -1.
</event>
<event>
 8    1  0.3710605E-009  0.5762458E+02  0.7561462E-02  0.1408080E+00
         -4   -1    0    0    0  501 -0.00000000000E+00  0.00000000000E+00  0.64221123584E+02  0.64221123584E+02  0.00000000000E+00 0.  1.
          4   -1    0    0  501    0  0.00000000000E+00 -0.00000000000E+00 -0.22568309059E+03  0.22568309059E+03  0.00000000000E+00 0. -1.
         25    2    1    2    0    0  0.15312280426E+02  0.48002964937E+02 -0.81258004337E+02  0.15744942007E+03  0.12509478820E+03 0.  0.
         23    2    1    2    0    0 -0.15312280426E+02 -0.48002964937E+02 -0.80203962672E+02  0.13245479411E+03  0.92589666163E+02 0.  0.
          5    1    3    3  502    0  0.24273874045E+01  0.25544960088E+02  0.31979681238E+02  0.41214191823E+02  0.41800000000E+01 0.  1.
         -5    1    3    3    0  502  0.12884893021E+02  0.22458004849E+02 -0.11323768558E+03  0.11623522824E+03  0.41800000000E+01 0.  1.
        -11    1    4    4    0    0  0.12760722859E+02 -0.14588361925E+02 -0.86245532597E+02  0.88396539776E+02  0.00000000000E+00 0. -1.
         11    1    4    4    0    0 -0.28073003285E+02 -0.33414603012E+02  0.60415699242E+01  0.44058254335E+02  0.00000000000E+00 0.  1.
</event>
<event>
 8    1  0.3710605E-009  0.1386707E+03  0.7561462E-02  0.1215129E+00
          2   -1    0    0  501    0  0.00000000000E+00  0.00000000000E+00  0.32181531166E+03  0.32181531166E+03  0.00000000000E+00 0. -1.
         -2   -1    0    0    0  501 -0.00000000000E+00 -0.00000000000E+00 -0.82883375162E+02  0.82883375162E+02  0.00000000000E+00 0.  1.
         25    2    1    2    0    0 -0.11925365845E+02  0.12134975324E+03  0.10553472469E+03  0.20408738143E+03  0.12508438825E+03 0.  0.
         23    2    1    2    0    0  0.11925365845E+02 -0.12134975324E+03  0.13339721181E+03  0.20061130539E+03  0.87075270713E+02 0.  0.
          5    1    3    3  502    0 -0.22180620021E+02  0.11341824761E+03  0.19858484929E+02  0.11733503577E+03  0.41800000000E+01 0. -1.
         -5    1    3    3    0  502  0.10255254176E+02  0.79315056305E+01  0.85676239759E+02  0.86752345669E+02  0.41800000000E+01 0. -1.
        -11    1    4    4    0    0 -0.21144999604E+02 -0.11162018359E+03  0.11451488980E+03  0.16130665323E+03  0.00000000000E+00 0. -1.
         11    1    4    4    0    0  0.33070365449E+02 -0.97295696511E+01  0.18882322018E+02  0.39304652158E+02  0.00000000000E+00 0.  1.
</event>
<event>
 8    1  0.3710605E-009  0.1523076E+03  0.7561462E-02  0.1197666E+00
          2   -1    0    0  501    0  0.00000000000E+00  0.00000000000E+00  0.74736880345E+03  0.74736880345E+03  0.00000000000E+00 0. -1.
         -2   -1    0    0    0  501 -0.00000000000E+00 -0.00000000000E+00 -0.42232550213E+02  0.42232550213E+02  0.00000000000E+00 0.  1.
         25    2    1    2    0    0 -0.10400088085E+03 -0.86970056872E+02  0.28980777282E+03  0.34353472626E+03  0.12509032317E+03 0.  0.
         23    2    1    2    0    0  0.10400088085E+03  0.86970056872E+02  0.41532848042E+03  0.44606662740E+03  0.89987307023E+02 0.  0.
          5    1    3    3  502    0 -0.39159303292E+02  0.82906573188E+01  0.17951071940E+03  0.18396672746E+03  0.41800000000E+01 0. -1.
         -5    1    3    3    0  502 -0.64841577558E+02 -0.95260714191E+02  0.11029705342E+03  0.15956799880E+03  0.41800000000E+01 0. -1.
        -11    1    4    4    0    0  0.38047808194E+02 -0.22440442880E+01  0.20250769423E+03  0.20606318853E+03  0.00000000000E+00 0.  1.
         11    1    4    4    0    0  0.65953072656E+02  0.89214101160E+02  0.21282078619E+03  0.24000343888E+03  0.00000000000E+00 0. -1.
</event>
<event>
 8    1  0.3710605E-009  0.2454488E+03  0.7561462E-02  0.1116215E+00
         -2   -1    0    0    0  501 -0.00000000000E+00  0.00000000000E+00  0.24130844218E+02  0.24130844218E+02  0.00000000000E+00 0. -1.
          2   -1    0    0  501    0  0.00000000000E+00 -0.00000000000E+00 -0.29271171584E+04  0.29271171584E+04  0.00000000000E+00 0.  1.
         25    2    1    2    0    0 -0.60170834984E+02  0.21290976508E+03 -0.20314970835E+04  0.20473346720E+04  0.12509101256E+03 0.  0.
         23    2    1    2    0    0  0.60170834984E+02 -0.21290976508E+03 -0.87148923066E+03  0.90391333060E+03  0.92815584011E+02 0.  0.
          5    1    3    3  502    0 -0.63902993730E+02  0.32743551113E+02 -0.70170172835E+03  0.70537828200E+03  0.41800000000E+01 0. -1.
         -5    1    3    3    0  502  0.37321587464E+01  0.18016621397E+03 -0.13297953552E+04  0.13419563900E+04  0.41800000000E+01 0. -1.
        -11    1    4    4    0    0  0.80640317434E+02 -0.12726854009E+03 -0.59263954402E+03  0.61149143185E+03  0.00000000000E+00 0.  1.
         11    1    4    4    0    0 -0.20469482450E+02 -0.85641224989E+02 -0.27884968664E+03  0.29242189875E+03  0.00000000000E+00 0. -1.
</event>
<event>
 8    1  0.3710605E-009  0.1162745E+03  0.7561462E-02  0.1249373E+00
         -1   -1    0    0    0  501 -0.00000000000E+00  0.00000000000E+00  0.42794533004E+03  0.42794533004E+03  0.00000000000E+00 0.  1.
          1   -1    0    0  501    0  0.00000000000E+00 -0.00000000000E+00 -0.47856607942E+02  0.47856607942E+02  0.00000000000E+00 0. -1.
         25    2    1    2    0    0  0.72646216709E+02  0.40798275491E+02  0.27089217671E+03  0.30979350902E+03  0.12508986666E+03 0.  0.
         23    2    1    2    0    0 -0.72646216709E+02 -0.40798275491E+02  0.10919654539E+03  0.16600842896E+03  0.93235941983E+02 0.  0.
          5    1    3    3  502    0  0.98407383781E+02  0.13515663391E+02  0.12843595406E+03  0.16241906611E+03  0.41800000000E+01 0. -1.
         -5    1    3    3    0  502 -0.25761167072E+02  0.27282612101E+02  0.14245622265E+03  0.14737444291E+03  0.41800000000E+01 0. -1.
        -11    1    4    4    0    0 -0.84888414938E+01 -0.28903304409E+02  0.94415153959E+02  0.99104403195E+02  0.00000000000E+00 0.  1.
         11    1    4    4    0    0 -0.64157375215E+02 -0.11894971082E+02  0.14781391430E+02  0.66904025770E+02  0.00000000000E+00 0. -1.
</event>
<event>
 8    1  0.3710605E-009  0.1139735E+03  0.7561462E-02  0.1253384E+00
          2   -1    0    0  501    0  0.00000000000E+00  0.00000000000E+00  0.53776062207E+03  0.53776062207E+03  0.00000000000E+00 0. -1.
         -2   -1    0    0    0  501 -0.00000000000E+00 -0.00000000000E+00 -0.35306760145E+02  0.35306760145E+02  0.00000000000E+00 0.  1.
         25    2    1    2    0    0  0.59480683972E+02 -0.27195699079E+02  0.16380647912E+03  0.21623616771E+03  0.12509180553E+03 0.  0.
         23    2    1    2    0    0 -0.59480683972E+02  0.27195699079E+02  0.33864738280E+03  0.35683121450E+03  0.91481735614E+02 0.  0.
          5    1    3    3  502    0 -0.14122433711E+02 -0.38622146748E+02  0.12598886273E+03  0.13259630192E+03  0.41800000000E+01 0.  1.
         -5    1    3    3    0  502  0.73603117683E+02  0.11426447669E+02  0.37817616398E+02  0.83639865788E+02  0.41800000000E+01 0.  1.
        -11    1    4    4    0    0 -0.32460794206E+02 -0.32839219012E+02  0.15547769860E+03  0.16218949481E+03  0.00000000000E+00 0. -1.
         11    1    4    4    0    0 -0.27019889766E+02  0.60034918091E+02  0.18316968420E+03  0.19464171969E+03  0.00000000000E+00 0.  1.
</event>
<event>
 8    1  0.3710605E-009  0.9927733E+02  0.7561462E-02  0.1281823E+00
          3   -1    0    0  501    0  0.00000000000E+00  0.00000000000E+00  0.43870863358E+02  0.43870863358E+02  0.00000000000E+00 0. -1.
         -3   -1    0    0    0  501 -0.00000000000E+00 -0.00000000000E+00 -0.26867145070E+03  0.26867145070E+03  0.00000000000E+00 0.  1.
         25    2    1    2    0    0  0.12697778639E+00 -0.29368806826E+01 -0.13257471774E+03  0.18229964746E+03  0.12509382195E+03 0.  0.
         23    2    1    2    0    0 -0.12697778639E+00  0.29368806826E+01 -0.92225869600E+02  0.13024266659E+03  0.91917896985E+02 0.  0.
          5    1    3    3  502    0  0.17993557991E+02 -0.52607258188E+02 -0.22450553997E+02  0.60106501462E+02  0.41800000000E+01 0. -1.
         -5    1    3    3    0  502 -0.17866580205E+02  0.49670377505E+02 -0.11012416374E+03  0.12219314600E+03  0.41800000000E+01 0. -1.
        -11    1    4    4    0    0 -0.67898490215E+01 -0.42947803788E+02 -0.30811874052E+02  0.53291532935E+02  0.00000000000E+00 0.  1.
         11    1    4    4    0    0  0.66628712351E+01  0.45884684470E+02 -0.61413995547E+02  0.76951133657E+02  0.00000000000E+00 0. -1.
</event>
<event>
 8    1  0.3710605E-009  0.1282887E+03  0.7561462E-02  0.1230017E+00
         -2   -1    0    0    0  501 -0.00000000000E+00  0.00000000000E+00  0.38165401154E+02  0.38165401154E+02  0.00000000000E+00 0.  1.
          2   -1    0    0  501    0  0.00000000000E+00 -0.00000000000E+00 -0.69427717226E+03  0.69427717226E+03  0.00000000000E+00 0. -1.
         25    2    1    2    0    0  0.43767509572E+02 -0.72386418214E+02 -0.15835216208E+03  0.21880690147E+03  0.12508263052E+03 0.  0.
         23    2    1    2    0    0 -0.43767509572E+02  0.72386418214E+02 -0.49775960903E+03  0.51363567195E+03  0.94348220346E+02 0.  0.
          5    1    3    3  502    0 -0.29026956062E+02  0.81903921870E+01 -0.77774573298E+02  0.83522472150E+02  0.41800000000E+01 0.  1.
         -5    1    3    3    0  502  0.72794465635E+02 -0.80576810402E+02 -0.80577588780E+02  0.13528442931E+03  0.41800000000E+01 0.  1.
        -11    1    4    4    0    0 -0.16546679005E+02 -0.17176942019E+02 -0.41437059247E+02  0.47810770777E+02  0.00000000000E+00 0.  1.
         11    1    4    4    0    0 -0.27220830567E+02  0.89563360234E+02 -0.45632254978E+03  0.46582490117E+03  0.00000000000E+00 0. -1.
</event>
<event>
 8    1  0.3710605E-009  0.9503417E+02  0.7561462E-02  0.1291099E+00
          2   -1    0    0  501    0  0.00000000000E+00  0.00000000000E+00  0.64778146866E+03  0.64778146866E+03  0.00000000000E+00 0. -1.
         -2   -1    0    0    0  501 -0.00000000000E+00 -0.00000000000E+00 -0.32094112623E+02  0.32094112623E+02  0.00000000000E+00 0.  1.
         25    2    1    2    0    0 -0.11663908352E+02 -0.76016028846E+02  0.20088997141E+03  0.24882978208E+03  0.12507996017E+03 0.  0.
         23    2    1    2    0    0  0.11663908352E+02  0.76016028846E+02  0.41479738463E+03  0.43104579921E+03  0.88482355980E+02 0.  0.
          5    1    3    3  502    0 -0.13907953151E+02 -0.75383075773E+02  0.37623057081E+02  0.85492725410E+02  0.41800000000E+01 0.  1.
         -5    1    3    3    0  502  0.22440447993E+01 -0.63295307208E+00  0.16326691433E+03  0.16333705667E+03  0.41800000000E+01 0.  1.
        -11    1    4    4    0    0  0.44221134314E+02  0.50668588450E+02  0.17042127934E+03  0.18321088131E+03  0.00000000000E+00 0.  1.
         11    1    4    4    0    0 -0.32557225962E+02  0.25347440395E+02  0.24437610529E+03  0.24783491791E+03  0.00000000000E+00 0. -1.
</event>
<event>
 8    1  0.3710605E-009  0.8340200E+02  0.7561462E-02  0.1319665E+00
         -1   -1    0    0    0  501 -0.00000000000E+00  0.00000000000E+00  0.15556589824E+03  0.15556589824E+03  0.00000000000E+00 0.  1.
          1   -1    0    0  501    0  0.00000000000E+00 -0.00000000000E+00 -0.20733595394E+03  0.20733595394E+03  0.00000000000E+00 0. -1.
         25    2    1    2    0    0 -0.59006004378E+01  0.63762446188E+02 -0.15558322198E+03  0.20965224044E+03  0.12508979308E+03 0.  0.
         23    2    1    2    0    0  0.59006004378E+01 -0.63762446188E+02  0.10381316627E+03  0.15324961174E+03  0.92778248404E+02 0.  0.
          5    1    3    3  502    0  0.92264777474E+00  0.11908918296E+02  0.21506573612E+02  0.24953531261E+02  0.41800000000E+01 0.  1.
         -5    1    3    3    0  502 -0.68232482125E+01  0.51853527892E+02 -0.17708979559E+03  0.18469870918E+03  0.41800000000E+01 0.  1.
        -11    1    4    4    0    0 -0.24696732698E+02  0.60774242145E+01  0.12702613192E+01  0.25465216568E+02  0.00000000000E+00 0.  1.
         11    1    4    4    0    0  0.30597333135E+02 -0.69839870403E+02  0.10254290495E+03  0.12778439517E+03  0.00000000000E+00 0. -1.
</event>
<event>
 8    1  0.3710605E-009  0.1408447E+03  0.7561462E-02  0.1212197E+00
         -4   -1    0    0    0  501 -0.00000000000E+00  0.00000000000E+00  0.25146365264E+03  0.25146365264E+03  0.00000000000E+00 0. -1.
          4   -1    0    0  501    0  0.00000000000E+00 -0.00000000000E+00 -0.92929668322E+02  0.92929668322E+02  0.00000000000E+00 0.  1.
         25    2    1    2    0    0 -0.82853233244E+02  0.62491870190E+02  0.54644191823E+02  0.17147396751E+03  0.12508973473E+03 0.  0.
         23    2    1    2    0    0  0.82853233244E+02 -0.62491870190E+02  0.10388979250E+03  0.17291935345E+03  0.91313316196E+02 0.  0.
          5    1    3    3  502    0 -0.10840641456E+03  0.55531928083E+02  0.70030078709E+02  0.14056112577E+03  0.41800000000E+01 0. -1.
         -5    1    3    3    0  502  0.25553181312E+02  0.69599421075E+01 -0.15385886886E+02  0.30912841742E+02  0.41800000000E+01 0. -1.
        -11    1    4    4    0    0  0.70330275149E+02 -0.10909240706E+01  0.31202734786E+02  0.76948998538E+02  0.00000000000E+00 0. -1.
         11    1    4    4    0    0  0.12522958094E+02 -0.61400946120E+02  0.72687057712E+02  0.95970354916E+02  0.00000000000E+00 0.  1.
</event>
<event>
 8    1  0.3710605E-009  0.2000911E+03  0.7561462E-02  0.1149662E+00
          2   -1    0    0  501    0  0.00000000000E+00  0.00000000000E+00  0.18751791189E+03  0.18751791189E+03  0.00000000000E+00 0.  1.
         -2   -1    0    0    0  501 -0.00000000000E+00 -0.00000000000E+00 -0.23746482907E+03  0.23746482907E+03  0.00000000000E+00 0. -1.
         25    2    1    2    0    0  0.97713920866E+02 -0.15245264534E+03 -0.30745099947E+02  0.22222142585E+03  0.12508909440E+03 0.  0.
         23    2    1    2    0    0 -0.97713920866E+02  0.15245264534E+03 -0.19201817232E+02  0.20276131511E+03  0.89183079790E+02 0.  0.
          5    1    3    3  502    0  0.61240885765E+02 -0.62462900980E+01 -0.35907139395E+02  0.71388075257E+02  0.41800000000E+01 0.  1.
         -5    1    3    3    0  502  0.36473035101E+02 -0.14620635524E+03  0.51620394478E+01  0.15083335060E+03  0.41800000000E+01 0.  1.
        -11    1    4    4    0    0 -0.96383568106E+02  0.11409833333E+03  0.16597581437E+02  0.15027874626E+03  0.00000000000E+00 0.  1.
         11    1    4    4    0    0 -0.13303527605E+01  0.38354312008E+02 -0.35799398669E+02  0.52482568851E+02  0.00000000000E+00 0. -1.
</event>
<event>
 8    1  0.3710605E-009  0.1183342E+03  0.7561462E-02  0.1245871E+00
         -2   -1    0    0    0  501 -0.00000000000E+00  0.00000000000E+00  0.18081478220E+03  0.18081478220E+03  0.00000000000E+00 0.  1.
          2   -1    0    0  501    0  0.00000000000E+00 -0.00000000000E+00 -0.15242023975E+03  0.15242023975E+03  0.00000000000E+00 0. -1.
         25    2    1    2    0    0 -0.60602568086E+02 -0.73210757211E+02 -0.66493588555E+02  0.17059612576E+03  0.12509658099E+03 0.  0.
         23    2    1    2    0    0  0.60602568086E+02  0.73210757211E+02  0.94888131007E+02  0.16263889619E+03  0.91734218903E+02 0.  0.
          5    1    3    3  502    0 -0.25617193644E+02 -0.81248705734E+02 -0.92688889664E+02  0.12596148404E+03  0.41800000000E+01 0. -1.
         -5    1    3    3    0  502 -0.34985374442E+02  0.80379485222E+01  0.26195301109E+02  0.44634641720E+02  0.41800000000E+01 0. -1.
        -11    1    4    4    0    0  0.68028487038E+02  0.35373179532E+02  0.97445246336E+02  0.12399481002E+03  0.00000000000E+00 0.  1.
         11    1    4    4    0    0 -0.74259189522E+01  0.37837577680E+02 -0.25571153291E+01  0.38644086168E+02  0.00000000000E+00 0. -1.
</event>
<event>
 8    1  0.3710605E-009  0.1055994E+03  0.7561462E-02  0.1268943E+00
         -2   -1    0    0    0  501 -0.00000000000E+00  0.00000000000E+00  0.13067108145E+02  0.13067108145E+02  0.00000000000E+00 0.  1.
          2   -1    0    0  501    0  0.00000000000E+00 -0.00000000000E+00 -0.18632391890E+04  0.18632391890E+04  0.00000000000E+00 0. -1.
         25    2    1    2    0    0  0.21301115484E+02 -0.44655881800E+02 -0.15987178390E+04  0.16043672542E+04  0.12509065647E+03 0.  0.
         23    2    1    2    0    0 -0.21301115484E+02  0.44655881800E+02 -0.25145424182E+03  0.27193904291E+03  0.90960002341E+02 0.  0.
          5    1    3    3  502    0  0.39813127944E+02  0.23338650622E+02 -0.10641454464E+04  0.10651538768E+04  0.41800000000E+01 0.  1.
         -5    1    3    3    0  502 -0.18512012461E+02 -0.67994532421E+02 -0.53457239265E+03  0.53921337746E+03  0.41800000000E+01 0.  1.
        -11    1    4    4    0    0  0.30752077746E+02  0.13347702639E+02 -0.41360874045E+02  0.53240711426E+02  0.00000000000E+00 0.  1.
         11    1    4    4    0    0 -0.52053193229E+02  0.31308179160E+02 -0.21009336778E+03  0.21869833148E+03  0.00000000000E+00 0. -1.
</event>
<event>
 8    1  0.3710605E-009  0.1080179E+03  0.7561462E-02  0.1264285E+00
          1   -1    0    0  501    0  0.00000000000E+00  0.00000000000E+00  0.27878181063E+03  0.27878181063E+03  0.00000000000E+00 0. -1.
         -1   -1    0    0    0  501 -0.00000000000E+00 -0.00000000000E+00 -0.61824965151E+02  0.61824965151E+02  0.00000000000E+00 0.  1.
         25    2    1    2    0    0  0.55664337383E+02  0.22854683551E+02  0.17788988613E+03  0.22563799854E+03  0.12508732861E+03 0.  0.
         23    2    1    2    0    0 -0.55664337383E+02 -0.22854683551E+02  0.39066959348E+02  0.11496877724E+03  0.89837282972E+02 0.  0.
          5    1    3    3  502    0  0.38478844352E+02 -0.49252973133E+02  0.10025463391E+03  0.11821565398E+03  0.41800000000E+01 0. -1.
         -5    1    3    3    0  502  0.17185493031E+02  0.72107656684E+02  0.77635252222E+02  0.10742234456E+03  0.41800000000E+01 0. -1.
        -11    1    4    4    0    0 -0.57775224840E+02 -0.16076291333E+01 -0.12519686029E+02  0.59138004828E+02  0.00000000000E+00 0.  1.
         11    1    4    4    0    0  0.21108874573E+01 -0.21247054418E+02  0.51586645377E+02  0.55830772416E+02  0.00000000000E+00 0. -1.
</event>
<event>
 8    1  0.3710605E-009  0.1561619E+03  0.7561462E-02  0.1193099E+00
          1   -1    0    0  501    0  0.00000000000E+00  0.00000000000E+00  0.18852609700E+03  0.18852609700E+03  0.00000000000E+00 0. -1.
         -1   -1    0    0    0  501 -0.00000000000E+00 -0.00000000000E+00 -0.20018503731E+03  0.20018503731E+03  0.00000000000E+00 0.  1.
         25    2    1    2    0    0  0.10754315076E+03  0.10097667856E+03 -0.69628234325E+02  0.20556656298E+03  0.12509077468E+03 0.  0.
         23    2    1    2    0    0 -0.10754315076E+03 -0.10097667856E+03  0.57969294013E+02  0.18314457133E+03  0.91758792869E+02 0.  0.
          5    1    3    3  502    0  0.91064980365E+02  0.55437719473E+02  0.15226645673E+02  0.10777520368E+03  0.41800000000E+01 0. -1.
         -5    1    3    3    0  502  0.16478170393E+02  0.45538959092E+02 -0.84854879998E+02  0.97791359302E+02  0.41800000000E+01 0.  1.
        -11    1    4    4    0    0 -0.16322119277E+02  0.51143176816E+01 -0.17248487186E+02  0.24291523897E+02  0.00000000000E+00 0.  1.
         11    1    4    4    0    0 -0.91221031480E+02 -0.10609099625E+03  0.75217781199E+02  0.15885304743E+03  0.00000000000E+00 0. -1.
</event>
<event>
 8    1  0.3710605E-009  0.1079865E+03  0.7561462E-02  0.1264345E+00
         -2   -1    0    0    0  501 -0.00000000000E+00  0.00000000000E+00  0.31993032580E+02  0.31993032580E+02  0.00000000000E+00 0. -1.
          2   -1    0    0  501    0  0.00000000000E+00 -0.00000000000E+00 -0.55541015050E+03  0.55541015050E+03  0.00000000000E+00 0.  1.
         25    2    1    2    0    0 -0.46546945951E+02 -0.11553520444E+02 -0.41953361261E+03  0.44040472534E+03  0.12509103878E+03 0.  0.
         23    2    1    2    0    0  0.46546945951E+02  0.11553520444E+02 -0.10388350531E+03  0.14699845774E+03  0.92285762117E+02 0.  0.
          5    1    3    3  502    0 -0.89310832901E+02 -0.13541071032E+00 -0.28818931305E+03  0.30173994725E+03  0.41800000000E+01 0. -1.
         -5    1    3    3    0  502  0.42763886950E+02 -0.11418109734E+02 -0.13134429957E+03  0.13866477810E+03  0.41800000000E+01 0. -1.
        -11    1    4    4    0    0  0.24366623237E+02 -0.27778076717E+02 -0.93681882761E+02  0.10070575471E+03  0.00000000000E+00 0.  1.
         11    1    4    4    0    0  0.22180322713E+02  0.39331597161E+02 -0.10201622549E+02  0.46292703027E+02  0.00000000000E+00 0. -1.
</event>
<event>
 8    1  0.3710605E-009  0.1022895E+03  0.7561462E-02  0.1275554E+00
          2   -1    0    0  501    0  0.00000000000E+00  0.00000000000E+00  0.30054729845E+03  0.30054729845E+03  0.00000000000E+00 0. -1.
         -2   -1    0    0    0  501 -0.00000000000E+00 -0.00000000000E+00 -0.46263999671E+02  0.46263999671E+02  0.00000000000E+00 0.  1.
         25    2    1    2    0    0 -0.15225844878E+02 -0.18506587346E+02  0.81590783275E+02  0.15125779259E+03  0.12509014260E+03 0.  0.
         23    2    1    2    0    0  0.15225844878E+02  0.18506587346E+02  0.17269251550E+03  0.19555350553E+03  0.88567197586E+02 0.  0.
          5    1    3    3  502    0 -0.66863214945E+02 -0.14789718815E+01  0.67105205293E+02  0.94833843368E+02  0.41800000000E+01 0. -1.
         -5    1    3    3    0  502  0.51637370067E+02 -0.17027615464E+02  0.14485577982E+02  0.56423949218E+02  0.41800000000E+01 0. -1.
        -11    1    4    4    0    0  0.21898149564E+02 -0.28285098955E+02  0.35290386849E+02  0.50249250554E+02  0.00000000000E+00 0.  1.
         11    1    4    4    0    0 -0.66723046866E+01  0.46791686301E+02  0.13740212865E+03  0.14530425498E+03  0.00000000000E+00 0. -1.
</event>
<event>
 8    1  0.3710605E-009  0.6807433E+02  0.7561462E-02  0.1366767E+00
         -2   -1    0    0    0  501 -0.00000000000E+00  0.00000000000E+00  0.18715536008E+03  0.18715536008E+03  0.00000000000E+00 0. -1.
          2   -1    0    0  501    0  0.00000000000E+00 -0.00000000000E+00 -0.16191044706E+03  0.16191044706E+03  0.00000000000E+00 0.  1.
         25    2    1    2    0    0  0.30526696728E+02  0.22865830007E+02  0.14468864293E+03  0.19502967953E+03  0.12508815734E+03 0.  0.
         23    2    1    2    0    0 -0.30526696728E+02 -0.22865830007E+02 -0.11944372992E+03  0.15403612762E+03  0.89474010761E+02 0.  0.
          5    1    3    3  502    0  0.18482284597E+02  0.42165514098E+02 -0.22492574282E+01  0.46282361457E+02  0.41800000000E+01 0. -1.
         -5    1    3    3    0  502  0.12044412131E+02 -0.19299684091E+02  0.14693790036E+03  0.14874731807E+03  0.41800000000E+01 0. -1.
        -11    1    4    4    0    0  0.81657654969E+01 -0.26688409788E+02 -0.11072686036E+03  0.11419014208E+03  0.00000000000E+00 0.  1.
         11    1    4    4    0    0 -0.38692462225E+02  0.38225797806E+01 -0.87168695594E+01  0.39845985546E+02  0.00000000000E+00 0. -1.
</event>
<event>
 8    1  0.3710605E-009  0.1113839E+03  0.7561462E-02  0.1258028E+00
          1   -1    0    0  501    0  0.00000000000E+00  0.00000000000E+00  0.69437207000E+03  0.69437207000E+03  0.00000000000E+00 0. -1.
         -1   -1    0    0    0  501 -0.00000000000E+00 -0.00000000000E+00 -0.24029146504E+02  0.24029146504E+02  0.00000000000E+00 0.  1.
         25    2    1    2    0    0  0.40378752209E+01  0.35843101688E+02  0.53062517475E+03  0.54636242005E+03  0.12509110919E+03 0.  0.
         23    2    1    2    0    0 -0.40378752209E+01 -0.35843101688E+02  0.13971774875E+03  0.17203879645E+03  0.93676388664E+02 0.  0.
          5    1    3    3  502    0  0.42028469623E+02 -0.26181383633E+02  0.13014086847E+03  0.13930533067E+03  0.41800000000E+01 0. -1.
         -5    1    3    3    0  502 -0.37990594402E+02  0.62024485320E+02  0.40048430628E+03  0.40705708938E+03  0.41800000000E+01 0. -1.
        -11    1    4    4    0    0  0.21881791973E+02  0.25514911468E+02  0.42349893399E+02  0.54067892488E+02  0.00000000000E+00 0.  1.
         11    1    4    4    0    0 -0.25919667194E+02 -0.61358013156E+02  0.97367855352E+02  0.11797090396E+03  0.00000000000E+00 0. -1.
</event>
<event>
 8    1  0.3710605E-009  0.2138082E+03  0.7561462E-02  0.1138585E+00
          2   -1    0    0  501    0  0.00000000000E+00  0.00000000000E+00  0.26494088569E+03  0.26494088569E+03  0.00000000000E+00 0. -1.
         -2   -1    0    0    0  501 -0.00000000000E+00 -0.00000000000E+00 -0.34518858425E+03  0.34518858425E+03  0.00000000000E+00 0.  1.
         25    2    1    2    0    0 -0.20738359896E+03  0.26289252914E+02 -0.23237504382E+03  0.33667153657E+03  0.12510188091E+03 0.  0.
         23    2    1    2    0    0  0.20738359896E+03 -0.26289252914E+02  0.15212734526E+03  0.27345793336E+03  0.89092256695E+02 0.  0.
          5    1    3    3  502    0 -0.11695543309E+03  0.45467870929E+02 -0.55955063976E+02  0.13745669209E+03  0.41800000000E+01 0.  1.
         -5    1    3    3    0  502 -0.90428165874E+02 -0.19178618014E+02 -0.17641997985E+03  0.19921484448E+03  0.41800000000E+01 0.  1.
        -11    1    4    4    0    0  0.16680761771E+03 -0.26823432792E+02  0.72023264118E+02  0.18366172287E+03  0.00000000000E+00 0.  1.
         11    1    4    4    0    0  0.40575981256E+02  0.53417987776E+00  0.80104081145E+02  0.89796210494E+02  0.00000000000E+00 0. -1.
</event>
<event>
 8    1  0.3710605E-009  0.1070926E+03  0.7561462E-02  0.1266051E+00
         -2   -1    0    0    0  501 -0.00000000000E+00  0.00000000000E+00  0.84517872192E+03  0.84517872192E+03  0.00000000000E+00 0. -1.
          2   -1    0    0  501    0  0.00000000000E+00 -0.00000000000E+00 -0.28848816475E+02  0.28848816475E+02  0.00000000000E+00 0.  1.
         25    2    1    2    0    0 -0.50455765880E+02  0.54052250349E+02  0.66207489523E+03  0.67783431915E+03  0.12509503285E+03 0.  0.
         23    2    1    2    0    0  0.50455765880E+02 -0.54052250349E+02  0.15425501022E+03  0.19619321925E+03  0.96071541176E+02 0.  0.
          5    1    3    3  502    0  0.25429556163E+02 -0.19627811661E+02  0.81746946533E+02  0.87931501663E+02  0.41800000000E+01 0. -1.
         -5    1    3    3    0  502 -0.75885322043E+02  0.73680062010E+02  0.58032794870E+03  0.58990281748E+03  0.41800000000E+01 0. -1.
        -11    1    4    4    0    0  0.25005628692E+02 -0.39125695215E+02  0.81558684744E+01  0.47144667598E+02  0.00000000000E+00 0.  1.
         11    1    4    4    0    0  0.25450137188E+02 -0.14926555134E+02  0.14609914175E+03  0.14904855165E+03  0.00000000000E+00 0. -1.
</event>
<event>
 8    1  0.3710605E-009  0.8516394E+02  0.7561462E-02  0.1315004E+00
          2   -1    0    0  501    0  0.00000000000E+00  0.00000000000E+00  0.58377602879E+03  0.58377602879E+03  0.00000000000E+00 0. -1.
         -2   -1    0    0    0  501 -0.00000000000E+00 -0.00000000000E+00 -0.21421090269E+02  0.21421090269E+02  0.00000000000E+00 0.  1.
         25    2    1    2    0    0 -0.63624560379E+00  0.28121556650E+02  0.33873982658E+03  0.36219282076E+03  0.12509093709E+03 0.  0.
         23    2    1    2    0    0  0.63624560379E+00 -0.28121556650E+02  0.22361511194E+03  0.24300429830E+03  0.90863325640E+02 0.  0.
          5    1    3    3  502    0 -0.31739611296E+02  0.54709332564E+02  0.29663424882E+03  0.30333127759E+03  0.41800000000E+01 0.  1.
         -5    1    3    3    0  502  0.31103365692E+02 -0.26587775914E+02  0.42105577764E+02  0.58861543169E+02  0.41800000000E+01 0.  1.
        -11    1    4    4    0    0  0.26775805601E+02  0.84822200995E+00  0.14861708519E+02  0.30635496182E+02  0.00000000000E+00 0.  1.
         11    1    4    4    0    0 -0.26139559997E+02 -0.28969778659E+02  0.20875340342E+03  0.21236880212E+03  0.00000000000E+00 0. -1.
</event>
<event>
 8    1  0.3710605E-009  0.1099326E+03  0.7561462E-02  0.1260695E+00
          1   -1    0    0  501    0  0.00000000000E+00  0.00000000000E+00  0.21516952534E+03  0.21516952534E+03  0.00000000000E+00 0. -1.
         -1   -1    0    0    0  501 -0.00000000000E+00 -0.00000000000E+00 -0.64560623265E+02  0.64560623265E+02  0.00000000000E+00 0.  1.
         25    2    1    2    0    0 -0.37027593234E+02 -0.14546382955E+02  0.56473253589E+02  0.14289806568E+03  0.12509192174E+03 0.  0.
         23    2    1    2    0    0  0.37027593234E+02  0.14546382955E+02  0.94135648484E+02  0.13683208293E+03  0.90988233771E+02 0.  0.
          5    1    3    3  502    0 -0.58321515039E+00 -0.62310377456E+02  0.32702272059E+01  0.62538708530E+02  0.41800000000E+01 0. -1.
         -5    1    3    3    0  502 -0.36444378084E+02  0.47763994501E+02  0.53203026384E+02  0.80359357147E+02  0.41800000000E+01 0. -1.
        -11    1    4    4    0    0  0.85200269121E+01  0.50550461670E+02  0.63579373561E+02  0.81671762415E+02  0.00000000000E+00 0.  1.
         11    1    4    4    0    0  0.28507566322E+02 -0.36004078715E+02  0.30556274923E+02  0.55160320511E+02  0.00000000000E+00 0. -1.
</event>
<event>
 8    1  0.3710605E-009  0.1120248E+03  0.7561462E-02  0.1256866E+00
          2   -1    0    0  501    0  0.00000000000E+00  0.00000000000E+00  0.21859825640E+02  0.21859825640E+02  0.00000000000E+00 0. -1.
         -2   -1    0    0    0  501 -0.00000000000E+00 -0.00000000000E+00 -0.64074715028E+03  0.64074715028E+03  0.00000000000E+00 0.  1.
         25    2    1    2    0    0 -0.38130777512E+02 -0.20865229860E+02 -0.40045776039E+03  0.42178617122E+03  0.12509133611E+03 0.  0.
         23    2    1    2    0    0  0.38130777512E+02  0.20865229860E+02 -0.21842956425E+03  0.24082080470E+03  0.91618073683E+02 0.  0.
          5    1    3    3  502    0  0.35873434995E+02  0.21636949398E+02 -0.83496573256E+02  0.93510486380E+02  0.41800000000E+01 0.  1.
         -5    1    3    3    0  502 -0.74004212506E+02 -0.42502179259E+02 -0.31696118713E+03  0.32827568484E+03  0.41800000000E+01 0.  1.
        -11    1    4    4    0    0 -0.12078764390E+02 -0.25465968870E+02 -0.10204042297E+03  0.10586151349E+03  0.00000000000E+00 0.  1.
         11    1    4    4    0    0  0.50209541901E+02  0.46331198730E+02 -0.11638914129E+03  0.13495929121E+03  0.00000000000E+00 0. -1.
</event>
<event>
 8    1  0.3710605E-009  0.1132857E+03  0.7561462E-02  0.1254603E+00
          1   -1    0    0  501    0  0.00000000000E+00  0.00000000000E+00  0.42633824207E+03  0.42633824207E+03  0.00000000000E+00 0. -1.
         -1   -1    0    0    0  501 -0.00000000000E+00 -0.00000000000E+00 -0.48402400796E+02  0.48402400796E+02  0.00000000000E+00 0.  1.
         25    2    1    2    0    0 -0.41136479293E+02  0.79090149059E+02  0.15319535789E+03  0.21694744229E+03  0.12509961404E+03 0.  0.
         23    2    1    2    0    0  0.41136479293E+02 -0.79090149059E+02  0.22474048339E+03  0.25779320058E+03  0.89451594637E+02 0.  0.
          5    1    3    3  502    0 -0.50934340759E+02  0.57865949680E+02  0.17076589172E+03  0.18740660975E+03  0.41800000000E+01 0. -1.
         -5    1    3    3    0  502  0.97978614664E+01  0.21224199379E+02 -0.17570533831E+02  0.29540832549E+02  0.41800000000E+01 0. -1.
        -11    1    4    4    0    0  0.51539357522E+02 -0.61061887895E+01  0.80014508508E+02  0.95372493347E+02  0.00000000000E+00 0. -1.
         11    1    4    4    0    0 -0.10402878229E+02 -0.72983960269E+02  0.14472597488E+03  0.16242070723E+03  0.00000000000E+00 0.  1.
</event>
<event>
 8    1  0.3710605E-009  0.8062143E+02  0.7561462E-02  0.1327297E+00
         -1   -1    0    0    0  501 -0.00000000000E+00  0.00000000000E+00  0.26844837861E+02  0.26844837861E+02  0.00000000000E+00 0.  1.
          1   -1    0    0  501    0  0.00000000000E+00 -0.00000000000E+00 -0.52720533696E+03  0.52720533696E+03  0.00000000000E+00 0. -1.
         25    2    1    2    0    0  0.45442258898E+02  0.23517901063E+02 -0.27943703766E+03  0.31040330146E+03  0.12508821278E+03 0.  0.
         23    2    1    2    0    0 -0.45442258898E+02 -0.23517901063E+02 -0.22092346144E+03  0.24364687336E+03  0.89098442865E+02 0.  0.
          5    1    3    3  502    0  0.34899679192E+01  0.53048943912E+02 -0.43218915989E+02  0.68641950916E+02  0.41800000000E+01 0.  1.
         -5    1    3    3    0  502  0.41952290979E+02 -0.29531042850E+02 -0.23621812167E+03  0.24176135054E+03  0.41800000000E+01 0.  1.
        -11    1    4    4    0    0 -0.32431409740E+02 -0.27829274442E+02 -0.22525439494E+03  0.22927234306E+03  0.00000000000E+00 0. -1.
         11    1    4    4    0    0 -0.13010849159E+02  0.43113733795E+01  0.43309335040E+01  0.14374530297E+02  0.00000000000E+00 0.  1.
</event>
<event>
 8    1  0.3710605E-009  0.2967496E+03  0.7561462E-02  0.1086877E+00
         -2   -1    0    0    0  501 -0.00000000000E+00  0.00000000000E+00  0.13468672430E+03  0.13468672430E+03  0.00000000000E+00 0.  1.
          2   -1    0    0  501    0  0.00000000000E+00 -0.00000000000E+00 -0.76062913703E+03  0.76062913703E+03  0.00000000000E+00 0. -1.
         25    2    1    2    0    0 -0.78558817412E+02  0.27296687089E+03 -0.17979641999E+03  0.35868321281E+03  0.12507795215E+03 0.  0.
         23    2    1    2    0    0  0.78558817412E+02 -0.27296687089E+03 -0.44614599274E+03  0.53663264852E+03  0.90807225599E+02 0.  0.
          5    1    3    3  502    0 -0.80921043434E+02  0.72041746922E+02 -0.76621496011E+02  0.13276503539E+03  0.41800000000E+01 0.  1.
         -5    1    3    3    0  502  0.23622260227E+01  0.20092512397E+03 -0.10317492398E+03  0.22591817742E+03  0.41800000000E+01 0.  1.
        -11    1    4    4    0    0  0.60714164777E+02 -0.21842563799E+03 -0.41088596255E+03  0.46927949386E+03  0.00000000000E+00 0. -1.
         11    1    4    4    0    0  0.17844652635E+02 -0.54541232894E+02 -0.35260030192E+02  0.67353154658E+02  0.00000000000E+00 0.  1.
</event>
<event>
 8    1  0.3710605E-009  0.1726821E+03  0.7561462E-02  0.1175079E+00
          2   -1    0    0  501    0  0.00000000000E+00  0.00000000000E+00  0.20899093799E+03  0.20899093799E+03  0.00000000000E+00 0. -1.
         -2   -1    0    0    0  501 -0.00000000000E+00 -0.00000000000E+00 -0.15798736405E+03  0.15798736405E+03  0.00000000000E+00 0.  1.
         25    2    1    2    0    0 -0.86578722412E+02 -0.10350971020E+03 -0.25747630067E+02  0.18579583028E+03  0.12508802826E+03 0.  0.
         23    2    1    2    0    0  0.86578722412E+02  0.10350971020E+03  0.76751204008E+02  0.18118247176E+03  0.93414161009E+02 0.  0.
          5    1    3    3  502    0  0.25876994127E+02  0.55694638209E+01  0.95465816947E+00  0.26814576717E+02  0.41800000000E+01 0. -1.
         -5    1    3    3    0  502 -0.11245571654E+03 -0.10907917402E+03 -0.26702288236E+02  0.15898125356E+03  0.41800000000E+01 0. -1.
        -11    1    4    4    0    0  0.10471179555E+03  0.78111331493E+02  0.49331928750E+02  0.13964089454E+03  0.00000000000E+00 0.  1.
         11    1    4    4    0    0 -0.18133073135E+02  0.25398378702E+02  0.27419275257E+02  0.41541577217E+02  0.00000000000E+00 0. -1.
</event>
<event>
 8    1  0.3710605E-009  0.1701348E+03  0.7561462E-02  0.1177707E+00
          2   -1    0    0  501    0  0.00000000000E+00  0.00000000000E+00  0.16247195784E+04  0.16247195784E+04  0.00000000000E+00 0. -1.
         -2   -1    0    0    0  501 -0.00000000000E+00 -0.00000000000E+00 -0.24643771404E+02  0.24643771404E+02  0.00000000000E+00 0.  1.
         25    2    1    2    0    0  0.14323153234E+03 -0.42785810147E+02  0.11546744436E+04  0.11710108201E+04  0.12508945814E+03 0.  0.
         23    2    1    2    0    0 -0.14323153234E+03  0.42785810147E+02  0.44540136337E+03  0.47835252974E+03  0.89960384678E+02 0.  0.
          5    1    3    3  502    0  0.15796053584E+03 -0.18633321942E+02  0.83241430362E+03  0.84748438148E+03  0.41800000000E+01 0. -1.
         -5    1    3    3    0  502 -0.14729003500E+02 -0.24152488205E+02  0.32226014002E+03  0.32352643861E+03  0.41800000000E+01 0. -1.
        -11    1    4    4    0    0 -0.26142394717E+02 -0.40484665051E+01  0.16227996310E+02  0.31034863409E+02  0.00000000000E+00 0.  1.
         11    1    4    4    0    0 -0.11708913762E+03  0.46834276652E+02  0.42917336706E+03  0.44731766633E+03  0.00000000000E+00 0. -1.
</event>
<event>
 8    1  0.3710605E-009  0.8438401E+02  0.7561462E-02  0.1317051E+00
          2   -1    0    0  501    0  0.00000000000E+00  0.00000000000E+00  0.27536578880E+03  0.27536578880E+03  0.00000000000E+00 0. -1.
         -2   -1    0    0    0  501 -0.00000000000E+00 -0.00000000000E+00 -0.44455024623E+02  0.44455024623E+02  0.00000000000E+00 0.  1.
         25    2    1    2    0    0 -0.10090684157E+02  0.21131221111E+02  0.13939463647E+03  0.18875007718E+03  0.12508947416E+03 0.  0.
         23    2    1    2    0    0  0.10090684157E+02 -0.21131221111E+02  0.91516127710E+02  0.13107073625E+03  0.90862455711E+02 0.  0.
          5    1    3    3  502    0 -0.50346590514E+02  0.30164595648E+01  0.13502000809E+03  0.14419345751E+03  0.41800000000E+01 0.  1.
         -5    1    3    3    0  502  0.40255906357E+02  0.18114761546E+02  0.43746283827E+01  0.44556619665E+02  0.41800000000E+01 0.  1.
        -11    1    4    4    0    0 -0.28765577269E+02 -0.19830960896E+02  0.38249467675E+01  0.35147626711E+02  0.00000000000E+00 0.  1.
         11    1    4    4    0    0  0.38856261426E+02 -0.13002602151E+01  0.87691180943E+02  0.95923109539E+02  0.00000000000E+00 0. -1.
</event>
<event>
 8    1  0.3710605E-009  0.2671753E+03  0.7561462E-02  0.1102907E+00
         -2   -1    0    0    0  501 -0.00000000000E+00  0.00000000000E+00  0.22307865849E+02  0.22307865849E+02  0.00000000000E+00 0.  1.
          2   -1    0    0  501    0  0.00000000000E+00 -0.00000000000E+00 -0.36920926357E+04  0.36920926357E+04  0.00000000000E+00 0. -1.
         25    2    1    2    0    0  0.18974433916E+03 -0.15985556282E+03 -0.25037135479E+04  0.25190845506E+04  0.12509487479E+03 0.  0.
         23    2    1    2    0    0 -0.18974433916E+03  0.15985556282E+03 -0.11660712219E+04  0.11953159509E+04  0.86610696960E+02 0.  0.
          5    1    3    3  502    0  0.11881011484E+03 -0.19425464079E+02 -0.10982071158E+04  0.11047938874E+04  0.41800000000E+01 0. -1.
         -5    1    3    3    0  502  0.70934224320E+02 -0.14043009875E+03 -0.14055064321E+04  0.14142906632E+04  0.41800000000E+01 0. -1.
        -11    1    4    4    0    0 -0.61727643105E+02  0.94231537539E+02 -0.64444069435E+03  0.65421226917E+03  0.00000000000E+00 0.  1.
         11    1    4    4    0    0 -0.12801669605E+03  0.65624025286E+02 -0.52163052752E+03  0.54110368175E+03  0.00000000000E+00 0. -1.
</event>
<event>
 8    1  0.3710605E-009  0.1052077E+03  0.7561462E-02  0.1269711E+00
          2   -1    0    0  501    0  0.00000000000E+00  0.00000000000E+00  0.86240890156E+02  0.86240890156E+02  0.00000000000E+00 0. -1.
         -2   -1    0    0    0  501 -0.00000000000E+00 -0.00000000000E+00 -0.19685360538E+03  0.19685360538E+03  0.00000000000E+00 0.  1.
         25    2    1    2    0    0  0.67389155347E+02 -0.73323751317E+01 -0.38594162998E+02  0.14742007233E+03  0.12509239115E+03 0.  0.
         23    2    1    2    0    0 -0.67389155347E+02  0.73323751317E+01 -0.72018552223E+02  0.13567442321E+03  0.92875267238E+02 0.  0.
          5    1    3    3  502    0  0.10013963052E+03 -0.23687183277E+02 -0.16065419994E+02  0.10423338416E+03  0.41800000000E+01 0.  1.
         -5    1    3    3    0  502 -0.32750475176E+02  0.16354808146E+02 -0.22528743005E+02  0.43186688170E+02  0.41800000000E+01 0.  1.
        -11    1    4    4    0    0 -0.12207119057E+02  0.93300524332E+01 -0.78579812289E+02  0.80067787115E+02  0.00000000000E+00 0.  1.
         11    1    4    4    0    0 -0.55182036290E+02 -0.19976773016E+01  0.65612600665E+01  0.55606636091E+02  0.00000000000E+00 0. -1.
</event>
<event>
 8    1  0.3710605E-009  0.1142198E+03  0.7561462E-02  0.1252949E+00
         -2   -1    0    0    0  501 -0.00000000000E+00  0.00000000000E+00  0.45459254650E+02  0.45459254650E+02  0.00000000000E+00 0.  1.
          2   -1    0    0  501    0  0.00000000000E+00 -0.00000000000E+00 -0.32626339169E+03  0.32626339169E+03  0.00000000000E+00 0. -1.
         25    2    1    2    0    0  0.50048766417E+02  0.16007351187E+02 -0.18141953332E+03  0.22654327770E+03  0.12509074821E+03 0.  0.
         23    2    1    2    0    0 -0.50048766417E+02 -0.16007351187E+02 -0.99384603723E+02  0.14517936865E+03  0.91862045000E+02 0.  0.
          5    1    3    3  502    0 -0.19959749298E+02 -0.35711094258E+02 -0.96370386145E+02  0.10477784867E+03  0.41800000000E+01 0.  1.
         -5    1    3    3    0  502  0.70008515715E+02  0.51718445444E+02 -0.85049147175E+02  0.12176542903E+03  0.41800000000E+01 0.  1.
        -11    1    4    4    0    0 -0.15178085892E+01 -0.44082738430E+02 -0.21119603818E+02  0.48904286477E+02  0.00000000000E+00 0.  1.
         11    1    4    4    0    0 -0.48530957828E+02  0.28075387244E+02 -0.78264999905E+02  0.96275082170E+02  0.00000000000E+00 0. -1.
</event>
<event>
 8    1  0.3710605E-009  0.1309660E+03  0.7561462E-02  0.1226029E+00
         -2   -1    0    0    0  501 -0.00000000000E+00  0.00000000000E+00  0.40202492509E+03  0.40202492509E+03  0.00000000000E+00 0.  1.
          2   -1    0    0  501    0  0.00000000000E+00 -0.00000000000E+00 -0.45371670644E+02  0.45371670644E+02  0.00000000000E+00 0. -1.
         25    2    1    2    0    0  0.50887857417E+02 -0.57069657440E+02  0.24978031257E+03  0.28962770363E+03  0.12508989697E+03 0.  0.
         23    2    1    2    0    0 -0.50887857417E+02  0.57069657440E+02  0.10687294187E+03  0.15776889211E+03  0.87307947976E+02 0.  0.
          5    1    3    3  502    0  0.86518915942E+01 -0.91369215404E+02  0.14997019800E+03  0.17587416365E+03  0.41800000000E+01 0.  1.
         -5    1    3    3    0  502  0.42235965823E+02  0.34299557964E+02  0.99810114574E+02  0.11375353997E+03  0.41800000000E+01 0.  1.
        -11    1    4    4    0    0  0.24028495926E+02  0.58277797627E+01  0.29584222183E+02  0.38555905327E+02  0.00000000000E+00 0. -1.
         11    1    4    4    0    0 -0.74916353343E+02  0.51241877677E+02  0.77288719686E+02  0.11921298678E+03  0.00000000000E+00 0.  1.
</event>
<event>
 8    1  0.3710605E-009  0.1034337E+03  0.7561462E-02  0.1273237E+00
         -2   -1    0    0    0  501 -0.00000000000E+00  0.00000000000E+00  0.26106439763E+02  0.26106439763E+02  0.00000000000E+00 0.  1.
          2   -1    0    0  501    0  0.00000000000E+00 -0.00000000000E+00 -0.59611563018E+03  0.59611563018E+03  0.00000000000E+00 0. -1.
         25    2    1    2    0    0 -0.17138927811E+02  0.52062853102E+02 -0.25426651908E+03  0.28862341286E+03  0.12509087978E+03 0.  0.
         23    2    1    2    0    0  0.17138927811E+02 -0.52062853102E+02 -0.31574267133E+03  0.33359865708E+03  0.92684119386E+02 0.  0.
          5    1    3    3  502    0 -0.18061272549E+02 -0.26688631883E+02 -0.17050952425E+03  0.17357840562E+03  0.41800000000E+01 0. -1.
         -5    1    3    3    0  502  0.92234473849E+00  0.78751484986E+02 -0.83756994828E+02  0.11504500724E+03  0.41800000000E+01 0. -1.
        -11    1    4    4    0    0 -0.29182531672E+02 -0.52571645287E+01 -0.38239895354E+02  0.48389539472E+02  0.00000000000E+00 0.  1.
         11    1    4    4    0    0  0.46321459482E+02 -0.46805688574E+02 -0.27750277598E+03  0.28520911761E+03  0.00000000000E+00 0. -1.
</event>
<event>
 8    1  0.3710605E-009  0.1429227E+03  0.7561462E-02  0.1209450E+00
          1   -1    0    0  501    0  0.00000000000E+00  0.00000000000E+00  0.51911159612E+03  0.51911159612E+03  0.00000000000E+00 0. -1.
         -1   -1    0    0    0  501 -0.00000000000E+00 -0.00000000000E+00 -0.46101204759E+02  0.46101204759E+02  0.00000000000E+00 0.  1.
         25    2    1    2    0    0 -0.10831317255E+03  0.11628370051E+02  0.27972237203E+03  0.32520619878E+03  0.12508998350E+03 0.  0.
         23    2    1    2    0    0  0.10831317255E+03 -0.11628370051E+02  0.19328801933E+03  0.24000660210E+03  0.91520207039E+02 0.  0.
          5    1    3    3  502    0 -0.32772057726E+02 -0.53557770864E+02  0.13970686158E+03  0.15322507027E+03  0.41800000000E+01 0. -1.
         -5    1    3    3    0  502 -0.75541114824E+02  0.65186140915E+02  0.14001551046E+03  0.17198112851E+03  0.41800000000E+01 0. -1.
        -11    1    4    4    0    0  0.57996714613E+02 -0.34821354137E+02  0.16385385382E+03  0.17726881006E+03  0.00000000000E+00 0. -1.
         11    1    4    4    0    0  0.50316457936E+02  0.23192984086E+02  0.29434165510E+02  0.62737792034E+02  0.00000000000E+00 0.  1.
</event>
<event>
 8    1  0.3710605E-009  0.1016413E+03  0.7561462E-02  0.1276882E+00
         -1   -1    0    0    0  501 -0.00000000000E+00  0.00000000000E+00  0.34928433280E+03  0.34928433280E+03  0.00000000000E+00 0.  1.
          1   -1    0    0  501    0  0.00000000000E+00 -0.00000000000E+00 -0.40686035861E+02  0.40686035861E+02  0.00000000000E+00 0. -1.
         25    2    1    2    0    0 -0.44334893778E+02  0.12508359938E+02  0.19804691457E+03  0.23873192146E+03  0.12509319756E+03 0.  0.
         23    2    1    2    0    0  0.44334893778E+02 -0.12508359938E+02  0.11055138237E+03  0.15123844721E+03  0.92354847704E+02 0.  0.
          5    1    3    3  502    0 -0.22674649507E+02 -0.41517715574E+02  0.20293716815E+02  0.51644629720E+02  0.41800000000E+01 0. -1.
         -5    1    3    3    0  502 -0.21660244271E+02  0.54026075512E+02  0.17775319776E+03  0.18708729174E+03  0.41800000000E+01 0. -1.
        -11    1    4    4    0    0  0.70445901943E+02 -0.10802672580E+02  0.10050494754E+03  0.12320944491E+03  0.00000000000E+00 0.  1.
         11    1    4    4    0    0 -0.26111008165E+02 -0.17056873576E+01  0.10046434829E+02  0.28029002293E+02  0.00000000000E+00 0. -1.
</event>
<event>
 8    1  0.3710605E-009  0.1618643E+03  0.7561462E-02  0.1186608E+00
          3   -1    0    0  501    0  0.00000000000E+00  0.00000000000E+00  0.35218090843E+02  0.35218090843E+02  0.00000000000E+00 0. -1.
         -3   -1    0    0    0  501 -0.00000000000E+00 -0.00000000000E+00 -0.88644198181E+03  0.88644198181E+03  0.00000000000E+00 0.  1.
         25    2    1    2    0    0 -0.84395801781E+02 -0.10575438943E+03 -0.53137385346E+03  0.56241822270E+03  0.12509773317E+03 0.  0.
         23    2    1    2    0    0  0.84395801781E+02  0.10575438943E+03 -0.31985003752E+03  0.35924184996E+03  0.91891338109E+02 0.  0.
          5    1    3    3  502    0 -0.26574181207E+02 -0.10455618260E+03 -0.21290484416E+03  0.23871348410E+03  0.41800000000E+01 0.  1.
         -5    1    3    3    0  502 -0.57821620574E+02 -0.11982068298E+01 -0.31846900930E+03  0.32370473859E+03  0.41800000000E+01 0.  1.
        -11    1    4    4    0    0  0.60980164222E+02  0.11690022897E+03 -0.29587986369E+03  0.32392767357E+03  0.00000000000E+00 0.  1.
         11    1    4    4    0    0  0.23415637559E+02 -0.11145839536E+02 -0.23970173823E+02  0.35314176393E+02  0.00000000000E+00 0. -1.
</event>
<event>
 8    1  0.3710605E-009  0.1054306E+03  0.7561462E-02  0.1269274E+00
          1   -1    0    0  501    0  0.00000000000E+00  0.00000000000E+00  0.90419529078E+02  0.90419529078E+02  0.00000000000E+00 0. -1.
         -1   -1    0    0    0  501 -0.00000000000E+00 -0.00000000000E+00 -0.20820122305E+03  0.20820122305E+03  0.00000000000E+00 0.  1.
         25    2    1    2    0    0 -0.27312373839E+02  0.71503829142E+02 -0.97554604956E+02  0.17613506586E+03  0.12509155500E+03 0.  0.
         23    2    1    2    0    0  0.27312373839E+02 -0.71503829142E+02 -0.20227089011E+02  0.12248568626E+03  0.93460391941E+02 0.  0.
          5    1    3    3  502    0  0.35758907722E+02  0.21347963101E+01 -0.69304263754E+02  0.78126885330E+02  0.41800000000E+01 0.  1.
         -5    1    3    3    0  502 -0.63071281561E+02  0.69369032832E+02 -0.28250341202E+02  0.98008180535E+02  0.41800000000E+01 0.  1.
        -11    1    4    4    0    0  0.24269917813E+02 -0.26863518482E+02 -0.54981118464E+02  0.65830091322E+02  0.00000000000E+00 0.  1.
         11    1    4    4    0    0  0.30424560255E+01 -0.44640310660E+02  0.34754029453E+02  0.56655594937E+02  0.00000000000E+00 0. -1.
</event>
<event>
 8    1  0.3710605E-009  0.1041285E+03  0.7561462E-02  0.1271846E+00
         -1   -1    0    0    0  501 -0.00000000000E+00  0.00000000000E+00  0.47755440524E+02  0.47755440524E+02  0.00000000000E+00 0.  1.
          1   -1    0    0  501    0  0.00000000000E+00 -0.00000000000E+00 -0.29007207651E+03  0.29007207651E+03  0.00000000000E+00 0. -1.
         25    2    1    2    0    0  0.43625636195E+02  0.12557509321E+02 -0.16093861681E+03  0.20882550292E+03  0.12508383234E+03 0.  0.
         23    2    1    2    0    0 -0.43625636195E+02 -0.12557509321E+02 -0.81378019176E+02  0.12900201412E+03  0.89209026831E+02 0.  0.
          5    1    3    3  502    0  0.49098784218E+02  0.58494042219E+02 -0.13618281647E+03  0.15619051023E+03  0.41800000000E+01 0. -1.
         -5    1    3    3    0  502 -0.54731480220E+01 -0.45936532898E+02 -0.24755800347E+02  0.52634992684E+02  0.41800000000E+01 0. -1.
        -11    1    4    4    0    0 -0.63999132187E+02 -0.10353854109E+02 -0.25817313616E+02  0.69782697697E+02  0.00000000000E+00 0.  1.
         11    1    4    4    0    0  0.20373495991E+02 -0.22036552120E+01 -0.55560705560E+02  0.59219316422E+02  0.00000000000E+00 0. -1.
</event>
<event>
 8    1  0.3710605E-009  0.2659559E+03  0.7561462E-02  0.1103617E+00
         -3   -1    0    0    0  501 -0.00000000000E+00  0.00000000000E+00  0.57891296306E+02  0.57891296306E+02  0.00000000000E+00 0.  1.
          3   -1    0    0  501    0  0.00000000000E+00 -0.00000000000E+00 -0.13999926695E+04  0.13999926695E+04  0.00000000000E+00 0. -1.
         25    2    1    2    0    0 -0.11938616904E+03 -0.21208163114E+03 -0.43027144726E+03  0.50991409072E+03  0.12508871238E+03 0.  0.
         23    2    1    2    0    0  0.11938616904E+03  0.21208163114E+03 -0.91182992595E+03  0.94796987511E+03  0.89338651307E+02 0.  0.
          5    1    3    3  502    0 -0.87898463212E+02 -0.22281393556E+03 -0.38743139779E+03  0.45551372110E+03  0.41800000000E+01 0.  1.
         -5    1    3    3    0  502 -0.31487705826E+02  0.10732304424E+02 -0.42840049468E+02  0.54400369621E+02  0.41800000000E+01 0.  1.
        -11    1    4    4    0    0  0.11497346210E+03  0.11840326991E+03 -0.60733046639E+03  0.62935564407E+03  0.00000000000E+00 0.  1.
         11    1    4    4    0    0  0.44127069340E+01  0.93678361231E+02 -0.30449945956E+03  0.31861423104E+03  0.00000000000E+00 0. -1.
</event>
<event>
 8    1  0.3710605E-009  0.8920524E+02  0.7561462E-02  0.1304788E+00
          1   -1    0    0  501    0  0.00000000000E+00  0.00000000000E+00  0.10174697749E+03  0.10174697749E+03  0.00000000000E+00 0. -1.
         -1   -1    0    0    0  501 -0.00000000000E+00 -0.00000000000E+00 -0.14788810791E+03  0.14788810791E+03  0.00000000000E+00 0.  1.
         25    2    1    2    0    0 -0.39910039873E+02  0.39985667077E+02 -0.37028077332E+02  0.14216561010E+03  0.12509323455E+03 0.  0.
         23    2    1    2    0    0  0.39910039873E+02 -0.39985667077E+02 -0.91130530884E+01  0.10746947530E+03  0.90966892492E+02 0.  0.
          5    1    3    3  502    0  0.70430818339E+01 -0.59582564816E+01  0.39757575650E+02  0.41027345072E+02  0.41800000000E+01 0. -1.
         -5    1    3    3    0  502 -0.46953121707E+02  0.45943923558E+02 -0.76785652982E+02  0.10113826503E+03  0.41800000000E+01 0. -1.
        -11    1    4    4    0    0  0.21152219671E+01 -0.59763298424E+02 -0.20674435547E+02  0.63273677684E+02  0.00000000000E+00 0.  1.
         11    1    4    4    0    0  0.37794817906E+02  0.19777631347E+02  0.11561382459E+02  0.44195797612E+02  0.00000000000E+00 0. -1.
</event>
<event>
 8    1  0.3710605E-009  0.1518102E+03  0.7561462E-02  0.1198266E+00
          2   -1    0    0  501    0  0.00000000000E+00  0.00000000000E+00  0.15546113823E+04  0.15546113823E+04  0.00000000000E+00 0. -1.
         -2   -1    0    0    0  501 -0.00000000000E+00 -0.00000000000E+00 -0.18205320810E+02  0.18205320810E+02  0.00000000000E+00 0.  1.
         25    2    1    2    0    0  0.11824836884E+03 -0.44088820208E+01  0.10300485130E+04  0.10443417153E+04  0.12509022420E+03 0.  0.
         23    2    1    2    0    0 -0.11824836884E+03  0.44088820208E+01  0.50635754846E+03  0.52847498779E+03  0.94264154703E+02 0.  0.
          5    1    3    3  502    0  0.10514116412E+03  0.41727896531E+02  0.86624378625E+03  0.87360840848E+03  0.41800000000E+01 0.  1.
         -5    1    3    3    0  502  0.13107204716E+02 -0.46136778552E+02  0.16380472675E+03  0.17073330682E+03  0.41800000000E+01 0.  1.
        -11    1    4    4    0    0 -0.84497077218E+01  0.28622051544E+02  0.47939838099E+02  0.56469881106E+02  0.00000000000E+00 0.  1.
         11    1    4    4    0    0 -0.10979866112E+03 -0.24213169523E+02  0.45841771037E+03  0.47200510669E+03  0.00000000000E+00 0. -1.
</event>
<event>
 8    1  0.3710605E-009  0.1108615E+03  0.7561462E-02  0.1258983E+00
         -1   -1    0    0    0  501 -0.00000000000E+00  0.00000000000E+00  0.18918534445E+02  0.18918534445E+02  0.00000000000E+00 0.  1.
          1   -1    0    0  501    0  0.00000000000E+00 -0.00000000000E+00 -0.71217292483E+03  0.71217292483E+03  0.00000000000E+00 0. -1.
         25    2    1    2    0    0  0.14385486936E+02  0.37107411719E+02 -0.33403558025E+03  0.35890270582E+03  0.12508989222E+03 0.  0.
         23    2    1    2    0    0 -0.14385486936E+02 -0.37107411719E+02 -0.35921881013E+03  0.37218875345E+03  0.88895513967E+02 0.  0.
          5    1    3    3  502    0  0.31918364595E+01 -0.44191235184E+02 -0.16584354057E+03  0.17171081922E+03  0.41800000000E+01 0. -1.
         -5    1    3    3    0  502  0.11193650476E+02  0.81298646904E+02 -0.16819203968E+03  0.18719188661E+03  0.41800000000E+01 0. -1.
        -11    1    4    4    0    0  0.28582006517E+02 -0.43047002091E+02 -0.15405505690E+03  0.16248980289E+03  0.00000000000E+00 0.  1.
         11    1    4    4    0    0 -0.42967493453E+02  0.59395903719E+01 -0.20516375323E+03  0.20969895056E+03  0.00000000000E+00 0. -1.
</event>
<event>
 8    1  0.3710605E-009  0.1514748E+03  0.7561462E-02  0.1198672E+00
         -2   -1    0    0    0  501 -0.00000000000E+00  0.00000000000E+00  0.16744671588E+02  0.16744671588E+02  0.00000000000E+00 0.  1.
          2   -1    0    0  501    0  0.00000000000E+00 -0.00000000000E+00 -0.19241700040E+04  0.19241700040E+04  0.00000000000E+00 0. -1.
         25    2    1    2    0    0 -0.12093488427E+03  0.52721674303E+02 -0.12675619368E+04  0.12805321287E+04  0.12507776693E+03 0.  0.
         23    2    1    2    0    0  0.12093488427E+03 -0.52721674303E+02 -0.63986339553E+03  0.66038254683E+03  0.96307435033E+02 0.  0.
          5    1    3    3  502    0 -0.13041968698E+03  0.28230966869E+02 -0.71669529737E+03  0.72902393919E+03  0.41800000000E+01 0.  1.
         -5    1    3    3    0  502  0.94848027178E+01  0.24490707434E+02 -0.55086663947E+03  0.55150818953E+03  0.41800000000E+01 0.  1.
        -11    1    4    4    0    0  0.39696371465E+02  0.91456075820E+01 -0.66410139698E+02  0.77908604790E+02  0.00000000000E+00 0. -1.
         11    1    4    4    0    0  0.81238512802E+02 -0.61867281885E+02 -0.57345325583E+03  0.58247394204E+03  0.00000000000E+00 0.  1.
</event>
<event>
 8    1  0.3710605E-009  0.9117825E+02  0.7561462E-02  0.1300023E+00
         -4   -1    0    0    0  501 -0.00000000000E+00  0.00000000000E+00  0.15494040621E+03  0.15494040621E+03  0.00000000000E+00 0. -1.
          4   -1    0    0  501    0  0.00000000000E+00 -0.00000000000E+00 -0.86225464416E+02  0.86225464416E+02  0.00000000000E+00 0.  1.
         25    2    1    2    0    0 -0.36010926751E+02  0.25496859624E+02  0.19745650841E+02  0.13410337093E+03  0.12508775589E+03 0.  0.
         23    2    1    2    0    0  0.36010926751E+02 -0.25496859624E+02  0.48969290953E+02  0.10706249969E+03  0.84365340560E+02 0.  0.
          5    1    3    3  502    0 -0.21553076754E+02  0.69065819664E+02 -0.17831002068E+02  0.74632697915E+02  0.41800000000E+01 0. -1.
         -5    1    3    3    0  502 -0.14457849997E+02 -0.43568960040E+02  0.37576652910E+02  0.59470673019E+02  0.41800000000E+01 0. -1.
        -11    1    4    4    0    0  0.18775644861E+02 -0.38075315957E+02 -0.10626028644E+02  0.43762621150E+02  0.00000000000E+00 0.  1.
         11    1    4    4    0    0  0.17235281890E+02  0.12578456333E+02  0.59595319597E+02  0.63299878542E+02  0.00000000000E+00 0. -1.
</event>
<event>
 8    1  0.3710605E-009  0.1797981E+03  0.7561462E-02  0.1167999E+00
          2   -1    0    0  501    0  0.00000000000E+00  0.00000000000E+00  0.75301822971E+03  0.75301822971E+03  0.00000000000E+00 0. -1.
         -2   -1    0    0    0  501 -0.00000000000E+00 -0.00000000000E+00 -0.59119273927E+02  0.59119273927E+02  0.00000000000E+00 0.  1.
         25    2    1    2    0    0  0.89022168069E+02  0.15416291863E+03  0.40758157012E+03  0.46201792125E+03  0.12508665544E+03 0.  0.
         23    2    1    2    0    0 -0.89022168069E+02 -0.15416291863E+03  0.28631738567E+03  0.35011958239E+03  0.94418879196E+02 0.  0.
          5    1    3    3  502    0  0.49241462342E+02  0.52045202320E+02  0.29971949774E+03  0.30819259307E+03  0.41800000000E+01 0. -1.
         -5    1    3    3    0  502  0.39780705726E+02  0.10211771631E+03  0.10786207238E+03  0.15382532818E+03  0.41800000000E+01 0. -1.
        -11    1    4    4    0    0 -0.30451307279E+02 -0.59421824953E+02  0.19491255062E+03  0.20603188536E+03  0.00000000000E+00 0.  1.
         11    1    4    4    0    0 -0.58570860789E+02 -0.94741093676E+02  0.91404835042E+02  0.14408769702E+03  0.00000000000E+00 0. -1.
</event>
<event>
 8    1  0.3710605E-009  0.1066165E+03  0.7561462E-02  0.1266967E+00
         -2   -1    0    0    0  501 -0.00000000000E+00  0.00000000000E+00  0.29846880687E+02  0.29846880687E+02  0.00000000000E+00 0.  1.
          2   -1    0    0  501    0  0.00000000000E+00 -0.00000000000E+00 -0.55532384026E+03  0.55532384026E+03  0.00000000000E+00 0. -1.
         25    2    1    2    0    0  0.63862476394E+01  0.67841083740E+02 -0.26624573636E+03  0.30195733518E+03  0.12509293880E+03 0.  0.
         23    2    1    2    0    0 -0.63862476394E+01 -0.67841083740E+02 -0.25923122321E+03  0.28321338577E+03  0.91464736299E+02 0.  0.
          5    1    3    3  502    0 -0.38582882110E+02  0.34686605643E+02 -0.31990599123E+02  0.61095582780E+02  0.41800000000E+01 0. -1.
         -5    1    3    3    0  502  0.44969129749E+02  0.33154478097E+02 -0.23425513724E+03  0.24086175240E+03  0.41800000000E+01 0. -1.
        -11    1    4    4    0    0  0.36340992392E+02 -0.40576499899E+02 -0.18839343458E+03  0.19611018909E+03  0.00000000000E+00 0. -1.
         11    1    4    4    0    0 -0.42727240032E+02 -0.27264583841E+02 -0.70837788637E+02  0.87103196680E+02  0.00000000000E+00 0.  1.
</event>
<event>
 8    1  0.3710605E-009  0.1596531E+03  0.7561462E-02  0.1189089E+00
          2   -1    0    0  501    0  0.00000000000E+00  0.00000000000E+00  0.28685468405E+03  0.28685468405E+03  0.00000000000E+00 0. -1.
         -2   -1    0    0    0  501 -0.00000000000E+00 -0.00000000000E+00 -0.95322392228E+02  0.95322392228E+02  0.00000000000E+00 0.  1.
         25    2    1    2    0    0  0.39092298653E+02 -0.11714211666E+03  0.11261317494E+03  0.20875896236E+03  0.12509234144E+03 0.  0.
         23    2    1    2    0    0 -0.39092298653E+02  0.11714211666E+03  0.78919116885E+02  0.17341811392E+03  0.92709934283E+02 0.  0.
          5    1    3    3  502    0 -0.30141771564E+02 -0.88037255169E+02  0.31971792938E+02  0.98482245275E+02  0.41800000000E+01 0. -1.
         -5    1    3    3    0  502  0.69234070217E+02 -0.29104861490E+02  0.80641381997E+02  0.11027671709E+03  0.41800000000E+01 0. -1.
        -11    1    4    4    0    0  0.64080409180E+01 -0.12225499957E+02 -0.23622765926E+01  0.14003791926E+02  0.00000000000E+00 0.  1.
         11    1    4    4    0    0 -0.45500339571E+02  0.12936761662E+03  0.81281393477E+02  0.15941432199E+03  0.00000000000E+00 0. -1.
</event>
<event>
 8    1  0.3710605E-009  0.1370841E+03  0.7561462E-02  0.1217307E+00
         -3   -1    0    0    0  501 -0.00000000000E+00  0.00000000000E+00  0.30945815768E+03  0.30945815768E+03  0.00000000000E+00 0.  1.
          3   -1    0    0  501    0  0.00000000000E+00 -0.00000000000E+00 -0.78326642392E+02  0.78326642392E+02  0.00000000000E+00 0. -1.
         25    2    1    2    0    0  0.94386520211E+02  0.50338719634E+02  0.88285297374E+02  0.18677610111E+03  0.12509283082E+03 0.  0.
         23    2    1    2    0    0 -0.94386520211E+02 -0.50338719634E+02  0.14284621791E+03  0.20100869896E+03  0.92502179399E+02 0.  0.
          5    1    3    3  502    0  0.25886612612E+02 -0.42018836198E+02  0.26376093552E+02  0.56114793228E+02  0.41800000000E+01 0. -1.
         -5    1    3    3    0  502  0.68499907599E+02  0.92357555831E+02  0.61909203822E+02  0.13066130788E+03  0.41800000000E+01 0. -1.
        -11    1    4    4    0    0 -0.50266191480E+02 -0.13370010571E+02  0.57646433048E+01  0.52332382910E+02  0.00000000000E+00 0. -1.
         11    1    4    4    0    0 -0.44120328731E+02 -0.36968709062E+02  0.13708157461E+03  0.14867631605E+03  0.00000000000E+00 0.  1.
</event>
<event>
 8    1  0.3710605E-009  0.2326576E+03  0.7561462E-02  0.1124783E+00
         -1   -1    0    0    0  501 -0.00000000000E+00  0.00000000000E+00  0.61481809078E+02  0.61481809078E+02  0.00000000000E+00 0.  1.
          1   -1    0    0  501    0  0.00000000000E+00 -0.00000000000E+00 -0.10866169489E+04  0.10866169489E+04  0.00000000000E+00 0. -1.
         25    2    1    2    0    0 -0.20837589320E+03  0.84919890721E+02 -0.67537881225E+03  0.72278181578E+03  0.12508042406E+03 0.  0.
         23    2    1    2    0    0  0.20837589320E+03 -0.84919890721E+02 -0.34975632756E+03  0.42531694219E+03  0.89068018563E+02 0.  0.
          5    1    3    3  502    0 -0.34240911493E+02  0.39684576422E+02 -0.52019917992E+02  0.73965193798E+02  0.41800000000E+01 0.  1.
         -5    1    3    3    0  502 -0.17413498171E+03  0.45235314299E+02 -0.62335889426E+03  0.64881662199E+03  0.41800000000E+01 0.  1.
        -11    1    4    4    0    0  0.14367508012E+03 -0.87133923570E+02 -0.29928327051E+03  0.34322780379E+03  0.00000000000E+00 0. -1.
         11    1    4    4    0    0  0.64700813079E+02  0.22140328483E+01 -0.50473057052E+02  0.82089138397E+02  0.00000000000E+00 0.  1.
</event>
<event>
 8    1  0.3710605E-009  0.1086253E+03  0.7561462E-02  0.1263137E+00
         -2   -1    0    0    0  501 -0.00000000000E+00  0.00000000000E+00  0.27465360775E+02  0.27465360775E+02  0.00000000000E+00 0.  1.
          2   -1    0    0  501    0  0.00000000000E+00 -0.00000000000E+00 -0.52054203392E+03  0.52054203392E+03  0.00000000000E+00 0. -1.
         25    2    1    2    0    0  0.92354153516E+01  0.50207059103E+02 -0.27848646207E+03  0.30952835556E+03  0.12508817553E+03 0.  0.
         23    2    1    2    0    0 -0.92354153516E+01 -0.50207059103E+02 -0.21459021107E+03  0.23847903913E+03  0.90649058117E+02 0.  0.
          5    1    3    3  502    0 -0.54265602653E+02  0.37996476046E+02 -0.10378084303E+03  0.12319262804E+03  0.41800000000E+01 0. -1.
         -5    1    3    3    0  502  0.63501018004E+02  0.12210583057E+02 -0.17470561903E+03  0.18633572751E+03  0.41800000000E+01 0. -1.
        -11    1    4    4    0    0  0.26790592208E+01 -0.66131435778E+02 -0.20677691749E+03  0.21711111847E+03  0.00000000000E+00 0.  1.
         11    1    4    4    0    0 -0.11914474572E+02  0.15924376675E+02 -0.78132935786E+01  0.21367920661E+02  0.00000000000E+00 0. -1.
</event>
<event>
 8    1  0.3710605E-009  0.8486505E+02  0.7561462E-02  0.1315786E+00
          2   -1    0    0  501    0  0.00000000000E+00  0.00000000000E+00  0.28514211933E+03  0.28514211933E+03  0.00000000000E+00 0. -1.
         -2   -1    0    0    0  501 -0.00000000000E+00 -0.00000000000E+00 -0.50222119321E+02  0.50222119321E+02  0.00000000000E+00 0.  1.
         25    2    1    2    0    0  0.65671270367E+01  0.51671311298E+02  0.10175102143E+03  0.16944919827E+03  0.12508680532E+03 0.  0.
         23    2    1    2    0    0 -0.65671270367E+01 -0.51671311298E+02  0.13316897859E+03  0.16591504038E+03  0.84147324373E+02 0.  0.
          5    1    3    3  502    0  0.26944117634E+02  0.25069679069E+02  0.12373158234E+03  0.12915669225E+03  0.41800000000E+01 0. -1.
         -5    1    3    3    0  502 -0.20376990597E+02  0.26601632229E+02 -0.21980560919E+02  0.40292506020E+02  0.41800000000E+01 0. -1.
        -11    1    4    4    0    0  0.38815960463E+02 -0.20845378718E+02  0.56905943643E+02  0.71968708634E+02  0.00000000000E+00 0. -1.
         11    1    4    4    0    0 -0.45383087500E+02 -0.30825932580E+02  0.76263034944E+02  0.93946331750E+02  0.00000000000E+00 0.  1.
</event>
<event>
 8    1  0.3710605E-009  0.1198479E+03  0.7561462E-02  0.1243348E+00
          3   -1    0    0  501    0  0.00000000000E+00  0.00000000000E+00  0.20299753653E+03  0.20299753653E+03  0.00000000000E+00 0. -1.
         -3   -1    0    0    0  501 -0.00000000000E+00 -0.00000000000E+00 -0.98118849513E+02  0.98118849513E+02  0.00000000000E+00 0.  1.
         25    2    1    2    0    0  0.84671788229E+02  0.21035966941E+01  0.26938103285E+02  0.15344943345E+03  0.12508928961E+03 0.  0.
         23    2    1    2    0    0 -0.84671788229E+02 -0.21035966941E+01  0.77940583734E+02  0.14766695260E+03  0.92504364518E+02 0.  0.
          5    1    3    3  502    0  0.11155268656E+03  0.26233169520E+02  0.21782367951E+02  0.11672242722E+03  0.41800000000E+01 0. -1.
         -5    1    3    3    0  502 -0.26880898332E+02 -0.24129572826E+02  0.51557353334E+01  0.36727006231E+02  0.41800000000E+01 0. -1.
        -11    1    4    4    0    0 -0.54406370810E+02 -0.13938323497E+02 -0.71172795431E+01  0.56612593252E+02  0.00000000000E+00 0.  1.
         11    1    4    4    0    0 -0.30265417419E+02  0.11834726803E+02  0.85057863277E+02  0.91054359343E+02  0.00000000000E+00 0. -1.
</event>
<event>
 8    1  0.3710605E-009  0.1280621E+03  0.7561462E-02  0.1230360E+00
          2   -1    0    0  501    0  0.00000000000E+00  0.00000000000E+00  0.52258098981E+02  0.52258098981E+02  0.00000000000E+00 0. -1.
         -2   -1    0    0    0  501 -0.00000000000E+00 -0.00000000000E+00 -0.48817850947E+03  0.48817850947E+03  0.00000000000E+00 0.  1.
         25    2    1    2    0    0 -0.67312056058E+01  0.11567398224E+03 -0.20529772799E+03  0.26687330203E+03  0.12509365660E+03 0.  0.
         23    2    1    2    0    0  0.67312056058E+01 -0.11567398224E+03 -0.23062268250E+03  0.27356330642E+03  0.90687825216E+02 0.  0.
          5    1    3    3  502    0 -0.13289955226E+02  0.70934660731E+02 -0.20915898379E+03  0.22129912314E+03  0.41800000000E+01 0. -1.
         -5    1    3    3    0  502  0.65587496200E+01  0.44739321505E+02  0.38612557962E+01  0.45574178891E+02  0.41800000000E+01 0. -1.
        -11    1    4    4    0    0 -0.24047785384E+02 -0.10190784962E+03 -0.12702758151E+03  0.16461929492E+03  0.00000000000E+00 0. -1.
         11    1    4    4    0    0  0.30778990989E+02 -0.13766132618E+02 -0.10359510098E+03  0.10894401150E+03  0.00000000000E+00 0.  1.
</event>
<event>
 8    1  0.3710605E-009  0.1857757E+03  0.7561462E-02  0.1162328E+00
          2   -1    0    0  501    0  0.00000000000E+00  0.00000000000E+00  0.51026136602E+03  0.51026136602E+03  0.00000000000E+00 0. -1.
         -2   -1    0    0    0  501 -0.00000000000E+00 -0.00000000000E+00 -0.80939026974E+02  0.80939026974E+02  0.00000000000E+00 0.  1.
         25    2    1    2    0    0 -0.16091322418E+03  0.48175810285E+02  0.26866102540E+03  0.34064603966E+03  0.12508798246E+03 0.  0.
         23    2    1    2    0    0  0.16091322418E+03 -0.48175810285E+02  0.16066131364E+03  0.25055435333E+03  0.93549194854E+02 0.  0.
          5    1    3    3  502    0  0.16739794547E+02  0.14837460939E+02  0.62076724699E+02  0.66116284816E+02  0.41800000000E+01 0. -1.
         -5    1    3    3    0  502 -0.17765301873E+03  0.33338349346E+02  0.20658430070E+03  0.27452975485E+03  0.41800000000E+01 0. -1.
        -11    1    4    4    0    0  0.12742662569E+02 -0.30442079177E+01 -0.12582624327E+02  0.18164941127E+02  0.00000000000E+00 0.  1.
         11    1    4    4    0    0  0.14817056161E+03 -0.45131602367E+02  0.17324393797E+03  0.23238941220E+03  0.00000000000E+00 0. -1.
</event>
<event>
 8    1  0.3710605E-009  0.1397164E+03  0.7561462E-02  0.1213711E+00
          2   -1    0    0  501    0  0.00000000000E+00  0.00000000000E+00  0.59411044191E+02  0.59411044191E+02  0.00000000000E+00 0. -1.
         -2   -1    0    0    0  501 -0.00000000000E+00 -0.00000000000E+00 -0.44266539976E+03  0.44266539976E+03  0.00000000000E+00 0.  1.
         25    2    1    2    0    0 -0.98118360335E+02 -0.70582893936E+02 -0.20773761861E+03  0.27093863393E+03  0.12507464818E+03 0.  0.
         23    2    1    2    0    0  0.98118360335E+02  0.70582893936E+02 -0.17551673696E+03  0.23113781003E+03  0.89495277639E+02 0.  0.
          5    1    3    3  502    0 -0.11669885886E+03 -0.41842871821E+02 -0.10482549200E+03  0.16240475903E+03  0.41800000000E+01 0. -1.
         -5    1    3    3    0  502  0.18580498527E+02 -0.28740022115E+02 -0.10291212661E+03  0.10853387490E+03  0.41800000000E+01 0. -1.
        -11    1    4    4    0    0  0.70664556771E+02  0.52599999493E+02 -0.49771430686E+02  0.10118020974E+03  0.00000000000E+00 0. -1.
         11    1    4    4    0    0  0.27453803564E+02  0.17982894443E+02 -0.12574530627E+03  0.12995760029E+03  0.00000000000E+00 0.  1.
</event>
<event>
 8    1  0.3710605E-009  0.1264753E+03  0.7561462E-02  0.1232782E+00
         -2   -1    0    0    0  501 -0.00000000000E+00  0.00000000000E+00  0.50130426476E+02  0.50130426476E+02  0.00000000000E+00 0.  1.
          2   -1    0    0  501    0  0.00000000000E+00 -0.00000000000E+00 -0.38357763454E+03  0.38357763454E+03  0.00000000000E+00 0. -1.
         25    2    1    2    0    0 -0.79854389403E+02  0.33578918438E+02 -0.17719766914E+03  0.23356087860E+03  0.12508957907E+03 0.  0.
         23    2    1    2    0    0  0.79854389403E+02 -0.33578918438E+02 -0.15624953893E+03  0.20014718242E+03  0.90225877361E+02 0.  0.
          5    1    3    3  502    0 -0.11006378430E+02 -0.31909592545E+02 -0.18302173562E+01  0.34061482030E+02  0.41800000000E+01 0.  1.
         -5    1    3    3    0  502 -0.68848010973E+02  0.65488510983E+02 -0.17536745178E+03  0.19949939657E+03  0.41800000000E+01 0.  1.
        -11    1    4    4    0    0  0.97022438210E+02 -0.14398803656E+02 -0.13438611744E+03  0.16637399924E+03  0.00000000000E+00 0.  1.
         11    1    4    4    0    0 -0.17168048807E+02 -0.19180114782E+02 -0.21863421486E+02  0.33773183178E+02  0.00000000000E+00 0. -1.
</event>
<event>
 8    1  0.3710605E-009  0.1535138E+03  0.7561462E-02  0.1196221E+00
         -3   -1    0    0    0  501 -0.00000000000E+00  0.00000000000E+00  0.19361113517E+03  0.19361113517E+03  0.00000000000E+00 0.  1.
          3   -1    0    0  501    0  0.00000000000E+00 -0.00000000000E+00 -0.21275530919E+03  0.21275530919E+03  0.00000000000E+00 0. -1.
         25    2    1    2    0    0 -0.11613184268E+03 -0.62526807296E+02 -0.11935154038E+03  0.21745849585E+03  0.12508877134E+03 0.  0.
         23    2    1    2    0    0  0.11613184268E+03  0.62526807296E+02  0.10020736635E+03  0.18890794851E+03  0.90821199192E+02 0.  0.
          5    1    3    3  502    0 -0.18728781374E+01 -0.27172725923E+02  0.19792584230E+02  0.33927621448E+02  0.41800000000E+01 0. -1.
         -5    1    3    3    0  502 -0.11425896454E+03 -0.35354081373E+02 -0.13914412461E+03  0.18353087440E+03  0.41800000000E+01 0. -1.
        -11    1    4    4    0    0  0.82452578845E+02  0.85691904193E+02  0.79876484520E+02  0.14325425991E+03  0.00000000000E+00 0.  1.
         11    1    4    4    0    0  0.33679263832E+02 -0.23165096896E+02  0.20330881834E+02  0.45653688598E+02  0.00000000000E+00 0. -1.
</event>
<event>
 8    1  0.3710605E-009  0.1309748E+03  0.7561462E-02  0.1226017E+00
          1   -1    0    0  501    0  0.00000000000E+00  0.00000000000E+00  0.17336361878E+03  0.17336361878E+03  0.00000000000E+00 0. -1.
         -1   -1    0    0    0  501 -0.00000000000E+00 -0.00000000000E+00 -0.14872026475E+03  0.14872026475E+03  0.00000000000E+00 0.  1.
         25    2    1    2    0    0 -0.69254542891E+02 -0.60353889976E+02 -0.64917371510E+02  0.16822863711E+03  0.12509126857E+03 0.  0.
         23    2    1    2    0    0  0.69254542891E+02  0.60353889976E+02  0.89560725537E+02  0.15385524643E+03  0.84920725083E+02 0.  0.
          5    1    3    3  502    0 -0.79996430824E+02  0.12575349354E+02 -0.38994829632E+02  0.89975760591E+02  0.41800000000E+01 0.  1.
         -5    1    3    3    0  502  0.10741887934E+02 -0.72929239330E+02 -0.25922541878E+02  0.78252876516E+02  0.41800000000E+01 0.  1.
        -11    1    4    4    0    0 -0.89211817638E+01  0.12541045701E+02  0.53006519396E+02  0.55195619481E+02  0.00000000000E+00 0. -1.
         11    1    4    4    0    0  0.78175724654E+02  0.47812844275E+02  0.36554206140E+02  0.98659626948E+02  0.00000000000E+00 0.  1.
</event>
<event>
 8    1  0.3710605E-009  0.1906305E+03  0.7561462E-02  0.1157894E+00
          2   -1    0    0  501    0  0.00000000000E+00  0.00000000000E+00  0.95556277822E+03  0.95556277822E+03  0.00000000000E+00 0. -1.
         -2   -1    0    0    0  501 -0.00000000000E+00 -0.00000000000E+00 -0.48767496018E+02  0.48767496018E+02  0.00000000000E+00 0.  1.
         25    2    1    2    0    0 -0.59943594500E+01 -0.17851530639E+03  0.59980415039E+03  0.63820957544E+03  0.12507116536E+03 0.  0.
         23    2    1    2    0    0  0.59943594500E+01  0.17851530639E+03  0.30699113182E+03  0.36612069880E+03  0.88865989627E+02 0.  0.
          5    1    3    3  502    0  0.32011955514E+02 -0.13711958491E+03  0.27956899962E+03  0.31305405893E+03  0.41800000000E+01 0. -1.
         -5    1    3    3    0  502 -0.38006314964E+02 -0.41395721479E+02  0.32023515077E+03  0.32515551651E+03  0.41800000000E+01 0. -1.
        -11    1    4    4    0    0  0.24995577312E+02  0.84290606601E+02  0.21827429563E+03  0.23531543379E+03  0.00000000000E+00 0. -1.
         11    1    4    4    0    0 -0.19001217862E+02  0.94224699790E+02  0.88716836184E+02  0.13080526501E+03  0.00000000000E+00 0.  1.
</event>
<event>
 8    1  0.3710605E-009  0.1151042E+03  0.7561462E-02  0.1251399E+00
          3   -1    0    0  501    0  0.00000000000E+00  0.00000000000E+00  0.47234137428E+02  0.47234137428E+02  0.00000000000E+00 0. -1.
         -3   -1    0    0    0  501 -0.00000000000E+00 -0.00000000000E+00 -0.29640606841E+03  0.29640606841E+03  0.00000000000E+00 0.  1.
         25    2    1    2    0    0 -0.41734553184E+02  0.65392118412E+00 -0.10533178454E+03  0.16877445057E+03  0.12509128582E+03 0.  0.
         23    2    1    2    0    0  0.41734553184E+02 -0.65392118412E+00 -0.14384014644E+03  0.17486575527E+03  0.90254330063E+02 0.  0.
          5    1    3    3  502    0  0.27453367165E+02 -0.41411418476E+02 -0.30560488560E+02  0.58480841392E+02  0.41800000000E+01 0. -1.
         -5    1    3    3    0  502 -0.69187920349E+02  0.42065339660E+02 -0.74771295983E+02  0.11029360918E+03  0.41800000000E+01 0. -1.
        -11    1    4    4    0    0 -0.39236082389E+01 -0.39272506759E+02 -0.52230995252E+02  0.65466032061E+02  0.00000000000E+00 0.  1.
         11    1    4    4    0    0  0.45658161423E+02  0.38618585575E+02 -0.91609151185E+02  0.10939972320E+03  0.00000000000E+00 0. -1.
</event>
<event>
 8    1  0.3710605E-009  0.1104890E+03  0.7561462E-02  0.1259667E+00
         -2   -1    0    0    0  501 -0.00000000000E+00  0.00000000000E+00  0.18038874399E+02  0.18038874399E+02  0.00000000000E+00 0.  1.
          2   -1    0    0  501    0  0.00000000000E+00 -0.00000000000E+00 -0.76467410227E+03  0.76467410227E+03  0.00000000000E+00 0. -1.
         25    2    1    2    0    0 -0.11210678185E+01 -0.38432736912E+02 -0.35302197816E+03  0.37649820416E+03  0.12509216047E+03 0.  0.
         23    2    1    2    0    0  0.11210678185E+01  0.38432736912E+02 -0.39361324971E+03  0.40621477251E+03  0.92740061442E+02 0.  0.
          5    1    3    3  502    0  0.49140706328E+02 -0.56288661402E+02 -0.24105532031E+03  0.25240515500E+03  0.41800000000E+01 0. -1.
         -5    1    3    3    0  502 -0.50261774147E+02  0.17855924490E+02 -0.11196665785E+03  0.12409304916E+03  0.41800000000E+01 0. -1.
        -11    1    4    4    0    0 -0.41035266376E+02  0.26412498129E+02 -0.28397611063E+03  0.28813875920E+03  0.00000000000E+00 0. -1.
         11    1    4    4    0    0  0.42156334195E+02  0.12020238783E+02 -0.10963713907E+03  0.11807601330E+03  0.00000000000E+00 0.  1.
</event>
<event>
 8    1  0.3710605E-009  0.5685051E+02  0.7561462E-02  0.1411545E+00
          2   -1    0    0  501    0  0.00000000000E+00  0.00000000000E+00  0.61002479542E+03  0.61002479542E+03  0.00000000000E+00 0. -1.
         -2   -1    0    0    0  501 -0.00000000000E+00 -0.00000000000E+00 -0.24322064211E+02  0.24322064211E+02  0.00000000000E+00 0.  1.
         25    2    1    2    0    0  0.37292945253E+02 -0.18293068319E+02  0.42012982210E+03  0.44031970379E+03  0.12508786517E+03 0.  0.
         23    2    1    2    0    0 -0.37292945253E+02  0.18293068319E+02  0.16557290912E+03  0.19402715585E+03  0.92232038138E+02 0.  0.
          5    1    3    3  502    0  0.28285629750E+02 -0.35459687752E+01  0.11056899171E+02  0.30860624819E+02  0.41800000000E+01 0.  1.
         -5    1    3    3    0  502  0.90073155028E+01 -0.14747099543E+02  0.40907292293E+03  0.40945907897E+03  0.41800000000E+01 0.  1.
        -11    1    4    4    0    0 -0.16790267626E+02 -0.18504513549E+02  0.19428515011E+01  0.25062018686E+02  0.00000000000E+00 0.  1.
         11    1    4    4    0    0 -0.20502677627E+02  0.36797581867E+02  0.16363005761E+03  0.16896513716E+03  0.00000000000E+00 0. -1.
</event>
<event>
 8    1  0.3710605E-009  0.1222674E+03  0.7561462E-02  0.1239403E+00
          4   -1    0    0  501    0  0.00000000000E+00  0.00000000000E+00  0.20521602658E+03  0.20521602658E+03  0.00000000000E+00 0. -1.
         -4   -1    0    0    0  501 -0.00000000000E+00 -0.00000000000E+00 -0.91043909896E+02  0.91043909896E+02  0.00000000000E+00 0.  1.
         25    2    1    2    0    0 -0.34764094873E+02 -0.69126302308E+02  0.91807611796E+02  0.17338697648E+03  0.12508964012E+03 0.  0.
         23    2    1    2    0    0  0.34764094873E+02  0.69126302308E+02  0.22364504894E+02  0.12287296001E+03  0.92793347058E+02 0.  0.
          5    1    3    3  502    0  0.35703062002E+02 -0.56221415867E+02  0.73608887551E+02  0.99354400833E+02  0.41800000000E+01 0.  1.
         -5    1    3    3    0  502 -0.70467156875E+02 -0.12904886442E+02  0.18198724245E+02  0.74032575642E+02  0.41800000000E+01 0.  1.
        -11    1    4    4    0    0  0.57382451933E+02  0.44578429968E+02  0.42215776251E+02  0.84036622807E+02  0.00000000000E+00 0. -1.
         11    1    4    4    0    0 -0.22618357060E+02  0.24547872340E+02 -0.19851271357E+02  0.38836337199E+02  0.00000000000E+00 0.  1.
</event>
<event>
 8    1  0.3710605E-009  0.1396528E+03  0.7561462E-02  0.1213797E+00
          2   -1    0    0  501    0  0.00000000000E+00  0.00000000000E+00  0.10527736289E+03  0.10527736289E+03  0.00000000000E+00 0.  1.
         -2   -1    0    0    0  501 -0.00000000000E+00 -0.00000000000E+00 -0.22749038398E+03  0.22749038398E+03  0.00000000000E+00 0. -1.
         25    2    1    2    0    0 -0.48053770454E+02 -0.93054988741E+02 -0.28803596471E+02  0.16565391435E+03  0.12507268441E+03 0.  0.
         23    2    1    2    0    0  0.48053770454E+02  0.93054988741E+02 -0.93409424618E+02  0.16711383252E+03  0.90737625202E+02 0.  0.
          5    1    3    3  502    0 -0.25683663785E+01  0.19084599359E+02 -0.39453868708E+02  0.44101004462E+02  0.41800000000E+01 0. -1.
         -5    1    3    3    0  502 -0.45485404076E+02 -0.11213958810E+03  0.10650272237E+02  0.12155290989E+03  0.41800000000E+01 0. -1.
        -11    1    4    4    0    0  0.50552101453E+02  0.54171069143E+01 -0.36569785914E+02  0.62627543864E+02  0.00000000000E+00 0. -1.
         11    1    4    4    0    0 -0.24983309991E+01  0.87637881827E+02 -0.56839638703E+02  0.10448628865E+03  0.00000000000E+00 0.  1.
</event>
<event>
 8    1  0.3710605E-009  0.8183771E+02  0.7561462E-02  0.1323916E+00
         -1   -1    0    0    0  501 -0.00000000000E+00  0.00000000000E+00  0.23688697421E+03  0.23688697421E+03  0.00000000000E+00 0.  1.
          1   -1    0    0  501    0  0.00000000000E+00 -0.00000000000E+00 -0.58341887284E+02  0.58341887284E+02  0.00000000000E+00 0. -1.
         25    2    1    2    0    0 -0.38342370157E+02 -0.91481790141E+01  0.12624670397E+03  0.18204860420E+03  0.12509851119E+03 0.  0.
         23    2    1    2    0    0  0.38342370157E+02  0.91481790141E+01  0.52298382960E+02  0.11318025729E+03  0.92308305431E+02 0.  0.
          5    1    3    3  502    0 -0.56043466268E+02  0.14366075004E+01  0.22326772150E+01  0.56261809427E+02  0.41800000000E+01 0.  1.
         -5    1    3    3    0  502  0.17701096110E+02 -0.10584786514E+02  0.12401402675E+03  0.12578679478E+03  0.41800000000E+01 0.  1.
        -11    1    4    4    0    0  0.62782886307E+01  0.40846760497E+02  0.54073635665E+02  0.68057569933E+02  0.00000000000E+00 0.  1.
         11    1    4    4    0    0  0.32064081527E+02 -0.31698581482E+02 -0.17752527050E+01  0.45122687357E+02  0.00000000000E+00 0. -1.
</event>
<event>
 8    1  0.3710605E-009  0.2444119E+03  0.7561462E-02  0.1116888E+00
          1   -1    0    0  501    0  0.00000000000E+00  0.00000000000E+00  0.52449407955E+03  0.52449407955E+03  0.00000000000E+00 0. -1.
         -1   -1    0    0    0  501 -0.00000000000E+00 -0.00000000000E+00 -0.13895342826E+03  0.13895342826E+03  0.00000000000E+00 0.  1.
         25    2    1    2    0    0 -0.20997377750E+03  0.84896899193E+02  0.32152891666E+03  0.41270320754E+03  0.12508646026E+03 0.  0.
         23    2    1    2    0    0  0.20997377750E+03 -0.84896899193E+02  0.64011734631E+02  0.25074430027E+03  0.86479657821E+02 0.  0.
          5    1    3    3  502    0 -0.17951599091E+03  0.11631705049E+03  0.25361031217E+03  0.33180010558E+03  0.41800000000E+01 0. -1.
         -5    1    3    3    0  502 -0.30457786588E+02 -0.31420151293E+02  0.67918604493E+02  0.80903101964E+02  0.41800000000E+01 0. -1.
        -11    1    4    4    0    0  0.18363697039E+03 -0.56371944717E+02  0.80863416661E+02  0.20842078879E+03  0.00000000000E+00 0.  1.
         11    1    4    4    0    0  0.26336807102E+02 -0.28524954476E+02 -0.16851682030E+02  0.42323511473E+02  0.00000000000E+00 0. -1.
</event>
<event>
 8    1  0.3710605E-009  0.1279400E+03  0.7561462E-02  0.1230545E+00
          2   -1    0    0  501    0  0.00000000000E+00  0.00000000000E+00  0.27158821642E+03  0.27158821642E+03  0.00000000000E+00 0. -1.
         -2   -1    0    0    0  501 -0.00000000000E+00 -0.00000000000E+00 -0.10169029885E+03  0.10169029885E+03  0.00000000000E+00 0.  1.
         25    2    1    2    0    0  0.71482250128E+02 -0.70755966149E+02  0.17372522057E+03  0.23652467370E+03  0.12508936875E+03 0.  0.
         23    2    1    2    0    0 -0.71482250128E+02  0.70755966149E+02 -0.38273029956E+01  0.13675384157E+03  0.92578864262E+02 0.  0.
          5    1    3    3  502    0 -0.16848941116E+02 -0.53396765454E+02  0.22508427882E+02  0.60491347343E+02  0.41800000000E+01 0. -1.
         -5    1    3    3    0  502  0.88331191245E+02 -0.17359200695E+02  0.15121679269E+03  0.17603332635E+03  0.41800000000E+01 0. -1.
        -11    1    4    4    0    0 -0.29596744233E+02  0.27233880199E+01  0.36654506412E+02  0.47190432842E+02  0.00000000000E+00 0. -1.
         11    1    4    4    0    0 -0.41885505895E+02  0.68032578129E+02 -0.40481809407E+02  0.89563408732E+02  0.00000000000E+00 0.  1.
</event>
<event>
 8    1  0.3710605E-009  0.1510357E+03  0.7561462E-02  0.1199206E+00
         -1   -1    0    0    0  501 -0.00000000000E+00  0.00000000000E+00  0.12502081261E+03  0.12502081261E+03  0.00000000000E+00 0.  1.
          1   -1    0    0  501    0  0.00000000000E+00 -0.00000000000E+00 -0.35617315945E+03  0.35617315945E+03  0.00000000000E+00 0. -1.
         25    2    1    2    0    0 -0.95667591648E+02  0.96970353848E+02  0.14585351585E+02  0.18551578402E+03  0.12509131074E+03 0.  0.
         23    2    1    2    0    0  0.95667591648E+02 -0.96970353848E+02 -0.24573769842E+03  0.29567818804E+03  0.92103402972E+02 0.  0.
          5    1    3    3  502    0 -0.15231061134E+02  0.38252246183E+02  0.62469774352E+02  0.74934402439E+02  0.41800000000E+01 0.  1.
         -5    1    3    3    0  502 -0.80436530514E+02  0.58718107665E+02 -0.47884422768E+02  0.11058138158E+03  0.41800000000E+01 0.  1.
        -11    1    4    4    0    0  0.49125461389E+02 -0.10296523970E+03 -0.19939891787E+03  0.22972827425E+03  0.00000000000E+00 0. -1.
         11    1    4    4    0    0  0.46542130259E+02  0.59948858520E+01 -0.46338780551E+02  0.65949913786E+02  0.00000000000E+00 0.  1.
</event>
<event>
 8    1  0.3710605E-009  0.1542371E+03  0.7561462E-02  0.1195361E+00
         -2   -1    0    0    0  501 -0.00000000000E+00  0.00000000000E+00  0.15664919703E+03  0.15664919703E+03  0.00000000000E+00 0.  1.
          2   -1    0    0  501    0  0.00000000000E+00 -0.00000000000E+00 -0.28263182844E+03  0.28263182844E+03  0.00000000000E+00 0. -1.
         25    2    1    2    0    0  0.11855052288E+03  0.66979345077E+02 -0.18883178642E+03  0.26428178294E+03  0.12508780153E+03 0.  0.
         23    2    1    2    0    0 -0.11855052288E+03 -0.66979345077E+02  0.62849155004E+02  0.17499924253E+03  0.90190129496E+02 0.  0.
          5    1    3    3  502    0  0.37485926263E+02  0.74098629207E+02 -0.35021372787E+02  0.90220676510E+02  0.41800000000E+01 0. -1.
         -5    1    3    3    0  502  0.81064596618E+02 -0.71192841297E+01 -0.15381041363E+03  0.17406110643E+03  0.41800000000E+01 0. -1.
        -11    1    4    4    0    0 -0.63189779840E+02 -0.61559959856E+02  0.77555705735E+02  0.11746260863E+03  0.00000000000E+00 0.  1.
         11    1    4    4    0    0 -0.55360743041E+02 -0.54193852215E+01 -0.14706550731E+02  0.57536633900E+02  0.00000000000E+00 0. -1.
</event>
<event>
 8    1  0.3710605E-009  0.9439675E+02  0.7561462E-02  0.1292541E+00
         -1   -1    0    0    0  501 -0.00000000000E+00  0.00000000000E+00  0.17850715248E+02  0.17850715248E+02  0.00000000000E+00 0.  1.
          1   -1    0    0  501    0  0.00000000000E+00 -0.00000000000E+00 -0.78555404121E+03  0.78555404121E+03  0.00000000000E+00 0. -1.
         25    2    1    2    0    0 -0.31799660382E+02 -0.28740615001E+02 -0.38994307547E+03  0.41175258794E+03  0.12508936894E+03 0.  0.
         23    2    1    2    0    0  0.31799660382E+02  0.28740615001E+02 -0.37776025050E+03  0.39165216852E+03  0.94081735194E+02 0.  0.
          5    1    3    3  502    0 -0.95332797615E+01  0.25065527663E+02 -0.31775223649E+03  0.31890926655E+03  0.41800000000E+01 0.  1.
         -5    1    3    3    0  502 -0.22266380620E+02 -0.53806142664E+02 -0.72190838975E+02  0.92843321387E+02  0.41800000000E+01 0.  1.
        -11    1    4    4    0    0  0.48870266660E+02 -0.19104717546E+02 -0.18271963087E+03  0.19010459411E+03  0.00000000000E+00 0. -1.
         11    1    4    4    0    0 -0.17070606278E+02  0.47845332547E+02 -0.19504061963E+03  0.20154757441E+03  0.00000000000E+00 0.  1.
</event>
<event>
 8    1  0.3710605E-009  0.1957554E+03  0.7561462E-02  0.1153370E+00
          3   -1    0    0  501    0  0.00000000000E+00  0.00000000000E+00  0.95471577114E+02  0.95471577114E+02  0.00000000000E+00 0. -1.
         -3   -1    0    0    0  501 -0.00000000000E+00 -0.00000000000E+00 -0.41469566379E+03  0.41469566379E+03  0.00000000000E+00 0.  1.
         25    2    1    2    0    0 -0.15301592364E+03  0.54679059389E+02 -0.14614253735E+03  0.25181057151E+03  0.12508896944E+03 0.  0.
         23    2    1    2    0    0  0.15301592364E+03 -0.54679059389E+02 -0.17308154933E+03  0.25835666939E+03  0.10191797427E+03 0.  0.
          5    1    3    3  502    0 -0.17499600563E+03  0.49934399501E+02 -0.13290216603E+03  0.22538301706E+03  0.41800000000E+01 0.  1.
         -5    1    3    3    0  502  0.21980081990E+02  0.47446598881E+01 -0.13240371316E+02  0.26427554452E+02  0.41800000000E+01 0.  1.
        -11    1    4    4    0    0  0.15847188670E+02 -0.46580879647E+02 -0.74350304471E+02  0.89156488896E+02  0.00000000000E+00 0.  1.
         11    1    4    4    0    0  0.13716873497E+03 -0.80981797419E+01 -0.98731244857E+02  0.16920018050E+03  0.00000000000E+00 0. -1.
</event>
<event>
 8    1  0.3710605E-009  0.1678735E+03  0.7561462E-02  0.1180084E+00
          1   -1    0    0  501    0  0.00000000000E+00  0.00000000000E+00  0.33152115444E+03  0.33152115444E+03  0.00000000000E+00 0.  1.
         -1   -1    0    0    0  501 -0.00000000000E+00 -0.00000000000E+00 -0.11108070935E+03  0.11108070935E+03  0.00000000000E+00 0. -1.
         25    2    1    2    0    0  0.77130728111E+02 -0.13258058638E+03  0.15645555460E+03  0.25229737269E+03  0.12509541397E+03 0.  0.
         23    2    1    2    0    0 -0.77130728111E+02  0.13258058638E+03  0.63984890489E+02  0.19030449110E+03  0.92709071933E+02 0.  0.
          5    1    3    3  502    0  0.41045044866E+02 -0.10484977014E+03  0.28211017638E+02  0.11615293334E+03  0.41800000000E+01 0.  1.
         -5    1    3    3    0  502  0.36085683245E+02 -0.27730816237E+02  0.12824453697E+03  0.13614443935E+03  0.41800000000E+01 0.  1.
        -11    1    4    4    0    0 -0.22391825191E+02  0.11884279953E+03  0.30646453584E+02  0.12475660284E+03  0.00000000000E+00 0.  1.
         11    1    4    4    0    0 -0.54738902921E+02  0.13737786856E+02  0.33338436905E+02  0.65547888264E+02  0.00000000000E+00 0. -1.
</event>
<event>
 8    1  0.3710605E-009  0.1559890E+03  0.7561462E-02  0.1193301E+00
         -2   -1    0    0    0  501 -0.00000000000E+00  0.00000000000E+00  0.37622930779E+02  0.37622930779E+02  0.00000000000E+00 0.  1.
          2   -1    0    0  501    0  0.00000000000E+00 -0.00000000000E+00 -0.64947929447E+03  0.64947929447E+03  0.00000000000E+00 0. -1.
         25    2    1    2    0    0  0.49871557104E+02 -0.10069427359E+03 -0.31226405395E+03  0.35465829861E+03  0.12508861037E+03 0.  0.
         23    2    1    2    0    0 -0.49871557104E+02  0.10069427359E+03 -0.29959230974E+03  0.33244392663E+03  0.90204785679E+02 0.  0.
          5    1    3    3  502    0  0.36344323122E+02  0.23110324952E+02 -0.72027240106E+02  0.84026142717E+02  0.41800000000E+01 0. -1.
         -5    1    3    3    0  502  0.13527233982E+02 -0.12380459854E+03 -0.24023681384E+03  0.27063215590E+03  0.41800000000E+01 0. -1.
        -11    1    4    4    0    0 -0.14660935316E+02  0.10727667918E+03 -0.22467369680E+03  0.24940228338E+03  0.00000000000E+00 0.  1.
         11    1    4    4    0    0 -0.35210621788E+02 -0.65824055901E+01 -0.74918612938E+02  0.83041643255E+02  0.00000000000E+00 0. -1.
</event>
<event>
 8    1  0.3710605E-009  0.1395267E+03  0.7561462E-02  0.1213967E+00
          1   -1    0    0  501    0  0.00000000000E+00  0.00000000000E+00  0.75149646635E+03  0.75149646635E+03  0.00000000000E+00 0. -1.
         -1   -1    0    0    0  501 -0.00000000000E+00 -0.00000000000E+00 -0.50552465672E+02  0.50552465672E+02  0.00000000000E+00 0.  1.
         25    2    1    2    0    0 -0.24970666430E+01  0.89359141695E+02  0.64564349991E+03  0.66369817528E+03  0.12509375421E+03 0.  0.
         23    2    1    2    0    0  0.24970666430E+01 -0.89359141695E+02  0.55300500765E+02  0.13835075674E+03  0.89952737369E+02 0.  0.
          5    1    3    3  502    0  0.58226871119E+02  0.24172657362E+02  0.22495286736E+03  0.23365776430E+03  0.41800000000E+01 0.  1.
         -5    1    3    3    0  502 -0.60723937762E+02  0.65186484332E+02  0.42069063255E+03  0.43004041098E+03  0.41800000000E+01 0.  1.
        -11    1    4    4    0    0  0.43096272304E+02 -0.68781137498E+02  0.32362572300E+02  0.87381174448E+02  0.00000000000E+00 0.  1.
         11    1    4    4    0    0 -0.40599205661E+02 -0.20578004196E+02  0.22937928465E+02  0.50969582295E+02  0.00000000000E+00 0. -1.
</event>
<event>
 8    1  0.3710605E-009  0.1660485E+03  0.7561462E-02  0.1182032E+00
          1   -1    0    0  501    0  0.00000000000E+00  0.00000000000E+00  0.21220786163E+03  0.21220786163E+03  0.00000000000E+00 0. -1.
         -1   -1    0    0    0  501 -0.00000000000E+00 -0.00000000000E+00 -0.17269784784E+03  0.17269784784E+03  0.00000000000E+00 0.  1.
         25    2    1    2    0    0  0.14340217477E+03  0.63256039100E+02  0.12271100572E+02  0.20090689704E+03  0.12508993228E+03 0.  0.
         23    2    1    2    0    0 -0.14340217477E+03 -0.63256039100E+02  0.27238913220E+02  0.18399881243E+03  0.92455905007E+02 0.  0.
          5    1    3    3  502    0  0.21698732615E+02 -0.15650159439E+02  0.44663208382E+02  0.52230614304E+02  0.41800000000E+01 0. -1.
         -5    1    3    3    0  502  0.12170344215E+03  0.78906198539E+02 -0.32392107810E+02  0.14867628274E+03  0.41800000000E+01 0. -1.
        -11    1    4    4    0    0 -0.60857674936E+02 -0.44154336581E+02 -0.30851033207E+02  0.81271448169E+02  0.00000000000E+00 0.  1.
         11    1    4    4    0    0 -0.82544499833E+02 -0.19101702519E+02  0.58089946427E+02  0.10272736426E+03  0.00000000000E+00 0. -1.
</event>
<event>
 8    1  0.3710605E-009  0.1830441E+03  0.7561462E-02  0.1164889E+00
          1   -1    0    0  501    0  0.00000000000E+00  0.00000000000E+00  0.97214169277E+03  0.97214169277E+03  0.00000000000E+00 0. -1.
         -1   -1    0    0    0  501 -0.00000000000E+00 -0.00000000000E+00 -0.43073803445E+02  0.43073803445E+02  0.00000000000E+00 0.  1.
         25    2    1    2    0    0 -0.12138725816E+03 -0.97673247898E+02  0.29710949528E+03  0.35804595185E+03  0.12509165302E+03 0.  0.
         23    2    1    2    0    0  0.12138725816E+03  0.97673247898E+02  0.63195839404E+03  0.65716954436E+03  0.90694368239E+02 0.  0.
          5    1    3    3  502    0 -0.31781515605E+01 -0.75797285206E+02  0.83483774578E+02  0.11288198310E+03  0.41800000000E+01 0. -1.
         -5    1    3    3    0  502 -0.11820910660E+03 -0.21875962692E+02  0.21362572070E+03  0.24516396875E+03  0.41800000000E+01 0. -1.
        -11    1    4    4    0    0  0.83594466083E+02  0.23922293513E+02  0.21245523236E+03  0.22955944033E+03  0.00000000000E+00 0. -1.
         11    1    4    4    0    0  0.37792792080E+02  0.73750954385E+02  0.41950316168E+03  0.42761010403E+03  0.00000000000E+00 0.  1.
</event>
<event>
 8    1  0.3710605E-009  0.8591500E+02  0.7561462E-02  0.1313057E+00
         -1   -1    0    0    0  501 -0.00000000000E+00  0.00000000000E+00  0.11566954267E+03  0.11566954267E+03  0.00000000000E+00 0.  1.
          1   -1    0    0  501    0  0.00000000000E+00 -0.00000000000E+00 -0.11397065214E+03  0.11397065214E+03  0.00000000000E+00 0. -1.
         25    2    1    2    0    0  0.34288169435E+02  0.14059551173E+02  0.10383384756E+02  0.13087579895E+03  0.12508921028E+03 0.  0.
         23    2    1    2    0    0 -0.34288169435E+02 -0.14059551173E+02 -0.86844942177E+01  0.98764395864E+02  0.91135261607E+02 0.  0.
          5    1    3    3  502    0  0.76394461020E+01  0.51351361529E+02 -0.37713988146E+02  0.64305060217E+02  0.41800000000E+01 0. -1.
         -5    1    3    3    0  502  0.26648723333E+02 -0.37291810356E+02  0.48097372902E+02  0.66570738729E+02  0.41800000000E+01 0. -1.
        -11    1    4    4    0    0 -0.30150798768E+01 -0.35612372687E+02 -0.36960396868E+02  0.51414032439E+02  0.00000000000E+00 0. -1.
         11    1    4    4    0    0 -0.31273089558E+02  0.21552821515E+02  0.28275902650E+02  0.47350363424E+02  0.00000000000E+00 0.  1.
</event>
<event>
 8    1  0.3710605E-009  0.1855069E+03  0.7561462E-02  0.1162577E+00
         -1   -1    0    0    0  501 -0.00000000000E+00  0.00000000000E+00  0.13102487139E+03  0.13102487139E+03  0.00000000000E+00 0.  1.
          1   -1    0    0  501    0  0.00000000000E+00 -0.00000000000E+00 -0.39693842760E+03  0.39693842760E+03  0.00000000000E+00 0. -1.
         25    2    1    2    0    0 -0.15842410528E+03 -0.27180441264E+02 -0.27792382815E+03  0.34456660546E+03  0.12509003885E+03 0.  0.
         23    2    1    2    0    0  0.15842410528E+03  0.27180441264E+02  0.12010271940E+02  0.18339669353E+03  0.87482152724E+02 0.  0.
          5    1    3    3  502    0 -0.10723281597E+03 -0.67218948983E+02 -0.23384163059E+03  0.26592601325E+03  0.41800000000E+01 0. -1.
         -5    1    3    3    0  502 -0.51191289307E+02  0.40038507720E+02 -0.44082197560E+02  0.78640592210E+02  0.41800000000E+01 0. -1.
        -11    1    4    4    0    0  0.23471656107E+02  0.37147678178E+02  0.19050772850E+02  0.47893638206E+02  0.00000000000E+00 0.  1.
         11    1    4    4    0    0  0.13495244918E+03 -0.99672369138E+01 -0.70405009100E+01  0.13550305533E+03  0.00000000000E+00 0. -1.
</event>
<event>
 8    1  0.3710605E-009  0.1254729E+03  0.7561462E-02  0.1234332E+00
         -1   -1    0    0    0  501 -0.00000000000E+00  0.00000000000E+00  0.11975968206E+03  0.11975968206E+03  0.00000000000E+00 0.  1.
          1   -1    0    0  501    0  0.00000000000E+00 -0.00000000000E+00 -0.26609358155E+03  0.26609358155E+03  0.00000000000E+00 0. -1.
         25    2    1    2    0    0  0.10553676560E+03  0.23682165582E+02  0.21303040224E+02  0.16673117714E+03  0.12508641831E+03 0.  0.
         23    2    1    2    0    0 -0.10553676560E+03 -0.23682165582E+02 -0.16763693971E+03  0.21912208648E+03  0.90628314372E+02 0.  0.
          5    1    3    3  502    0  0.21639288285E+02 -0.19324526590E+01 -0.49308383260E+02  0.54044261772E+02  0.41800000000E+01 0.  1.
         -5    1    3    3    0  502  0.83897477317E+02  0.25614618241E+02  0.70611423484E+02  0.11268691536E+03  0.41800000000E+01 0.  1.
        -11    1    4    4    0    0 -0.41960018343E+02  0.34879641941E+02 -0.69100758035E+02  0.88046279435E+02  0.00000000000E+00 0. -1.
         11    1    4    4    0    0 -0.63576747259E+02 -0.58561807523E+02 -0.98536181675E+02  0.13107580704E+03  0.00000000000E+00 0.  1.
</event>
<event>
 8    1  0.3710605E-009  0.2182835E+03  0.7561462E-02  0.1135169E+00
          1   -1    0    0  501    0  0.00000000000E+00  0.00000000000E+00  0.38708891320E+03  0.38708891320E+03  0.00000000000E+00 0. -1.
         -1   -1    0    0    0  501 -0.00000000000E+00 -0.00000000000E+00 -0.14685007492E+03  0.14685007492E+03  0.00000000000E+00 0.  1.
         25    2    1    2    0    0 -0.19769561963E+03  0.35073190147E+02  0.19826999670E+03  0.30866240876E+03  0.12509118394E+03 0.  0.
         23    2    1    2    0    0  0.19769561963E+03 -0.35073190147E+02  0.41968841575E+02  0.22527657936E+03  0.93136817938E+02 0.  0.
          5    1    3    3  502    0 -0.85437370792E+01 -0.17139851220E+02 -0.10401580583E+02  0.22190881500E+02  0.41800000000E+01 0. -1.
         -5    1    3    3    0  502 -0.18915188255E+03  0.52213041368E+02  0.20867157729E+03  0.28647152726E+03  0.41800000000E+01 0. -1.
        -11    1    4    4    0    0  0.15940178312E+03  0.12187260483E+02  0.37992002005E+02  0.16431935369E+03  0.00000000000E+00 0.  1.
         11    1    4    4    0    0  0.38293836512E+02 -0.47260450630E+02  0.39768395705E+01  0.60957225672E+02  0.00000000000E+00 0. -1.
</event>
<event>
 8    1  0.3710605E-009  0.1040738E+03  0.7561462E-02  0.1271955E+00
          2   -1    0    0  501    0  0.00000000000E+00  0.00000000000E+00  0.82562326339E+03  0.82562326339E+03  0.00000000000E+00 0. -1.
         -2   -1    0    0    0  501 -0.00000000000E+00 -0.00000000000E+00 -0.14406976907E+02  0.14406976907E+02  0.00000000000E+00 0.  1.
         25    2    1    2    0    0 -0.13452280111E+02 -0.63885354977E+01  0.46699309406E+03  0.48368686135E+03  0.12509457510E+03 0.  0.
         23    2    1    2    0    0  0.13452280111E+02  0.63885354977E+01  0.34422319242E+03  0.35634337894E+03  0.90935253277E+02 0.  0.
          5    1    3    3  502    0 -0.64101369157E+02  0.80260584467E+01  0.34061566647E+03  0.34671300492E+03  0.41800000000E+01 0. -1.
         -5    1    3    3    0  502  0.50649089045E+02 -0.14414593944E+02  0.12637742759E+03  0.13697385643E+03  0.41800000000E+01 0. -1.
        -11    1    4    4    0    0  0.48130606562E+02  0.21552584967E+02  0.16720937633E+03  0.17532839114E+03  0.00000000000E+00 0.  1.
         11    1    4    4    0    0 -0.34678326451E+02 -0.15164049470E+02  0.17701381609E+03  0.18101498780E+03  0.00000000000E+00 0. -1.
</event>
<event>
 8    1  0.3710605E-009  0.1002679E+03  0.7561462E-02  0.1279734E+00
          2   -1    0    0  501    0  0.00000000000E+00  0.00000000000E+00  0.60303772587E+02  0.60303772587E+02  0.00000000000E+00 0.  1.
         -2   -1    0    0    0  501 -0.00000000000E+00 -0.00000000000E+00 -0.24056018583E+03  0.24056018583E+03  0.00000000000E+00 0. -1.
         25    2    1    2    0    0  0.31390924507E+02 -0.39309925334E+02 -0.11271317694E+03  0.17573410475E+03  0.12509018726E+03 0.  0.
         23    2    1    2    0    0 -0.31390924507E+02  0.39309925334E+02 -0.67543236306E+02  0.12512985366E+03  0.92545832621E+02 0.  0.
          5    1    3    3  502    0 -0.70132718479E+01  0.22898538708E+02 -0.98094210167E+02  0.10106174115E+03  0.41800000000E+01 0. -1.
         -5    1    3    3    0  502  0.38404196355E+02 -0.62208464042E+02 -0.14618966769E+02  0.74672363599E+02  0.41800000000E+01 0. -1.
        -11    1    4    4    0    0  0.31067676944E+02  0.22368379318E+02 -0.12798977026E+02  0.40365316261E+02  0.00000000000E+00 0.  1.
         11    1    4    4    0    0 -0.62458601450E+02  0.16941546016E+02 -0.54744259281E+02  0.84764537401E+02  0.00000000000E+00 0. -1.
</event>
<event>
 8    1  0.3710605E-009  0.8304979E+02  0.7561462E-02  0.1320613E+00
          2   -1    0    0  501    0  0.00000000000E+00  0.00000000000E+00  0.29333437923E+03  0.29333437923E+03  0.00000000000E+00 0. -1.
         -2   -1    0    0    0  501 -0.00000000000E+00 -0.00000000000E+00 -0.40736853740E+02  0.40736853740E+02  0.00000000000E+00 0.  1.
         25    2    1    2    0    0 -0.10593546218E+02  0.25686926511E+01  0.14711161562E+03  0.19341238895E+03  0.12509078042E+03 0.  0.
         23    2    1    2    0    0  0.10593546218E+02 -0.25686926511E+01  0.10548590987E+03  0.14065884402E+03  0.92405691470E+02 0.  0.
          5    1    3    3  502    0  0.22144732515E+02  0.27235592370E+02  0.14803637171E+03  0.15219857561E+03  0.41800000000E+01 0.  1.
         -5    1    3    3    0  502 -0.32738278733E+02 -0.24666899719E+02 -0.92475608826E+00  0.41213813339E+02  0.41800000000E+01 0.  1.
        -11    1    4    4    0    0 -0.39173713123E+02 -0.61342091084E+01  0.28161687372E+02  0.48634236468E+02  0.00000000000E+00 0.  1.
         11    1    4    4    0    0  0.49767259341E+02  0.35655164573E+01  0.77324222495E+02  0.92024607548E+02  0.00000000000E+00 0. -1.
</event>
<event>
 8    1  0.3710605E-009  0.6745946E+02  0.7561462E-02  0.1368952E+00
          1   -1    0    0  501    0  0.00000000000E+00  0.00000000000E+00  0.33959095213E+03  0.33959095213E+03  0.00000000000E+00 0. -1.
         -1   -1    0    0    0  501 -0.00000000000E+00 -0.00000000000E+00 -0.50597047447E+02  0.50597047447E+02  0.00000000000E+00 0.  1.
         25    2    1    2    0    0  0.20816664416E+02  0.48360921343E+02  0.82874640350E+02  0.15902059201E+03  0.12508889015E+03 0.  0.
         23    2    1    2    0    0 -0.20816664416E+02 -0.48360921343E+02  0.20611926433E+03  0.23116740757E+03  0.90449471872E+02 0.  0.
          5    1    3    3  502    0  0.17973693710E+02  0.19522790818E+01 -0.30898478849E+02  0.36042384139E+02  0.41800000000E+01 0.  1.
         -5    1    3    3    0  502  0.28429707062E+01  0.46408642261E+02  0.11377311920E+03  0.12297820787E+03  0.41800000000E+01 0.  1.
        -11    1    4    4    0    0  0.91023803975E+01 -0.36295024997E+02  0.20304432591E+02  0.42572903957E+02  0.00000000000E+00 0.  1.
         11    1    4    4    0    0 -0.29919044814E+02 -0.12065896346E+02  0.18581483174E+03  0.18859450361E+03  0.00000000000E+00 0. -1.
</event>
<event>
 8    1  0.3710605E-009  0.1352160E+03  0.7561462E-02  0.1219915E+00
         -3   -1    0    0    0  501 -0.00000000000E+00  0.00000000000E+00  0.27588537239E+03  0.27588537239E+03  0.00000000000E+00 0.  1.
          3   -1    0    0  501    0  0.00000000000E+00 -0.00000000000E+00 -0.68207342837E+02  0.68207342837E+02  0.00000000000E+00 0. -1.
         25    2    1    2    0    0 -0.23305281765E+02 -0.80543938729E+02  0.10856831273E+03  0.18564733417E+03  0.12508953565E+03 0.  0.
         23    2    1    2    0    0  0.23305281765E+02  0.80543938729E+02  0.99109716820E+02  0.15844538106E+03  0.90839091729E+02 0.  0.
          5    1    3    3  502    0  0.23014434052E+01  0.31476191584E+02  0.42270367765E+02  0.52917895549E+02  0.41800000000E+01 0.  1.
         -5    1    3    3    0  502 -0.25606725170E+02 -0.11202013031E+03  0.66297944965E+02  0.13272943862E+03  0.41800000000E+01 0.  1.
        -11    1    4    4    0    0  0.38004220546E+02 -0.36168317430E+01  0.29656684532E+02  0.48341712718E+02  0.00000000000E+00 0.  1.
         11    1    4    4    0    0 -0.14698938780E+02  0.84160770472E+02  0.69453032288E+02  0.11010366834E+03  0.00000000000E+00 0. -1.
</event>
<event>
 8    1  0.3710605E-009  0.1114765E+03  0.7561462E-02  0.1257860E+00
          2   -1    0    0  501    0  0.00000000000E+00  0.00000000000E+00  0.24510191081E+03  0.24510191081E+03  0.00000000000E+00 0. -1.
         -2   -1    0    0    0  501 -0.00000000000E+00 -0.00000000000E+00 -0.72135709380E+02  0.72135709380E+02  0.00000000000E+00 0.  1.
         25    2    1    2    0    0  0.37167209185E+02  0.38027110681E+01  0.17697885424E+03  0.21991848504E+03  0.12508702237E+03 0.  0.
         23    2    1    2    0    0 -0.37167209185E+02 -0.38027110681E+01 -0.40126528040E+01  0.97319135155E+02  0.89772215271E+02 0.  0.
          5    1    3    3  502    0 -0.36880489374E+02 -0.28880317759E+02  0.45309955126E+02  0.65304729414E+02  0.41800000000E+01 0.  1.
         -5    1    3    3    0  502  0.74047698559E+02  0.32683028827E+02  0.13166889911E+03  0.15461375563E+03  0.41800000000E+01 0.  1.
        -11    1    4    4    0    0  0.27730332982E+02 -0.10461999865E+02  0.86257164832E+01  0.30867908794E+02  0.00000000000E+00 0. -1.
         11    1    4    4    0    0 -0.64897542167E+02  0.66592887964E+01 -0.12638369287E+02  0.66451226361E+02  0.00000000000E+00 0.  1.
</event>
<event>
 8    1  0.3710605E-009  0.1659934E+03  0.7561462E-02  0.1182092E+00
          2   -1    0    0  501    0  0.00000000000E+00  0.00000000000E+00  0.20673223394E+04  0.20673223394E+04  0.00000000000E+00 0. -1.
         -2   -1    0    0    0  501 -0.00000000000E+00 -0.00000000000E+00 -0.24198957227E+02  0.24198957227E+02  0.00000000000E+00 0.  1.
         25    2    1    2    0    0 -0.42707205280E+01 -0.13863130920E+03  0.17022724298E+04  0.17124884518E+04  0.12509353838E+03 0.  0.
         23    2    1    2    0    0  0.42707205280E+01  0.13863130920E+03  0.34085095237E+03  0.37903284483E+03  0.90827566204E+02 0.  0.
          5    1    3    3  502    0  0.57303406250E+02 -0.86954311443E+02  0.83228898807E+03  0.83878910622E+03  0.41800000000E+01 0. -1.
         -5    1    3    3    0  502 -0.61574126778E+02 -0.51676997753E+02  0.86998344176E+03  0.87369934561E+03  0.41800000000E+01 0. -1.
        -11    1    4    4    0    0  0.26813480745E+02  0.83828819019E+02  0.28240397148E+03  0.29580100871E+03  0.00000000000E+00 0. -1.
         11    1    4    4    0    0 -0.22542760217E+02  0.54802490176E+02  0.58446980892E+02  0.83231836115E+02  0.00000000000E+00 0.  1.
</event>
<event>
 8    1  0.3710605E-009  0.8690449E+02  0.7561462E-02  0.1310526E+00
         -2   -1    0    0    0  501 -0.00000000000E+00  0.00000000000E+00  0.13171253524E+02  0.13171253524E+02  0.00000000000E+00 0. -1.
          2   -1    0    0  501    0  0.00000000000E+00 -0.00000000000E+00 -0.13097431266E+04  0.13097431266E+04  0.00000000000E+00 0.  1.
         25    2    1    2    0    0  0.65921346806E+01 -0.57683314504E+02 -0.94803635494E+03  0.95801451971E+03  0.12509224068E+03 0.  0.
         23    2    1    2    0    0 -0.65921346806E+01  0.57683314504E+02 -0.34853551810E+03  0.36489986038E+03  0.91126723375E+02 0.  0.
          5    1    3    3  502    0 -0.11877886899E+02 -0.25846183358E+02 -0.40200918036E+02  0.49423634045E+02  0.41800000000E+01 0.  1.
         -5    1    3    3    0  502  0.18470021579E+02 -0.31837131146E+02 -0.90783543691E+03  0.90859088567E+03  0.41800000000E+01 0.  1.
        -11    1    4    4    0    0 -0.31642057366E+02 -0.12096406659E+02 -0.11367438719E+03  0.11861454022E+03  0.00000000000E+00 0.  1.
         11    1    4    4    0    0  0.25049922685E+02  0.69779721164E+02 -0.23486113091E+03  0.24628532016E+03  0.00000000000E+00 0. -1.
</event>
<event>
 8    1  0.3710605E-009  0.1212020E+03  0.7561462E-02  0.1241127E+00
          1   -1    0    0  501    0  0.00000000000E+00  0.00000000000E+00  0.85567519368E+03  0.85567519368E+03  0.00000000000E+00 0. -1.
         -1   -1    0    0    0  501 -0.00000000000E+00 -0.00000000000E+00 -0.27004450342E+02  0.27004450342E+02  0.00000000000E+00 0.  1.
         25    2    1    2    0    0 -0.89790337604E+01 -0.70929898430E+02  0.66850148671E+03  0.68385251108E+03  0.12509334772E+03 0.  0.
         23    2    1    2    0    0  0.89790337604E+01  0.70929898430E+02  0.16016925664E+03  0.19882713294E+03  0.93628865664E+02 0.  0.
          5    1    3    3  502    0  0.46591531453E+02 -0.43620162367E+02  0.50385442617E+03  0.50789786822E+03  0.41800000000E+01 0.  1.
         -5    1    3    3    0  502 -0.55570565213E+02 -0.27309736063E+02  0.16464706054E+03  0.17595464287E+03  0.41800000000E+01 0.  1.
        -11    1    4    4    0    0  0.38978653644E+02 -0.42308053198E+00  0.39726910469E+02  0.55657361171E+02  0.00000000000E+00 0. -1.
         11    1    4    4    0    0 -0.29999619884E+02  0.71352978962E+02  0.12044234617E+03  0.14316977177E+03  0.00000000000E+00 0.  1.
</event>
<event>
 8    1  0.3710605E-009  0.1260565E+03  0.7561462E-02  0.1233427E+00
         -2   -1    0    0    0  501 -0.00000000000E+00  0.00000000000E+00  0.40595624262E+02  0.40595624262E+02  0.00000000000E+00 0.  1.
          2   -1    0    0  501    0  0.00000000000E+00 -0.00000000000E+00 -0.46473865988E+03  0.46473865988E+03  0.00000000000E+00 0. -1.
         25    2    1    2    0    0  0.59541099754E+02  0.42883062372E+02 -0.15576630226E+03  0.21282386528E+03  0.12508699818E+03 0.  0.
         23    2    1    2    0    0 -0.59541099754E+02 -0.42883062372E+02 -0.26837673336E+03  0.29251041887E+03  0.90289393285E+02 0.  0.
          5    1    3    3  502    0 -0.10973531998E+02  0.61819684054E+02 -0.36002334087E+02  0.72496428883E+02  0.41800000000E+01 0.  1.
         -5    1    3    3    0  502  0.70514631753E+02 -0.18936621682E+02 -0.11976396818E+03  0.14032743640E+03  0.41800000000E+01 0.  1.
        -11    1    4    4    0    0 -0.13707537947E+02  0.28270011625E+02 -0.82140367294E+02  0.87943903103E+02  0.00000000000E+00 0. -1.
         11    1    4    4    0    0 -0.45833561808E+02 -0.71153073997E+02 -0.18623636606E+03  0.20456651576E+03  0.00000000000E+00 0.  1.
</event>
<event>
 8    1  0.3710605E-009  0.1473037E+03  0.7561462E-02  0.1203826E+00
         -1   -1    0    0    0  501 -0.00000000000E+00  0.00000000000E+00  0.18994369704E+03  0.18994369704E+03  0.00000000000E+00 0.  1.
          1   -1    0    0  501    0  0.00000000000E+00 -0.00000000000E+00 -0.15732969015E+03  0.15732969015E+03  0.00000000000E+00 0. -1.
         25    2    1    2    0    0  0.12250607211E+03  0.47939580800E+02 -0.10993952535E+02  0.18186136761E+03  0.12508696546E+03 0.  0.
         23    2    1    2    0    0 -0.12250607211E+03 -0.47939580800E+02  0.43607959433E+02  0.16541201958E+03  0.90296959994E+02 0.  0.
          5    1    3    3  502    0  0.23971141652E+02  0.26354276728E+02 -0.59793912049E+02  0.69727669200E+02  0.41800000000E+01 0.  1.
         -5    1    3    3    0  502  0.98534930454E+02  0.21585304072E+02  0.48799959514E+02  0.11213369841E+03  0.41800000000E+01 0.  1.
        -11    1    4    4    0    0 -0.95502967798E+02  0.78230789403E+01  0.14339337434E+02  0.96889803491E+02  0.00000000000E+00 0. -1.
         11    1    4    4    0    0 -0.27003104308E+02 -0.55762659740E+02  0.29268621998E+02  0.68522216086E+02  0.00000000000E+00 0.  1.
</event>
<event>
 8    1  0.3710605E-009  0.1146126E+03  0.7561462E-02  0.1252259E+00
         -3   -1    0    0    0  501 -0.00000000000E+00  0.00000000000E+00  0.23407127597E+02  0.23407127597E+02  0.00000000000E+00 0. -1.
          3   -1    0    0  501    0  0.00000000000E+00 -0.00000000000E+00 -0.70797722850E+03  0.70797722850E+03  0.00000000000E+00 0.  1.
         25    2    1    2    0    0 -0.70351013408E+02 -0.74507259725E+01 -0.39383892265E+03  0.41923511722E+03  0.12507680885E+03 0.  0.
         23    2    1    2    0    0  0.70351013408E+02  0.74507259725E+01 -0.29073117825E+03  0.31214923887E+03  0.88925535801E+02 0.  0.
          5    1    3    3  502    0 -0.92607876850E+02 -0.73797031570E+01 -0.38300082676E+03  0.39412914708E+03  0.41800000000E+01 0. -1.
         -5    1    3    3    0  502  0.22256863443E+02 -0.71022815499E-01 -0.10838095889E+02  0.25105970147E+02  0.41800000000E+01 0. -1.
        -11    1    4    4    0    0  0.65666798259E+02 -0.32562694832E+02 -0.19198745956E+03  0.20550338711E+03  0.00000000000E+00 0. -1.
         11    1    4    4    0    0  0.46842151482E+01  0.40013420805E+02 -0.98743718689E+02  0.10664585176E+03  0.00000000000E+00 0.  1.
</event>
<event>
 8    1  0.3710605E-009  0.1069742E+03  0.7561462E-02  0.1266278E+00
         -2   -1    0    0    0  501 -0.00000000000E+00  0.00000000000E+00  0.44049685918E+03  0.44049685918E+03  0.00000000000E+00 0.  1.
          2   -1    0    0  501    0  0.00000000000E+00 -0.00000000000E+00 -0.31346576396E+02  0.31346576396E+02  0.00000000000E+00 0. -1.
         25    2    1    2    0    0 -0.24467666041E+02 -0.14084864687E+02  0.18373930653E+03  0.22406508769E+03  0.12509188888E+03 0.  0.
         23    2    1    2    0    0  0.24467666041E+02  0.14084864687E+02  0.22541097626E+03  0.24777834789E+03  0.98929021878E+02 0.  0.
          5    1    3    3  502    0 -0.13514443681E+02  0.50666571926E+02  0.12592598207E+03  0.13647185445E+03  0.41800000000E+01 0.  1.
         -5    1    3    3    0  502 -0.10953222360E+02 -0.64751436613E+02  0.57813324461E+02  0.87593233236E+02  0.41800000000E+01 0.  1.
        -11    1    4    4    0    0  0.16754087189E+02 -0.38712295814E+02  0.55655419543E+02  0.69834568870E+02  0.00000000000E+00 0. -1.
         11    1    4    4    0    0  0.77135788525E+01  0.52797160501E+02  0.16975555671E+03  0.17794377902E+03  0.00000000000E+00 0.  1.
</event>
<event>
 8    1  0.3710605E-009  0.1550610E+03  0.7561462E-02  0.1194388E+00
         -1   -1    0    0    0  501 -0.00000000000E+00  0.00000000000E+00  0.16651759609E+03  0.16651759609E+03  0.00000000000E+00 0.  1.
          1   -1    0    0  501    0  0.00000000000E+00 -0.00000000000E+00 -0.17737501423E+03  0.17737501423E+03  0.00000000000E+00 0. -1.
         25    2    1    2    0    0  0.73887465089E+02 -0.10009288397E+03  0.41044181999E+02  0.18113515932E+03  0.12508948056E+03 0.  0.
         23    2    1    2    0    0 -0.73887465089E+02  0.10009288397E+03 -0.51901600140E+02  0.16275745100E+03  0.91204543966E+02 0.  0.
          5    1    3    3  502    0  0.90715595028E+02 -0.30795848190E+02 -0.52120230112E+01  0.96033020524E+02  0.41800000000E+01 0.  1.
         -5    1    3    3    0  502 -0.16828129939E+02 -0.69297035785E+02  0.46256205010E+02  0.85102138796E+02  0.41800000000E+01 0.  1.
        -11    1    4    4    0    0 -0.58904716642E+02  0.21370525980E+02  0.73566036774E+01  0.63091874604E+02  0.00000000000E+00 0.  1.
         11    1    4    4    0    0 -0.14982748447E+02  0.78722357995E+02 -0.59258203818E+02  0.99665576399E+02  0.00000000000E+00 0. -1.
</event>
<event>
 8    1  0.3710605E-009  0.1976229E+03  0.7561462E-02  0.1151760E+00
         -1   -1    0    0    0  501 -0.00000000000E+00  0.00000000000E+00  0.61377147426E+02  0.61377147426E+02  0.00000000000E+00 0.  1.
          1   -1    0    0  501    0  0.00000000000E+00 -0.00000000000E+00 -0.79174351943E+03  0.79174351943E+03  0.00000000000E+00 0. -1.
         25    2    1    2    0    0 -0.19013756881E+03 -0.87354556002E+01 -0.34890595224E+03  0.41666630239E+03  0.12508733263E+03 0.  0.
         23    2    1    2    0    0  0.19013756881E+03  0.87354556002E+01 -0.38146041976E+03  0.43645436446E+03  0.93550826597E+02 0.  0.
          5    1    3    3  502    0 -0.73200873744E+02  0.11789088861E+02 -0.37135807936E+02  0.83029459616E+02  0.41800000000E+01 0. -1.
         -5    1    3    3    0  502 -0.11693669506E+03 -0.20524544461E+02 -0.31177014431E+03  0.33363684278E+03  0.41800000000E+01 0. -1.
        -11    1    4    4    0    0  0.18600172350E+03 -0.67836995367E+01 -0.29715968916E+03  0.35063733484E+03  0.00000000000E+00 0.  1.
         11    1    4    4    0    0  0.41358453053E+01  0.15519155137E+02 -0.84300730597E+02  0.85817029614E+02  0.00000000000E+00 0. -1.
</event>
<event>
 8    1  0.3710605E-009  0.1168916E+03  0.7561462E-02  0.1248315E+00
         -1   -1    0    0    0  501 -0.00000000000E+00  0.00000000000E+00  0.77613776713E+02  0.77613776713E+02  0.00000000000E+00 0.  1.
          1   -1    0    0  501    0  0.00000000000E+00 -0.00000000000E+00 -0.21506721300E+03  0.21506721300E+03  0.00000000000E+00 0. -1.
         25    2    1    2    0    0  0.38511948696E+02  0.58285469561E+02 -0.77557322834E+02  0.16291354654E+03  0.12508125026E+03 0.  0.
         23    2    1    2    0    0 -0.38511948696E+02 -0.58285469561E+02 -0.59896113453E+02  0.12976744317E+03  0.91496878341E+02 0.  0.
          5    1    3    3  502    0  0.50237845250E+02 -0.19511142359E+02 -0.25242004660E+01  0.54114413602E+02  0.41800000000E+01 0. -1.
         -5    1    3    3    0  502 -0.11725896554E+02  0.77796611920E+02 -0.75033122368E+02  0.10879913294E+03  0.41800000000E+01 0. -1.
        -11    1    4    4    0    0  0.21326907236E+02 -0.23465389248E+02  0.81011150667E+01  0.32727504184E+02  0.00000000000E+00 0.  1.
         11    1    4    4    0    0 -0.59838855932E+02 -0.34820080313E+02 -0.67997228520E+02  0.97039938987E+02  0.00000000000E+00 0. -1.
</event>
<event>
 8    1  0.3710605E-009  0.1176293E+03  0.7561462E-02  0.1247060E+00
          1   -1    0    0  501    0  0.00000000000E+00  0.00000000000E+00  0.36445876080E+03  0.36445876080E+03  0.00000000000E+00 0. -1.
         -1   -1    0    0    0  501 -0.00000000000E+00 -0.00000000000E+00 -0.82561286109E+02  0.82561286109E+02  0.00000000000E+00 0.  1.
         25    2    1    2    0    0 -0.64988249988E+02  0.74175712140E+02  0.30859374369E+02  0.16225117969E+03  0.12509050890E+03 0.  0.
         23    2    1    2    0    0  0.64988249988E+02 -0.74175712140E+02  0.25103810032E+03  0.28476886722E+03  0.91365589889E+02 0.  0.
          5    1    3    3  502    0 -0.68447814420E+02  0.76469538137E+01 -0.26823576842E+02  0.74030776547E+02  0.41800000000E+01 0.  1.
         -5    1    3    3    0  502  0.34595644320E+01  0.66528758326E+02  0.57682951211E+02  0.88220403144E+02  0.41800000000E+01 0.  1.
        -11    1    4    4    0    0  0.53645720797E+02 -0.67936187859E+02  0.25650412841E+03  0.27071674657E+03  0.00000000000E+00 0. -1.
         11    1    4    4    0    0  0.11342529192E+02 -0.62395242802E+01 -0.54660280890E+01  0.14052120651E+02  0.00000000000E+00 0.  1.
</event>
<event>
 8    1  0.3710605E-009  0.1154245E+03  0.7561462E-02  0.1250842E+00
          2   -1    0    0  501    0  0.00000000000E+00  0.00000000000E+00  0.16554665903E+04  0.16554665903E+04  0.00000000000E+00 0. -1.
         -2   -1    0    0    0  501 -0.00000000000E+00 -0.00000000000E+00 -0.99863912450E+01  0.99863912450E+01  0.00000000000E+00 0.  1.
         25    2    1    2    0    0 -0.38515443243E+02  0.35700108350E+02  0.12180677384E+04  0.12255992264E+04  0.12508601633E+03 0.  0.
         23    2    1    2    0    0  0.38515443243E+02 -0.35700108350E+02  0.42741246070E+03  0.43985375512E+03  0.89621298972E+02 0.  0.
          5    1    3    3  502    0  0.41552423642E+02  0.15427291203E+02  0.24410202439E+03  0.24812874870E+03  0.41800000000E+01 0. -1.
         -5    1    3    3    0  502 -0.80067866885E+02  0.20272817147E+02  0.97396571397E+03  0.97747047772E+03  0.41800000000E+01 0. -1.
        -11    1    4    4    0    0  0.34251363807E+02  0.25235314056E+02  0.16076050546E+03  0.16629466953E+03  0.00000000000E+00 0. -1.
         11    1    4    4    0    0  0.42640794356E+01 -0.60935422406E+02  0.26665195524E+03  0.27355908559E+03  0.00000000000E+00 0.  1.
</event>
<event>
 8    1  0.3710605E-009  0.1011377E+03  0.7561462E-02  0.1277922E+00
         -1   -1    0    0    0  501 -0.00000000000E+00  0.00000000000E+00  0.26832900009E+02  0.26832900009E+02  0.00000000000E+00 0.  1.
          1   -1    0    0  501    0  0.00000000000E+00 -0.00000000000E+00 -0.52410766119E+03  0.52410766119E+03  0.00000000000E+00 0. -1.
         25    2    1    2    0    0  0.33988866010E+02 -0.32903153558E+02 -0.25810041668E+03  0.29069028874E+03  0.12508860201E+03 0.  0.
         23    2    1    2    0    0 -0.33988866010E+02  0.32903153558E+02 -0.23917434450E+03  0.26025027246E+03  0.91038325556E+02 0.  0.
          5    1    3    3  502    0 -0.42354790387E+02 -0.29689109362E+02 -0.14610570144E+03  0.15504747620E+03  0.41800000000E+01 0. -1.
         -5    1    3    3    0  502  0.76343656397E+02 -0.32140441959E+01 -0.11199471524E+03  0.13564281254E+03  0.41800000000E+01 0. -1.
        -11    1    4    4    0    0 -0.19058103780E+02 -0.14635254526E+02 -0.10522522556E+02  0.26232145846E+02  0.00000000000E+00 0.  1.
         11    1    4    4    0    0 -0.14930762230E+02  0.47538408084E+02 -0.22865182195E+03  0.23401812661E+03  0.00000000000E+00 0. -1.
</event>
<event>
 8    1  0.3710605E-009  0.9248823E+02  0.7561462E-02  0.1296936E+00
          1   -1    0    0  501    0  0.00000000000E+00  0.00000000000E+00  0.23026587848E+03  0.23026587848E+03  0.00000000000E+00 0. -1.
         -1   -1    0    0    0  501 -0.00000000000E+00 -0.00000000000E+00 -0.49565395659E+02  0.49565395659E+02  0.00000000000E+00 0.  1.
         25    2    1    2    0    0 -0.66223706631E+01  0.11940544293E+02  0.12964459118E+03  0.18066792419E+03  0.12508695543E+03 0.  0.
         23    2    1    2    0    0  0.66223706631E+01 -0.11940544293E+02  0.51055891641E+02  0.99163349950E+02  0.83906099366E+02 0.  0.
          5    1    3    3  502    0 -0.25963863738E+02  0.55681699215E+02  0.26778395440E+02  0.67150046240E+02  0.41800000000E+01 0.  1.
         -5    1    3    3    0  502  0.19341493075E+02 -0.43741154923E+02  0.10286619574E+03  0.11351787795E+03  0.41800000000E+01 0.  1.
        -11    1    4    4    0    0 -0.33593405458E+02 -0.58013239658E+00  0.54031449447E+00  0.33602758571E+02  0.00000000000E+00 0.  1.
         11    1    4    4    0    0  0.40215776121E+02 -0.11360411896E+02  0.50515577147E+02  0.65560591379E+02  0.00000000000E+00 0. -1.
</event>
<event>
 8    1  0.3710605E-009  0.1336671E+03  0.7561462E-02  0.1222114E+00
          2   -1    0    0  501    0  0.00000000000E+00  0.00000000000E+00  0.10761964537E+04  0.10761964537E+04  0.00000000000E+00 0. -1.
         -2   -1    0    0    0  501 -0.00000000000E+00 -0.00000000000E+00 -0.23229891148E+02  0.23229891148E+02  0.00000000000E+00 0.  1.
         25    2    1    2    0    0 -0.10606854782E+00 -0.93469236508E+02  0.80157773128E+03  0.81664607104E+03  0.12508971438E+03 0.  0.
         23    2    1    2    0    0  0.10606854782E+00  0.93469236508E+02  0.25138883132E+03  0.28278027385E+03  0.89620473911E+02 0.  0.
          5    1    3    3  502    0 -0.56222880547E+02 -0.36351266880E+02  0.23374414126E+03  0.24317940471E+03  0.41800000000E+01 0.  1.
         -5    1    3    3    0  502  0.56116811999E+02 -0.57117969628E+02  0.56783359002E+03  0.57346666634E+03  0.41800000000E+01 0.  1.
        -11    1    4    4    0    0  0.29465067163E+02  0.84320087734E+02  0.13118997360E+03  0.15871003923E+03  0.00000000000E+00 0.  1.
         11    1    4    4    0    0 -0.29358998615E+02  0.91491487746E+01  0.12019885772E+03  0.12407023463E+03  0.00000000000E+00 0. -1.
</event>
<event>
 8    1  0.3710605E-009  0.1153005E+03  0.7561462E-02  0.1251058E+00
          1   -1    0    0  501    0  0.00000000000E+00  0.00000000000E+00  0.24115962204E+03  0.24115962204E+03  0.00000000000E+00 0. -1.
         -1   -1    0    0    0  501 -0.00000000000E+00 -0.00000000000E+00 -0.70273294090E+02  0.70273294090E+02  0.00000000000E+00 0.  1.
         25    2    1    2    0    0  0.18968046326E+02  0.69299259513E+02  0.10331528458E+03  0.17743349840E+03  0.12508566735E+03 0.  0.
         23    2    1    2    0    0 -0.18968046326E+02 -0.69299259513E+02  0.67571043371E+02  0.13399941773E+03  0.90707353055E+02 0.  0.
          5    1    3    3  502    0 -0.14791301536E+02 -0.26922215075E+02  0.58005615820E+02  0.65770146209E+02  0.41800000000E+01 0.  1.
         -5    1    3    3    0  502  0.33759347862E+02  0.96221474588E+02  0.45309668755E+02  0.11166335219E+03  0.41800000000E+01 0.  1.
        -11    1    4    4    0    0 -0.43632444524E+02 -0.39460272714E+02  0.74232658888E+02  0.94717427031E+02  0.00000000000E+00 0. -1.
         11    1    4    4    0    0  0.24664398199E+02 -0.29838986799E+02 -0.66616155164E+01  0.39281990695E+02  0.00000000000E+00 0.  1.
</event>
<event>
 8    1  0.3710605E-009  0.1383037E+03  0.7561462E-02  0.1215630E+00
          2   -1    0    0  501    0  0.00000000000E+00  0.00000000000E+00  0.19687917961E+03  0.19687917961E+03  0.00000000000E+00 0. -1.
         -2   -1    0    0    0  501 -0.00000000000E+00 -0.00000000000E+00 -0.10131206738E+03  0.10131206738E+03  0.00000000000E+00 0.  1.
         25    2    1    2    0    0  0.13043949701E+02 -0.88988449319E+02  0.55338529468E+02  0.16370401819E+03  0.12509022341E+03 0.  0.
         23    2    1    2    0    0 -0.13043949701E+02  0.88988449319E+02  0.40228582757E+02  0.13448722880E+03  0.91538992256E+02 0.  0.
          5    1    3    3  502    0  0.67593737184E+02 -0.48473933015E+02  0.15153172811E+02  0.84650614497E+02  0.41800000000E+01 0.  1.
         -5    1    3    3    0  502 -0.54549787483E+02 -0.40514516304E+02  0.40185356657E+02  0.79053403693E+02  0.41800000000E+01 0.  1.
        -11    1    4    4    0    0 -0.45639989646E+02  0.21822852080E+02  0.20409946407E+01  0.50630141091E+02  0.00000000000E+00 0.  1.
         11    1    4    4    0    0  0.32596039945E+02  0.67165597239E+02  0.38187588116E+02  0.83857087707E+02  0.00000000000E+00 0. -1.
</event>
<event>
 8    1  0.3710605E-009  0.2831409E+03  0.7561462E-02  0.1093986E+00
         -1   -1    0    0    0  501 -0.00000000000E+00  0.00000000000E+00  0.18842478312E+03  0.18842478312E+03  0.00000000000E+00 0.  1.
          1   -1    0    0  501    0  0.00000000000E+00 -0.00000000000E+00 -0.58377059680E+03  0.58377059680E+03  0.00000000000E+00 0. -1.
         25    2    1    2    0    0 -0.23220186068E+03  0.14041719024E+03 -0.18044539858E+02  0.29934595638E+03  0.12509078609E+03 0.  0.
         23    2    1    2    0    0  0.23220186068E+03 -0.14041719024E+03 -0.37730127382E+03  0.47284942353E+03  0.87152938462E+02 0.  0.
          5    1    3    3  502    0 -0.16670266364E+02 -0.19694288809E+02 -0.16315578396E+02  0.30812875405E+02  0.41800000000E+01 0. -1.
         -5    1    3    3    0  502 -0.21553159432E+03  0.16011147905E+03 -0.17289614616E+01  0.26853308098E+03  0.41800000000E+01 0. -1.
        -11    1    4    4    0    0  0.91987220389E+02 -0.48896893582E+02 -0.78904529117E+02  0.13068465722E+03  0.00000000000E+00 0. -1.
         11    1    4    4    0    0  0.14021464029E+03 -0.91520296657E+02 -0.29839674471E+03  0.34216476631E+03  0.00000000000E+00 0.  1.
</event>
<event>
 8    1  0.3710605E-009  0.9787990E+02  0.7561462E-02  0.1284818E+00
         -2   -1    0    0    0  501 -0.00000000000E+00  0.00000000000E+00  0.25459000636E+02  0.25459000636E+02  0.00000000000E+00 0.  1.
          2   -1    0    0  501    0  0.00000000000E+00 -0.00000000000E+00 -0.70202536417E+03  0.70202536417E+03  0.00000000000E+00 0. -1.
         25    2    1    2    0    0  0.16419563000E+02  0.49239049559E+02 -0.53192142912E+03  0.54889181431E+03  0.12509089097E+03 0.  0.
         23    2    1    2    0    0 -0.16419563000E+02 -0.49239049559E+02 -0.14464493441E+03  0.17859255050E+03  0.90989318009E+02 0.  0.
          5    1    3    3  502    0  0.57974585491E+02  0.32145578660E+02 -0.45410429684E+03  0.45893635245E+03  0.41800000000E+01 0. -1.
         -5    1    3    3    0  502 -0.41555022490E+02  0.17093470899E+02 -0.77817132279E+02  0.89955461856E+02  0.41800000000E+01 0. -1.
        -11    1    4    4    0    0  0.24576342654E+02 -0.74751326372E+01 -0.10453261565E+03  0.10764265865E+03  0.00000000000E+00 0. -1.
         11    1    4    4    0    0 -0.40995905654E+02 -0.41763916922E+02 -0.40112318762E+02  0.70949891850E+02  0.00000000000E+00 0.  1.
</event>
<event>
 8    1  0.3710605E-009  0.1060859E+03  0.7561462E-02  0.1267995E+00
         -2   -1    0    0    0  501 -0.00000000000E+00  0.00000000000E+00  0.32942371711E+02  0.32942371711E+02  0.00000000000E+00 0.  1.
          2   -1    0    0  501    0  0.00000000000E+00 -0.00000000000E+00 -0.44148181722E+03  0.44148181722E+03  0.00000000000E+00 0. -1.
         25    2    1    2    0    0 -0.43351832559E+02 -0.29019352001E+02 -0.22931044540E+03  0.26636846183E+03  0.12508945963E+03 0.  0.
         23    2    1    2    0    0  0.43351832559E+02  0.29019352001E+02 -0.17922900012E+03  0.20805572711E+03  0.91883877383E+02 0.  0.
          5    1    3    3  502    0 -0.78781860699E+02 -0.27647364147E+02 -0.20944436800E+03  0.22551136115E+03  0.41800000000E+01 0. -1.
         -5    1    3    3    0  502  0.35430028140E+02 -0.13719878543E+01 -0.19866077392E+02  0.40857100676E+02  0.41800000000E+01 0. -1.
        -11    1    4    4    0    0  0.60003317327E+02  0.68433119788E+00 -0.61905022851E+02  0.86215417726E+02  0.00000000000E+00 0.  1.
         11    1    4    4    0    0 -0.16651484768E+02  0.28335020803E+02 -0.11732397727E+03  0.12184030938E+03  0.00000000000E+00 0. -1.
</event>
<event>
 8    1  0.3710605E-009  0.1636285E+03  0.7561462E-02  0.1184660E+00
         -1   -1    0    0    0  501 -0.00000000000E+00  0.00000000000E+00  0.32059080324E+03  0.32059080324E+03  0.00000000000E+00 0.  1.
          1   -1    0    0  501    0  0.00000000000E+00 -0.00000000000E+00 -0.10961154114E+03  0.10961154114E+03  0.00000000000E+00 0. -1.
         25    2    1    2    0    0 -0.15248427651E+03  0.90923307519E+01  0.11143799883E+03  0.22671680163E+03  0.12509178829E+03 0.  0.
         23    2    1    2    0    0  0.15248427651E+03 -0.90923307519E+01  0.99541263260E+02  0.20348554275E+03  0.90353627248E+02 0.  0.
          5    1    3    3  502    0 -0.96515883428E+02  0.41833831839E+02  0.93297720585E+01  0.10568775845E+03  0.41800000000E+01 0.  1.
         -5    1    3    3    0  502 -0.55968393080E+02 -0.32741501087E+02  0.10210822677E+03  0.12102904318E+03  0.41800000000E+01 0.  1.
        -11    1    4    4    0    0  0.99384948832E+02  0.11510158137E+02  0.10647917476E+03  0.14610840650E+03  0.00000000000E+00 0.  1.
         11    1    4    4    0    0  0.53099327676E+02 -0.20602488889E+02 -0.69379114950E+01  0.57377136247E+02  0.00000000000E+00 0. -1.
</event>
<event>
 8    1  0.3710605E-009  0.1158115E+03  0.7561462E-02  0.1250171E+00
         -2   -1    0    0    0  501 -0.00000000000E+00  0.00000000000E+00  0.22146527727E+02  0.22146527727E+02  0.00000000000E+00 0.  1.
          2   -1    0    0  501    0  0.00000000000E+00 -0.00000000000E+00 -0.77312595309E+03  0.77312595309E+03  0.00000000000E+00 0. -1.
         25    2    1    2    0    0  0.27915484845E+02 -0.60851537585E+02 -0.50240172612E+03  0.52205055280E+03  0.12508837417E+03 0.  0.
         23    2    1    2    0    0 -0.27915484845E+02  0.60851537585E+02 -0.24857769924E+03  0.27322192801E+03  0.91526856524E+02 0.  0.
          5    1    3    3  502    0 -0.13483086490E+02  0.26591162182E+02 -0.24835783863E+03  0.25017588201E+03  0.41800000000E+01 0. -1.
         -5    1    3    3    0  502  0.41398571336E+02 -0.87442699768E+02 -0.25404388749E+03  0.27187467080E+03  0.41800000000E+01 0. -1.
        -11    1    4    4    0    0 -0.55942592338E+02  0.31964729483E+02 -0.97430651557E+02  0.11680774560E+03  0.00000000000E+00 0.  1.
         11    1    4    4    0    0  0.28027107493E+02  0.28886808103E+02 -0.15114704768E+03  0.15641418241E+03  0.00000000000E+00 0. -1.
</event>
<event>
 8    1  0.3710605E-009  0.1271659E+03  0.7561462E-02  0.1231723E+00
          3   -1    0    0  501    0  0.00000000000E+00  0.00000000000E+00  0.73917115226E+02  0.73917115226E+02  0.00000000000E+00 0. -1.
         -3   -1    0    0    0  501 -0.00000000000E+00 -0.00000000000E+00 -0.37590726302E+03  0.37590726302E+03  0.00000000000E+00 0.  1.
         25    2    1    2    0    0  0.85804391269E+02 -0.27141636611E+02 -0.27204049799E+03  0.31265870162E+03  0.12510143547E+03 0.  0.
         23    2    1    2    0    0 -0.85804391269E+02  0.27141636611E+02 -0.29949649805E+02  0.13716567662E+03  0.99087735471E+02 0.  0.
          5    1    3    3  502    0 -0.20648242643E+02 -0.36755001683E+00 -0.13686809741E+03  0.13848044449E+03  0.41800000000E+01 0.  1.
         -5    1    3    3    0  502  0.10645263391E+03 -0.26774086594E+02 -0.13517240057E+03  0.17417825713E+03  0.41800000000E+01 0.  1.
        -11    1    4    4    0    0 -0.56051277843E+02  0.57923354523E+02  0.66029347515E+01  0.80873107362E+02  0.00000000000E+00 0. -1.
         11    1    4    4    0    0 -0.29753113426E+02 -0.30781717912E+02 -0.36552584557E+02  0.56292569261E+02  0.00000000000E+00 0.  1.
</event>
<event>
 8    1  0.3710605E-009  0.1622206E+03  0.7561462E-02  0.1186212E+00
         -2   -1    0    0    0  501 -0.00000000000E+00  0.00000000000E+00  0.74778320503E+02  0.74778320503E+02  0.00000000000E+00 0.  1.
          2   -1    0    0  501    0  0.00000000000E+00 -0.00000000000E+00 -0.40516278808E+03  0.40516278808E+03  0.00000000000E+00 0. -1.
         25    2    1    2    0    0  0.60419751985E+02  0.10485096515E+03 -0.89837777288E+02  0.19586432933E+03  0.12509091875E+03 0.  0.
         23    2    1    2    0    0 -0.60419751985E+02 -0.10485096515E+03 -0.24054669029E+03  0.28407677925E+03  0.90513175718E+02 0.  0.
          5    1    3    3  502    0  0.17689864833E+02  0.12490771543E+03 -0.71383330572E+02  0.14501007198E+03  0.41800000000E+01 0.  1.
         -5    1    3    3    0  502  0.42729887152E+02 -0.20056750279E+02 -0.18454446716E+02  0.50854257358E+02  0.41800000000E+01 0.  1.
        -11    1    4    4    0    0 -0.20905048977E+02 -0.10910264292E+03 -0.16921124039E+03  0.20241751811E+03  0.00000000000E+00 0.  1.
         11    1    4    4    0    0 -0.39514703008E+02  0.42516777685E+01 -0.71335449899E+02  0.81659261140E+02  0.00000000000E+00 0. -1.
</event>
<event>
 8    1  0.3710605E-009  0.1040392E+03  0.7561462E-02  0.1272024E+00
         -2   -1    0    0    0  501 -0.00000000000E+00  0.00000000000E+00  0.11938202103E+02  0.11938202103E+02  0.00000000000E+00 0.  1.
          2   -1    0    0  501    0  0.00000000000E+00 -0.00000000000E+00 -0.17723019076E+04  0.17723019076E+04  0.00000000000E+00 0. -1.
         25    2    1    2    0    0  0.32632316329E+02  0.25902209032E+02 -0.14955493683E+04  0.15013509823E+04  0.12510422275E+03 0.  0.
         23    2    1    2    0    0 -0.32632316329E+02 -0.25902209032E+02 -0.26481433716E+03  0.28288912736E+03  0.90353930245E+02 0.  0.
          5    1    3    3  502    0  0.39926767145E+01 -0.45308053348E+02 -0.85267423588E+03  0.85389670692E+03  0.41800000000E+01 0. -1.
         -5    1    3    3    0  502  0.28639639615E+02  0.71210262380E+02 -0.64287513246E+03  0.64745427542E+03  0.41800000000E+01 0. -1.
        -11    1    4    4    0    0 -0.47600802646E+02  0.81917069548E+01 -0.21687242813E+03  0.22218593690E+03  0.00000000000E+00 0. -1.
         11    1    4    4    0    0  0.14968486317E+02 -0.34093915987E+02 -0.47941909035E+02  0.60703190458E+02  0.00000000000E+00 0.  1.
</event>
<event>
 8    1  0.3710605E-009  0.1329127E+03  0.7561462E-02  0.1223197E+00
         -1   -1    0    0    0  501 -0.00000000000E+00  0.00000000000E+00  0.25717061228E+02  0.25717061228E+02  0.00000000000E+00 0.  1.
          1   -1    0    0  501    0  0.00000000000E+00 -0.00000000000E+00 -0.85993634020E+03  0.85993634020E+03  0.00000000000E+00 0. -1.
         25    2    1    2    0    0  0.85710926110E+02  0.37087088131E+02 -0.56939590372E+03  0.59040742129E+03  0.12508961981E+03 0.  0.
         23    2    1    2    0    0 -0.85710926110E+02 -0.37087088131E+02 -0.26482337525E+03  0.29524598013E+03  0.91197334092E+02 0.  0.
          5    1    3    3  502    0  0.10372577185E+03 -0.40653142830E+01 -0.30546893014E+03  0.32265198311E+03  0.41800000000E+01 0. -1.
         -5    1    3    3    0  502 -0.18014845740E+02  0.41152402414E+02 -0.26392697358E+03  0.26775543818E+03  0.41800000000E+01 0. -1.
        -11    1    4    4    0    0 -0.67247744883E+02  0.83593961868E+01 -0.84211836898E+02  0.10809149907E+03  0.00000000000E+00 0.  1.
         11    1    4    4    0    0 -0.18463181227E+02 -0.45446484317E+02 -0.18061153835E+03  0.18715448107E+03  0.00000000000E+00 0. -1.
</event>
<event>
 8    1  0.3710605E-009  0.8728024E+02  0.7561462E-02  0.1309575E+00
          4   -1    0    0  501    0  0.00000000000E+00  0.00000000000E+00  0.16634589861E+03  0.16634589861E+03  0.00000000000E+00 0. -1.
         -4   -1    0    0    0  501 -0.00000000000E+00 -0.00000000000E+00 -0.88364490289E+02  0.88364490289E+02  0.00000000000E+00 0.  1.
         25    2    1    2    0    0  0.19922983557E+02  0.49792617010E+02  0.38686509785E+02  0.14149281108E+03  0.12508932634E+03 0.  0.
         23    2    1    2    0    0 -0.19922983557E+02 -0.49792617010E+02  0.39294898534E+02  0.11321757782E+03  0.91640061619E+02 0.  0.
          5    1    3    3  502    0  0.33068669679E+02  0.30333708921E+02 -0.39388981984E+02  0.59855117685E+02  0.41800000000E+01 0. -1.
         -5    1    3    3    0  502 -0.13145686122E+02  0.19458908089E+02  0.78075491769E+02  0.81637693394E+02  0.41800000000E+01 0. -1.
        -11    1    4    4    0    0 -0.98931640842E+01 -0.76486689028E+02  0.33664096664E+02  0.84150815197E+02  0.00000000000E+00 0. -1.
         11    1    4    4    0    0 -0.10029819473E+02  0.26694072018E+02  0.56308018704E+01  0.29066762621E+02  0.00000000000E+00 0.  1.
</event>
<event>
 8    1  0.3710605E-009  0.1275279E+03  0.7561462E-02  0.1231171E+00
         -2   -1    0    0    0  501 -0.00000000000E+00  0.00000000000E+00  0.92727489964E+01  0.92727489964E+01  0.00000000000E+00 0. -1.
          2   -1    0    0  501    0  0.00000000000E+00 -0.00000000000E+00 -0.20072660672E+04  0.20072660672E+04  0.00000000000E+00 0.  1.
         25    2    1    2    0    0 -0.28197943622E+02  0.67600347797E+02 -0.13923688982E+04  0.13998941593E+04  0.12509027678E+03 0.  0.
         23    2    1    2    0    0  0.28197943622E+02 -0.67600347797E+02 -0.60562441994E+03  0.61664465689E+03  0.90026461684E+02 0.  0.
          5    1    3    3  502    0 -0.55523987865E+02  0.91188274837E+02 -0.11260145993E+04  0.11310723075E+04  0.41800000000E+01 0.  1.
         -5    1    3    3    0  502  0.27326044243E+02 -0.23587927040E+02 -0.26635429897E+03  0.26882185174E+03  0.41800000000E+01 0.  1.
        -11    1    4    4    0    0  0.50690147230E+02 -0.72873779540E+02 -0.53563527353E+03  0.54294127216E+03  0.00000000000E+00 0.  1.
         11    1    4    4    0    0 -0.22492203608E+02  0.52734317436E+01 -0.69989146409E+02  0.73703384730E+02  0.00000000000E+00 0. -1.
</event>
<event>
 8    1  0.3710605E-009  0.3560322E+03  0.7561462E-02  0.1060166E+00
          1   -1    0    0  501    0  0.00000000000E+00  0.00000000000E+00  0.40955267570E+03  0.40955267570E+03  0.00000000000E+00 0. -1.
         -1   -1    0    0    0  501 -0.00000000000E+00 -0.00000000000E+00 -0.32653653692E+03  0.32653653692E+03  0.00000000000E+00 0.  1.
         25    2    1    2    0    0  0.28554537878E+03 -0.19872216992E+03  0.84532510111E+02  0.37923562339E+03  0.12508896282E+03 0.  0.
         23    2    1    2    0    0 -0.28554537878E+03  0.19872216992E+03 -0.15163713328E+01  0.35685358922E+03  0.79470249761E+02 0.  0.
          5    1    3    3  502    0 -0.54811739618E+00  0.64087798367E+01  0.19854158992E+02  0.21284570020E+02  0.41800000000E+01 0.  1.
         -5    1    3    3    0  502  0.28609349618E+03 -0.20513094976E+03  0.64678351119E+02  0.35795105337E+03  0.41800000000E+01 0.  1.
        -11    1    4    4    0    0 -0.18862626716E+03  0.98039089005E+02 -0.28612238205E+02  0.21449986436E+03  0.00000000000E+00 0. -1.
         11    1    4    4    0    0 -0.96919111622E+02  0.10068308092E+03  0.27095866872E+02  0.14235372486E+03  0.00000000000E+00 0.  1.
</event>
<event>
 8    1  0.3710605E-009  0.2009280E+03  0.7561462E-02  0.1148958E+00
          1   -1    0    0  501    0  0.00000000000E+00  0.00000000000E+00  0.55746885278E+03  0.55746885278E+03  0.00000000000E+00 0. -1.
         -1   -1    0    0    0  501 -0.00000000000E+00 -0.00000000000E+00 -0.11646219296E+03  0.11646219296E+03  0.00000000000E+00 0.  1.
         25    2    1    2    0    0 -0.80487337546E+02 -0.17711005422E+03  0.39209199875E+03  0.45522506166E+03  0.12509012138E+03 0.  0.
         23    2    1    2    0    0  0.80487337546E+02  0.17711005422E+03  0.48914661074E+02  0.21870598408E+03  0.87140579468E+02 0.  0.
          5    1    3    3  502    0 -0.55603621021E+02 -0.11311809131E+03  0.11826967298E+03  0.17289491953E+03  0.41800000000E+01 0.  1.
         -5    1    3    3    0  502 -0.24883716525E+02 -0.63991962914E+02  0.27382232577E+03  0.28233014213E+03  0.41800000000E+01 0.  1.
        -11    1    4    4    0    0  0.36690201647E+02  0.15221861877E+03  0.13565334002E+02  0.15716455416E+03  0.00000000000E+00 0.  1.
         11    1    4    4    0    0  0.43797135899E+02  0.24891435455E+02  0.35349327072E+02  0.61541429919E+02  0.00000000000E+00 0. -1.
</event>
<event>
 8    1  0.3710605E-009  0.1114195E+03  0.7561462E-02  0.1257964E+00
         -2   -1    0    0    0  501 -0.00000000000E+00  0.00000000000E+00  0.11374846905E+02  0.11374846905E+02  0.00000000000E+00 0.  1.
          2   -1    0    0  501    0  0.00000000000E+00 -0.00000000000E+00 -0.12006241536E+04  0.12006241536E+04  0.00000000000E+00 0. -1.
         25    2    1    2    0    0 -0.42345722250E+01  0.36303476022E+02 -0.76251948915E+03  0.77357573814E+03  0.12509027672E+03 0.  0.
         23    2    1    2    0    0  0.42345722250E+01 -0.36303476022E+02 -0.42672981756E+03  0.43842326238E+03  0.93705633927E+02 0.  0.
          5    1    3    3  502    0 -0.22908662430E+02 -0.38627648964E+02 -0.42101169964E+03  0.42342086121E+03  0.41800000000E+01 0. -1.
         -5    1    3    3    0  502  0.18674090205E+02  0.74931124986E+02 -0.34150778951E+03  0.35015487692E+03  0.41800000000E+01 0. -1.
        -11    1    4    4    0    0  0.14690237212E+02 -0.66677039725E+02 -0.30223473170E+03  0.30985071202E+03  0.00000000000E+00 0.  1.
         11    1    4    4    0    0 -0.10455664987E+02  0.30373563703E+02 -0.12449508586E+03  0.12857255036E+03  0.00000000000E+00 0. -1.
</event>
<event>
 8    1  0.3710605E-009  0.1008479E+03  0.7561462E-02  0.1278523E+00
          1   -1    0    0  501    0  0.00000000000E+00  0.00000000000E+00  0.18524529408E+04  0.18524529408E+04  0.00000000000E+00 0. -1.
         -1   -1    0    0    0  501 -0.00000000000E+00 -0.00000000000E+00 -0.79412567681E+01  0.79412567681E+01  0.00000000000E+00 0.  1.
         25    2    1    2    0    0 -0.34002312631E+02  0.66487578613E+01  0.13543635884E+04  0.13605691880E+04  0.12508965736E+03 0.  0.
         23    2    1    2    0    0  0.34002312631E+02 -0.66487578613E+01  0.49014809562E+03  0.49982500960E+03  0.91539725470E+02 0.  0.
          5    1    3    3  502    0 -0.54797394190E+02 -0.29554716706E+02  0.36345490134E+03  0.36877252256E+03  0.41800000000E+01 0. -1.
         -5    1    3    3    0  502  0.20795081559E+02  0.36203474567E+02  0.99090868709E+03  0.99179666542E+03  0.41800000000E+01 0. -1.
        -11    1    4    4    0    0  0.67245157491E+01 -0.47632645784E+02  0.26848830622E+03  0.27276374142E+03  0.00000000000E+00 0. -1.
         11    1    4    4    0    0  0.27277796882E+02  0.40983887923E+02  0.22165978940E+03  0.22706126818E+03  0.00000000000E+00 0.  1.
</event>
<event>
 8    1  0.3710605E-009  0.8154095E+02  0.7561462E-02  0.1324734E+00
         -1   -1    0    0    0  501 -0.00000000000E+00  0.00000000000E+00  0.13610166404E+03  0.13610166404E+03  0.00000000000E+00 0.  1.
          1   -1    0    0  501    0  0.00000000000E+00 -0.00000000000E+00 -0.15408239686E+03  0.15408239686E+03  0.00000000000E+00 0. -1.
         25    2    1    2    0    0  0.60962756069E+02 -0.21487214377E+02 -0.81424092153E+02  0.16265347008E+03  0.12509240800E+03 0.  0.
         23    2    1    2    0    0 -0.60962756069E+02  0.21487214377E+02  0.63443359334E+02  0.12753059082E+03  0.89782146009E+02 0.  0.
          5    1    3    3  502    0  0.24854438792E+02 -0.13377900163E+02 -0.11130549498E+03  0.11490472990E+03  0.41800000000E+01 0. -1.
         -5    1    3    3    0  502  0.36108317278E+02 -0.81093142144E+01  0.29881402831E+02  0.47748740180E+02  0.41800000000E+01 0. -1.
        -11    1    4    4    0    0 -0.53811713229E+02  0.46605674478E+02  0.70796253808E+02  0.10039869983E+03  0.00000000000E+00 0.  1.
         11    1    4    4    0    0 -0.71510428402E+01 -0.25118460101E+02 -0.73528944744E+01  0.27131890990E+02  0.00000000000E+00 0. -1.
</event>
<event>
 8    1  0.3710605E-009  0.1253811E+03  0.7561462E-02  0.1234475E+00
          2   -1    0    0  501    0  0.00000000000E+00  0.00000000000E+00  0.17900695740E+02  0.17900695740E+02  0.00000000000E+00 0.  1.
         -2   -1    0    0    0  501 -0.00000000000E+00 -0.00000000000E+00 -0.90167943254E+03  0.90167943254E+03  0.00000000000E+00 0. -1.
         25    2    1    2    0    0 -0.61548939504E+02 -0.11167498778E+02 -0.56146443395E+03  0.57862545933E+03  0.12510845939E+03 0.  0.
         23    2    1    2    0    0  0.61548939504E+02  0.11167498778E+02 -0.32231430285E+03  0.34095466895E+03  0.91927098696E+02 0.  0.
          5    1    3    3  502    0  0.38632326161E+02 -0.72377048571E+01 -0.16059586584E+03  0.16538846853E+03  0.41800000000E+01 0.  1.
         -5    1    3    3    0  502 -0.10018126566E+03 -0.39297939205E+01 -0.40086856811E+03  0.41323699080E+03  0.41800000000E+01 0.  1.
        -11    1    4    4    0    0  0.71015678678E+02  0.39330304162E+02 -0.22444217176E+03  0.23867213475E+03  0.00000000000E+00 0.  1.
         11    1    4    4    0    0 -0.94667391742E+01 -0.28162805384E+02 -0.97872131090E+02  0.10228253420E+03  0.00000000000E+00 0. -1.
</event>
<event>
 8    1  0.3710605E-009  0.1175814E+03  0.7561462E-02  0.1247141E+00
         -3   -1    0    0    0  501 -0.00000000000E+00  0.00000000000E+00  0.31809061218E+03  0.31809061218E+03  0.00000000000E+00 0.  1.
          3   -1    0    0  501    0  0.00000000000E+00 -0.00000000000E+00 -0.60040835487E+02  0.60040835487E+02  0.00000000000E+00 0. -1.
         25    2    1    2    0    0  0.24866521198E+02 -0.61778871787E+02  0.21388391629E+03  0.25656954214E+03  0.12508647980E+03 0.  0.
         23    2    1    2    0    0 -0.24866521198E+02  0.61778871787E+02  0.44165860404E+02  0.12156190553E+03  0.91606226725E+02 0.  0.
          5    1    3    3  502    0 -0.45929047550E+02 -0.22168200220E+02  0.13043302809E+03  0.14011121913E+03  0.41800000000E+01 0. -1.
         -5    1    3    3    0  502  0.70795568748E+02 -0.39610671567E+02  0.83450888202E+02  0.11645832301E+03  0.41800000000E+01 0. -1.
        -11    1    4    4    0    0  0.84352514892E+01  0.68307205865E+02  0.39473995537E+01  0.68939174669E+02  0.00000000000E+00 0. -1.
         11    1    4    4    0    0 -0.33301772688E+02 -0.65283340784E+01  0.40218460851E+02  0.52622730860E+02  0.00000000000E+00 0.  1.
</event>
<event>
 8    1  0.3710605E-009  0.1560712E+03  0.7561462E-02  0.1193205E+00
          1   -1    0    0  501    0  0.00000000000E+00  0.00000000000E+00  0.18665553668E+03  0.18665553668E+03  0.00000000000E+00 0. -1.
         -1   -1    0    0    0  501 -0.00000000000E+00 -0.00000000000E+00 -0.14117183228E+03  0.14117183228E+03  0.00000000000E+00 0.  1.
         25    2    1    2    0    0 -0.48581461652E+02 -0.10832586012E+03  0.36730677134E+02  0.17632829011E+03  0.12509145800E+03 0.  0.
         23    2    1    2    0    0  0.48581461652E+02  0.10832586012E+03  0.87530272662E+01  0.15149907885E+03  0.93705416167E+02 0.  0.
          5    1    3    3  502    0  0.22981428587E+02 -0.81983107698E+02  0.49977679654E+02  0.98816075976E+02  0.41800000000E+01 0.  1.
         -5    1    3    3    0  502 -0.71562890239E+02 -0.26342752421E+02 -0.13247002520E+02  0.77512214136E+02  0.41800000000E+01 0.  1.
        -11    1    4    4    0    0  0.47081818553E+02  0.51775933059E+01 -0.40977005143E+01  0.47542573134E+02  0.00000000000E+00 0. -1.
         11    1    4    4    0    0  0.14996430990E+01  0.10314826681E+03  0.12850727780E+02  0.10395650572E+03  0.00000000000E+00 0.  1.
</event>
<event>
 8    1  0.3710605E-009  0.6453024E+02  0.7561462E-02  0.1379747E+00
         -2   -1    0    0    0  501 -0.00000000000E+00  0.00000000000E+00  0.22606641515E+02  0.22606641515E+02  0.00000000000E+00 0.  1.
          2   -1    0    0  501    0  0.00000000000E+00 -0.00000000000E+00 -0.74573079428E+03  0.74573079428E+03  0.00000000000E+00 0. -1.
         25    2    1    2    0    0  0.15951868314E+02 -0.37198010505E+02 -0.56056538301E+03  0.57577670018E+03  0.12508839173E+03 0.  0.
         23    2    1    2    0    0 -0.15951868314E+02  0.37198010505E+02 -0.16255876976E+03  0.19256073562E+03  0.94953300053E+02 0.  0.
          5    1    3    3  502    0  0.13894666697E+02 -0.37722114992E+02 -0.56665330309E+03  0.56809282518E+03  0.41800000000E+01 0. -1.
         -5    1    3    3    0  502  0.20572016167E+01  0.52410448720E+00  0.60879200781E+01  0.76838749913E+01  0.41800000000E+01 0. -1.
        -11    1    4    4    0    0 -0.33209591799E+02  0.51677534715E+02 -0.54314070677E+02  0.81996724661E+02  0.00000000000E+00 0.  1.
         11    1    4    4    0    0  0.17257723486E+02 -0.14479524210E+02 -0.10824469908E+03  0.11056401096E+03  0.00000000000E+00 0. -1.
</event>
<event>
 8    1  0.3710605E-009  0.1016267E+03  0.7561462E-02  0.1276912E+00
         -1   -1    0    0    0  501 -0.00000000000E+00  0.00000000000E+00  0.66070059890E+03  0.66070059890E+03  0.00000000000E+00 0.  1.
          1   -1    0    0  501    0  0.00000000000E+00 -0.00000000000E+00 -0.36997009787E+02  0.36997009787E+02  0.00000000000E+00 0. -1.
         25    2    1    2    0    0  0.65724277377E+02  0.51020182919E+01  0.13422089790E+03  0.19494978878E+03  0.12507781371E+03 0.  0.
         23    2    1    2    0    0 -0.65724277377E+02 -0.51020182919E+01  0.48948269121E+03  0.50274781991E+03  0.93895442924E+02 0.  0.
          5    1    3    3  502    0  0.83198079023E+02  0.19833094110E+02  0.14572621560E+03  0.16902329511E+03  0.41800000000E+01 0. -1.
         -5    1    3    3    0  502 -0.17473801646E+02 -0.14731075818E+02 -0.11505317699E+02  0.25926493671E+02  0.41800000000E+01 0. -1.
        -11    1    4    4    0    0 -0.79845235433E+02 -0.69478372537E+01  0.47737272322E+03  0.48405397524E+03  0.00000000000E+00 0.  1.
         11    1    4    4    0    0  0.14120958056E+02  0.18458189618E+01  0.12109967988E+02  0.18693844674E+02  0.00000000000E+00 0. -1.
</event>
<event>
 8    1  0.3710605E-009  0.8867508E+02  0.7561462E-02  0.1306092E+00
         -2   -1    0    0    0  501 -0.00000000000E+00  0.00000000000E+00  0.21295455443E+02  0.21295455443E+02  0.00000000000E+00 0. -1.
          2   -1    0    0  501    0  0.00000000000E+00 -0.00000000000E+00 -0.77464051055E+03  0.77464051055E+03  0.00000000000E+00 0.  1.
         25    2    1    2    0    0  0.23580963952E+02 -0.37375915113E+02 -0.59125161389E+03  0.60595196106E+03  0.12508512018E+03 0.  0.
         23    2    1    2    0    0 -0.23580963952E+02  0.37375915113E+02 -0.16209344122E+03  0.18998400494E+03  0.88693954442E+02 0.  0.
          5    1    3    3  502    0  0.30295408912E+02 -0.77980244341E+02 -0.28937676551E+03  0.30125589642E+03  0.41800000000E+01 0.  1.
         -5    1    3    3    0  502 -0.67144449605E+01  0.40604329227E+02 -0.30187484838E+03  0.30469606464E+03  0.41800000000E+01 0.  1.
        -11    1    4    4    0    0 -0.17060673925E+02  0.31133103824E+01  0.59688534897E+01  0.18340842628E+02  0.00000000000E+00 0. -1.
         11    1    4    4    0    0 -0.65202900263E+01  0.34262604731E+02 -0.16806229471E+03  0.17164316231E+03  0.00000000000E+00 0.  1.
</event>
<event>
 8    1  0.3710605E-009  0.1245283E+03  0.7561462E-02  0.1235808E+00
         -1   -1    0    0    0  501 -0.00000000000E+00  0.00000000000E+00  0.79386294078E+02  0.79386294078E+02  0.00000000000E+00 0.  1.
          1   -1    0    0  501    0  0.00000000000E+00 -0.00000000000E+00 -0.26698590152E+03  0.26698590152E+03  0.00000000000E+00 0. -1.
         25    2    1    2    0    0  0.13164845192E+02 -0.93056689243E+02 -0.14092004958E+03  0.21056764502E+03  0.12508961665E+03 0.  0.
         23    2    1    2    0    0 -0.13164845192E+02  0.93056689243E+02 -0.46679557862E+02  0.13580455058E+03  0.86203446992E+02 0.  0.
          5    1    3    3  502    0  0.64101133271E+02 -0.25697044454E+02 -0.83117914440E+02  0.10814505759E+03  0.41800000000E+01 0. -1.
         -5    1    3    3    0  502 -0.50936288079E+02 -0.67359644789E+02 -0.57802135140E+02  0.10242258743E+03  0.41800000000E+01 0. -1.
        -11    1    4    4    0    0 -0.13278853277E+02  0.37884865524E+02  0.23513593120E+02  0.46523972762E+02  0.00000000000E+00 0.  1.
         11    1    4    4    0    0  0.11400808512E+00  0.55171823718E+02 -0.70193150981E+02  0.89280577815E+02  0.00000000000E+00 0. -1.
</event>
<event>
 8    1  0.3710605E-009  0.1916044E+03  0.7561462E-02  0.1157022E+00
         -2   -1    0    0    0  501 -0.00000000000E+00  0.00000000000E+00  0.62695039897E+03  0.62695039897E+03  0.00000000000E+00 0. -1.
          2   -1    0    0  501    0  0.00000000000E+00 -0.00000000000E+00 -0.67495103876E+02  0.67495103876E+02  0.00000000000E+00 0.  1.
         25    2    1    2    0    0  0.13251755249E+03 -0.11377331344E+03  0.28121513512E+03  0.35388633190E+03  0.12509322571E+03 0.  0.
         23    2    1    2    0    0 -0.13251755249E+03  0.11377331344E+03  0.27824015998E+03  0.34055917095E+03  0.89764657433E+02 0.  0.
          5    1    3    3  502    0  0.14168862847E+03 -0.12771296841E+03  0.27669461941E+03  0.33610066133E+03  0.41800000000E+01 0. -1.
         -5    1    3    3    0  502 -0.91710759791E+01  0.13939654972E+02  0.45205157076E+01  0.17785670570E+02  0.41800000000E+01 0. -1.
        -11    1    4    4    0    0 -0.32626641986E+02  0.20438615283E+02  0.10452318220E+02  0.39893429510E+02  0.00000000000E+00 0.  1.
         11    1    4    4    0    0 -0.99890910502E+02  0.93334698154E+02  0.26778784176E+03  0.30066574144E+03  0.00000000000E+00 0. -1.
</event>
<event>
 8    1  0.3710605E-009  0.1257586E+03  0.7561462E-02  0.1233888E+00
         -1   -1    0    0    0  501 -0.00000000000E+00  0.00000000000E+00  0.20052772399E+02  0.20052772399E+02  0.00000000000E+00 0.  1.
          1   -1    0    0  501    0  0.00000000000E+00 -0.00000000000E+00 -0.10002527685E+04  0.10002527685E+04  0.00000000000E+00 0. -1.
         25    2    1    2    0    0 -0.24812861556E+02  0.65637983460E+02 -0.75137391011E+03  0.76494169176E+03  0.12509602720E+03 0.  0.
         23    2    1    2    0    0  0.24812861556E+02 -0.65637983460E+02 -0.22882608604E+03  0.25536384919E+03  0.89024125102E+02 0.  0.
          5    1    3    3  502    0  0.46398062365E+02  0.50212632461E+02 -0.42700903366E+03  0.43246765876E+03  0.41800000000E+01 0. -1.
         -5    1    3    3    0  502 -0.71210923921E+02  0.15425350999E+02 -0.32436487645E+03  0.33247403299E+03  0.41800000000E+01 0. -1.
        -11    1    4    4    0    0  0.23320953618E+02 -0.86263650723E+02 -0.15732280129E+03  0.18093022998E+03  0.00000000000E+00 0.  1.
         11    1    4    4    0    0  0.14919079376E+01  0.20625667263E+02 -0.71503284747E+02  0.74433619211E+02  0.00000000000E+00 0. -1.
</event>
<event>
 8    1  0.3710605E-009  0.1414262E+03  0.7561462E-02  0.1211423E+00
         -1   -1    0    0    0  501 -0.00000000000E+00  0.00000000000E+00  0.27671632489E+03  0.27671632489E+03  0.00000000000E+00 0.  1.
          1   -1    0    0  501    0  0.00000000000E+00 -0.00000000000E+00 -0.93988612051E+02  0.93988612051E+02  0.00000000000E+00 0. -1.
         25    2    1    2    0    0  0.75878017110E+02  0.85251898592E+02  0.13608556785E+03  0.21723756313E+03  0.12509003702E+03 0.  0.
         23    2    1    2    0    0 -0.75878017110E+02 -0.85251898592E+02  0.46642144989E+02  0.15346737382E+03  0.91385914906E+02 0.  0.
          5    1    3    3  502    0  0.71470095785E+02  0.10803326733E+03  0.70485406941E+02  0.14752906979E+03  0.41800000000E+01 0. -1.
         -5    1    3    3    0  502  0.44079213258E+01 -0.22781368735E+02  0.65600160911E+02  0.69708493337E+02  0.41800000000E+01 0. -1.
        -11    1    4    4    0    0 -0.86203580748E+02 -0.68995735526E+02  0.63930483816E+02  0.12758752139E+03  0.00000000000E+00 0.  1.
         11    1    4    4    0    0  0.10325563637E+02 -0.16256163067E+02 -0.17288338827E+02  0.25879852424E+02  0.00000000000E+00 0. -1.
</event>
<event>
 8    1  0.3710605E-009  0.1933253E+03  0.7561462E-02  0.1155496E+00
         -1   -1    0    0    0  501 -0.00000000000E+00  0.00000000000E+00  0.26058980878E+03  0.26058980878E+03  0.00000000000E+00 0.  1.
          1   -1    0    0  501    0  0.00000000000E+00 -0.00000000000E+00 -0.16496788197E+03  0.16496788197E+03  0.00000000000E+00 0. -1.
         25    2    1    2    0    0 -0.62495744465E+02  0.15030024099E+03 -0.13412811636E+02  0.20572613623E+03  0.12508980413E+03 0.  0.
         23    2    1    2    0    0  0.62495744465E+02 -0.15030024099E+03  0.10903473845E+03  0.21983155452E+03  0.99706858626E+02 0.  0.
          5    1    3    3  502    0 -0.86826804524E+02  0.15235812061E+03  0.39798678631E+01  0.17545712482E+03  0.41800000000E+01 0. -1.
         -5    1    3    3    0  502  0.24331060058E+02 -0.20578796227E+01 -0.17392679499E+02  0.30269011419E+02  0.41800000000E+01 0. -1.
        -11    1    4    4    0    0 -0.22573137588E+02 -0.16693288015E+02  0.97697440421E+00  0.28092114272E+02  0.00000000000E+00 0.  1.
         11    1    4    4    0    0  0.85068882053E+02 -0.13360695298E+03  0.10805776404E+03  0.19173944025E+03  0.00000000000E+00 0. -1.
</event>
<event>
 8    1  0.3710605E-009  0.1180661E+03  0.7561462E-02  0.1246322E+00
          2   -1    0    0  501    0  0.00000000000E+00  0.00000000000E+00  0.92529137544E+02  0.92529137544E+02  0.00000000000E+00 0. -1.
         -2   -1    0    0    0  501 -0.00000000000E+00 -0.00000000000E+00 -0.31573911452E+03  0.31573911452E+03  0.00000000000E+00 0.  1.
         25    2    1    2    0    0  0.52349035468E+02 -0.10469145073E+03 -0.18983782128E+03  0.25571080962E+03  0.12509555706E+03 0.  0.
         23    2    1    2    0    0 -0.52349035468E+02  0.10469145073E+03 -0.33372155698E+02  0.15255744245E+03  0.91974730764E+02 0.  0.
          5    1    3    3  502    0  0.19957151572E+02 -0.60293674480E+02 -0.61645263306E+01  0.63945983971E+02  0.41800000000E+01 0. -1.
         -5    1    3    3    0  502  0.32391883896E+02 -0.44397776250E+02 -0.18367329495E+03  0.19176482565E+03  0.41800000000E+01 0. -1.
        -11    1    4    4    0    0 -0.26326734181E+02  0.43106436780E+02 -0.61878937818E+02  0.79876559578E+02  0.00000000000E+00 0.  1.
         11    1    4    4    0    0 -0.26022301287E+02  0.61585013950E+02  0.28506782121E+02  0.72680882867E+02  0.00000000000E+00 0. -1.
</event>
<event>
 8    1  0.3710605E-009  0.1392681E+03  0.7561462E-02  0.1214317E+00
          2   -1    0    0  501    0  0.00000000000E+00  0.00000000000E+00  0.32830933788E+02  0.32830933788E+02  0.00000000000E+00 0. -1.
         -2   -1    0    0    0  501 -0.00000000000E+00 -0.00000000000E+00 -0.82465928087E+03  0.82465928087E+03  0.00000000000E+00 0.  1.
         25    2    1    2    0    0 -0.11744646101E+03 -0.43823237890E+02 -0.46840367509E+03  0.50076352670E+03  0.12509180413E+03 0.  0.
         23    2    1    2    0    0  0.11744646101E+03  0.43823237890E+02 -0.32342467199E+03  0.35672668795E+03  0.83284236568E+02 0.  0.
          5    1    3    3  502    0 -0.11427510208E+03 -0.35488198007E+02 -0.20669226532E+03  0.23886685852E+03  0.41800000000E+01 0. -1.
         -5    1    3    3    0  502 -0.31713589236E+01 -0.83350398824E+01 -0.26171140976E+03  0.26189666819E+03  0.41800000000E+01 0. -1.
        -11    1    4    4    0    0  0.75710582273E+02 -0.14650473582E+02 -0.19279758178E+03  0.20764786583E+03  0.00000000000E+00 0.  1.
         11    1    4    4    0    0  0.41735878733E+02  0.58473711472E+02 -0.13062709021E+03  0.14907882212E+03  0.00000000000E+00 0. -1.
</event>
<event>
 8    1  0.3710605E-009  0.2147734E+03  0.7561462E-02  0.1137841E+00
          1   -1    0    0  501    0  0.00000000000E+00  0.00000000000E+00  0.22979011134E+03  0.22979011134E+03  0.00000000000E+00 0. -1.
         -1   -1    0    0    0  501 -0.00000000000E+00 -0.00000000000E+00 -0.27076523799E+03  0.27076523799E+03  0.00000000000E+00 0.  1.
         25    2    1    2    0    0 -0.45329753171E+02  0.19354318438E+03 -0.12607012135E+03  0.26656074855E+03  0.12508879417E+03 0.  0.
         23    2    1    2    0    0  0.45329753171E+02 -0.19354318438E+03  0.85094994703E+02  0.23399460078E+03  0.89434693088E+02 0.  0.
          5    1    3    3  502    0 -0.19335524344E+02  0.18248125662E+03 -0.57603360690E+02  0.19237695049E+03  0.41800000000E+01 0. -1.
         -5    1    3    3    0  502 -0.25994228827E+02  0.11061927759E+02 -0.68466760662E+02  0.74183798053E+02  0.41800000000E+01 0. -1.
        -11    1    4    4    0    0  0.53916581118E+02 -0.49665888249E+02  0.36499233114E+02  0.81889512106E+02  0.00000000000E+00 0. -1.
         11    1    4    4    0    0 -0.85868279465E+01 -0.14387729613E+03  0.48595761589E+02  0.15210508867E+03  0.00000000000E+00 0.  1.
</event>
<event>
 8    1  0.3710605E-009  0.1151349E+03  0.7561462E-02  0.1251346E+00
         -2   -1    0    0    0  501 -0.00000000000E+00  0.00000000000E+00  0.17170416571E+02  0.17170416571E+02  0.00000000000E+00 0.  1.
          2   -1    0    0  501    0  0.00000000000E+00 -0.00000000000E+00 -0.84757604797E+03  0.84757604797E+03  0.00000000000E+00 0. -1.
         25    2    1    2    0    0  0.25076688611E+02 -0.10603800532E+02 -0.57445289213E+03  0.58854606501E+03  0.12509622085E+03 0.  0.
         23    2    1    2    0    0 -0.25076688611E+02  0.10603800532E+02 -0.25595273927E+03  0.27620039952E+03  0.10016773463E+03 0.  0.
          5    1    3    3  502    0  0.10884290621E+02 -0.67875582811E+02 -0.30697431506E+03  0.31460493484E+03  0.41800000000E+01 0.  1.
         -5    1    3    3    0  502  0.14192397990E+02  0.57271782279E+02 -0.26747857707E+03  0.27394113017E+03  0.41800000000E+01 0.  1.
        -11    1    4    4    0    0 -0.55594252678E+02 -0.19948879518E+02 -0.17078860451E+03  0.18071365791E+03  0.00000000000E+00 0. -1.
         11    1    4    4    0    0  0.30517564067E+02  0.30552680049E+02 -0.85164134757E+02  0.95486741612E+02  0.00000000000E+00 0.  1.
</event>
<event>
 8    1  0.3710605E-009  0.1053841E+03  0.7561462E-02  0.1269365E+00
         -2   -1    0    0    0  501 -0.00000000000E+00  0.00000000000E+00  0.52451725269E+02  0.52451725269E+02  0.00000000000E+00 0.  1.
          2   -1    0    0  501    0  0.00000000000E+00 -0.00000000000E+00 -0.26286390580E+03  0.26286390580E+03  0.00000000000E+00 0. -1.
         25    2    1    2    0    0 -0.34192914356E+01 -0.38253674186E+02 -0.88958419402E+02  0.15822750829E+03  0.12508920359E+03 0.  0.
         23    2    1    2    0    0  0.34192914356E+01  0.38253674186E+02 -0.12145376113E+03  0.15708812278E+03  0.91927292373E+02 0.  0.
          5    1    3    3  502    0 -0.35470939899E+02 -0.72239801939E+02 -0.72855416470E+02  0.10863774975E+03  0.41800000000E+01 0.  1.
         -5    1    3    3    0  502  0.32051648463E+02  0.33986127753E+02 -0.16103002932E+02  0.49589758542E+02  0.41800000000E+01 0.  1.
        -11    1    4    4    0    0  0.13033558796E+02 -0.20199956657E+02 -0.83123314400E+02  0.86529748067E+02  0.00000000000E+00 0. -1.
         11    1    4    4    0    0 -0.96142673601E+01  0.58453630843E+02 -0.38330446735E+02  0.70558374715E+02  0.00000000000E+00 0.  1.
</event>
<event>
 8    1  0.3710605E-009  0.9694189E+02  0.7561462E-02  0.1286861E+00
          2   -1    0    0  501    0  0.00000000000E+00  0.00000000000E+00  0.85043562351E+02  0.85043562351E+02  0.00000000000E+00 0.  1.
         -2   -1    0    0    0  501 -0.00000000000E+00 -0.00000000000E+00 -0.17610755169E+03  0.17610755169E+03  0.00000000000E+00 0. -1.
         25    2    1    2    0    0  0.93310692359E+01  0.46301352382E+02 -0.18819554613E+02  0.13502936222E+03  0.12509144231E+03 0.  0.
         23    2    1    2    0    0 -0.93310692359E+01 -0.46301352382E+02 -0.72244434722E+02  0.12612175182E+03  0.91959522880E+02 0.  0.
          5    1    3    3  502    0 -0.13902038788E+02  0.70965954845E+02 -0.50621860924E+02  0.88371254562E+02  0.41800000000E+01 0.  1.
         -5    1    3    3    0  502  0.23233108024E+02 -0.24664602463E+02  0.31802306311E+02  0.46658107653E+02  0.41800000000E+01 0.  1.
        -11    1    4    4    0    0  0.99680083014E+01  0.17779739159E+02  0.77654937266E+01  0.21812455315E+02  0.00000000000E+00 0.  1.
         11    1    4    4    0    0 -0.19299077537E+02 -0.64081091542E+02 -0.80009928448E+02  0.10430929650E+03  0.00000000000E+00 0. -1.
</event>
<event>
 8    1  0.3710605E-009  0.1269109E+03  0.7561462E-02  0.1232113E+00
          1   -1    0    0  501    0  0.00000000000E+00  0.00000000000E+00  0.21892860625E+03  0.21892860625E+03  0.00000000000E+00 0. -1.
         -1   -1    0    0    0  501 -0.00000000000E+00 -0.00000000000E+00 -0.33372718406E+03  0.33372718406E+03  0.00000000000E+00 0.  1.
         25    2    1    2    0    0 -0.23770032610E+02  0.88979770618E+02 -0.29330546252E+03  0.33190064912E+03  0.12509009757E+03 0.  0.
         23    2    1    2    0    0  0.23770032610E+02 -0.88979770618E+02  0.17850688471E+03  0.22075514120E+03  0.91573524814E+02 0.  0.
          5    1    3    3  502    0  0.18947518886E+02  0.78151610547E+02 -0.78056537534E+02  0.11214712727E+03  0.41800000000E+01 0.  1.
         -5    1    3    3    0  502 -0.42717551496E+02  0.10828160071E+02 -0.21524892499E+03  0.21975352185E+03  0.41800000000E+01 0.  1.
        -11    1    4    4    0    0  0.57920250456E+02 -0.44985136946E+02  0.11376212749E+03  0.13535227966E+03  0.00000000000E+00 0. -1.
         11    1    4    4    0    0 -0.34150217846E+02 -0.43994633672E+02  0.64744757218E+02  0.85402861533E+02  0.00000000000E+00 0.  1.
</event>
<event>
 8    1  0.3710605E-009  0.7601584E+02  0.7561462E-02  0.1340754E+00
         -1   -1    0    0    0  501 -0.00000000000E+00  0.00000000000E+00  0.54813405988E+02  0.54813405988E+02  0.00000000000E+00 0.  1.
          1   -1    0    0  501    0  0.00000000000E+00 -0.00000000000E+00 -0.35377717541E+03  0.35377717541E+03  0.00000000000E+00 0. -1.
         25    2    1    2    0    0  0.35259095398E+01 -0.19406009829E+02 -0.37914936016E+02  0.13218902350E+03  0.12508944922E+03 0.  0.
         23    2    1    2    0    0 -0.35259095398E+01  0.19406009829E+02 -0.26104883341E+03  0.27640155790E+03  0.88669625738E+02 0.  0.
          5    1    3    3  502    0  0.39863452918E+02 -0.20696963018E+02 -0.70160119353E+02  0.83410874017E+02  0.41800000000E+01 0. -1.
         -5    1    3    3    0  502 -0.36337543378E+02  0.12909531885E+01  0.32245183337E+02  0.48778149486E+02  0.41800000000E+01 0. -1.
        -11    1    4    4    0    0  0.21434221482E+02 -0.16179369373E+02 -0.26040390184E+02  0.37407215411E+02  0.00000000000E+00 0.  1.
         11    1    4    4    0    0 -0.24960131022E+02  0.35585379203E+02 -0.23500844322E+03  0.23899434249E+03  0.00000000000E+00 0. -1.
</event>
<event>
 8    1  0.3710605E-009  0.1290848E+03  0.7561462E-02  0.1228820E+00
         -2   -1    0    0    0  501 -0.00000000000E+00  0.00000000000E+00  0.10502760013E+03  0.10502760013E+03  0.00000000000E+00 0.  1.
          2   -1    0    0  501    0  0.00000000000E+00 -0.00000000000E+00 -0.19376130780E+03  0.19376130780E+03  0.00000000000E+00 0. -1.
         25    2    1    2    0    0 -0.71902792238E+02  0.22233298141E+02  0.83712365531E+01  0.14622520413E+03  0.12508957448E+03 0.  0.
         23    2    1    2    0    0  0.71902792238E+02 -0.22233298141E+02 -0.97104944223E+02  0.15256370380E+03  0.90454311384E+02 0.  0.
          5    1    3    3  502    0 -0.87588461213E+02 -0.28721598856E+02  0.12974302568E+01  0.92281225088E+02  0.41800000000E+01 0.  1.
         -5    1    3    3    0  502  0.15685668975E+02  0.50954896996E+02  0.70738062964E+01  0.53943979040E+02  0.41800000000E+01 0.  1.
        -11    1    4    4    0    0  0.11101446743E+00 -0.38751577326E+02 -0.13270108605E+02  0.40960869764E+02  0.00000000000E+00 0.  1.
         11    1    4    4    0    0  0.71791777771E+02  0.16518279185E+02 -0.83834835618E+02  0.11160283404E+03  0.00000000000E+00 0. -1.
</event>
<event>
 8    1  0.3710605E-009  0.1997831E+03  0.7561462E-02  0.1149922E+00
         -4   -1    0    0    0  501 -0.00000000000E+00  0.00000000000E+00  0.15364863156E+03  0.15364863156E+03  0.00000000000E+00 0.  1.
          4   -1    0    0  501    0  0.00000000000E+00 -0.00000000000E+00 -0.32837674381E+03  0.32837674381E+03  0.00000000000E+00 0. -1.
         25    2    1    2    0    0  0.11922439867E+03  0.13163135712E+03 -0.18096757028E+03  0.28273373947E+03  0.12509130476E+03 0.  0.
         23    2    1    2    0    0 -0.11922439867E+03 -0.13163135712E+03  0.62394580209E+01  0.19929163590E+03  0.90205065735E+02 0.  0.
          5    1    3    3  502    0  0.13106792659E+03  0.67142846292E+02 -0.14948014767E+03  0.20987794104E+03  0.41800000000E+01 0. -1.
         -5    1    3    3    0  502 -0.11843527911E+02  0.64488510830E+02 -0.31487422602E+02  0.72855798428E+02  0.41800000000E+01 0. -1.
        -11    1    4    4    0    0 -0.81951549123E+02 -0.47983959607E+02  0.38111372854E+02  0.10232787266E+03  0.00000000000E+00 0.  1.
         11    1    4    4    0    0 -0.37272849552E+02 -0.83647397515E+02 -0.31871914833E+02  0.96963763230E+02  0.00000000000E+00 0. -1.
</event>
<event>
 8    1  0.3710605E-009  0.1755898E+03  0.7561462E-02  0.1172141E+00
         -4   -1    0    0    0  501 -0.00000000000E+00  0.00000000000E+00  0.14089609417E+03  0.14089609417E+03  0.00000000000E+00 0.  1.
          4   -1    0    0  501    0  0.00000000000E+00 -0.00000000000E+00 -0.31625409455E+03  0.31625409455E+03  0.00000000000E+00 0. -1.
         25    2    1    2    0    0  0.10972028041E+03 -0.10745178396E+03  0.11685758875E+02  0.19841453287E+03  0.12508934441E+03 0.  0.
         23    2    1    2    0    0 -0.10972028041E+03  0.10745178396E+03 -0.18704375926E+03  0.25873565585E+03  0.91511452387E+02 0.  0.
          5    1    3    3  502    0 -0.13134810490E+02 -0.56384596663E+00  0.31429670943E+02  0.34324011777E+02  0.41800000000E+01 0.  1.
         -5    1    3    3    0  502  0.12285509090E+03 -0.10688793799E+03 -0.19743912068E+02  0.16409052109E+03  0.41800000000E+01 0.  1.
        -11    1    4    4    0    0  0.40185508144E+01  0.44121671072E+02 -0.24981132192E+02  0.50861847926E+02  0.00000000000E+00 0.  1.
         11    1    4    4    0    0 -0.11373883123E+03  0.63330112890E+02 -0.16206262707E+03  0.20787380792E+03  0.00000000000E+00 0. -1.
</event>
<event>
 8    1  0.3710605E-009  0.1558272E+03  0.7561462E-02  0.1193490E+00
         -1   -1    0    0    0  501 -0.00000000000E+00  0.00000000000E+00  0.24220324438E+03  0.24220324438E+03  0.00000000000E+00 0.  1.
          1   -1    0    0  501    0  0.00000000000E+00 -0.00000000000E+00 -0.18789001263E+03  0.18789001263E+03  0.00000000000E+00 0. -1.
         25    2    1    2    0    0  0.26893997060E+02 -0.12534019602E+03 -0.10296720683E+03  0.20659731004E+03  0.12508697380E+03 0.  0.
         23    2    1    2    0    0 -0.26893997060E+02  0.12534019602E+03  0.15728043858E+03  0.22349594698E+03  0.93700854528E+02 0.  0.
          5    1    3    3  502    0 -0.66723066727E+00  0.25043672838E+02 -0.82828712518E+01  0.26715334588E+02  0.41800000000E+01 0. -1.
         -5    1    3    3    0  502  0.27561227727E+02 -0.15038386886E+03 -0.94684335575E+02  0.17988197545E+03  0.41800000000E+01 0. -1.
        -11    1    4    4    0    0 -0.34002548281E+02  0.73496070250E+02  0.15026731852E+03  0.17069889469E+03  0.00000000000E+00 0.  1.
         11    1    4    4    0    0  0.71085512213E+01  0.51844125774E+02  0.70131200563E+01  0.52797052291E+02  0.00000000000E+00 0. -1.
</event>
<event>
 8    1  0.3710605E-009  0.1183421E+03  0.7561462E-02  0.1245857E+00
         -2   -1    0    0    0  501 -0.00000000000E+00  0.00000000000E+00  0.95738500488E+02  0.95738500488E+02  0.00000000000E+00 0.  1.
          2   -1    0    0  501    0  0.00000000000E+00 -0.00000000000E+00 -0.15891036334E+03  0.15891036334E+03  0.00000000000E+00 0. -1.
         25    2    1    2    0    0  0.51608585659E+02 -0.23075075589E+02 -0.44559590196E+02  0.14432108550E+03  0.12508842239E+03 0.  0.
         23    2    1    2    0    0 -0.51608585659E+02  0.23075075589E+02 -0.18612272657E+02  0.11032777833E+03  0.92897237577E+02 0.  0.
          5    1    3    3  502    0  0.73734306402E+01 -0.70868715756E+02 -0.16318784686E+02  0.73215554945E+02  0.41800000000E+01 0. -1.
         -5    1    3    3    0  502  0.44235155019E+02  0.47793640167E+02 -0.28240805510E+02  0.71105530558E+02  0.41800000000E+01 0. -1.
        -11    1    4    4    0    0 -0.27279495622E+02  0.54122911043E+02  0.10225792671E+02  0.61465658842E+02  0.00000000000E+00 0.  1.
         11    1    4    4    0    0 -0.24329090038E+02 -0.31047835455E+02 -0.28838065328E+02  0.48862119483E+02  0.00000000000E+00 0. -1.
</event>
<event>
 8    1  0.3710605E-009  0.8524137E+02  0.7561462E-02  0.1314803E+00
         -1   -1    0    0    0  501 -0.00000000000E+00  0.00000000000E+00  0.30359486081E+02  0.30359486081E+02  0.00000000000E+00 0.  1.
          1   -1    0    0  501    0  0.00000000000E+00 -0.00000000000E+00 -0.57351513253E+03  0.57351513253E+03  0.00000000000E+00 0. -1.
         25    2    1    2    0    0 -0.68014426821E+02  0.28374825575E+02 -0.26507561722E+03  0.30222976234E+03  0.12508658369E+03 0.  0.
         23    2    1    2    0    0  0.68014426821E+02 -0.28374825575E+02 -0.27808002923E+03  0.30164485627E+03  0.90719477917E+02 0.  0.
          5    1    3    3  502    0 -0.72862919896E+02  0.40172918286E+02 -0.27381803591E+03  0.28621086221E+03  0.41800000000E+01 0. -1.
         -5    1    3    3    0  502  0.48484930742E+01 -0.11798092711E+02  0.87424186937E+01  0.16018900128E+02  0.41800000000E+01 0. -1.
        -11    1    4    4    0    0  0.25548030628E+02 -0.91682860100E+01 -0.90572492040E+01  0.28614560987E+02  0.00000000000E+00 0.  1.
         11    1    4    4    0    0  0.42466396193E+02 -0.19206539565E+02 -0.26902278003E+03  0.27303029528E+03  0.00000000000E+00 0. -1.
</event>
<event>
 8    1  0.3710605E-009  0.1365344E+03  0.7561462E-02  0.1218070E+00
         -1   -1    0    0    0  501 -0.00000000000E+00  0.00000000000E+00  0.13150646216E+02  0.13150646216E+02  0.00000000000E+00 0.  1.
          1   -1    0    0  501    0  0.00000000000E+00 -0.00000000000E+00 -0.16352491342E+04  0.16352491342E+04  0.00000000000E+00 0. -1.
         25    2    1    2    0    0 -0.13294937005E+02 -0.91547986715E+02 -0.10637879552E+04  0.10751063708E+04  0.12510437886E+03 0.  0.
         23    2    1    2    0    0  0.13294937005E+02  0.91547986715E+02 -0.55831053282E+03  0.57329340969E+03  0.91634563952E+02 0.  0.
          5    1    3    3  502    0 -0.69000364134E+02 -0.49574408252E+02 -0.63256215160E+03  0.63825623400E+03  0.41800000000E+01 0. -1.
         -5    1    3    3    0  502  0.55705427129E+02 -0.41973578464E+02 -0.43122580361E+03  0.43685013677E+03  0.41800000000E+01 0. -1.
        -11    1    4    4    0    0  0.42660999101E+02  0.68926809481E+02 -0.47820749512E+03  0.48502914788E+03  0.00000000000E+00 0. -1.
         11    1    4    4    0    0 -0.29366062097E+02  0.22621177234E+02 -0.80103037700E+02  0.88264261801E+02  0.00000000000E+00 0.  1.
</event>
<event>
 8    1  0.3710605E-009  0.1515198E+03  0.7561462E-02  0.1198618E+00
          2   -1    0    0  501    0  0.00000000000E+00  0.00000000000E+00  0.12863641853E+04  0.12863641853E+04  0.00000000000E+00 0. -1.
         -2   -1    0    0    0  501 -0.00000000000E+00 -0.00000000000E+00 -0.18213868564E+02  0.18213868564E+02  0.00000000000E+00 0.  1.
         25    2    1    2    0    0  0.10843998748E+03 -0.19507563172E+02  0.69650860459E+03  0.71617858271E+03  0.12509096751E+03 0.  0.
         23    2    1    2    0    0 -0.10843998748E+03  0.19507563172E+02  0.57164171218E+03  0.58839947119E+03  0.85439538213E+02 0.  0.
          5    1    3    3  502    0  0.13155415132E+03 -0.34845666980E+02  0.61764009144E+03  0.63246934328E+03  0.41800000000E+01 0. -1.
         -5    1    3    3    0  502 -0.23114163841E+02  0.15338103808E+02  0.78868513152E+02  0.83709239426E+02  0.41800000000E+01 0. -1.
        -11    1    4    4    0    0 -0.38331232645E+02  0.49474830673E+02  0.23091656983E+03  0.23924778889E+03  0.00000000000E+00 0.  1.
         11    1    4    4    0    0 -0.70108754833E+02 -0.29967267501E+02  0.34072514235E+03  0.34915168230E+03  0.00000000000E+00 0. -1.
</event>
<event>
 8    1  0.3710605E-009  0.3287288E+03  0.7561462E-02  0.1071701E+00
          1   -1    0    0  501    0  0.00000000000E+00  0.00000000000E+00  0.27964071977E+03  0.27964071977E+03  0.00000000000E+00 0. -1.
         -1   -1    0    0    0  501 -0.00000000000E+00 -0.00000000000E+00 -0.48669642656E+03  0.48669642656E+03  0.00000000000E+00 0.  1.
         25    2    1    2    0    0  0.30572159384E+03 -0.58025593385E+02  0.64204429171E+02  0.34147005429E+03  0.12508767654E+03 0.  0.
         23    2    1    2    0    0 -0.30572159384E+03  0.58025593385E+02 -0.27126013596E+03  0.42486709204E+03  0.10048543235E+03 0.  0.
          5    1    3    3  502    0  0.30605625623E+03 -0.77102548290E+02  0.63203101994E+02  0.32191200573E+03  0.41800000000E+01 0.  1.
         -5    1    3    3    0  502 -0.33466238689E+00  0.19076954905E+02  0.10013271776E+01  0.19558048560E+02  0.41800000000E+01 0.  1.
        -11    1    4    4    0    0 -0.12070720023E+03  0.65072518473E+02 -0.15158548099E+03  0.20440846092E+03  0.00000000000E+00 0.  1.
         11    1    4    4    0    0 -0.18501439361E+03 -0.70469250881E+01 -0.11967465496E+03  0.22045863112E+03  0.00000000000E+00 0. -1.
</event>
<event>
 8    1  0.3710605E-009  0.9052165E+02  0.7561462E-02  0.1301593E+00
          1   -1    0    0  501    0  0.00000000000E+00  0.00000000000E+00  0.62056424995E+02  0.62056424995E+02  0.00000000000E+00 0. -1.
         -1   -1    0    0    0  501 -0.00000000000E+00 -0.00000000000E+00 -0.34977766426E+03  0.34977766426E+03  0.00000000000E+00 0.  1.
         25    2    1    2    0    0  0.84242571565E+01  0.11890019926E+02 -0.18839474704E+02  0.12733688208E+03  0.12508962806E+03 0.  0.
         23    2    1    2    0    0 -0.84242571565E+01 -0.11890019926E+02 -0.26888176456E+03  0.28449720717E+03  0.91809132954E+02 0.  0.
          5    1    3    3  502    0  0.16135613794E+02 -0.38707022123E+02  0.33632228345E+02  0.53918371430E+02  0.41800000000E+01 0. -1.
         -5    1    3    3    0  502 -0.77113566374E+01  0.50597042049E+02 -0.52471703050E+02  0.73418510651E+02  0.41800000000E+01 0. -1.
        -11    1    4    4    0    0 -0.10638672049E+02  0.37055591245E+02 -0.16773391725E+03  0.17210742338E+03  0.00000000000E+00 0.  1.
         11    1    4    4    0    0  0.22144148926E+01 -0.48945611171E+02 -0.10114784731E+03  0.11238978379E+03  0.00000000000E+00 0. -1.
</event>
<event>
 8    1  0.3710605E-009  0.6455442E+02  0.7561462E-02  0.1379655E+00
          2   -1    0    0  501    0  0.00000000000E+00  0.00000000000E+00  0.33505770107E+03  0.33505770107E+03  0.00000000000E+00 0. -1.
         -2   -1    0    0    0  501 -0.00000000000E+00 -0.00000000000E+00 -0.36950302436E+02  0.36950302436E+02  0.00000000000E+00 0.  1.
         25    2    1    2    0    0  0.79086995343E+01 -0.16640309243E+02  0.15221119445E+03  0.19787651847E+03  0.12508965356E+03 0.  0.
         23    2    1    2    0    0 -0.79086995343E+01  0.16640309243E+02  0.14589620418E+03  0.17413148503E+03  0.93255692934E+02 0.  0.
          5    1    3    3  502    0 -0.12741968107E+02 -0.31846640899E+02 -0.80849250632E+01  0.35488092384E+02  0.41800000000E+01 0. -1.
         -5    1    3    3    0  502  0.20650667641E+02  0.15206331656E+02  0.16029611952E+03  0.16238842609E+03  0.41800000000E+01 0. -1.
        -11    1    4    4    0    0  0.73504933187E+01  0.39999194050E+02  0.20263049819E+02  0.45437390602E+02  0.00000000000E+00 0.  1.
         11    1    4    4    0    0 -0.15259192853E+02 -0.23358884808E+02  0.12563315437E+03  0.12869409443E+03  0.00000000000E+00 0. -1.
</event>
<event>
 8    1  0.3710605E-009  0.2152758E+03  0.7561462E-02  0.1137455E+00
          1   -1    0    0  501    0  0.00000000000E+00  0.00000000000E+00  0.10341197540E+03  0.10341197540E+03  0.00000000000E+00 0. -1.
         -1   -1    0    0    0  501 -0.00000000000E+00 -0.00000000000E+00 -0.49386903898E+03  0.49386903898E+03  0.00000000000E+00 0.  1.
         25    2    1    2    0    0  0.50051330336E+02  0.18870800129E+03 -0.16210356093E+03  0.28291570120E+03  0.12509150293E+03 0.  0.
         23    2    1    2    0    0 -0.50051330336E+02 -0.18870800129E+03 -0.22835350265E+03  0.31436531318E+03  0.92543949236E+02 0.  0.
          5    1    3    3  502    0  0.33150547238E+02 -0.78717730631E+01 -0.20009731901E+02  0.39733932150E+02  0.41800000000E+01 0. -1.
         -5    1    3    3    0  502  0.16900783098E+02  0.19657977435E+03 -0.14209382903E+03  0.24318176905E+03  0.41800000000E+01 0. -1.
        -11    1    4    4    0    0 -0.64657231036E+01 -0.98260988282E+02 -0.51814878463E+02  0.11127357738E+03  0.00000000000E+00 0.  1.
         11    1    4    4    0    0 -0.43585607232E+02 -0.90447013004E+02 -0.17653862419E+03  0.20309173580E+03  0.00000000000E+00 0. -1.
</event>
<event>
 8    1  0.3710605E-009  0.1058712E+03  0.7561462E-02  0.1268413E+00
         -2   -1    0    0    0  501 -0.00000000000E+00  0.00000000000E+00  0.30652846560E+02  0.30652846560E+02  0.00000000000E+00 0.  1.
          2   -1    0    0  501    0  0.00000000000E+00 -0.00000000000E+00 -0.50679114100E+03  0.50679114100E+03  0.00000000000E+00 0. -1.
         25    2    1    2    0    0  0.57160944779E+02  0.23187708896E+02 -0.25417600846E+03  0.28992678236E+03  0.12508817850E+03 0.  0.
         23    2    1    2    0    0 -0.57160944779E+02 -0.23187708896E+02 -0.22196228598E+03  0.24751720520E+03  0.90512247911E+02 0.  0.
          5    1    3    3  502    0 -0.30390773951E+01  0.39902101316E+02 -0.15408135996E+02  0.43084762222E+02  0.41800000000E+01 0. -1.
         -5    1    3    3    0  502  0.60200022174E+02 -0.16714392419E+02 -0.23876787246E+03  0.24684202014E+03  0.41800000000E+01 0. -1.
        -11    1    4    4    0    0 -0.53203573113E+02 -0.55181446157E+02 -0.16795944519E+03  0.18462390804E+03  0.00000000000E+00 0.  1.
         11    1    4    4    0    0 -0.39573716662E+01  0.31993737260E+02 -0.54002840789E+02  0.62893297160E+02  0.00000000000E+00 0. -1.
</event>
<event>
 8    1  0.3710605E-009  0.1078828E+03  0.7561462E-02  0.1264542E+00
          2   -1    0    0  501    0  0.00000000000E+00  0.00000000000E+00  0.89367560358E+03  0.89367560358E+03  0.00000000000E+00 0. -1.
         -2   -1    0    0    0  501 -0.00000000000E+00 -0.00000000000E+00 -0.26798670186E+02  0.26798670186E+02  0.00000000000E+00 0.  1.
         25    2    1    2    0    0  0.37778236184E+02  0.64168018741E+02  0.70944195812E+03  0.72422340836E+03  0.12508766334E+03 0.  0.
         23    2    1    2    0    0 -0.37778236184E+02 -0.64168018741E+02  0.15743497527E+03  0.19625086540E+03  0.90464915704E+02 0.  0.
          5    1    3    3  502    0 -0.30545382410E+02  0.24901721524E+02  0.47914541297E+03  0.48078156713E+03  0.41800000000E+01 0. -1.
         -5    1    3    3    0  502  0.68323618595E+02  0.39266297217E+02  0.23029654515E+03  0.24344184124E+03  0.41800000000E+01 0. -1.
        -11    1    4    4    0    0 -0.22733042699E+02 -0.75202185979E+02  0.65043135783E+02  0.10199396805E+03  0.00000000000E+00 0.  1.
         11    1    4    4    0    0 -0.15045193485E+02  0.11034167238E+02  0.92391839492E+02  0.94256897351E+02  0.00000000000E+00 0. -1.
</event>
<event>
 8    1  0.3710605E-009  0.1069342E+03  0.7561462E-02  0.1266355E+00
          2   -1    0    0  501    0  0.00000000000E+00  0.00000000000E+00  0.62142861627E+03  0.62142861627E+03  0.00000000000E+00 0.  1.
         -2   -1    0    0    0  501 -0.00000000000E+00 -0.00000000000E+00 -0.21058323016E+02  0.21058323016E+02  0.00000000000E+00 0. -1.
         25    2    1    2    0    0  0.20448598493E+02  0.36321138595E+01  0.25351777645E+03  0.28346061620E+03  0.12508925025E+03 0.  0.
         23    2    1    2    0    0 -0.20448598493E+02 -0.36321138595E+01  0.34685251680E+03  0.35902632309E+03  0.90343205755E+02 0.  0.
          5    1    3    3  502    0 -0.51888657992E+02  0.13225831468E+02  0.10689941872E+03  0.11963408197E+03  0.41800000000E+01 0. -1.
         -5    1    3    3    0  502  0.72337256485E+02 -0.95937176080E+01  0.14661835773E+03  0.16382653423E+03  0.41800000000E+01 0. -1.
        -11    1    4    4    0    0 -0.53706357816E+02 -0.11750096548E+01  0.14910950437E+03  0.15849100230E+03  0.00000000000E+00 0. -1.
         11    1    4    4    0    0  0.33257759322E+02 -0.24571042048E+01  0.19774301244E+03  0.20053532079E+03  0.00000000000E+00 0.  1.
</event>
<event>
 8    1  0.3710605E-009  0.1447363E+03  0.7561462E-02  0.1207094E+00
          1   -1    0    0  501    0  0.00000000000E+00  0.00000000000E+00  0.36543596201E+03  0.36543596201E+03  0.00000000000E+00 0. -1.
         -1   -1    0    0    0  501 -0.00000000000E+00 -0.00000000000E+00 -0.98880880092E+02  0.98880880092E+02  0.00000000000E+00 0.  1.
         25    2    1    2    0    0 -0.90650600888E+02 -0.10609840558E+03  0.22944552788E+03  0.29625361696E+03  0.12508617906E+03 0.  0.
         23    2    1    2    0    0  0.90650600888E+02  0.10609840558E+03  0.37109554037E+02  0.16806322514E+03  0.85986775342E+02 0.  0.
          5    1    3    3  502    0 -0.75087879757E+02 -0.77544152287E+02  0.23885231602E+03  0.26214344643E+03  0.41800000000E+01 0.  1.
         -5    1    3    3    0  502 -0.15562721132E+02 -0.28554253295E+02 -0.94067881432E+01  0.34110170528E+02  0.41800000000E+01 0.  1.
        -11    1    4    4    0    0  0.19901247137E+02  0.62422775345E+02 -0.18446521175E+02  0.68065679037E+02  0.00000000000E+00 0.  1.
         11    1    4    4    0    0  0.70749353751E+02  0.43675630237E+02  0.55556075211E+02  0.99997546098E+02  0.00000000000E+00 0. -1.
</event>
<event>
 8    1  0.3710605E-009  0.1776230E+03  0.7561462E-02  0.1170123E+00
         -2   -1    0    0    0  501 -0.00000000000E+00  0.00000000000E+00  0.16988118579E+03  0.16988118579E+03  0.00000000000E+00 0.  1.
          2   -1    0    0  501    0  0.00000000000E+00 -0.00000000000E+00 -0.24774717858E+03  0.24774717858E+03  0.00000000000E+00 0. -1.
         25    2    1    2    0    0 -0.64751993491E+02  0.16048276119E+03 -0.28318133949E+02  0.21540015342E+03  0.12509105516E+03 0.  0.
         23    2    1    2    0    0  0.64751993491E+02 -0.16048276119E+03 -0.49547858842E+02  0.20222821095E+03  0.92161389363E+02 0.  0.
          5    1    3    3  502    0 -0.24548493649E+02  0.50111354089E+02 -0.70955737915E+02  0.90365731847E+02  0.41800000000E+01 0.  1.
         -5    1    3    3    0  502 -0.40203499842E+02  0.11037140710E+03  0.42637603966E+02  0.12503442157E+03  0.41800000000E+01 0.  1.
        -11    1    4    4    0    0  0.39896558247E+01 -0.83871869166E+02 -0.60989513239E+02  0.10377922970E+03  0.00000000000E+00 0. -1.
         11    1    4    4    0    0  0.60762337666E+02 -0.76610892026E+02  0.11441654397E+02  0.98448981260E+02  0.00000000000E+00 0.  1.
</event>
<event>
 8    1  0.3710605E-009  0.2329656E+03  0.7561462E-02  0.1124570E+00
         -2   -1    0    0    0  501 -0.00000000000E+00  0.00000000000E+00  0.17882338602E+03  0.17882338602E+03  0.00000000000E+00 0.  1.
          2   -1    0    0  501    0  0.00000000000E+00 -0.00000000000E+00 -0.95972927849E+03  0.95972927849E+03  0.00000000000E+00 0. -1.
         25    2    1    2    0    0 -0.40301738362E+02  0.22641925264E+03 -0.84478891250E+03  0.88442371510E+03  0.12508834106E+03 0.  0.
         23    2    1    2    0    0  0.40301738362E+02 -0.22641925264E+03  0.63883020034E+02  0.25412894941E+03  0.87238607263E+02 0.  0.
          5    1    3    3  502    0 -0.26557100488E+02  0.84029312757E+02 -0.54655167341E+03  0.55362659717E+03  0.41800000000E+01 0. -1.
         -5    1    3    3    0  502 -0.13744637874E+02  0.14238993988E+03 -0.29823723909E+03  0.33079711793E+03  0.41800000000E+01 0. -1.
        -11    1    4    4    0    0  0.47666115887E+02 -0.21904520087E+03  0.39517176255E+02  0.22762791096E+03  0.00000000000E+00 0.  1.
         11    1    4    4    0    0 -0.73643775245E+01 -0.73740517700E+01  0.24365843779E+02  0.26501038449E+02  0.00000000000E+00 0. -1.
</event>
<event>
 8    1  0.3710605E-009  0.1146137E+03  0.7561462E-02  0.1252257E+00
          2   -1    0    0  501    0  0.00000000000E+00  0.00000000000E+00  0.40669722547E+02  0.40669722547E+02  0.00000000000E+00 0. -1.
         -2   -1    0    0    0  501 -0.00000000000E+00 -0.00000000000E+00 -0.47686852915E+03  0.47686852915E+03  0.00000000000E+00 0.  1.
         25    2    1    2    0    0 -0.40072432656E+02 -0.72525839257E+02 -0.19675019707E+03  0.24743478925E+03  0.12509011819E+03 0.  0.
         23    2    1    2    0    0  0.40072432656E+02  0.72525839257E+02 -0.23944860954E+03  0.27010346245E+03  0.93565199708E+02 0.  0.
          5    1    3    3  502    0  0.42238991998E+01  0.31901338878E+02 -0.70798743172E+02  0.77881134952E+02  0.41800000000E+01 0. -1.
         -5    1    3    3    0  502 -0.44296331856E+02 -0.10442717813E+03 -0.12595145390E+03  0.16955365430E+03  0.41800000000E+01 0. -1.
        -11    1    4    4    0    0  0.35687752728E+02  0.58061887403E+02 -0.24476930111E+03  0.25408032043E+03  0.00000000000E+00 0.  1.
         11    1    4    4    0    0  0.43846799286E+01  0.14463951854E+02  0.53206915709E+01  0.16023142017E+02  0.00000000000E+00 0. -1.
</event>
<event>
 8    1  0.3710605E-009  0.1003799E+03  0.7561462E-02  0.1279499E+00
          2   -1    0    0  501    0  0.00000000000E+00  0.00000000000E+00  0.15144651609E+03  0.15144651609E+03  0.00000000000E+00 0. -1.
         -2   -1    0    0    0  501 -0.00000000000E+00 -0.00000000000E+00 -0.11002332458E+03  0.11002332458E+03  0.00000000000E+00 0.  1.
         25    2    1    2    0    0  0.66089681252E+02  0.15200352067E+02  0.45629907093E+02  0.14942735233E+03  0.12509016161E+03 0.  0.
         23    2    1    2    0    0 -0.66089681252E+02 -0.15200352067E+02 -0.42067155751E+01  0.11204248834E+03  0.89089427360E+02 0.  0.
          5    1    3    3  502    0  0.91495424839E+01  0.59655217368E+02 -0.56186666993E+01  0.60757722985E+02  0.41800000000E+01 0.  1.
         -5    1    3    3    0  502  0.56940138768E+02 -0.44454865300E+02  0.51248573793E+02  0.88669629342E+02  0.41800000000E+01 0.  1.
        -11    1    4    4    0    0 -0.30153470239E+02 -0.51721655904E+01  0.42435605757E+02  0.52314087016E+02  0.00000000000E+00 0. -1.
         11    1    4    4    0    0 -0.35936211013E+02 -0.10028186477E+02 -0.46642321332E+02  0.59728401328E+02  0.00000000000E+00 0.  1.
</event>
<event>
 8    1  0.3710605E-009  0.2271022E+03  0.7561462E-02  0.1128696E+00
         -2   -1    0    0    0  501 -0.00000000000E+00  0.00000000000E+00  0.30080383942E+02  0.30080383942E+02  0.00000000000E+00 0.  1.
          2   -1    0    0  501    0  0.00000000000E+00 -0.00000000000E+00 -0.19850996879E+04  0.19850996879E+04  0.00000000000E+00 0. -1.
         25    2    1    2    0    0 -0.20859344007E+03  0.57586401192E+02 -0.87831395125E+03  0.91318688996E+03  0.12508989645E+03 0.  0.
         23    2    1    2    0    0  0.20859344007E+03 -0.57586401192E+02 -0.10767053527E+04  0.11019931818E+04  0.90923811625E+02 0.  0.
          5    1    3    3  502    0 -0.62275900154E+02 -0.70675383102E+00 -0.49252382065E+03  0.49646346648E+03  0.41800000000E+01 0. -1.
         -5    1    3    3    0  502 -0.14631753992E+03  0.58293155023E+02 -0.38579013060E+03  0.41672342348E+03  0.41800000000E+01 0. -1.
        -11    1    4    4    0    0  0.20380140312E+03 -0.29726602928E+02 -0.92165685538E+03  0.94438871335E+03  0.00000000000E+00 0.  1.
         11    1    4    4    0    0  0.47920369536E+01 -0.27859798264E+02 -0.15504849729E+03  0.15760446850E+03  0.00000000000E+00 0. -1.
</event>
<event>
 8    1  0.3710605E-009  0.1030970E+03  0.7561462E-02  0.1273915E+00
         -1   -1    0    0    0  501 -0.00000000000E+00  0.00000000000E+00  0.65442066686E+02  0.65442066686E+02  0.00000000000E+00 0.  1.
          1   -1    0    0  501    0  0.00000000000E+00 -0.00000000000E+00 -0.32351438435E+03  0.32351438435E+03  0.00000000000E+00 0. -1.
         25    2    1    2    0    0  0.80588653208E+02 -0.46223319481E+02 -0.11145326005E+03  0.19157588238E+03  0.12509341807E+03 0.  0.
         23    2    1    2    0    0 -0.80588653208E+02  0.46223319481E+02 -0.14661905762E+03  0.19738056866E+03  0.93972413708E+02 0.  0.
          5    1    3    3  502    0  0.91484171823E+02 -0.43056138047E+02 -0.24943232185E+02  0.10422486243E+03  0.41800000000E+01 0.  1.
         -5    1    3    3    0  502 -0.10895518615E+02 -0.31671814342E+01 -0.86510027862E+02  0.87351019942E+02  0.41800000000E+01 0.  1.
        -11    1    4    4    0    0 -0.57529785998E+02  0.33314658534E+02 -0.22052579051E+02  0.70041837447E+02  0.00000000000E+00 0.  1.
         11    1    4    4    0    0 -0.23058867211E+02  0.12908660947E+02 -0.12456647857E+03  0.12733873121E+03  0.00000000000E+00 0. -1.
</event>
<event>
 8    1  0.3710605E-009  0.9828719E+02  0.7561462E-02  0.1283940E+00
          2   -1    0    0  501    0  0.00000000000E+00  0.00000000000E+00  0.34678505730E+03  0.34678505730E+03  0.00000000000E+00 0.  1.
         -2   -1    0    0    0  501 -0.00000000000E+00 -0.00000000000E+00 -0.40369377740E+02  0.40369377740E+02  0.00000000000E+00 0. -1.
         25    2    1    2    0    0  0.15492683384E+01  0.49993743193E+02  0.18776614786E+03  0.23109889542E+03  0.12509515814E+03 0.  0.
         23    2    1    2    0    0 -0.15492683384E+01 -0.49993743193E+02  0.11864953170E+03  0.15605553962E+03  0.88169413539E+02 0.  0.
          5    1    3    3  502    0  0.35184929625E+02 -0.30898455527E+02  0.64535255569E+02  0.79843380678E+02  0.41800000000E+01 0.  1.
         -5    1    3    3    0  502 -0.33635661287E+02  0.80892198720E+02  0.12323089229E+03  0.15125551474E+03  0.41800000000E+01 0.  1.
        -11    1    4    4    0    0 -0.18420825376E+02 -0.18382215030E+02 -0.57048576059E+01  0.26641659807E+02  0.00000000000E+00 0. -1.
         11    1    4    4    0    0  0.16871557038E+02 -0.31611528163E+02  0.12435438931E+03  0.12941387982E+03  0.00000000000E+00 0.  1.
</event>
<event>
 8    1  0.3710605E-009  0.1438572E+03  0.7561462E-02  0.1208231E+00
         -2   -1    0    0    0  501 -0.00000000000E+00  0.00000000000E+00  0.45297367649E+02  0.45297367649E+02  0.00000000000E+00 0.  1.
          2   -1    0    0  501    0  0.00000000000E+00 -0.00000000000E+00 -0.68859195668E+03  0.68859195668E+03  0.00000000000E+00 0. -1.
         25    2    1    2    0    0 -0.96855788055E+02 -0.64874610553E+02 -0.49224448163E+03  0.52109628607E+03  0.12508777276E+03 0.  0.
         23    2    1    2    0    0  0.96855788055E+02  0.64874610553E+02 -0.15105010740E+03  0.21279303825E+03  0.94207130350E+02 0.  0.
          5    1    3    3  502    0 -0.86280245276E+02 -0.15508003215E+02 -0.43867004013E+03  0.44736300182E+03  0.41800000000E+01 0. -1.
         -5    1    3    3    0  502 -0.10575542779E+02 -0.49366607338E+02 -0.53574441494E+02  0.73733284252E+02  0.41800000000E+01 0. -1.
        -11    1    4    4    0    0  0.10888696276E+03  0.30804520692E+02 -0.12227684658E+03  0.16660407067E+03  0.00000000000E+00 0. -1.
         11    1    4    4    0    0 -0.12031174708E+02  0.34070089861E+02 -0.28773260828E+02  0.46188967586E+02  0.00000000000E+00 0.  1.
</event>
<event>
 8    1  0.3710605E-009  0.1170624E+03  0.7561462E-02  0.1248023E+00
          1   -1    0    0  501    0  0.00000000000E+00  0.00000000000E+00  0.23726490286E+03  0.23726490286E+03  0.00000000000E+00 0. -1.
         -1   -1    0    0    0  501 -0.00000000000E+00 -0.00000000000E+00 -0.11158755878E+03  0.11158755878E+03  0.00000000000E+00 0.  1.
         25    2    1    2    0    0  0.10734208943E+03  0.97403169818E+01  0.62144643036E+01  0.16523786852E+03  0.12509090969E+03 0.  0.
         23    2    1    2    0    0 -0.10734208943E+03 -0.97403169818E+01  0.11946287977E+03  0.18361459312E+03  0.88463219605E+02 0.  0.
          5    1    3    3  502    0 -0.11315153462E+01 -0.13611012292E+02 -0.41867771926E+02  0.44237119127E+02  0.41800000000E+01 0. -1.
         -5    1    3    3    0  502  0.10847360478E+03  0.23351329274E+02  0.48082236230E+02  0.12100074939E+03  0.41800000000E+01 0. -1.
        -11    1    4    4    0    0 -0.65250555521E+02  0.13922583465E+01  0.10278974445E+02  0.66069892498E+02  0.00000000000E+00 0.  1.
         11    1    4    4    0    0 -0.42091533910E+02 -0.11132575328E+02  0.10918390533E+03  0.11754470062E+03  0.00000000000E+00 0. -1.
</event>
<event>
 8    1  0.3710605E-009  0.1103157E+03  0.7561462E-02  0.1259986E+00
         -1   -1    0    0    0  501 -0.00000000000E+00  0.00000000000E+00  0.15434713486E+03  0.15434713486E+03  0.00000000000E+00 0.  1.
          1   -1    0    0  501    0  0.00000000000E+00 -0.00000000000E+00 -0.22160680343E+03  0.22160680343E+03  0.00000000000E+00 0. -1.
         25    2    1    2    0    0 -0.56727984040E+02  0.25588243316E+02  0.10015007242E+03  0.17190630330E+03  0.12509563437E+03 0.  0.
         23    2    1    2    0    0  0.56727984040E+02 -0.25588243316E+02 -0.16740974099E+03  0.20404763499E+03  0.98674178977E+02 0.  0.
          5    1    3    3  502    0 -0.13850752251E+02  0.73349084974E+02  0.45617663891E+02  0.87580678596E+02  0.41800000000E+01 0. -1.
         -5    1    3    3    0  502 -0.42877231789E+02 -0.47760841658E+02  0.54532408527E+02  0.84325624703E+02  0.41800000000E+01 0. -1.
        -11    1    4    4    0    0  0.67013814311E+02 -0.23766416196E+02 -0.17644718338E+03  0.19023486108E+03  0.00000000000E+00 0. -1.
         11    1    4    4    0    0 -0.10285830270E+02 -0.18218271196E+01  0.90374423828E+01  0.13812773915E+02  0.00000000000E+00 0.  1.
</event>
<event>
 8    1  0.3710605E-009  0.1367603E+03  0.7561462E-02  0.1217756E+00
         -2   -1    0    0    0  501 -0.00000000000E+00  0.00000000000E+00  0.18246223767E+03  0.18246223767E+03  0.00000000000E+00 0.  1.
          2   -1    0    0  501    0  0.00000000000E+00 -0.00000000000E+00 -0.22908128446E+03  0.22908128446E+03  0.00000000000E+00 0. -1.
         25    2    1    2    0    0 -0.45318153239E+02  0.96831088170E+02  0.11379535345E+03  0.20007274484E+03  0.12509886535E+03 0.  0.
         23    2    1    2    0    0  0.45318153239E+02 -0.96831088170E+02 -0.16041440024E+03  0.21147077729E+03  0.86931669690E+02 0.  0.
          5    1    3    3  502    0 -0.18245870599E+02 -0.28158098036E+02  0.39946711864E+02  0.52335480008E+02  0.41800000000E+01 0.  1.
         -5    1    3    3    0  502 -0.27072282640E+02  0.12498918621E+03  0.73848641583E+02  0.14773726483E+03  0.41800000000E+01 0.  1.
        -11    1    4    4    0    0  0.38159730609E+02 -0.43176501099E+02 -0.14369410136E+03  0.15481721498E+03  0.00000000000E+00 0. -1.
         11    1    4    4    0    0  0.71584226305E+01 -0.53654587070E+02 -0.16720298877E+02  0.56653562313E+02  0.00000000000E+00 0.  1.
</event>
<event>
 8    1  0.3710605E-009  0.1370436E+03  0.7561462E-02  0.1217363E+00
         -4   -1    0    0    0  501 -0.00000000000E+00  0.00000000000E+00  0.41505287056E+03  0.41505287056E+03  0.00000000000E+00 0.  1.
          4   -1    0    0  501    0  0.00000000000E+00 -0.00000000000E+00 -0.79920040611E+02  0.79920040611E+02  0.00000000000E+00 0. -1.
         25    2    1    2    0    0 -0.25519514993E+01 -0.12214646088E+03  0.28271787853E+03  0.33242029227E+03  0.12509029342E+03 0.  0.
         23    2    1    2    0    0  0.25519514993E+01  0.12214646088E+03  0.52414951417E+02  0.16255261890E+03  0.93540132649E+02 0.  0.
          5    1    3    3  502    0 -0.16184536242E+02 -0.13223708519E+03  0.28516838087E+03  0.31478097745E+03  0.41800000000E+01 0.  1.
         -5    1    3    3    0  502  0.13632584743E+02  0.10090624309E+02 -0.24505023404E+01  0.17639314823E+02  0.41800000000E+01 0.  1.
        -11    1    4    4    0    0 -0.70971089410E+01  0.40786635451E+02 -0.26210217334E+02  0.48998919166E+02  0.00000000000E+00 0. -1.
         11    1    4    4    0    0  0.96490604403E+01  0.81359825434E+02  0.78625168752E+02  0.11355369973E+03  0.00000000000E+00 0.  1.
</event>
<event>
 8    1  0.3710605E-009  0.1452732E+03  0.7561462E-02  0.1206404E+00
         -1   -1    0    0    0  501 -0.00000000000E+00  0.00000000000E+00  0.67025595303E+02  0.67025595303E+02  0.00000000000E+00 0.  1.
          1   -1    0    0  501    0  0.00000000000E+00 -0.00000000000E+00 -0.82351432549E+03  0.82351432549E+03  0.00000000000E+00 0. -1.
         25    2    1    2    0    0 -0.12774099859E+03 -0.48863257989E+01 -0.69522603682E+03  0.71786361690E+03  0.12508913340E+03 0.  0.
         23    2    1    2    0    0  0.12774099859E+03  0.48863257989E+01 -0.61262693373E+02  0.17267630390E+03  0.98601974769E+02 0.  0.
          5    1    3    3  502    0 -0.11098189030E+03 -0.14896116669E+02 -0.68731573891E+03  0.69639017197E+03  0.41800000000E+01 0.  1.
         -5    1    3    3    0  502 -0.16759108292E+02  0.10009790870E+02 -0.79102979081E+01  0.21473444926E+02  0.41800000000E+01 0.  1.
        -11    1    4    4    0    0  0.66381657609E+02  0.49380461224E+02 -0.15605621565E+02  0.84193169806E+02  0.00000000000E+00 0. -1.
         11    1    4    4    0    0  0.61359340979E+02 -0.44494135425E+02 -0.45657071807E+02  0.88483134092E+02  0.00000000000E+00 0.  1.
</event>
<event>
 8    1  0.3710605E-009  0.9614751E+02  0.7561462E-02  0.1288612E+00
          3   -1    0    0  501    0  0.00000000000E+00  0.00000000000E+00  0.41475758582E+03  0.41475758582E+03  0.00000000000E+00 0. -1.
         -3   -1    0    0    0  501 -0.00000000000E+00 -0.00000000000E+00 -0.28950196507E+02  0.28950196507E+02  0.00000000000E+00 0.  1.
         25    2    1    2    0    0 -0.41597450166E+01  0.30163169287E+01  0.18448646041E+03  0.22295037757E+03  0.12508083440E+03 0.  0.
         23    2    1    2    0    0  0.41597450166E+01 -0.30163169287E+01  0.20132092890E+03  0.22075740476E+03  0.90428500467E+02 0.  0.
          5    1    3    3  502    0 -0.24283026969E+02  0.47067885737E+02  0.15986206273E+03  0.16845890528E+03  0.41800000000E+01 0.  1.
         -5    1    3    3    0  502  0.20123281952E+02 -0.44051568808E+02  0.24624397680E+02  0.54491472288E+02  0.41800000000E+01 0.  1.
        -11    1    4    4    0    0  0.46354561398E+02 -0.10932574016E+02  0.10801668890E+03  0.11805029275E+03  0.00000000000E+00 0.  1.
         11    1    4    4    0    0 -0.42194816382E+02  0.79162570871E+01  0.93304239997E+02  0.10270711201E+03  0.00000000000E+00 0. -1.
</event>
<event>
 8    1  0.3710605E-009  0.1926586E+03  0.7561462E-02  0.1156085E+00
         -1   -1    0    0    0  501 -0.00000000000E+00  0.00000000000E+00  0.11144304585E+03  0.11144304585E+03  0.00000000000E+00 0.  1.
          1   -1    0    0  501    0  0.00000000000E+00 -0.00000000000E+00 -0.37951370357E+03  0.37951370357E+03  0.00000000000E+00 0. -1.
         25    2    1    2    0    0  0.31505141105E+02 -0.16659946868E+03 -0.19681915579E+03  0.28832875787E+03  0.12509090953E+03 0.  0.
         23    2    1    2    0    0 -0.31505141105E+02  0.16659946868E+03 -0.71251501930E+02  0.20262799155E+03  0.85049218401E+02 0.  0.
          5    1    3    3  502    0 -0.22614567799E+02 -0.15251599214E+03 -0.15187640709E+03  0.21646353496E+03  0.41800000000E+01 0.  1.
         -5    1    3    3    0  502  0.54119708904E+02 -0.14083476542E+02 -0.44942748703E+02  0.71865222913E+02  0.41800000000E+01 0.  1.
        -11    1    4    4    0    0  0.28368333113E+01  0.10023723526E+03 -0.13189848901E+01  0.10028604428E+03  0.00000000000E+00 0.  1.
         11    1    4    4    0    0 -0.34341974416E+02  0.66362233422E+02 -0.69932517040E+02  0.10234194727E+03  0.00000000000E+00 0. -1.
</event>
<event>
 8    1  0.3710605E-009  0.1025087E+03  0.7561462E-02  0.1275107E+00
         -2   -1    0    0    0  501 -0.00000000000E+00  0.00000000000E+00  0.65801450396E+02  0.65801450396E+02  0.00000000000E+00 0.  1.
          2   -1    0    0  501    0  0.00000000000E+00 -0.00000000000E+00 -0.24894517421E+03  0.24894517421E+03  0.00000000000E+00 0. -1.
         25    2    1    2    0    0  0.65866873885E+01  0.58237253921E+02 -0.57945997354E+02  0.14980321279E+03  0.12509317231E+03 0.  0.
         23    2    1    2    0    0 -0.65866873885E+01 -0.58237253921E+02 -0.12519772647E+03  0.16494341182E+03  0.89982754995E+02 0.  0.
          5    1    3    3  502    0 -0.16821635088E+02 -0.17878172001E+02  0.24619006134E+02  0.35016628967E+02  0.41800000000E+01 0. -1.
         -5    1    3    3    0  502  0.23408322477E+02  0.76115425922E+02 -0.82565003488E+02  0.11478658382E+03  0.41800000000E+01 0. -1.
        -11    1    4    4    0    0  0.37063126192E+02 -0.34747646624E+02 -0.33958265600E+02  0.61108412445E+02  0.00000000000E+00 0.  1.
         11    1    4    4    0    0 -0.43649813581E+02 -0.23489607297E+02 -0.91239460866E+02  0.10383499938E+03  0.00000000000E+00 0. -1.
</event>
<event>
 8    1  0.3710605E-009  0.8996404E+02  0.7561462E-02  0.1302939E+00
         -2   -1    0    0    0  501 -0.00000000000E+00  0.00000000000E+00  0.10344253408E+02  0.10344253408E+02  0.00000000000E+00 0. -1.
          2   -1    0    0  501    0  0.00000000000E+00 -0.00000000000E+00 -0.15420562912E+04  0.15420562912E+04  0.00000000000E+00 0.  1.
         25    2    1    2    0    0 -0.94682619144E+01 -0.47711647445E+02 -0.11328782549E+04  0.11408008597E+04  0.12508961461E+03 0.  0.
         23    2    1    2    0    0  0.94682619144E+01  0.47711647445E+02 -0.39883378284E+03  0.41159968490E+03  0.89330090053E+02 0.  0.
          5    1    3    3  502    0 -0.41467578468E+02 -0.23076432637E+02 -0.10151770817E+04  0.10162942789E+04  0.41800000000E+01 0. -1.
         -5    1    3    3    0  502  0.31999316554E+02 -0.24635214808E+02 -0.11770117324E+03  0.12450658075E+03  0.41800000000E+01 0. -1.
        -11    1    4    4    0    0 -0.19666206098E+02 -0.13529480726E+02 -0.41397871800E+02  0.47786926042E+02  0.00000000000E+00 0. -1.
         11    1    4    4    0    0  0.29134468012E+02  0.61241128171E+02 -0.35743591104E+03  0.36381275886E+03  0.00000000000E+00 0.  1.
</event>
<event>
 8    1  0.3710605E-009  0.1639001E+03  0.7561462E-02  0.1184363E+00
         -2   -1    0    0    0  501 -0.00000000000E+00  0.00000000000E+00  0.44581243032E+02  0.44581243032E+02  0.00000000000E+00 0. -1.
          2   -1    0    0  501    0  0.00000000000E+00 -0.00000000000E+00 -0.85245946657E+03  0.85245946657E+03  0.00000000000E+00 0.  1.
         25    2    1    2    0    0  0.14044309058E+03  0.73821957483E+02 -0.34459324290E+03  0.39945704735E+03  0.12508991377E+03 0.  0.
         23    2    1    2    0    0 -0.14044309058E+03 -0.73821957483E+02 -0.46328498064E+03  0.49758366226E+03  0.88218958029E+02 0.  0.
          5    1    3    3  502    0  0.36424439426E+02  0.10573468487E+02 -0.22687050242E+03  0.23005702617E+03  0.41800000000E+01 0.  1.
         -5    1    3    3    0  502  0.10401865116E+03  0.63248488996E+02 -0.11772274048E+03  0.16940002117E+03  0.41800000000E+01 0.  1.
        -11    1    4    4    0    0 -0.30846948333E+02 -0.44915959204E+02 -0.25192848445E+03  0.25775363992E+03  0.00000000000E+00 0.  1.
         11    1    4    4    0    0 -0.10959614225E+03 -0.28905998279E+02 -0.21135649619E+03  0.23983002234E+03  0.00000000000E+00 0. -1.
</event>
<event>
 8    1  0.3710605E-009  0.1456258E+03  0.7561462E-02  0.1205953E+00
         -3   -1    0    0    0  501 -0.00000000000E+00  0.00000000000E+00  0.28688248749E+02  0.28688248749E+02  0.00000000000E+00 0.  1.
          3   -1    0    0  501    0  0.00000000000E+00 -0.00000000000E+00 -0.75464020179E+03  0.75464020179E+03  0.00000000000E+00 0. -1.
         25    2    1    2    0    0 -0.99411171363E+02  0.62868049769E+01 -0.40816204043E+03  0.43836735228E+03  0.12509028493E+03 0.  0.
         23    2    1    2    0    0  0.99411171363E+02 -0.62868049769E+01 -0.31778991261E+03  0.34496109826E+03  0.89920108143E+02 0.  0.
          5    1    3    3  502    0 -0.61819468443E+01  0.52559898743E+02 -0.10229511887E+03  0.11524982936E+03  0.41800000000E+01 0. -1.
         -5    1    3    3    0  502 -0.93229224518E+02 -0.46273093767E+02 -0.30586692156E+03  0.32311752292E+03  0.41800000000E+01 0. -1.
        -11    1    4    4    0    0  0.18004486873E+02  0.37475097603E+02 -0.90208160724E+02  0.99328026000E+02  0.00000000000E+00 0.  1.
         11    1    4    4    0    0  0.81406684490E+02 -0.43761902579E+02 -0.22758175189E+03  0.24563307226E+03  0.00000000000E+00 0. -1.
</event>
<event>
 8    1  0.3710605E-009  0.1185510E+03  0.7561462E-02  0.1245507E+00
          2   -1    0    0  501    0  0.00000000000E+00  0.00000000000E+00  0.54249054148E+03  0.54249054148E+03  0.00000000000E+00 0. -1.
         -2   -1    0    0    0  501 -0.00000000000E+00 -0.00000000000E+00 -0.31397216148E+02  0.31397216148E+02  0.00000000000E+00 0.  1.
         25    2    1    2    0    0  0.18268185337E+02 -0.65521173427E+02  0.22946591822E+03  0.27005543788E+03  0.12509428900E+03 0.  0.
         23    2    1    2    0    0 -0.18268185337E+02  0.65521173427E+02  0.28162740711E+03  0.30383231975E+03  0.91505908697E+02 0.  0.
          5    1    3    3  502    0  0.60695954495E+02 -0.25676589662E+02  0.18576067163E+03  0.19714914576E+03  0.41800000000E+01 0.  1.
         -5    1    3    3    0  502 -0.42427769158E+02 -0.39844583764E+02  0.43705246591E+02  0.72906292120E+02  0.41800000000E+01 0.  1.
        -11    1    4    4    0    0 -0.43504923589E+02  0.10941873277E+01  0.13180514393E+03  0.13880371605E+03  0.00000000000E+00 0.  1.
         11    1    4    4    0    0  0.25236738252E+02  0.64426986099E+02  0.14982226318E+03  0.16502860371E+03  0.00000000000E+00 0. -1.
</event>
<event>
 8    1  0.3710605E-009  0.9498293E+02  0.7561462E-02  0.1291215E+00
         -1   -1    0    0    0  501 -0.00000000000E+00  0.00000000000E+00  0.93051075406E+02  0.93051075406E+02  0.00000000000E+00 0.  1.
          1   -1    0    0  501    0  0.00000000000E+00 -0.00000000000E+00 -0.16837314241E+03  0.16837314241E+03  0.00000000000E+00 0. -1.
         25    2    1    2    0    0  0.12364170961E+02 -0.57960265655E+02 -0.63879217648E+02  0.15244486226E+03  0.12508643598E+03 0.  0.
         23    2    1    2    0    0 -0.12364170961E+02  0.57960265655E+02 -0.11442849358E+02  0.10897935555E+03  0.90737511631E+02 0.  0.
          5    1    3    3  502    0  0.11323101082E+02 -0.77571826248E+02  0.69616980966E+01  0.78813314142E+02  0.41800000000E+01 0.  1.
         -5    1    3    3    0  502  0.10410698782E+01  0.19611560593E+02 -0.70840915744E+02  0.73631548122E+02  0.41800000000E+01 0.  1.
        -11    1    4    4    0    0  0.26010797032E+02  0.58409116080E+01 -0.31455870526E+02  0.41232870397E+02  0.00000000000E+00 0. -1.
         11    1    4    4    0    0 -0.38374967992E+02  0.52119354047E+02  0.20013021168E+02  0.67746485156E+02  0.00000000000E+00 0.  1.
</event>
<event>
 8    1  0.3710605E-009  0.1088158E+03  0.7561462E-02  0.1262779E+00
         -1   -1    0    0    0  501 -0.00000000000E+00  0.00000000000E+00  0.53940450906E+03  0.53940450906E+03  0.00000000000E+00 0.  1.
          1   -1    0    0  501    0  0.00000000000E+00 -0.00000000000E+00 -0.24510068571E+02  0.24510068571E+02  0.00000000000E+00 0. -1.
         25    2    1    2    0    0 -0.24259264775E+02 -0.20021215249E+02  0.23700975703E+03  0.26983726963E+03  0.12509662731E+03 0.  0.
         23    2    1    2    0    0  0.24259264775E+02  0.20021215249E+02  0.27788468345E+03  0.29407730800E+03  0.90951661853E+02 0.  0.
          5    1    3    3  502    0  0.51196292459E+02 -0.61172440473E+01  0.10619631745E+03  0.11812540487E+03  0.41800000000E+01 0.  1.
         -5    1    3    3    0  502 -0.75455557235E+02 -0.13903971202E+02  0.13081343958E+03  0.15171186476E+03  0.41800000000E+01 0.  1.
        -11    1    4    4    0    0  0.21695411874E+02  0.52331462419E+02  0.11741424249E+03  0.13036631925E+03  0.00000000000E+00 0.  1.
         11    1    4    4    0    0  0.25638529015E+01 -0.32310247170E+02  0.16047044096E+03  0.16371098875E+03  0.00000000000E+00 0. -1.
</event>
<event>
 8    1  0.3710605E-009  0.1184894E+03  0.7561462E-02  0.1245610E+00
         -1   -1    0    0    0  501 -0.00000000000E+00  0.00000000000E+00  0.63754366165E+02  0.63754366165E+02  0.00000000000E+00 0.  1.
          1   -1    0    0  501    0  0.00000000000E+00 -0.00000000000E+00 -0.36970286425E+03  0.36970286425E+03  0.00000000000E+00 0. -1.
         25    2    1    2    0    0 -0.63652623610E+02 -0.75029831114E+02 -0.22739481658E+03  0.27755246431E+03  0.12508331539E+03 0.  0.
         23    2    1    2    0    0  0.63652623610E+02  0.75029831114E+02 -0.78553681501E+02  0.15590476610E+03  0.91948263528E+02 0.  0.
          5    1    3    3  502    0  0.60438496085E+01 -0.53738981439E+01  0.14049650155E+02  0.16741325182E+02  0.41800000000E+01 0. -1.
         -5    1    3    3    0  502 -0.69696473218E+02 -0.69655932970E+02 -0.24144446674E+03  0.26081113913E+03  0.41800000000E+01 0. -1.
        -11    1    4    4    0    0 -0.19234724257E+02  0.27936236934E+02 -0.26037149348E+01  0.34017455560E+02  0.00000000000E+00 0.  1.
         11    1    4    4    0    0  0.82887347867E+02  0.47093594180E+02 -0.75949966566E+02  0.12188731054E+03  0.00000000000E+00 0. -1.
</event>
<event>
 8    1  0.3710605E-009  0.1650941E+03  0.7561462E-02  0.1183063E+00
         -3   -1    0    0    0  501 -0.00000000000E+00  0.00000000000E+00  0.18044134015E+03  0.18044134015E+03  0.00000000000E+00 0.  1.
          3   -1    0    0  501    0  0.00000000000E+00 -0.00000000000E+00 -0.17588990038E+03  0.17588990038E+03  0.00000000000E+00 0. -1.
         25    2    1    2    0    0  0.10737643838E+03  0.90901875123E+02  0.12545099968E+02  0.18867333022E+03  0.12508955026E+03 0.  0.
         23    2    1    2    0    0 -0.10737643838E+03 -0.90901875123E+02 -0.79936601945E+01  0.16765791031E+03  0.90842863605E+02 0.  0.
          5    1    3    3  502    0 -0.26526327099E+02  0.10822444381E+02  0.14935250398E+02  0.32577683101E+02  0.41800000000E+01 0.  1.
         -5    1    3    3    0  502  0.13390276548E+03  0.80079430742E+02 -0.23901504305E+01  0.15609564712E+03  0.41800000000E+01 0.  1.
        -11    1    4    4    0    0 -0.53649505235E+02 -0.68349259242E+02  0.36599654349E+02  0.94283749126E+02  0.00000000000E+00 0.  1.
         11    1    4    4    0    0 -0.53726933144E+02 -0.22552615882E+02 -0.44593314543E+02  0.73374161188E+02  0.00000000000E+00 0. -1.
</event>
<event>
 8    1  0.3710605E-009  0.1140885E+03  0.7561462E-02  0.1253181E+00
          2   -1    0    0  501    0  0.00000000000E+00  0.00000000000E+00  0.28635784760E+03  0.28635784760E+03  0.00000000000E+00 0. -1.
         -2   -1    0    0    0  501 -0.00000000000E+00 -0.00000000000E+00 -0.52026472171E+02  0.52026472171E+02  0.00000000000E+00 0.  1.
         25    2    1    2    0    0  0.44494592853E+02 -0.82903584761E+01  0.17265829612E+03  0.21796163234E+03  0.12509151498E+03 0.  0.
         23    2    1    2    0    0 -0.44494592853E+02  0.82903584761E+01  0.61673079314E+02  0.12042268743E+03  0.93002989729E+02 0.  0.
          5    1    3    3  502    0  0.25896080458E+02  0.57631994866E+02  0.69044188808E+02  0.93683649713E+02  0.41800000000E+01 0. -1.
         -5    1    3    3    0  502  0.18598512395E+02 -0.65922353342E+02  0.10361410731E+03  0.12427798263E+03  0.41800000000E+01 0. -1.
        -11    1    4    4    0    0 -0.66695488539E+02  0.21892465133E+02  0.63042817804E+02  0.94350225743E+02  0.00000000000E+00 0. -1.
         11    1    4    4    0    0  0.22200895687E+02 -0.13602106656E+02 -0.13697384903E+01  0.26072461685E+02  0.00000000000E+00 0.  1.
</event>
<event>
 8    1  0.3710605E-009  0.1456233E+03  0.7561462E-02  0.1205957E+00
          3   -1    0    0  501    0  0.00000000000E+00  0.00000000000E+00  0.99434836305E+03  0.99434836305E+03  0.00000000000E+00 0. -1.
         -3   -1    0    0    0  501 -0.00000000000E+00 -0.00000000000E+00 -0.24313035895E+02  0.24313035895E+02  0.00000000000E+00 0.  1.
         25    2    1    2    0    0  0.57117882538E+02 -0.94820573234E+02  0.56494834579E+03  0.58912414123E+03  0.12508887541E+03 0.  0.
         23    2    1    2    0    0 -0.57117882538E+02  0.94820573234E+02  0.40508698137E+03  0.42953725772E+03  0.90296177562E+02 0.  0.
          5    1    3    3  502    0  0.75803646888E+02 -0.10577881075E+03  0.54148029888E+03  0.55691447832E+03  0.41800000000E+01 0. -1.
         -5    1    3    3    0  502 -0.18685764350E+02  0.10958237519E+02  0.23468046909E+02  0.32209662907E+02  0.41800000000E+01 0. -1.
        -11    1    4    4    0    0 -0.11844923600E+02 -0.15631051564E+02  0.29392508753E+02  0.35334849072E+02  0.00000000000E+00 0.  1.
         11    1    4    4    0    0 -0.45272958938E+02  0.11045162480E+03  0.37569447261E+03  0.39420240865E+03  0.00000000000E+00 0. -1.
</event>
<event>
 8    1  0.3710605E-009  0.1095105E+03  0.7561462E-02  0.1261479E+00
         -4   -1    0    0    0  501 -0.00000000000E+00  0.00000000000E+00  0.14303769415E+03  0.14303769415E+03  0.00000000000E+00 0.  1.
          4   -1    0    0  501    0  0.00000000000E+00 -0.00000000000E+00 -0.11070017066E+03  0.11070017066E+03  0.00000000000E+00 0. -1.
         25    2    1    2    0    0  0.35343054904E+02 -0.14313623815E+02 -0.31411087817E+02  0.13450533714E+03  0.12510402841E+03 0.  0.
         23    2    1    2    0    0 -0.35343054904E+02  0.14313623815E+02  0.63748611306E+02  0.11923252766E+03  0.93265743192E+02 0.  0.
          5    1    3    3  502    0  0.77084704746E+02 -0.14115036106E+02 -0.44930797336E+02  0.90429723539E+02  0.41800000000E+01 0. -1.
         -5    1    3    3    0  502 -0.41741649842E+02 -0.19858770898E+00  0.13519709519E+02  0.44075613598E+02  0.41800000000E+01 0. -1.
        -11    1    4    4    0    0 -0.65572568959E+01  0.51303878273E+02  0.45659782531E+02  0.68992037835E+02  0.00000000000E+00 0.  1.
         11    1    4    4    0    0 -0.28785798008E+02 -0.36990254458E+02  0.18088828775E+02  0.50240489829E+02  0.00000000000E+00 0. -1.
</event>
<event>
 8    1  0.3710605E-009  0.1099865E+03  0.7561462E-02  0.1260595E+00
          2   -1    0    0  501    0  0.00000000000E+00  0.00000000000E+00  0.28777536199E+02  0.28777536199E+02  0.00000000000E+00 0. -1.
         -2   -1    0    0    0  501 -0.00000000000E+00 -0.00000000000E+00 -0.58661108476E+03  0.58661108476E+03  0.00000000000E+00 0.  1.
         25    2    1    2    0    0  0.55878944335E+02 -0.29024729463E+02 -0.39528091014E+03  0.41935659502E+03  0.12509222409E+03 0.  0.
         23    2    1    2    0    0 -0.55878944335E+02  0.29024729463E+02 -0.16255263842E+03  0.19603202593E+03  0.89667739989E+02 0.  0.
          5    1    3    3  502    0  0.22556485595E+02  0.32855832873E+02 -0.38069015630E+02  0.55272263815E+02  0.41800000000E+01 0.  1.
         -5    1    3    3    0  502  0.33322458740E+02 -0.61880562336E+02 -0.35721189451E+03  0.36408433121E+03  0.41800000000E+01 0.  1.
        -11    1    4    4    0    0 -0.64962658596E+02  0.53010227102E+02 -0.12746536542E+03  0.15257014967E+03  0.00000000000E+00 0.  1.
         11    1    4    4    0    0  0.90837142619E+01 -0.23985497639E+02 -0.35087272995E+02  0.43461876260E+02  0.00000000000E+00 0. -1.
</event>
<event>
 8    1  0.3710605E-009  0.9845884E+02  0.7561462E-02  0.1283571E+00
         -1   -1    0    0    0  501 -0.00000000000E+00  0.00000000000E+00  0.97256257716E+02  0.97256257716E+02  0.00000000000E+00 0.  1.
          1   -1    0    0  501    0  0.00000000000E+00 -0.00000000000E+00 -0.12701401005E+03  0.12701401005E+03  0.00000000000E+00 0. -1.
         25    2    1    2    0    0 -0.10743413244E+02 -0.18904164534E+02 -0.30293816585E+02  0.13053210380E+03  0.12509247154E+03 0.  0.
         23    2    1    2    0    0  0.10743413244E+02  0.18904164534E+02  0.53606425008E+00  0.93738163963E+02  0.91179864298E+02 0.  0.
          5    1    3    3  502    0  0.38408374364E+02 -0.50003729583E+02 -0.34628789323E+02  0.72056933348E+02  0.41800000000E+01 0. -1.
         -5    1    3    3    0  502 -0.49151787608E+02  0.31099565049E+02  0.43349727385E+01  0.58475170457E+02  0.41800000000E+01 0. -1.
        -11    1    4    4    0    0  0.41864056991E+02  0.99634323165E+01 -0.27363928627E+02  0.50996606173E+02  0.00000000000E+00 0. -1.
         11    1    4    4    0    0 -0.31120643747E+02  0.89407322171E+01  0.27899992877E+02  0.42741557790E+02  0.00000000000E+00 0.  1.
</event>
<event>
 8    1  0.3710605E-009  0.1815244E+03  0.7561462E-02  0.1166336E+00
         -2   -1    0    0    0  501 -0.00000000000E+00  0.00000000000E+00  0.21308566105E+03  0.21308566105E+03  0.00000000000E+00 0.  1.
          2   -1    0    0  501    0  0.00000000000E+00 -0.00000000000E+00 -0.24347006321E+03  0.24347006321E+03  0.00000000000E+00 0. -1.
         25    2    1    2    0    0 -0.16403866742E+03 -0.22484673270E+01 -0.13023989036E+03  0.24397469787E+03  0.12508990424E+03 0.  0.
         23    2    1    2    0    0  0.16403866742E+03  0.22484673270E+01  0.99855488193E+02  0.21258102639E+03  0.91136349732E+02 0.  0.
          5    1    3    3  502    0 -0.97234924667E+02 -0.55111715201E+02 -0.37470457959E+02  0.11795524298E+03  0.41800000000E+01 0.  1.
         -5    1    3    3    0  502 -0.66803742758E+02  0.52863247874E+02 -0.92769432397E+02  0.12601945489E+03  0.41800000000E+01 0.  1.
        -11    1    4    4    0    0  0.63978546112E+02 -0.11200082754E+02  0.90212082222E+02  0.11116166603E+03  0.00000000000E+00 0.  1.
         11    1    4    4    0    0  0.10006012131E+03  0.13448550081E+02  0.96434059711E+01  0.10141936036E+03  0.00000000000E+00 0. -1.
</event>
<event>
 8    1  0.3710605E-009  0.1432249E+03  0.7561462E-02  0.1209054E+00
          3   -1    0    0  501    0  0.00000000000E+00  0.00000000000E+00  0.40463325667E+03  0.40463325667E+03  0.00000000000E+00 0. -1.
         -3   -1    0    0    0  501 -0.00000000000E+00 -0.00000000000E+00 -0.67478252805E+02  0.67478252805E+02  0.00000000000E+00 0.  1.
         25    2    1    2    0    0  0.11896871926E+03  0.99998553857E+01  0.13152153336E+03  0.21725315936E+03  0.12508984069E+03 0.  0.
         23    2    1    2    0    0 -0.11896871926E+03 -0.99998553857E+01  0.20563347050E+03  0.25485835011E+03  0.91728409788E+02 0.  0.
          5    1    3    3  502    0 -0.18223869886E+02  0.21999764999E+02  0.33338718497E+01  0.29063485598E+02  0.41800000000E+01 0. -1.
         -5    1    3    3    0  502  0.13719258914E+03 -0.11999909613E+02  0.12818766152E+03  0.18818967376E+03  0.41800000000E+01 0. -1.
        -11    1    4    4    0    0 -0.39709596968E+02 -0.80377554425E+01  0.15633106364E+03  0.16149569363E+03  0.00000000000E+00 0. -1.
         11    1    4    4    0    0 -0.79259122291E+02 -0.19620999432E+01  0.49302406864E+02  0.93362656481E+02  0.00000000000E+00 0.  1.
</event>
<event>
 8    1  0.3710605E-009  0.1915515E+03  0.7561462E-02  0.1157069E+00
          2   -1    0    0  501    0  0.00000000000E+00  0.00000000000E+00  0.41966135439E+03  0.41966135439E+03  0.00000000000E+00 0.  1.
         -2   -1    0    0    0  501 -0.00000000000E+00 -0.00000000000E+00 -0.10685434000E+03  0.10685434000E+03  0.00000000000E+00 0. -1.
         25    2    1    2    0    0  0.14868134237E+03 -0.85712471152E+02  0.90317244978E+02  0.23077133170E+03  0.12508170735E+03 0.  0.
         23    2    1    2    0    0 -0.14868134237E+03  0.85712471152E+02  0.22248976942E+03  0.29574436269E+03  0.92251077423E+02 0.  0.
          5    1    3    3  502    0  0.16758631059E+03 -0.90304257862E+02  0.90603173363E+02  0.21087066630E+03  0.41800000000E+01 0. -1.
         -5    1    3    3    0  502 -0.18904968213E+02  0.45917867104E+01 -0.28592838420E+00  0.19900665400E+02  0.41800000000E+01 0. -1.
        -11    1    4    4    0    0 -0.11797942095E+03  0.76973621650E+02  0.22306005540E+03  0.26381787375E+03  0.00000000000E+00 0.  1.
         11    1    4    4    0    0 -0.30701921421E+02  0.87388495018E+01 -0.57028598040E+00  0.31926488934E+02  0.00000000000E+00 0. -1.
</event>
<event>
 8    1  0.3710605E-009  0.9893826E+02  0.7561462E-02  0.1282545E+00
          2   -1    0    0  501    0  0.00000000000E+00  0.00000000000E+00  0.12533102725E+03  0.12533102725E+03  0.00000000000E+00 0. -1.
         -2   -1    0    0    0  501 -0.00000000000E+00 -0.00000000000E+00 -0.13614246630E+03  0.13614246630E+03  0.00000000000E+00 0.  1.
         25    2    1    2    0    0 -0.40638283576E+00 -0.59541187667E+02  0.35155469578E+02  0.14293283655E+03  0.12509424665E+03 0.  0.
         23    2    1    2    0    0  0.40638283576E+00  0.59541187667E+02 -0.45966908629E+02  0.11854065701E+03  0.91616660599E+02 0.  0.
          5    1    3    3  502    0 -0.21024334747E+02  0.12498266650E+02 -0.33181401978E+02  0.41433164953E+02  0.41800000000E+01 0.  1.
         -5    1    3    3    0  502  0.20617951911E+02 -0.72039454317E+02  0.68336871556E+02  0.10149967159E+03  0.41800000000E+01 0.  1.
        -11    1    4    4    0    0 -0.36504606000E+02  0.13308195670E+02  0.65867555200E+01  0.39409131930E+02  0.00000000000E+00 0.  1.
         11    1    4    4    0    0  0.36910988836E+02  0.46232991997E+02 -0.52553664148E+02  0.79131525078E+02  0.00000000000E+00 0. -1.
</event>
<event>
 8    1  0.3710605E-009  0.2566497E+03  0.7561462E-02  0.1109173E+00
         -2   -1    0    0    0  501 -0.00000000000E+00  0.00000000000E+00  0.17570930062E+03  0.17570930062E+03  0.00000000000E+00 0.  1.
          2   -1    0    0  501    0  0.00000000000E+00 -0.00000000000E+00 -0.42876089361E+03  0.42876089361E+03  0.00000000000E+00 0. -1.
         25    2    1    2    0    0 -0.14749946630E+03  0.20503690901E+03 -0.13851941733E+03  0.31405594116E+03  0.12508908259E+03 0.  0.
         23    2    1    2    0    0  0.14749946630E+03 -0.20503690901E+03 -0.11453217565E+03  0.29041425307E+03  0.86177679891E+02 0.  0.
          5    1    3    3  502    0 -0.11584323491E+03  0.17039171408E+03 -0.47382519956E+02  0.21146055636E+03  0.41800000000E+01 0.  1.
         -5    1    3    3    0  502 -0.31656231392E+02  0.34645194938E+02 -0.91136897379E+02  0.10259538480E+03  0.41800000000E+01 0.  1.
        -11    1    4    4    0    0  0.13362745406E+03 -0.13974916198E+03 -0.55122836790E+02  0.20105882693E+03  0.00000000000E+00 0.  1.
         11    1    4    4    0    0  0.13872012240E+02 -0.65287747034E+02 -0.59409338860E+02  0.89355426137E+02  0.00000000000E+00 0. -1.
</event>
<event>
 8    1  0.3710605E-009  0.7499493E+02  0.7561462E-02  0.1343887E+00
          1   -1    0    0  501    0  0.00000000000E+00  0.00000000000E+00  0.25262284196E+03  0.25262284196E+03  0.00000000000E+00 0. -1.
         -1   -1    0    0    0  501 -0.00000000000E+00 -0.00000000000E+00 -0.78601320899E+02  0.78601320899E+02  0.00000000000E+00 0.  1.
         25    2    1    2    0    0 -0.27271881049E+02 -0.55177171146E+02  0.14589350585E+02  0.14017255762E+03  0.12508885261E+03 0.  0.
         23    2    1    2    0    0  0.27271881049E+02  0.55177171146E+02  0.15943217048E+03  0.19105160524E+03  0.85403882646E+02 0.  0.
          5    1    3    3  502    0  0.87746918310E+01 -0.15263798820E+01  0.60171467185E+02  0.60970508572E+02  0.41800000000E+01 0.  1.
         -5    1    3    3    0  502 -0.36046572880E+02 -0.53650791264E+02 -0.45582116600E+02  0.79202049048E+02  0.41800000000E+01 0.  1.
        -11    1    4    4    0    0  0.36877750627E+02  0.27266304565E+02  0.22706991679E+02  0.51176433317E+02  0.00000000000E+00 0.  1.
         11    1    4    4    0    0 -0.96058695782E+01  0.27910866581E+02  0.13672517880E+03  0.13987517193E+03  0.00000000000E+00 0. -1.
</event>
<event>
 8    1  0.3710605E-009  0.1413972E+03  0.7561462E-02  0.1211461E+00
          1   -1    0    0  501    0  0.00000000000E+00  0.00000000000E+00  0.85858068775E+03  0.85858068775E+03  0.00000000000E+00 0. -1.
         -1   -1    0    0    0  501 -0.00000000000E+00 -0.00000000000E+00 -0.64387744746E+02  0.64387744746E+02  0.00000000000E+00 0.  1.
         25    2    1    2    0    0  0.60212776043E+01  0.12584762645E+03  0.73330870282E+03  0.75449538104E+03  0.12509094896E+03 0.  0.
         23    2    1    2    0    0 -0.60212776043E+01 -0.12584762645E+03  0.60884240187E+02  0.16847305146E+03  0.93821093039E+02 0.  0.
          5    1    3    3  502    0  0.47172441378E+01  0.63879292443E+01  0.40502736487E+03  0.40512676624E+03  0.41800000000E+01 0. -1.
         -5    1    3    3    0  502  0.13040334665E+01  0.11945969720E+03  0.32828133795E+03  0.34936861479E+03  0.41800000000E+01 0. -1.
        -11    1    4    4    0    0 -0.47180902281E+02 -0.56190276125E+02  0.13174426650E+02  0.74544954146E+02  0.00000000000E+00 0.  1.
         11    1    4    4    0    0  0.41159624677E+02 -0.69657350320E+02  0.47709813537E+02  0.93928097313E+02  0.00000000000E+00 0. -1.
</event>
<event>
 8    1  0.3710605E-009  0.8494662E+02  0.7561462E-02  0.1315572E+00
         -1   -1    0    0    0  501 -0.00000000000E+00  0.00000000000E+00  0.59732659198E+02  0.59732659198E+02  0.00000000000E+00 0.  1.
          1   -1    0    0  501    0  0.00000000000E+00 -0.00000000000E+00 -0.40681756491E+03  0.40681756491E+03  0.00000000000E+00 0. -1.
         25    2    1    2    0    0  0.78034285929E+02  0.25172250116E+02 -0.73460584571E+02  0.16663154516E+03  0.12508645970E+03 0.  0.
         23    2    1    2    0    0 -0.78034285929E+02 -0.25172250116E+02 -0.27362432114E+03  0.29991867894E+03  0.91421840416E+02 0.  0.
          5    1    3    3  502    0  0.35879973703E+02 -0.40439049715E+01 -0.10165268518E+03  0.10795585433E+03  0.41800000000E+01 0. -1.
         -5    1    3    3    0  502  0.42154312227E+02  0.29216155088E+02  0.28192100610E+02  0.58675690829E+02  0.41800000000E+01 0. -1.
        -11    1    4    4    0    0 -0.36328886488E+02 -0.96854251245E+01 -0.20320481390E+02  0.42737775061E+02  0.00000000000E+00 0.  1.
         11    1    4    4    0    0 -0.41705399442E+02 -0.15486824992E+02 -0.25330383975E+03  0.25718090388E+03  0.00000000000E+00 0. -1.
</event>
<event>
 8    1  0.3710605E-009  0.8703753E+02  0.7561462E-02  0.1310189E+00
          2   -1    0    0  501    0  0.00000000000E+00  0.00000000000E+00  0.22596181415E+03  0.22596181415E+03  0.00000000000E+00 0. -1.
         -2   -1    0    0    0  501 -0.00000000000E+00 -0.00000000000E+00 -0.66835719224E+02  0.66835719224E+02  0.00000000000E+00 0.  1.
         25    2    1    2    0    0  0.44101574484E+01 -0.16311418410E+02  0.15431848361E+03  0.19936932935E+03  0.12509365788E+03 0.  0.
         23    2    1    2    0    0 -0.44101574484E+01  0.16311418410E+02  0.48076113174E+01  0.93428204024E+02  0.91761671309E+02 0.  0.
          5    1    3    3  502    0  0.63940401892E+01 -0.68216055892E+02  0.58031901778E+02  0.89885972517E+02  0.41800000000E+01 0. -1.
         -5    1    3    3    0  502 -0.19838827408E+01  0.51904637481E+02  0.96286581829E+02  0.10948335683E+03  0.41800000000E+01 0. -1.
        -11    1    4    4    0    0 -0.25598988890E+02  0.19115535756E+02  0.40646644084E+02  0.51699725480E+02  0.00000000000E+00 0. -1.
         11    1    4    4    0    0  0.21188831441E+02 -0.28041173464E+01 -0.35839032767E+02  0.41728478544E+02  0.00000000000E+00 0.  1.
</event>
<event>
 8    1  0.3710605E-009  0.1167146E+03  0.7561462E-02  0.1248618E+00
          2   -1    0    0  501    0  0.00000000000E+00  0.00000000000E+00  0.41169727838E+03  0.41169727838E+03  0.00000000000E+00 0.  1.
         -2   -1    0    0    0  501 -0.00000000000E+00 -0.00000000000E+00 -0.37222886954E+02  0.37222886954E+02  0.00000000000E+00 0. -1.
         25    2    1    2    0    0  0.50438076409E+02  0.39324828336E+02  0.22931981325E+03  0.26892949644E+03  0.12508019679E+03 0.  0.
         23    2    1    2    0    0 -0.50438076409E+02 -0.39324828336E+02  0.14515457817E+03  0.17999066889E+03  0.85066724683E+02 0.  0.
          5    1    3    3  502    0 -0.34120374680E+02  0.43016877159E+02  0.10343406146E+03  0.11717819405E+03  0.41800000000E+01 0. -1.
         -5    1    3    3    0  502  0.84558451088E+02 -0.36920488236E+01  0.12588575179E+03  0.15175130239E+03  0.41800000000E+01 0. -1.
        -11    1    4    4    0    0 -0.64527523433E+00 -0.43638201432E+02  0.11149868169E+03  0.11973581345E+03  0.00000000000E+00 0.  1.
         11    1    4    4    0    0 -0.49792801174E+02  0.43133730958E+01  0.33655896485E+02  0.60254855443E+02  0.00000000000E+00 0. -1.
</event>
<event>
 8    1  0.3710605E-009  0.7370708E+02  0.7561462E-02  0.1347922E+00
         -1   -1    0    0    0  501 -0.00000000000E+00  0.00000000000E+00  0.44983872991E+02  0.44983872991E+02  0.00000000000E+00 0.  1.
          1   -1    0    0  501    0  0.00000000000E+00 -0.00000000000E+00 -0.45093753556E+03  0.45093753556E+03  0.00000000000E+00 0. -1.
         25    2    1    2    0    0  0.21082207282E+02 -0.87918836432E+00 -0.37148471164E+03  0.39254752508E+03  0.12508971193E+03 0.  0.
         23    2    1    2    0    0 -0.21082207282E+02  0.87918836432E+00 -0.34468950930E+02  0.10337388347E+03  0.95146301919E+02 0.  0.
          5    1    3    3  502    0 -0.15906667766E+02 -0.64631775686E+00  0.25580405223E+01  0.16657003853E+02  0.41800000000E+01 0. -1.
         -5    1    3    3    0  502  0.36988875048E+02 -0.23287060746E+00 -0.37404275216E+03  0.37589052123E+03  0.41800000000E+01 0. -1.
        -11    1    4    4    0    0 -0.30997512285E+01 -0.44660619119E+02 -0.30667551585E+02  0.54264888076E+02  0.00000000000E+00 0. -1.
         11    1    4    4    0    0 -0.17982456054E+02  0.45539807483E+02 -0.38013993451E+01  0.49108995391E+02  0.00000000000E+00 0.  1.
</event>
<event>
 8    1  0.3710605E-009  0.1171085E+03  0.7561462E-02  0.1247945E+00
          1   -1    0    0  501    0  0.00000000000E+00  0.00000000000E+00  0.12954265213E+04  0.12954265213E+04  0.00000000000E+00 0. -1.
         -1   -1    0    0    0  501 -0.00000000000E+00 -0.00000000000E+00 -0.19707957510E+02  0.19707957510E+02  0.00000000000E+00 0.  1.
         25    2    1    2    0    0 -0.32732788423E+02 -0.95626412538E+02  0.92890209201E+03  0.94272073655E+03  0.12508974531E+03 0.  0.
         23    2    1    2    0    0  0.32732788423E+02  0.95626412538E+02  0.34681647179E+03  0.37241374226E+03  0.90523389840E+02 0.  0.
          5    1    3    3  502    0 -0.29410023772E+02 -0.80498516522E+02  0.92072460531E+03  0.92471413522E+03  0.41800000000E+01 0. -1.
         -5    1    3    3    0  502 -0.33227646508E+01 -0.15127896016E+02  0.81774866978E+01  0.18006601331E+02  0.41800000000E+01 0. -1.
        -11    1    4    4    0    0 -0.25114046419E+02  0.58422890109E+02  0.12606375546E+03  0.14119497107E+03  0.00000000000E+00 0.  1.
         11    1    4    4    0    0  0.57846834841E+02  0.37203522429E+02  0.22075271633E+03  0.23121877119E+03  0.00000000000E+00 0. -1.
</event>
<event>
 8    1  0.3710605E-009  0.8797502E+02  0.7561462E-02  0.1307831E+00
         -2   -1    0    0    0  501 -0.00000000000E+00  0.00000000000E+00  0.41534705402E+02  0.41534705402E+02  0.00000000000E+00 0.  1.
          2   -1    0    0  501    0  0.00000000000E+00 -0.00000000000E+00 -0.37928374912E+03  0.37928374912E+03  0.00000000000E+00 0. -1.
         25    2    1    2    0    0  0.53588550103E+02  0.32872176727E+02 -0.21647553539E+03  0.25779767701E+03  0.12508266126E+03 0.  0.
         23    2    1    2    0    0 -0.53588550103E+02 -0.32872176727E+02 -0.12127350833E+03  0.16302077751E+03  0.88973014850E+02 0.  0.
          5    1    3    3  502    0  0.45329754204E+02  0.48691893492E+01 -0.70688481718E+01  0.46324255370E+02  0.41800000000E+01 0. -1.
         -5    1    3    3    0  502  0.82587958987E+01  0.28002987378E+02 -0.20940668721E+03  0.21147342164E+03  0.41800000000E+01 0. -1.
        -11    1    4    4    0    0 -0.51616971535E+02  0.14221420193E+02 -0.32838166535E+02  0.62808484491E+02  0.00000000000E+00 0.  1.
         11    1    4    4    0    0 -0.19715785678E+01 -0.47093596920E+02 -0.88435341796E+02  0.10021229302E+03  0.00000000000E+00 0. -1.
</event>
<event>
 8    1  0.3710605E-009  0.9260023E+02  0.7561462E-02  0.1296674E+00
         -1   -1    0    0    0  501 -0.00000000000E+00  0.00000000000E+00  0.21947766431E+03  0.21947766431E+03  0.00000000000E+00 0.  1.
          1   -1    0    0  501    0  0.00000000000E+00 -0.00000000000E+00 -0.71267704997E+02  0.71267704997E+02  0.00000000000E+00 0. -1.
         25    2    1    2    0    0 -0.27424593075E+02 -0.28458423832E+02  0.27702904542E+02  0.13407526419E+03  0.12508691120E+03 0.  0.
         23    2    1    2    0    0  0.27424593075E+02  0.28458423832E+02  0.12050705477E+03  0.15667010513E+03  0.91986854481E+02 0.  0.
          5    1    3    3  502    0 -0.21384105663E+02 -0.73965379819E+02 -0.54424837572E+01  0.77299743960E+02  0.41800000000E+01 0.  1.
         -5    1    3    3    0  502 -0.60404874125E+01  0.45506955987E+02  0.33145388299E+02  0.56775520226E+02  0.41800000000E+01 0.  1.
        -11    1    4    4    0    0  0.19517425745E+02 -0.10555803073E+02  0.11423683292E+03  0.11637185605E+03  0.00000000000E+00 0.  1.
         11    1    4    4    0    0  0.79071673303E+01  0.39014226905E+02  0.62702218566E+01  0.40298249072E+02  0.00000000000E+00 0. -1.
</event>
<event>
 8    1  0.3710605E-009  0.1384048E+03  0.7561462E-02  0.1215492E+00
          2   -1    0    0  501    0  0.00000000000E+00  0.00000000000E+00  0.63808929406E+03  0.63808929406E+03  0.00000000000E+00 0. -1.
         -2   -1    0    0    0  501 -0.00000000000E+00 -0.00000000000E+00 -0.37689956121E+02  0.37689956121E+02  0.00000000000E+00 0.  1.
         25    2    1    2    0    0 -0.52582259417E+02  0.99063314222E+02  0.31535474781E+03  0.35731529246E+03  0.12508863671E+03 0.  0.
         23    2    1    2    0    0  0.52582259417E+02 -0.99063314222E+02  0.28504459013E+03  0.31846395772E+03  0.87123129948E+02 0.  0.
          5    1    3    3  502    0 -0.41524881429E+02  0.36387175279E+01  0.19465216723E+02  0.46194405560E+02  0.41800000000E+01 0.  1.
         -5    1    3    3    0  502 -0.11057377988E+02  0.95424596694E+02  0.29588953109E+03  0.31112088691E+03  0.41800000000E+01 0.  1.
        -11    1    4    4    0    0 -0.22252237548E+02 -0.25125334667E+02  0.43011550839E+02  0.54556741321E+02  0.00000000000E+00 0.  1.
         11    1    4    4    0    0  0.74834496966E+02 -0.73937979555E+02  0.24203303929E+03  0.26390721640E+03  0.00000000000E+00 0. -1.
</event>
<event>
 8    1  0.3710605E-009  0.1012072E+03  0.7561462E-02  0.1277778E+00
          1   -1    0    0  501    0  0.00000000000E+00  0.00000000000E+00  0.10532273497E+03  0.10532273497E+03  0.00000000000E+00 0. -1.
         -1   -1    0    0    0  501 -0.00000000000E+00 -0.00000000000E+00 -0.25973892393E+03  0.25973892393E+03  0.00000000000E+00 0.  1.
         25    2    1    2    0    0  0.71105137232E+02 -0.67664758815E+01 -0.19451004889E+03  0.24203845940E+03  0.12508689369E+03 0.  0.
         23    2    1    2    0    0 -0.71105137232E+02  0.67664758815E+01  0.40093859929E+02  0.12302319951E+03  0.91790327791E+02 0.  0.
          5    1    3    3  502    0  0.84505782428E+02 -0.13246104774E+02 -0.55233313970E+02  0.10190622124E+03  0.41800000000E+01 0.  1.
         -5    1    3    3    0  502 -0.13400645197E+02  0.64796288927E+01 -0.13927673492E+03  0.14013223816E+03  0.41800000000E+01 0.  1.
        -11    1    4    4    0    0 -0.27747536469E+02  0.38590461752E+02  0.49273763399E+02  0.68462057213E+02  0.00000000000E+00 0. -1.
         11    1    4    4    0    0 -0.43357600762E+02 -0.31823985870E+02 -0.91799034699E+01  0.54561142292E+02  0.00000000000E+00 0.  1.
</event>
<event>
 8    1  0.3710605E-009  0.1437739E+03  0.7561462E-02  0.1208339E+00
          1   -1    0    0  501    0  0.00000000000E+00  0.00000000000E+00  0.57296043496E+02  0.57296043496E+02  0.00000000000E+00 0. -1.
         -1   -1    0    0    0  501 -0.00000000000E+00 -0.00000000000E+00 -0.51692910422E+03  0.51692910422E+03  0.00000000000E+00 0.  1.
         25    2    1    2    0    0  0.75669867089E+02  0.10265035213E+03 -0.17984426036E+03  0.25348448086E+03  0.12508956981E+03 0.  0.
         23    2    1    2    0    0 -0.75669867089E+02 -0.10265035213E+03 -0.27978880036E+03  0.32074066685E+03  0.91267622903E+02 0.  0.
          5    1    3    3  502    0  0.13998097529E+01  0.18138589681E+02  0.17946967899E+02  0.25894670489E+02  0.41800000000E+01 0. -1.
         -5    1    3    3    0  502  0.74270057336E+02  0.84511762444E+02 -0.19779122826E+03  0.22758981037E+03  0.41800000000E+01 0. -1.
        -11    1    4    4    0    0 -0.36060794563E+02  0.95534073610E+01 -0.56063851334E+02  0.67340952793E+02  0.00000000000E+00 0. -1.
         11    1    4    4    0    0 -0.39609072525E+02 -0.11220375949E+03 -0.22372494903E+03  0.25339971406E+03  0.00000000000E+00 0.  1.
</event>
<event>
 8    1  0.3710605E-009  0.1352453E+03  0.7561462E-02  0.1219874E+00
         -1   -1    0    0    0  501 -0.00000000000E+00  0.00000000000E+00  0.20694489421E+03  0.20694489421E+03  0.00000000000E+00 0.  1.
          1   -1    0    0  501    0  0.00000000000E+00 -0.00000000000E+00 -0.14328377373E+03  0.14328377373E+03  0.00000000000E+00 0. -1.
         25    2    1    2    0    0  0.99967424914E+02  0.17846992999E+00 -0.57157949865E+02  0.17002625287E+03  0.12509347519E+03 0.  0.
         23    2    1    2    0    0 -0.99967424914E+02 -0.17846992999E+00  0.12081907034E+03  0.18020241506E+03  0.88781443674E+02 0.  0.
          5    1    3    3  502    0 -0.27723053291E+02  0.95093078319E+01  0.35790365476E+00  0.29607348990E+02  0.41800000000E+01 0. -1.
         -5    1    3    3    0  502  0.12769047820E+03 -0.93308379019E+01 -0.57515853520E+02  0.14041890388E+03  0.41800000000E+01 0. -1.
        -11    1    4    4    0    0 -0.45052554890E+02  0.25929122156E+02  0.87668584539E+01  0.52715366688E+02  0.00000000000E+00 0. -1.
         11    1    4    4    0    0 -0.54914870024E+02 -0.26107592086E+02  0.11205221189E+03  0.12748704838E+03  0.00000000000E+00 0.  1.
</event>
<event>
 8    1  0.3710605E-009  0.5022439E+02  0.7561462E-02  0.1444135E+00
         -2   -1    0    0    0  501 -0.00000000000E+00  0.00000000000E+00  0.24052591669E+03  0.24052591669E+03  0.00000000000E+00 0.  1.
          2   -1    0    0  501    0  0.00000000000E+00 -0.00000000000E+00 -0.58947827645E+02  0.58947827645E+02  0.00000000000E+00 0. -1.
         25    2    1    2    0    0 -0.42785425587E+02 -0.13466289320E+02  0.68382240795E+02  0.14945003773E+03  0.12508896566E+03 0.  0.
         23    2    1    2    0    0  0.42785425587E+02  0.13466289320E+02  0.11319584825E+03  0.15002370661E+03  0.87646328459E+02 0.  0.
          5    1    3    3  502    0 -0.35247060015E+02  0.25487254415E+00 -0.31986883564E+02  0.47781307222E+02  0.41800000000E+01 0.  1.
         -5    1    3    3    0  502 -0.75383655722E+01 -0.13721161864E+02  0.10036912436E+03  0.10166873051E+03  0.41800000000E+01 0.  1.
        -11    1    4    4    0    0  0.15020040676E+02 -0.44987441559E+01 -0.12498766056E+02  0.20051420743E+02  0.00000000000E+00 0. -1.
         11    1    4    4    0    0  0.27765384911E+02  0.17965033476E+02  0.12569461431E+03  0.12997228586E+03  0.00000000000E+00 0.  1.
</event>
<event>
 8    1  0.3710605E-009  0.5220173E+02  0.7561462E-02  0.1433815E+00
          1   -1    0    0  501    0  0.00000000000E+00  0.00000000000E+00  0.55453680425E+03  0.55453680425E+03  0.00000000000E+00 0. -1.
         -1   -1    0    0    0  501 -0.00000000000E+00 -0.00000000000E+00 -0.22216704842E+02  0.22216704842E+02  0.00000000000E+00 0.  1.
         25    2    1    2    0    0  0.13002389808E+02  0.20627297252E+02  0.29200057664E+03  0.31860040410E+03  0.12508930092E+03 0.  0.
         23    2    1    2    0    0 -0.13002389808E+02 -0.20627297252E+02  0.24031952277E+03  0.25815310499E+03  0.91076918368E+02 0.  0.
          5    1    3    3  502    0 -0.42055076278E+01  0.25074188588E+02  0.29820564139E+03  0.29931668545E+03  0.41800000000E+01 0.  1.
         -5    1    3    3    0  502  0.17207897436E+02 -0.44468913355E+01 -0.62050647517E+01  0.19283718658E+02  0.41800000000E+01 0.  1.
        -11    1    4    4    0    0 -0.32550758058E+02 -0.24130839822E+02  0.23374835608E+03  0.23723436355E+03  0.00000000000E+00 0. -1.
         11    1    4    4    0    0  0.19548368250E+02  0.35035425697E+01  0.65711666948E+01  0.20918741442E+02  0.00000000000E+00 0.  1.
</event>
<event>
 8    1  0.3710605E-009  0.1363061E+03  0.7561462E-02  0.1218388E+00
         -1   -1    0    0    0  501 -0.00000000000E+00  0.00000000000E+00  0.89149443122E+02  0.89149443122E+02  0.00000000000E+00 0.  1.
          1   -1    0    0  501    0  0.00000000000E+00 -0.00000000000E+00 -0.38699916389E+03  0.38699916389E+03  0.00000000000E+00 0. -1.
         25    2    1    2    0    0  0.89388319832E+02 -0.10012747317E+02 -0.31081210894E+03  0.34690308167E+03  0.12508818559E+03 0.  0.
         23    2    1    2    0    0 -0.89388319832E+02  0.10012747317E+02  0.12962388167E+02  0.12924552535E+03  0.91901335600E+02 0.  0.
          5    1    3    3  502    0  0.96918751567E+02  0.34109166331E+02 -0.16595938349E+03  0.19523490723E+03  0.41800000000E+01 0. -1.
         -5    1    3    3    0  502 -0.75304317358E+01 -0.44121913648E+02 -0.14485272545E+03  0.15166817443E+03  0.41800000000E+01 0. -1.
        -11    1    4    4    0    0 -0.10791387922E+02  0.39449048002E+02 -0.10255917325E+02  0.42164739792E+02  0.00000000000E+00 0. -1.
         11    1    4    4    0    0 -0.78596931909E+02 -0.29436300685E+02  0.23218305492E+02  0.87080785559E+02  0.00000000000E+00 0.  1.
</event>
<event>
 8    1  0.3710605E-009  0.1264274E+03  0.7561462E-02  0.1232855E+00
         -2   -1    0    0    0  501 -0.00000000000E+00  0.00000000000E+00  0.46398038229E+02  0.46398038229E+02  0.00000000000E+00 0.  1.
          2   -1    0    0  501    0  0.00000000000E+00 -0.00000000000E+00 -0.51333804522E+03  0.51333804522E+03  0.00000000000E+00 0. -1.
         25    2    1    2    0    0  0.72218582063E+02 -0.64060890421E+02 -0.16104491061E+03  0.22561492095E+03  0.12508920036E+03 0.  0.
         23    2    1    2    0    0 -0.72218582063E+02  0.64060890421E+02 -0.30589509639E+03  0.33412116250E+03  0.93519088759E+02 0.  0.
          5    1    3    3  502    0  0.53337239873E+02  0.24737681643E+02 -0.10018758946E+03  0.11624043846E+03  0.41800000000E+01 0. -1.
         -5    1    3    3    0  502  0.18881342189E+02 -0.88798572064E+02 -0.60857321147E+02  0.10937448249E+03  0.41800000000E+01 0. -1.
        -11    1    4    4    0    0 -0.46286152181E+02  0.61501910601E+02 -0.29664635441E+03  0.30647014940E+03  0.00000000000E+00 0. -1.
         11    1    4    4    0    0 -0.25932429881E+02  0.25589798196E+01 -0.92487419782E+01  0.27651013100E+02  0.00000000000E+00 0.  1.
</event>
<event>
 8    1  0.3710605E-009  0.1405363E+03  0.7561462E-02  0.1212609E+00
         -2   -1    0    0    0  501 -0.00000000000E+00  0.00000000000E+00  0.75995954835E+02  0.75995954835E+02  0.00000000000E+00 0.  1.
          2   -1    0    0  501    0  0.00000000000E+00 -0.00000000000E+00 -0.37770487764E+03  0.37770487764E+03  0.00000000000E+00 0. -1.
         25    2    1    2    0    0  0.51496956268E+02  0.10855609954E+03 -0.94933919966E+02  0.19772734886E+03  0.12508913651E+03 0.  0.
         23    2    1    2    0    0 -0.51496956268E+02 -0.10855609954E+03 -0.20677500284E+03  0.25597348362E+03  0.91269706169E+02 0.  0.
          5    1    3    3  502    0 -0.10266672090E+02  0.12551601859E+02 -0.80924481235E+02  0.82638921388E+02  0.41800000000E+01 0.  1.
         -5    1    3    3    0  502  0.61763628358E+02  0.96004497684E+02 -0.14009438731E+02  0.11508842747E+03  0.41800000000E+01 0.  1.
        -11    1    4    4    0    0 -0.32409620054E+02  0.68456494891E+01 -0.57122553398E+02  0.66032056576E+02  0.00000000000E+00 0. -1.
         11    1    4    4    0    0 -0.19087336214E+02 -0.11540174903E+03 -0.14965244944E+03  0.18994142704E+03  0.00000000000E+00 0.  1.
</event>
<event>
 8    1  0.3710605E-009  0.1375649E+03  0.7561462E-02  0.1216644E+00
          4   -1    0    0  501    0  0.00000000000E+00  0.00000000000E+00  0.70216181840E+03  0.70216181840E+03  0.00000000000E+00 0.  1.
         -4   -1    0    0    0  501 -0.00000000000E+00 -0.00000000000E+00 -0.36909203315E+02  0.36909203315E+02  0.00000000000E+00 0. -1.
         25    2    1    2    0    0 -0.71622553824E+01  0.10008068127E+03  0.50008192301E+03  0.52516347258E+03  0.12508917840E+03 0.  0.
         23    2    1    2    0    0  0.71622553824E+01 -0.10008068127E+03  0.16517069209E+03  0.21390754914E+03  0.91693191616E+02 0.  0.
          5    1    3    3  502    0  0.32337158848E+02  0.93623934753E+02  0.20909594450E+03  0.23140812304E+03  0.41800000000E+01 0.  1.
         -5    1    3    3    0  502 -0.39499414230E+02  0.64567465155E+01  0.29098597850E+03  0.29375534954E+03  0.41800000000E+01 0.  1.
        -11    1    4    4    0    0  0.10226225410E+02 -0.11755965439E+03  0.13977016637E+03  0.18292224423E+03  0.00000000000E+00 0.  1.
         11    1    4    4    0    0 -0.30639700274E+01  0.17478973122E+02  0.25400525711E+02  0.30985304906E+02  0.00000000000E+00 0. -1.
</event>
<event>
 8    1  0.3710605E-009  0.7039618E+02  0.7561462E-02  0.1358751E+00
          2   -1    0    0  501    0  0.00000000000E+00  0.00000000000E+00  0.70786627265E+02  0.70786627265E+02  0.00000000000E+00 0. -1.
         -2   -1    0    0    0  501 -0.00000000000E+00 -0.00000000000E+00 -0.30733923244E+03  0.30733923244E+03  0.00000000000E+00 0.  1.
         25    2    1    2    0    0  0.49276998116E+02 -0.11319600000E+02 -0.17011469042E+02  0.13599166383E+03  0.12509191287E+03 0.  0.
         23    2    1    2    0    0 -0.49276998116E+02  0.11319600000E+02 -0.21954113613E+03  0.24213419587E+03  0.88737266524E+02 0.  0.
          5    1    3    3  502    0 -0.15294048036E+02 -0.10630233515E+01  0.43806609139E+02  0.46599670902E+02  0.41800000000E+01 0. -1.
         -5    1    3    3    0  502  0.64571046152E+02 -0.10256576648E+02 -0.60818078180E+02  0.89391992926E+02  0.41800000000E+01 0. -1.
        -11    1    4    4    0    0 -0.99574094623E+01  0.16958642463E+02 -0.65891393091E+00  0.19676883009E+02  0.00000000000E+00 0. -1.
         11    1    4    4    0    0 -0.39319588654E+02 -0.56390424630E+01 -0.21888222220E+03  0.22245731287E+03  0.00000000000E+00 0.  1.
</event>
<event>
 8    1  0.3710605E-009  0.8963033E+02  0.7561462E-02  0.1303749E+00
          1   -1    0    0  501    0  0.00000000000E+00  0.00000000000E+00  0.87715803029E+02  0.87715803029E+02  0.00000000000E+00 0. -1.
         -1   -1    0    0    0  501 -0.00000000000E+00 -0.00000000000E+00 -0.13889849171E+03  0.13889849171E+03  0.00000000000E+00 0.  1.
         25    2    1    2    0    0  0.16154443621E+02 -0.18242955588E+02 -0.29268632145E+02  0.13075260327E+03  0.12508324811E+03 0.  0.
         23    2    1    2    0    0 -0.16154443621E+02  0.18242955588E+02 -0.21914056539E+02  0.95861691471E+02  0.90085884246E+02 0.  0.
          5    1    3    3  502    0 -0.47451682034E+01  0.48847870740E+02  0.98323264793E+01  0.50227264917E+02  0.41800000000E+01 0.  1.
         -5    1    3    3    0  502  0.20899611825E+02 -0.67090826327E+02 -0.39100958625E+02  0.80525338354E+02  0.41800000000E+01 0.  1.
        -11    1    4    4    0    0 -0.36273894921E+02  0.85028997168E+01  0.24330590277E+02  0.44498004220E+02  0.00000000000E+00 0. -1.
         11    1    4    4    0    0  0.20119451299E+02  0.97400558708E+01 -0.46244646816E+02  0.51363687251E+02  0.00000000000E+00 0.  1.
</event>
<event>
 8    1  0.3710605E-009  0.1151421E+03  0.7561462E-02  0.1251333E+00
         -2   -1    0    0    0  501 -0.00000000000E+00  0.00000000000E+00  0.14876015591E+03  0.14876015591E+03  0.00000000000E+00 0. -1.
          2   -1    0    0  501    0  0.00000000000E+00 -0.00000000000E+00 -0.11240919536E+03  0.11240919536E+03  0.00000000000E+00 0.  1.
         25    2    1    2    0    0  0.58055921935E+02 -0.15480316986E+02 -0.18793519721E+02  0.14003857553E+03  0.12508987156E+03 0.  0.
         23    2    1    2    0    0 -0.58055921935E+02  0.15480316986E+02  0.55144480265E+02  0.12113077575E+03  0.89563501735E+02 0.  0.
          5    1    3    3  502    0  0.69129461245E+02  0.37193193960E+02  0.93348454276E+01  0.79163298491E+02  0.41800000000E+01 0.  1.
         -5    1    3    3    0  502 -0.11073539309E+02 -0.52673510946E+02 -0.28128365148E+02  0.60875277036E+02  0.41800000000E+01 0.  1.
        -11    1    4    4    0    0 -0.77152296645E+02  0.14919692687E+02  0.62756383271E+02  0.10056558929E+03  0.00000000000E+00 0. -1.
         11    1    4    4    0    0  0.19096374710E+02  0.56062429978E+00 -0.76119030058E+01  0.20565186458E+02  0.00000000000E+00 0.  1.
</event>
<event>
 8    1  0.3710605E-009  0.1025067E+03  0.7561462E-02  0.1275111E+00
          1   -1    0    0  501    0  0.00000000000E+00  0.00000000000E+00  0.11589952106E+04  0.11589952106E+04  0.00000000000E+00 0. -1.
         -1   -1    0    0    0  501 -0.00000000000E+00 -0.00000000000E+00 -0.10565926989E+02  0.10565926989E+02  0.00000000000E+00 0.  1.
         25    2    1    2    0    0  0.25126660352E+02 -0.23439963087E+02  0.68849169345E+03  0.70060625731E+03  0.12509010713E+03 0.  0.
         23    2    1    2    0    0 -0.25126660352E+02  0.23439963087E+02  0.45993759012E+03  0.46895488024E+03  0.84825184733E+02 0.  0.
          5    1    3    3  502    0  0.30820355132E+01 -0.65805548903E+02  0.22058469103E+03  0.23024975033E+03  0.41800000000E+01 0. -1.
         -5    1    3    3    0  502  0.22044624838E+02  0.42365585816E+02  0.46790700242E+03  0.47035650698E+03  0.41800000000E+01 0. -1.
        -11    1    4    4    0    0  0.27415573898E+02 -0.95395695075E+01  0.12558976638E+03  0.12890076221E+03  0.00000000000E+00 0.  1.
         11    1    4    4    0    0 -0.52542234250E+02  0.32979532594E+02  0.33434782374E+03  0.34005411803E+03  0.00000000000E+00 0. -1.
</event>
<event>
 8    1  0.3710605E-009  0.1612226E+03  0.7561462E-02  0.1187323E+00
          2   -1    0    0  501    0  0.00000000000E+00  0.00000000000E+00  0.25214899319E+03  0.25214899319E+03  0.00000000000E+00 0. -1.
         -2   -1    0    0    0  501 -0.00000000000E+00 -0.00000000000E+00 -0.13238866644E+03  0.13238866644E+03  0.00000000000E+00 0.  1.
         25    2    1    2    0    0 -0.13354355133E+03  0.54184875605E+02  0.96342511372E+02  0.21377588792E+03  0.12509344472E+03 0.  0.
         23    2    1    2    0    0  0.13354355133E+03 -0.54184875605E+02  0.23417815380E+02  0.17076177171E+03  0.88551158970E+02 0.  0.
          5    1    3    3  502    0  0.52381043187E+01  0.93320153926E+01  0.63086890808E+02  0.64124507327E+02  0.41800000000E+01 0.  1.
         -5    1    3    3    0  502 -0.13878165565E+03  0.44852860213E+02  0.33255620564E+02  0.14965138059E+03  0.41800000000E+01 0.  1.
        -11    1    4    4    0    0  0.79757595155E+02  0.11026149622E+02 -0.72456349801E+01  0.80841506583E+02  0.00000000000E+00 0. -1.
         11    1    4    4    0    0  0.53785956172E+02 -0.65211025227E+02  0.30663450360E+02  0.89920265127E+02  0.00000000000E+00 0.  1.
</event>
<event>
 8    1  0.3710605E-009  0.1049373E+03  0.7561462E-02  0.1270243E+00
         -2   -1    0    0    0  501 -0.00000000000E+00  0.00000000000E+00  0.20260096054E+03  0.20260096054E+03  0.00000000000E+00 0.  1.
          2   -1    0    0  501    0  0.00000000000E+00 -0.00000000000E+00 -0.91842928516E+02  0.91842928516E+02  0.00000000000E+00 0. -1.
         25    2    1    2    0    0 -0.44799810975E+02  0.69902736550E+02  0.54034166223E+02  0.15956544229E+03  0.12509206056E+03 0.  0.
         23    2    1    2    0    0  0.44799810975E+02 -0.69902736550E+02  0.56723865800E+02  0.13487844676E+03  0.89895399266E+02 0.  0.
          5    1    3    3  502    0 -0.95700075788E+01  0.44654088021E+02 -0.36822701834E+02  0.58812893080E+02  0.41800000000E+01 0. -1.
         -5    1    3    3    0  502 -0.35229803396E+02  0.25248648529E+02  0.90856868057E+02  0.10075254921E+03  0.41800000000E+01 0. -1.
        -11    1    4    4    0    0  0.61935869730E+02 -0.16083694029E+02  0.18261742125E+02  0.66544935181E+02  0.00000000000E+00 0.  1.
         11    1    4    4    0    0 -0.17136058755E+02 -0.53819042520E+02  0.38462123675E+02  0.68333511582E+02  0.00000000000E+00 0. -1.
</event>
<event>
 8    1  0.3710605E-009  0.1141127E+03  0.7561462E-02  0.1253138E+00
         -2   -1    0    0    0  501 -0.00000000000E+00  0.00000000000E+00  0.25674345940E+03  0.25674345940E+03  0.00000000000E+00 0.  1.
          2   -1    0    0  501    0  0.00000000000E+00 -0.00000000000E+00 -0.33240585179E+03  0.33240585179E+03  0.00000000000E+00 0. -1.
         25    2    1    2    0    0 -0.76712212810E+02  0.19041324140E+02  0.22164498918E+03  0.26649829743E+03  0.12508999035E+03 0.  0.
         23    2    1    2    0    0  0.76712212810E+02 -0.19041324140E+02 -0.29730738157E+03  0.32265101376E+03  0.97286494052E+02 0.  0.
          5    1    3    3  502    0 -0.77896280969E+02 -0.10684505400E+02  0.22293326141E+03  0.23642906058E+03  0.41800000000E+01 0.  1.
         -5    1    3    3    0  502  0.11840681595E+01  0.29725829540E+02 -0.12882722327E+01  0.30069236847E+02  0.41800000000E+01 0.  1.
        -11    1    4    4    0    0  0.93871304648E+02 -0.76051285791E-01 -0.26685098008E+03  0.28288031602E+03  0.00000000000E+00 0. -1.
         11    1    4    4    0    0 -0.17159091838E+02 -0.18965272854E+02 -0.30456401484E+02  0.39770697737E+02  0.00000000000E+00 0.  1.
</event>
<event>
 8    1  0.3710605E-009  0.1722069E+03  0.7561462E-02  0.1175566E+00
         -1   -1    0    0    0  501 -0.00000000000E+00  0.00000000000E+00  0.28595805033E+02  0.28595805033E+02  0.00000000000E+00 0.  1.
          1   -1    0    0  501    0  0.00000000000E+00 -0.00000000000E+00 -0.12559551862E+04  0.12559551862E+04  0.00000000000E+00 0. -1.
         25    2    1    2    0    0  0.90457617233E+02 -0.10008991778E+03 -0.89713578262E+03  0.91580592976E+03  0.12508923359E+03 0.  0.
         23    2    1    2    0    0 -0.90457617233E+02  0.10008991778E+03 -0.33022359850E+03  0.36874506143E+03  0.93406226601E+02 0.  0.
          5    1    3    3  502    0  0.77244834175E+02 -0.12803672507E+03 -0.79723754873E+03  0.81115063267E+03  0.41800000000E+01 0.  1.
         -5    1    3    3    0  502  0.13212783057E+02  0.27946807292E+02 -0.99898233895E+02  0.10465529709E+03  0.41800000000E+01 0.  1.
        -11    1    4    4    0    0 -0.34618785179E+02  0.10204269597E+03 -0.20406587524E+03  0.23076839802E+03  0.00000000000E+00 0.  1.
         11    1    4    4    0    0 -0.55838832053E+02 -0.19527781902E+01 -0.12615772326E+03  0.13797666341E+03  0.00000000000E+00 0. -1.
</event>
<event>
 8    1  0.3710605E-009  0.5989423E+02  0.7561462E-02  0.1398276E+00
         -2   -1    0    0    0  501 -0.00000000000E+00  0.00000000000E+00  0.85734413979E+02  0.85734413979E+02  0.00000000000E+00 0.  1.
          2   -1    0    0  501    0  0.00000000000E+00 -0.00000000000E+00 -0.19387051781E+03  0.19387051781E+03  0.00000000000E+00 0. -1.
         25    2    1    2    0    0  0.10471394923E+02 -0.35898152777E+02 -0.12262540061E+03  0.17911879892E+03  0.12509287656E+03 0.  0.
         23    2    1    2    0    0 -0.10471394923E+02  0.35898152777E+02  0.14489296784E+02  0.10048613287E+03  0.92136831363E+02 0.  0.
          5    1    3    3  502    0  0.86753671816E+01 -0.27570065799E+02 -0.14861174114E+03  0.15145392873E+03  0.41800000000E+01 0.  1.
         -5    1    3    3    0  502  0.17960277413E+01 -0.83280869778E+01  0.25986340526E+02  0.27664870184E+02  0.41800000000E+01 0.  1.
        -11    1    4    4    0    0  0.20343408078E+02 -0.12384994879E+02 -0.22122771851E+02  0.32506297616E+02  0.00000000000E+00 0. -1.
         11    1    4    4    0    0 -0.30814803000E+02  0.48283147656E+02  0.36612068634E+02  0.67979835255E+02  0.00000000000E+00 0.  1.
</event>
<event>
 8    1  0.3710605E-009  0.9223586E+02  0.7561462E-02  0.1297526E+00
         -1   -1    0    0    0  501 -0.00000000000E+00  0.00000000000E+00  0.10490997211E+03  0.10490997211E+03  0.00000000000E+00 0.  1.
          1   -1    0    0  501    0  0.00000000000E+00 -0.00000000000E+00 -0.18123453743E+03  0.18123453743E+03  0.00000000000E+00 0. -1.
         25    2    1    2    0    0 -0.56257461110E+01  0.75016716437E+02 -0.17699480123E+01  0.14597847949E+03  0.12508967581E+03 0.  0.
         23    2    1    2    0    0  0.56257461110E+01 -0.75016716437E+02 -0.74554617308E+02  0.14016603004E+03  0.91809412648E+02 0.  0.
          5    1    3    3  502    0  0.18530357317E+02  0.43711855405E+02  0.57451264123E+02  0.74647308019E+02  0.41800000000E+01 0.  1.
         -5    1    3    3    0  502 -0.24156103428E+02  0.31304861033E+02 -0.59221212135E+02  0.71331171474E+02  0.41800000000E+01 0.  1.
        -11    1    4    4    0    0 -0.26642692163E+02 -0.20179266658E+02 -0.68540917624E+02  0.76255447263E+02  0.00000000000E+00 0.  1.
         11    1    4    4    0    0  0.32268438274E+02 -0.54837449779E+02 -0.60136996843E+01  0.63910582777E+02  0.00000000000E+00 0. -1.
</event>
<event>
 8    1  0.3710605E-009  0.1103113E+03  0.7561462E-02  0.1259994E+00
          1   -1    0    0  501    0  0.00000000000E+00  0.00000000000E+00  0.10802660911E+04  0.10802660911E+04  0.00000000000E+00 0. -1.
         -1   -1    0    0    0  501 -0.00000000000E+00 -0.00000000000E+00 -0.15070999547E+02  0.15070999547E+02  0.00000000000E+00 0.  1.
         25    2    1    2    0    0 -0.64783224917E+02 -0.61370548115E+01  0.67169998644E+03  0.68634018303E+03  0.12508974936E+03 0.  0.
         23    2    1    2    0    0  0.64783224917E+02  0.61370548115E+01  0.39349510512E+03  0.40899690762E+03  0.90584452391E+02 0.  0.
          5    1    3    3  502    0 -0.41813411541E+01 -0.46233151051E+02  0.46244433120E+03  0.46478728438E+03  0.41800000000E+01 0. -1.
         -5    1    3    3    0  502 -0.60601883763E+02  0.40096096240E+02  0.20925565524E+03  0.22155289865E+03  0.41800000000E+01 0. -1.
        -11    1    4    4    0    0 -0.15598620926E+02 -0.10938584111E+02  0.24899094310E+02  0.31351786147E+02  0.00000000000E+00 0.  1.
         11    1    4    4    0    0  0.80381845843E+02  0.17075638922E+02  0.36859601081E+03  0.37764512147E+03  0.00000000000E+00 0. -1.
</event>
<event>
 8    1  0.3710605E-009  0.2336865E+03  0.7561462E-02  0.1124072E+00
          2   -1    0    0  501    0  0.00000000000E+00  0.00000000000E+00  0.11845417973E+03  0.11845417973E+03  0.00000000000E+00 0.  1.
         -2   -1    0    0    0  501 -0.00000000000E+00 -0.00000000000E+00 -0.53962107211E+03  0.53962107211E+03  0.00000000000E+00 0. -1.
         25    2    1    2    0    0 -0.56477858957E+02 -0.20955942805E+03 -0.30744516635E+03  0.39657584770E+03  0.12507985540E+03 0.  0.
         23    2    1    2    0    0  0.56477858957E+02  0.20955942805E+03 -0.11372172602E+03  0.26149940415E+03  0.91347714609E+02 0.  0.
          5    1    3    3  502    0 -0.72409124127E+02 -0.47166454968E+02 -0.92137497616E+02  0.12639045295E+03  0.41800000000E+01 0. -1.
         -5    1    3    3    0  502  0.15931265170E+02 -0.16239297308E+03 -0.21530766874E+03  0.27018539474E+03  0.41800000000E+01 0. -1.
        -11    1    4    4    0    0  0.37109265065E+01  0.36926768180E+02  0.14747089370E+02  0.39935370646E+02  0.00000000000E+00 0. -1.
         11    1    4    4    0    0  0.52766932450E+02  0.17263265987E+03 -0.12846881539E+03  0.22156403350E+03  0.00000000000E+00 0.  1.
</event>
<event>
 8    1  0.3710605E-009  0.2356378E+03  0.7561462E-02  0.1122733E+00
         -2   -1    0    0    0  501 -0.00000000000E+00  0.00000000000E+00  0.40941711838E+02  0.40941711838E+02  0.00000000000E+00 0.  1.
          2   -1    0    0  501    0  0.00000000000E+00 -0.00000000000E+00 -0.16283048119E+04  0.16283048119E+04  0.00000000000E+00 0. -1.
         25    2    1    2    0    0 -0.49841773795E+02  0.21557303239E+03 -0.10653500730E+04  0.10952492006E+04  0.12507637095E+03 0.  0.
         23    2    1    2    0    0  0.49841773795E+02 -0.21557303239E+03 -0.52201302705E+03  0.57399732317E+03  0.89551057419E+02 0.  0.
          5    1    3    3  502    0 -0.52784866257E+02  0.60066453340E+02 -0.58177874679E+03  0.58726331704E+03  0.41800000000E+01 0.  1.
         -5    1    3    3    0  502  0.29430924620E+01  0.15550657905E+03 -0.48357132623E+03  0.50798588354E+03  0.41800000000E+01 0.  1.
        -11    1    4    4    0    0  0.64505129791E+02 -0.99260564267E+02 -0.30822101934E+03  0.33017233099E+03  0.00000000000E+00 0.  1.
         11    1    4    4    0    0 -0.14663355996E+02 -0.11631246813E+03 -0.21379200771E+03  0.24382499218E+03  0.00000000000E+00 0. -1.
</event>
<event>
 8    1  0.3710605E-009  0.1862776E+03  0.7561462E-02  0.1161862E+00
         -1   -1    0    0    0  501 -0.00000000000E+00  0.00000000000E+00  0.63021692745E+02  0.63021692745E+02  0.00000000000E+00 0.  1.
          1   -1    0    0  501    0  0.00000000000E+00 -0.00000000000E+00 -0.65815137925E+03  0.65815137925E+03  0.00000000000E+00 0. -1.
         25    2    1    2    0    0  0.56904509909E+02 -0.15671943340E+03 -0.38752443262E+03  0.44002467139E+03  0.12508965384E+03 0.  0.
         23    2    1    2    0    0 -0.56904509909E+02  0.15671943340E+03 -0.20760525388E+03  0.28114840061E+03  0.90251746075E+02 0.  0.
          5    1    3    3  502    0  0.56125219258E+02 -0.34359475274E+02 -0.23695978289E+03  0.24596346250E+03  0.41800000000E+01 0.  1.
         -5    1    3    3    0  502  0.77929065156E+00 -0.12235995813E+03 -0.15056464973E+03  0.19406120889E+03  0.41800000000E+01 0.  1.
        -11    1    4    4    0    0 -0.43133885672E+02  0.21377647126E+02 -0.86588764988E+02  0.99071439436E+02  0.00000000000E+00 0.  1.
         11    1    4    4    0    0 -0.13770624237E+02  0.13534178628E+03 -0.12101648890E+03  0.18207696117E+03  0.00000000000E+00 0. -1.
</event>
<event>
 8    1  0.3710605E-009  0.1045343E+03  0.7561462E-02  0.1271040E+00
         -2   -1    0    0    0  501 -0.00000000000E+00  0.00000000000E+00  0.14124391146E+03  0.14124391146E+03  0.00000000000E+00 0.  1.
          2   -1    0    0  501    0  0.00000000000E+00 -0.00000000000E+00 -0.91520011966E+02  0.91520011966E+02  0.00000000000E+00 0. -1.
         25    2    1    2    0    0 -0.30821098262E+02  0.43904815171E+01  0.12388324401E+02  0.12949955059E+03  0.12508975416E+03 0.  0.
         23    2    1    2    0    0  0.30821098262E+02 -0.43904815171E+01  0.37335575089E+02  0.10326437283E+03  0.91106361485E+02 0.  0.
          5    1    3    3  502    0 -0.77186515237E+02 -0.10363212388E+02 -0.37094960894E+01  0.78079363898E+02  0.41800000000E+01 0.  1.
         -5    1    3    3    0  502  0.46365416975E+02  0.14753693905E+02  0.16097820491E+02  0.51420186694E+02  0.41800000000E+01 0.  1.
        -11    1    4    4    0    0  0.34726613837E+02 -0.36217551993E+02 -0.46987088827E+01  0.50395700671E+02  0.00000000000E+00 0. -1.
         11    1    4    4    0    0 -0.39055155747E+01  0.31827070476E+02  0.42034283972E+02  0.52868672161E+02  0.00000000000E+00 0.  1.
</event>
<event>
 8    1  0.3710605E-009  0.9044134E+02  0.7561462E-02  0.1301786E+00
         -1   -1    0    0    0  501 -0.00000000000E+00  0.00000000000E+00  0.14937579021E+02  0.14937579021E+02  0.00000000000E+00 0.  1.
          1   -1    0    0  501    0  0.00000000000E+00 -0.00000000000E+00 -0.12063284079E+04  0.12063284079E+04  0.00000000000E+00 0. -1.
         25    2    1    2    0    0 -0.23014590473E+02  0.18883423016E+02 -0.99079614171E+03  0.99910545454E+03  0.12509380407E+03 0.  0.
         23    2    1    2    0    0  0.23014590473E+02 -0.18883423016E+02 -0.20059468720E+03  0.22216053242E+03  0.90723858998E+02 0.  0.
          5    1    3    3  502    0  0.32080549668E+02  0.13209741064E+02 -0.89210197627E+02  0.95810180496E+02  0.41800000000E+01 0. -1.
         -5    1    3    3    0  502 -0.55095140142E+02  0.56736819521E+01 -0.90158594409E+03  0.90329527404E+03  0.41800000000E+01 0. -1.
        -11    1    4    4    0    0  0.13089184671E+02  0.34080725440E+02 -0.11819952562E+03  0.12370913652E+03  0.00000000000E+00 0.  1.
         11    1    4    4    0    0  0.99254058024E+01 -0.52964148457E+02 -0.82395161576E+02  0.98451395892E+02  0.00000000000E+00 0. -1.
</event>
<event>
 8    1  0.3710605E-009  0.9142835E+02  0.7561462E-02  0.1299429E+00
          1   -1    0    0  501    0  0.00000000000E+00  0.00000000000E+00  0.35821817708E+03  0.35821817708E+03  0.00000000000E+00 0. -1.
         -1   -1    0    0    0  501 -0.00000000000E+00 -0.00000000000E+00 -0.39868365109E+02  0.39868365109E+02  0.00000000000E+00 0.  1.
         25    2    1    2    0    0 -0.18696227829E+02  0.46279217193E+02  0.18465734933E+03  0.22855498581E+03  0.12509088696E+03 0.  0.
         23    2    1    2    0    0  0.18696227829E+02 -0.46279217193E+02  0.13369246264E+03  0.16953155637E+03  0.91520266393E+02 0.  0.
          5    1    3    3  502    0  0.98668710795E+00 -0.41672692235E+02  0.39114475211E+02  0.57314931742E+02  0.41800000000E+01 0.  1.
         -5    1    3    3    0  502 -0.19682914937E+02  0.87951909427E+02  0.14554287412E+03  0.17124005407E+03  0.41800000000E+01 0.  1.
        -11    1    4    4    0    0  0.16045226799E+02 -0.28024504965E+02  0.14455939635E+03  0.14812238607E+03  0.00000000000E+00 0. -1.
         11    1    4    4    0    0  0.26510010302E+01 -0.18254712228E+02 -0.10866933708E+02  0.21409170307E+02  0.00000000000E+00 0.  1.
</event>
<event>
 8    1  0.3710605E-009  0.1354051E+03  0.7561462E-02  0.1219649E+00
         -2   -1    0    0    0  501 -0.00000000000E+00  0.00000000000E+00  0.42235524614E+03  0.42235524614E+03  0.00000000000E+00 0.  1.
          2   -1    0    0  501    0  0.00000000000E+00 -0.00000000000E+00 -0.54208081639E+02  0.54208081639E+02  0.00000000000E+00 0. -1.
         25    2    1    2    0    0 -0.98984749710E+02 -0.16435649421E+02  0.23875873607E+03  0.28761276939E+03  0.12508900760E+03 0.  0.
         23    2    1    2    0    0  0.98984749710E+02  0.16435649421E+02  0.12938842843E+03  0.18895055839E+03  0.94301839086E+02 0.  0.
          5    1    3    3  502    0 -0.86092477546E+01 -0.42790412625E+02  0.15650392201E+03  0.16253026969E+03  0.41800000000E+01 0.  1.
         -5    1    3    3    0  502 -0.90375501955E+02  0.26354763204E+02  0.82254814052E+02  0.12508249970E+03  0.41800000000E+01 0.  1.
        -11    1    4    4    0    0  0.83199757942E+02 -0.26231245105E+02  0.59632441288E+02  0.10567074333E+03  0.00000000000E+00 0.  1.
         11    1    4    4    0    0  0.15784991768E+02  0.42666894526E+02  0.69755987145E+02  0.83279815059E+02  0.00000000000E+00 0. -1.
</event>
<event>
 8    1  0.3710605E-009  0.1164128E+03  0.7561462E-02  0.1249135E+00
          1   -1    0    0  501    0  0.00000000000E+00  0.00000000000E+00  0.97282464617E+03  0.97282464617E+03  0.00000000000E+00 0. -1.
         -1   -1    0    0    0  501 -0.00000000000E+00 -0.00000000000E+00 -0.14814571852E+02  0.14814571852E+02  0.00000000000E+00 0.  1.
         25    2    1    2    0    0 -0.51314242609E+02  0.71032382360E+01  0.55105517254E+03  0.56744430767E+03  0.12509049377E+03 0.  0.
         23    2    1    2    0    0  0.51314242609E+02 -0.71032382360E+01  0.40695490178E+03  0.42019491036E+03  0.90927790697E+02 0.  0.
          5    1    3    3  502    0  0.36032651198E+02  0.23947106117E+02  0.23946291822E+03  0.24337579471E+03  0.41800000000E+01 0. -1.
         -5    1    3    3    0  502 -0.87346893808E+02 -0.16843867881E+02  0.31159225432E+03  0.32406851296E+03  0.41800000000E+01 0. -1.
        -11    1    4    4    0    0  0.54768314945E+02 -0.39625615595E+02  0.21203339937E+03  0.22254869171E+03  0.00000000000E+00 0.  1.
         11    1    4    4    0    0 -0.34540723352E+01  0.32522377360E+02  0.19492150241E+03  0.19764621865E+03  0.00000000000E+00 0. -1.
</event>
<event>
 8    1  0.3710605E-009  0.1492152E+03  0.7561462E-02  0.1201441E+00
         -2   -1    0    0    0  501 -0.00000000000E+00  0.00000000000E+00  0.46456764245E+02  0.46456764245E+02  0.00000000000E+00 0.  1.
          2   -1    0    0  501    0  0.00000000000E+00 -0.00000000000E+00 -0.60885370939E+03  0.60885370939E+03  0.00000000000E+00 0. -1.
         25    2    1    2    0    0  0.10455865498E+03 -0.47763892601E+02 -0.19095461949E+03  0.25558825246E+03  0.12509111208E+03 0.  0.
         23    2    1    2    0    0 -0.10455865498E+03  0.47763892601E+02 -0.37144232566E+03  0.39972222118E+03  0.92706801521E+02 0.  0.
          5    1    3    3  502    0  0.55417663478E+02  0.39393492224E+02 -0.94959026367E+02  0.11686596486E+03  0.41800000000E+01 0.  1.
         -5    1    3    3    0  502  0.49140991507E+02 -0.87157384825E+02 -0.95995593126E+02  0.13872228759E+03  0.41800000000E+01 0.  1.
        -11    1    4    4    0    0 -0.73497722669E+02  0.36742507104E+00 -0.11059454322E+03  0.13279007203E+03  0.00000000000E+00 0.  1.
         11    1    4    4    0    0 -0.31060932316E+02  0.47396467530E+02 -0.26084778244E+03  0.26693214915E+03  0.00000000000E+00 0. -1.
</event>
<event>
 8    1  0.3710605E-009  0.6250148E+02  0.7561462E-02  0.1387624E+00
         -4   -1    0    0    0  501 -0.00000000000E+00  0.00000000000E+00  0.38931463970E+03  0.38931463970E+03  0.00000000000E+00 0. -1.
          4   -1    0    0  501    0  0.00000000000E+00 -0.00000000000E+00 -0.32170775406E+02  0.32170775406E+02  0.00000000000E+00 0.  1.
         25    2    1    2    0    0  0.22954449890E+01 -0.16304326499E+02  0.15726740613E+03  0.20162280500E+03  0.12509044063E+03 0.  0.
         23    2    1    2    0    0 -0.22954449890E+01  0.16304326499E+02  0.19987645817E+03  0.21986261010E+03  0.90099215649E+02 0.  0.
          5    1    3    3  502    0  0.42367191100E+01 -0.33411666163E+02  0.17398462094E+03  0.17726367352E+03  0.41800000000E+01 0.  1.
         -5    1    3    3    0  502 -0.19412741210E+01  0.17107339663E+02 -0.16717214816E+02  0.24359131486E+02  0.41800000000E+01 0.  1.
        -11    1    4    4    0    0  0.34195787243E+02  0.13448471427E+02  0.34224195858E+02  0.50214627660E+02  0.00000000000E+00 0.  1.
         11    1    4    4    0    0 -0.36491232232E+02  0.28558550725E+01  0.16565226231E+03  0.16964798244E+03  0.00000000000E+00 0. -1.
</event>
<event>
 8    1  0.3710605E-009  0.2806002E+03  0.7561462E-02  0.1095362E+00
          1   -1    0    0  501    0  0.00000000000E+00  0.00000000000E+00  0.68367336763E+03  0.68367336763E+03  0.00000000000E+00 0. -1.
         -1   -1    0    0    0  501 -0.00000000000E+00 -0.00000000000E+00 -0.14899541492E+03  0.14899541492E+03  0.00000000000E+00 0.  1.
         25    2    1    2    0    0 -0.15239650704E+03 -0.21450618430E+03  0.45879181260E+03  0.54348426801E+03  0.12509046249E+03 0.  0.
         23    2    1    2    0    0  0.15239650704E+03  0.21450618430E+03  0.75886140110E+02  0.28918451453E+03  0.92905213642E+02 0.  0.
          5    1    3    3  502    0 -0.10265243972E+03 -0.41061471533E+02  0.16405664610E+03  0.19787779904E+03  0.41800000000E+01 0. -1.
         -5    1    3    3    0  502 -0.49744067321E+02 -0.17344471277E+03  0.29473516651E+03  0.34560646897E+03  0.41800000000E+01 0. -1.
        -11    1    4    4    0    0  0.82555810212E+02  0.16489831248E+03  0.84959240857E+02  0.20303937516E+03  0.00000000000E+00 0.  1.
         11    1    4    4    0    0  0.69840696829E+02  0.49607871826E+02 -0.90731007471E+01  0.86145139374E+02  0.00000000000E+00 0. -1.
</event>
<event>
 8    1  0.3710605E-009  0.1055860E+03  0.7561462E-02  0.1268969E+00
         -1   -1    0    0    0  501 -0.00000000000E+00  0.00000000000E+00  0.24143449392E+02  0.24143449392E+02  0.00000000000E+00 0. -1.
          1   -1    0    0  501    0  0.00000000000E+00 -0.00000000000E+00 -0.61272381070E+03  0.61272381070E+03  0.00000000000E+00 0.  1.
         25    2    1    2    0    0 -0.37676173117E+02  0.28765772436E+02 -0.26337418063E+03  0.29539846939E+03  0.12508930015E+03 0.  0.
         23    2    1    2    0    0  0.37676173117E+02 -0.28765772436E+02 -0.32520618068E+03  0.34146879071E+03  0.92708744932E+02 0.  0.
          5    1    3    3  502    0 -0.20688696751E+02  0.65219172424E+02 -0.23796969323E+03  0.24764613852E+03  0.41800000000E+01 0.  1.
         -5    1    3    3    0  502 -0.16987476366E+02 -0.36453399987E+02 -0.25404487395E+02  0.47752330872E+02  0.41800000000E+01 0.  1.
        -11    1    4    4    0    0 -0.29858304538E+02 -0.34156132708E+01 -0.68134712452E+02  0.74468273814E+02  0.00000000000E+00 0. -1.
         11    1    4    4    0    0  0.67534477655E+02 -0.25350159165E+02 -0.25707146823E+03  0.26700051689E+03  0.00000000000E+00 0.  1.
</event>
<event>
 8    1  0.3710605E-009  0.8611860E+02  0.7561462E-02  0.1312533E+00
         -1   -1    0    0    0  501 -0.00000000000E+00  0.00000000000E+00  0.10961313633E+03  0.10961313633E+03  0.00000000000E+00 0.  1.
          1   -1    0    0  501    0  0.00000000000E+00 -0.00000000000E+00 -0.15892672423E+03  0.15892672423E+03  0.00000000000E+00 0. -1.
         25    2    1    2    0    0  0.12803185984E+02  0.23405185203E+02 -0.99639316033E+02  0.16212831303E+03  0.12508346141E+03 0.  0.
         23    2    1    2    0    0 -0.12803185984E+02 -0.23405185203E+02  0.50325728132E+02  0.10641154753E+03  0.89883336997E+02 0.  0.
          5    1    3    3  502    0 -0.27526419633E+02  0.51583403087E+02 -0.96175769050E+02  0.11263126655E+03  0.41800000000E+01 0.  1.
         -5    1    3    3    0  502  0.40329605617E+02 -0.28178217884E+02 -0.34635469829E+01  0.49497046478E+02  0.41800000000E+01 0.  1.
        -11    1    4    4    0    0 -0.36077973987E+02 -0.10237005239E+02  0.65638144902E+02  0.75596180786E+02  0.00000000000E+00 0.  1.
         11    1    4    4    0    0  0.23274788003E+02 -0.13168179965E+02 -0.15312416770E+02  0.30815366743E+02  0.00000000000E+00 0. -1.
</event>
<event>
 8    1  0.3710605E-009  0.1275811E+03  0.7561462E-02  0.1231090E+00
         -2   -1    0    0    0  501 -0.00000000000E+00  0.00000000000E+00  0.62972098877E+02  0.62972098877E+02  0.00000000000E+00 0.  1.
          2   -1    0    0  501    0  0.00000000000E+00 -0.00000000000E+00 -0.44692404542E+03  0.44692404542E+03  0.00000000000E+00 0. -1.
         25    2    1    2    0    0 -0.60470447401E+02  0.62991590291E+02 -0.35421053728E+03  0.38566507358E+03  0.12509128188E+03 0.  0.
         23    2    1    2    0    0  0.60470447401E+02 -0.62991590291E+02 -0.29741409260E+02  0.12423107071E+03  0.83211730242E+02 0.  0.
          5    1    3    3  502    0 -0.71289934377E+01  0.80333836592E+02 -0.11894569804E+03  0.14377030059E+03  0.41800000000E+01 0.  1.
         -5    1    3    3    0  502 -0.53341453963E+02 -0.17342246301E+02 -0.23526483924E+03  0.24189477299E+03  0.41800000000E+01 0.  1.
        -11    1    4    4    0    0  0.10382259443E+02 -0.67103938246E+02 -0.46566684114E+01  0.68061842467E+02  0.00000000000E+00 0. -1.
         11    1    4    4    0    0  0.50088187957E+02  0.41123479547E+01 -0.25084740849E+02  0.56169228248E+02  0.00000000000E+00 0.  1.
</event>
<event>
 8    1  0.3710605E-009  0.1870907E+03  0.7561462E-02  0.1161112E+00
          2   -1    0    0  501    0  0.00000000000E+00  0.00000000000E+00  0.34815607528E+03  0.34815607528E+03  0.00000000000E+00 0. -1.
         -2   -1    0    0    0  501 -0.00000000000E+00 -0.00000000000E+00 -0.11844410151E+03  0.11844410151E+03  0.00000000000E+00 0.  1.
         25    2    1    2    0    0 -0.63011618713E+02 -0.15890445358E+03  0.10511706852E+03  0.23647229068E+03  0.12509379164E+03 0.  0.
         23    2    1    2    0    0  0.63011618713E+02  0.15890445358E+03  0.12459490525E+03  0.23012788611E+03  0.90630370687E+02 0.  0.
          5    1    3    3  502    0 -0.48239781312E+01 -0.11312381730E+03  0.70485198471E+01  0.11352278554E+03  0.41800000000E+01 0. -1.
         -5    1    3    3    0  502 -0.58187640582E+02 -0.45780636275E+02  0.98068548672E+02  0.12294950513E+03  0.41800000000E+01 0. -1.
        -11    1    4    4    0    0  0.46528351651E+02  0.27007678543E+02  0.65223578671E+02  0.84548314131E+02  0.00000000000E+00 0. -1.
         11    1    4    4    0    0  0.16483267062E+02  0.13189677503E+03  0.59371326576E+02  0.14557957197E+03  0.00000000000E+00 0.  1.
</event>
<event>
 8    1  0.3710605E-009  0.1736734E+03  0.7561462E-02  0.1174070E+00
          1   -1    0    0  501    0  0.00000000000E+00  0.00000000000E+00  0.21897591392E+03  0.21897591392E+03  0.00000000000E+00 0.  1.
         -1   -1    0    0    0  501 -0.00000000000E+00 -0.00000000000E+00 -0.15711091075E+03  0.15711091075E+03  0.00000000000E+00 0. -1.
         25    2    1    2    0    0  0.10183998376E+03 -0.11032254020E+03  0.41985666844E+02  0.19987985211E+03  0.12508682542E+03 0.  0.
         23    2    1    2    0    0 -0.10183998376E+03  0.11032254020E+03  0.19879336332E+02  0.17620697256E+03  0.90062556035E+02 0.  0.
          5    1    3    3  502    0 -0.69434605757E+01 -0.81566562894E+02  0.84956227440E+01  0.82407304488E+02  0.41800000000E+01 0. -1.
         -5    1    3    3    0  502  0.10878344433E+03 -0.28755977303E+02  0.33490044100E+02  0.11747254762E+03  0.41800000000E+01 0. -1.
        -11    1    4    4    0    0 -0.84162723955E+02  0.72707824312E+02  0.52867231196E+02  0.12314518242E+03  0.00000000000E+00 0.  1.
         11    1    4    4    0    0 -0.17677259802E+02  0.37614715885E+02 -0.32987894864E+02  0.53061790139E+02  0.00000000000E+00 0. -1.
</event>
<event>
 8    1  0.3710605E-009  0.1622481E+03  0.7561462E-02  0.1186182E+00
          2   -1    0    0  501    0  0.00000000000E+00  0.00000000000E+00  0.31570470652E+03  0.31570470652E+03  0.00000000000E+00 0.  1.
         -2   -1    0    0    0  501 -0.00000000000E+00 -0.00000000000E+00 -0.95668187317E+02  0.95668187317E+02  0.00000000000E+00 0. -1.
         25    2    1    2    0    0  0.89005535703E+02  0.96600382995E+02  0.10863958285E+03  0.21143248931E+03  0.12509004434E+03 0.  0.
         23    2    1    2    0    0 -0.89005535703E+02 -0.96600382995E+02  0.11139693635E+03  0.19994040453E+03  0.10155426409E+03 0.  0.
          5    1    3    3  502    0  0.67243120313E+01  0.90881408479E+02  0.86997512535E+02  0.12605826576E+03  0.41800000000E+01 0.  1.
         -5    1    3    3    0  502  0.82281223672E+02  0.57189745159E+01  0.21642070317E+02  0.85374223546E+02  0.41800000000E+01 0.  1.
        -11    1    4    4    0    0  0.11853303306E+02 -0.13011202680E+01  0.44172206137E+02  0.45753442583E+02  0.00000000000E+00 0.  1.
         11    1    4    4    0    0 -0.10085883901E+03 -0.95299262727E+02  0.67224730216E+02  0.15418696195E+03  0.00000000000E+00 0. -1.
</event>
<event>
 8    1  0.3710605E-009  0.2203998E+03  0.7561462E-02  0.1133585E+00
         -2   -1    0    0    0  501 -0.00000000000E+00  0.00000000000E+00  0.35401945716E+03  0.35401945716E+03  0.00000000000E+00 0.  1.
          2   -1    0    0  501    0  0.00000000000E+00 -0.00000000000E+00 -0.16112809804E+03  0.16112809804E+03  0.00000000000E+00 0. -1.
         25    2    1    2    0    0  0.16385109729E+03  0.10868047741E+03  0.14188563826E+02  0.23346857565E+03  0.12509049612E+03 0.  0.
         23    2    1    2    0    0 -0.16385109729E+03 -0.10868047741E+03  0.17870279529E+03  0.28167897955E+03  0.93539992629E+02 0.  0.
          5    1    3    3  502    0 -0.82043407013E+01  0.47306096576E+02 -0.97950558652E+01  0.49179197828E+02  0.41800000000E+01 0. -1.
         -5    1    3    3    0  502  0.17205543799E+03  0.61374380832E+02  0.23983619692E+02  0.18428937782E+03  0.41800000000E+01 0. -1.
        -11    1    4    4    0    0 -0.48599479303E+02 -0.75785196973E+02  0.11467905929E+03  0.14579640637E+03  0.00000000000E+00 0.  1.
         11    1    4    4    0    0 -0.11525161798E+03 -0.32895280435E+02  0.64023735999E+02  0.13588257318E+03  0.00000000000E+00 0. -1.
</event>
<event>
 8    1  0.3710605E-009  0.1032003E+03  0.7561462E-02  0.1273707E+00
          1   -1    0    0  501    0  0.00000000000E+00  0.00000000000E+00  0.13081573844E+03  0.13081573844E+03  0.00000000000E+00 0. -1.
         -1   -1    0    0    0  501 -0.00000000000E+00 -0.00000000000E+00 -0.94671015502E+02  0.94671015502E+02  0.00000000000E+00 0.  1.
         25    2    1    2    0    0 -0.52972154074E+01  0.99385297689E+00  0.48647440976E+02  0.13432490277E+03  0.12509019848E+03 0.  0.
         23    2    1    2    0    0  0.52972154074E+01 -0.99385297689E+00 -0.12502718035E+02  0.91161851172E+02  0.90139430417E+02 0.  0.
          5    1    3    3  502    0 -0.98443632821E+01  0.61740458823E+02  0.14313145335E+02  0.64273900406E+02  0.41800000000E+01 0.  1.
         -5    1    3    3    0  502  0.45471478747E+01 -0.60746605846E+02  0.34334295640E+02  0.70051002367E+02  0.41800000000E+01 0.  1.
        -11    1    4    4    0    0  0.13029893560E+02  0.39428414424E+02 -0.24600249098E+02  0.48265414594E+02  0.00000000000E+00 0. -1.
         11    1    4    4    0    0 -0.77326781526E+01 -0.40422267401E+02  0.12097531064E+02  0.42896436578E+02  0.00000000000E+00 0.  1.
</event>
<event>
 8    1  0.3710605E-009  0.1557669E+03  0.7561462E-02  0.1193560E+00
          2   -1    0    0  501    0  0.00000000000E+00  0.00000000000E+00  0.10995241669E+04  0.10995241669E+04  0.00000000000E+00 0. -1.
         -2   -1    0    0    0  501 -0.00000000000E+00 -0.00000000000E+00 -0.51790101804E+02  0.51790101804E+02  0.00000000000E+00 0.  1.
         25    2    1    2    0    0 -0.85153466186E+02 -0.68220367425E+02  0.97127544085E+03  0.98535639565E+03  0.12508442389E+03 0.  0.
         23    2    1    2    0    0  0.85153466186E+02  0.68220367425E+02  0.76458624204E+02  0.16595787302E+03  0.98949295432E+02 0.  0.
          5    1    3    3  502    0 -0.47724585739E+02 -0.10270258325E+03  0.60287258056E+03  0.61343155893E+03  0.41800000000E+01 0. -1.
         -5    1    3    3    0  502 -0.37428880447E+02  0.34482215827E+02  0.36840286029E+03  0.37192483672E+03  0.41800000000E+01 0. -1.
        -11    1    4    4    0    0 -0.14602965474E+02  0.41320119816E+02  0.19361122315E+02  0.47910875170E+02  0.00000000000E+00 0. -1.
         11    1    4    4    0    0  0.99756431660E+02  0.26900247609E+02  0.57097501889E+02  0.11804699785E+03  0.00000000000E+00 0.  1.
</event>
<event>
 8    1  0.3710605E-009  0.1106648E+03  0.7561462E-02  0.1259344E+00
         -2   -1    0    0    0  501 -0.00000000000E+00  0.00000000000E+00  0.12968878007E+03  0.12968878007E+03  0.00000000000E+00 0.  1.
          2   -1    0    0  501    0  0.00000000000E+00 -0.00000000000E+00 -0.11553275988E+03  0.11553275988E+03  0.00000000000E+00 0. -1.
         25    2    1    2    0    0  0.18479364091E+02  0.78340002377E+01  0.58762349736E+02  0.13964799286E+03  0.12508273144E+03 0.  0.
         23    2    1    2    0    0 -0.18479364091E+02 -0.78340002377E+01 -0.44606329544E+02  0.10557354709E+03  0.93558488412E+02 0.  0.
          5    1    3    3  502    0 -0.50528403838E+02  0.22909741531E+02  0.30547374492E+02  0.63471177236E+02  0.41800000000E+01 0. -1.
         -5    1    3    3    0  502  0.69007767929E+02 -0.15075741293E+02  0.28214975245E+02  0.76176815621E+02  0.41800000000E+01 0. -1.
        -11    1    4    4    0    0 -0.56534086483E+02 -0.56731362215E+01 -0.20145298262E+02  0.60283666537E+02  0.00000000000E+00 0.  1.
         11    1    4    4    0    0  0.38054722392E+02 -0.21608640162E+01 -0.24461031282E+02  0.45289880558E+02  0.00000000000E+00 0. -1.
</event>
<event>
 8    1  0.3710605E-009  0.8688084E+02  0.7561462E-02  0.1310586E+00
          1   -1    0    0  501    0  0.00000000000E+00  0.00000000000E+00  0.75535156988E+03  0.75535156988E+03  0.00000000000E+00 0. -1.
         -1   -1    0    0    0  501 -0.00000000000E+00 -0.00000000000E+00 -0.20460383976E+02  0.20460383976E+02  0.00000000000E+00 0.  1.
         25    2    1    2    0    0 -0.38955801283E+02 -0.48741920332E+02  0.36957568827E+03  0.39512414559E+03  0.12507426522E+03 0.  0.
         23    2    1    2    0    0  0.38955801283E+02  0.48741920332E+02  0.36531549763E+03  0.38068780826E+03  0.87031404083E+02 0.  0.
          5    1    3    3  502    0 -0.21773063003E+02 -0.48111397705E+02  0.43436541667E+02  0.68505316682E+02  0.41800000000E+01 0.  1.
         -5    1    3    3    0  502 -0.17182738280E+02 -0.63052262729E+00  0.32613914660E+03  0.32661882891E+03  0.41800000000E+01 0.  1.
        -11    1    4    4    0    0  0.62374409992E+02  0.49549525820E+02  0.23115025839E+03  0.24449164502E+03  0.00000000000E+00 0.  1.
         11    1    4    4    0    0 -0.23418608709E+02 -0.80760548793E+00  0.13416523924E+03  0.13619616324E+03  0.00000000000E+00 0. -1.
</event>
<event>
 8    1  0.3710605E-009  0.1248299E+03  0.7561462E-02  0.1235335E+00
          2   -1    0    0  501    0  0.00000000000E+00  0.00000000000E+00  0.57463232260E+02  0.57463232260E+02  0.00000000000E+00 0.  1.
         -2   -1    0    0    0  501 -0.00000000000E+00 -0.00000000000E+00 -0.31682641891E+03  0.31682641891E+03  0.00000000000E+00 0. -1.
         25    2    1    2    0    0  0.26555227743E+01  0.79676962676E+02 -0.15859051638E+03  0.21714925031E+03  0.12508946734E+03 0.  0.
         23    2    1    2    0    0 -0.26555227743E+01 -0.79676962676E+02 -0.10077267027E+03  0.15714040087E+03  0.90457196113E+02 0.  0.
          5    1    3    3  502    0  0.45582057641E+02  0.89771488732E+01 -0.11021463643E+02  0.47929721901E+02  0.41800000000E+01 0.  1.
         -5    1    3    3    0  502 -0.42926534867E+02  0.70699813803E+02 -0.14756905274E+03  0.16921952840E+03  0.41800000000E+01 0.  1.
        -11    1    4    4    0    0 -0.44825391577E+02 -0.56354682522E+02 -0.66386318686E+02  0.97940335312E+02  0.00000000000E+00 0. -1.
         11    1    4    4    0    0  0.42169868803E+02 -0.23322280155E+02 -0.34386351587E+02  0.59200065557E+02  0.00000000000E+00 0.  1.
</event>
<event>
 8    1  0.3710605E-009  0.1516480E+03  0.7561462E-02  0.1198462E+00
         -1   -1    0    0    0  501 -0.00000000000E+00  0.00000000000E+00  0.14711181795E+03  0.14711181795E+03  0.00000000000E+00 0.  1.
          1   -1    0    0  501    0  0.00000000000E+00 -0.00000000000E+00 -0.21495452925E+03  0.21495452925E+03  0.00000000000E+00 0. -1.
         25    2    1    2    0    0 -0.32431868314E+02 -0.13450227209E+03 -0.10581780096E+02  0.18682100692E+03  0.12508967694E+03 0.  0.
         23    2    1    2    0    0  0.32431868314E+02  0.13450227209E+03 -0.57260931196E+02  0.17524534028E+03  0.91046294651E+02 0.  0.
          5    1    3    3  502    0  0.22832725220E+02 -0.11857710166E+02 -0.41240640298E+02  0.48787308222E+02  0.41800000000E+01 0. -1.
         -5    1    3    3    0  502 -0.55264593535E+02 -0.12264456192E+03  0.30658860202E+02  0.13803369870E+03  0.41800000000E+01 0. -1.
        -11    1    4    4    0    0  0.36959010224E+02  0.81959718532E+02  0.92290384082E+01  0.90379970395E+02  0.00000000000E+00 0.  1.
         11    1    4    4    0    0 -0.45271419094E+01  0.52542553554E+02 -0.66489969604E+02  0.84865369886E+02  0.00000000000E+00 0. -1.
</event>
<event>
 8    1  0.3710605E-009  0.9425719E+02  0.7561462E-02  0.1292858E+00
          4   -1    0    0  501    0  0.00000000000E+00  0.00000000000E+00  0.15367455256E+03  0.15367455256E+03  0.00000000000E+00 0. -1.
         -4   -1    0    0    0  501 -0.00000000000E+00 -0.00000000000E+00 -0.11188519416E+03  0.11188519416E+03  0.00000000000E+00 0.  1.
         25    2    1    2    0    0  0.14785522318E+02  0.88029537843E+01 -0.48406723164E+02  0.13522805109E+03  0.12508921332E+03 0.  0.
         23    2    1    2    0    0 -0.14785522318E+02 -0.88029537843E+01  0.90196081560E+02  0.13033169563E+03  0.92492778589E+02 0.  0.
          5    1    3    3  502    0 -0.40701937976E+02  0.38654416248E+02 -0.10504033201E+01  0.56297312526E+02  0.41800000000E+01 0. -1.
         -5    1    3    3    0  502  0.55487460294E+02 -0.29851462464E+02 -0.47356319843E+02  0.78930738564E+02  0.41800000000E+01 0. -1.
        -11    1    4    4    0    0 -0.27651939906E+02  0.22234259782E+02  0.89990076004E+02  0.96732651509E+02  0.00000000000E+00 0. -1.
         11    1    4    4    0    0  0.12866417588E+02 -0.31037213566E+02  0.20600555604E+00  0.33599044120E+02  0.00000000000E+00 0.  1.
</event>
<event>
 8    1  0.3710605E-009  0.1864882E+03  0.7561462E-02  0.1161667E+00
          2   -1    0    0  501    0  0.00000000000E+00  0.00000000000E+00  0.11476362726E+04  0.11476362726E+04  0.00000000000E+00 0.  1.
         -2   -1    0    0    0  501 -0.00000000000E+00 -0.00000000000E+00 -0.38131136603E+02  0.38131136603E+02  0.00000000000E+00 0. -1.
         25    2    1    2    0    0 -0.85908251540E+02  0.15548624843E+03  0.53022130443E+03  0.57300821260E+03  0.12509028301E+03 0.  0.
         23    2    1    2    0    0  0.85908251540E+02 -0.15548624843E+03  0.57928383159E+03  0.61275919662E+03  0.91366702771E+02 0.  0.
          5    1    3    3  502    0 -0.87607663478E+02  0.12582486516E+03  0.51864701846E+03  0.54085044287E+03  0.41800000000E+01 0.  1.
         -5    1    3    3    0  502  0.16994119381E+01  0.29661383268E+02  0.11574285967E+02  0.32157769729E+02  0.41800000000E+01 0.  1.
        -11    1    4    4    0    0  0.25863537258E+02 -0.11329851252E+03  0.44282001564E+03  0.45781551060E+03  0.00000000000E+00 0.  1.
         11    1    4    4    0    0  0.60044714282E+02 -0.42187735913E+02  0.13646381595E+03  0.15494368602E+03  0.00000000000E+00 0. -1.
</event>
<event>
 8    1  0.3710605E-009  0.1377490E+03  0.7561462E-02  0.1216390E+00
          1   -1    0    0  501    0  0.00000000000E+00  0.00000000000E+00  0.16463771621E+04  0.16463771621E+04  0.00000000000E+00 0. -1.
         -1   -1    0    0    0  501 -0.00000000000E+00 -0.00000000000E+00 -0.12809288454E+02  0.12809288454E+02  0.00000000000E+00 0.  1.
         25    2    1    2    0    0  0.83996489825E+02  0.28573077993E+02  0.10882029305E+04  0.10989562617E+04  0.12508963221E+03 0.  0.
         23    2    1    2    0    0 -0.83996489825E+02 -0.28573077993E+02  0.54536494318E+03  0.56023018890E+03  0.92537085575E+02 0.  0.
          5    1    3    3  502    0 -0.18875490262E+02  0.39410437003E+02  0.48023407144E+03  0.48223614802E+03  0.41800000000E+01 0. -1.
         -5    1    3    3    0  502  0.10287198009E+03 -0.10837359010E+02  0.60796885906E+03  0.61672011368E+03  0.41800000000E+01 0. -1.
        -11    1    4    4    0    0 -0.83453631024E+02 -0.56091110565E+02  0.43796487257E+03  0.44935948952E+03  0.00000000000E+00 0.  1.
         11    1    4    4    0    0 -0.54285880168E+00  0.27518032572E+02  0.10740007062E+03  0.11087069938E+03  0.00000000000E+00 0. -1.
</event>
<event>
 8    1  0.3710605E-009  0.1338360E+03  0.7561462E-02  0.1221872E+00
         -1   -1    0    0    0  501 -0.00000000000E+00  0.00000000000E+00  0.67853625414E+02  0.67853625414E+02  0.00000000000E+00 0.  1.
          1   -1    0    0  501    0  0.00000000000E+00 -0.00000000000E+00 -0.30542410270E+03  0.30542410270E+03  0.00000000000E+00 0. -1.
         25    2    1    2    0    0  0.19291016944E+02  0.85626289506E+02 -0.97492927352E+02  0.18126578600E+03  0.12509360296E+03 0.  0.
         23    2    1    2    0    0 -0.19291016944E+02 -0.85626289506E+02 -0.14007754993E+03  0.19201194211E+03  0.97687568963E+02 0.  0.
          5    1    3    3  502    0  0.64870940104E+02  0.54616995208E+02 -0.92801225324E+02  0.12578074120E+03  0.41800000000E+01 0. -1.
         -5    1    3    3    0  502 -0.45579923160E+02  0.31009294298E+02 -0.46917020274E+01  0.55485044796E+02  0.41800000000E+01 0. -1.
        -11    1    4    4    0    0 -0.45034738152E+02 -0.80543939358E+01 -0.29229428126E+02  0.54289597260E+02  0.00000000000E+00 0.  1.
         11    1    4    4    0    0  0.25743721208E+02 -0.77571895570E+02 -0.11084812180E+03  0.13772234485E+03  0.00000000000E+00 0. -1.
</event>
<event>
 8    1  0.3710605E-009  0.1260891E+03  0.7561462E-02  0.1233377E+00
         -1   -1    0    0    0  501 -0.00000000000E+00  0.00000000000E+00  0.86733865998E+02  0.86733865998E+02  0.00000000000E+00 0.  1.
          1   -1    0    0  501    0  0.00000000000E+00 -0.00000000000E+00 -0.20381912210E+03  0.20381912210E+03  0.00000000000E+00 0. -1.
         25    2    1    2    0    0  0.43797826197E+02  0.38195736654E+02 -0.10464416783E+03  0.17313297942E+03  0.12508981902E+03 0.  0.
         23    2    1    2    0    0 -0.43797826197E+02 -0.38195736654E+02 -0.12441088273E+02  0.11742000868E+03  0.10126951112E+03 0.  0.
          5    1    3    3  502    0  0.70291632431E+00 -0.43997006436E+02 -0.42830189326E+02  0.61547771563E+02  0.41800000000E+01 0. -1.
         -5    1    3    3    0  502  0.43094909872E+02  0.82192743090E+02 -0.61813978501E+02  0.11158520785E+03  0.41800000000E+01 0. -1.
        -11    1    4    4    0    0  0.13426417149E+02  0.25888439492E+02  0.54345687969E+01  0.29665038594E+02  0.00000000000E+00 0.  1.
         11    1    4    4    0    0 -0.57224243346E+02 -0.64084176146E+02 -0.17875657069E+02  0.87754970084E+02  0.00000000000E+00 0. -1.
</event>
<event>
 8    1  0.3710605E-009  0.8058816E+02  0.7561462E-02  0.1327391E+00
          1   -1    0    0  501    0  0.00000000000E+00  0.00000000000E+00  0.24338333894E+03  0.24338333894E+03  0.00000000000E+00 0. -1.
         -1   -1    0    0    0  501 -0.00000000000E+00 -0.00000000000E+00 -0.49246900955E+02  0.49246900955E+02  0.00000000000E+00 0.  1.
         25    2    1    2    0    0 -0.64632370502E+01  0.17186924893E+02  0.92455267598E+02  0.15662639421E+03  0.12508671806E+03 0.  0.
         23    2    1    2    0    0  0.64632370502E+01 -0.17186924893E+02  0.10168117039E+03  0.13600384569E+03  0.88435410387E+02 0.  0.
          5    1    3    3  502    0 -0.40318575851E+02  0.57956361281E+01  0.10944292116E+03  0.11685205325E+03  0.41800000000E+01 0.  1.
         -5    1    3    3    0  502  0.33855338800E+02  0.11391288765E+02 -0.16987653561E+02  0.39774340956E+02  0.41800000000E+01 0.  1.
        -11    1    4    4    0    0  0.23127948770E+02  0.27875126816E+02  0.20360323693E+02  0.41550782065E+02  0.00000000000E+00 0.  1.
         11    1    4    4    0    0 -0.16664711720E+02 -0.45062051709E+02  0.81320846692E+02  0.94453063622E+02  0.00000000000E+00 0. -1.
</event>
<event>
 8    1  0.3710605E-009  0.1412204E+03  0.7561462E-02  0.1211696E+00
         -2   -1    0    0    0  501 -0.00000000000E+00  0.00000000000E+00  0.10788225101E+03  0.10788225101E+03  0.00000000000E+00 0.  1.
          2   -1    0    0  501    0  0.00000000000E+00 -0.00000000000E+00 -0.40530075511E+03  0.40530075511E+03  0.00000000000E+00 0. -1.
         25    2    1    2    0    0 -0.48377504766E+02 -0.12318147232E+03 -0.73176594334E+01  0.18225207617E+03  0.12509281769E+03 0.  0.
         23    2    1    2    0    0  0.48377504766E+02  0.12318147232E+03 -0.29010084467E+03  0.33093092995E+03  0.88559145381E+02 0.  0.
          5    1    3    3  502    0 -0.64467480952E+02 -0.91860396743E+02  0.43375400218E+02  0.12038806558E+03  0.41800000000E+01 0. -1.
         -5    1    3    3    0  502  0.16089976186E+02 -0.31321075580E+02 -0.50693059651E+02  0.61864010588E+02  0.41800000000E+01 0. -1.
        -11    1    4    4    0    0  0.66860986636E+01  0.50078815925E+02 -0.20543163773E+03  0.21155318362E+03  0.00000000000E+00 0. -1.
         11    1    4    4    0    0  0.41691406102E+02  0.73102656398E+02 -0.84669206934E+02  0.11937774633E+03  0.00000000000E+00 0.  1.
</event>
<event>
 8    1  0.3710605E-009  0.1473398E+03  0.7561462E-02  0.1203780E+00
         -1   -1    0    0    0  501 -0.00000000000E+00  0.00000000000E+00  0.92832003497E+02  0.92832003497E+02  0.00000000000E+00 0.  1.
          1   -1    0    0  501    0  0.00000000000E+00 -0.00000000000E+00 -0.48266033091E+03  0.48266033091E+03  0.00000000000E+00 0. -1.
         25    2    1    2    0    0 -0.11655912864E+02 -0.11464250990E+03 -0.39328415687E+03  0.42848462522E+03  0.12509148903E+03 0.  0.
         23    2    1    2    0    0  0.11655912864E+02  0.11464250990E+03  0.34558294540E+01  0.14700770919E+03  0.91217095016E+02 0.  0.
          5    1    3    3  502    0 -0.51746113846E+02 -0.49990523895E+02 -0.29744658150E+03  0.30605335160E+03  0.41800000000E+01 0. -1.
         -5    1    3    3    0  502  0.40090200982E+02 -0.64651986002E+02 -0.95837575366E+02  0.12243127362E+03  0.41800000000E+01 0. -1.
        -11    1    4    4    0    0 -0.39392618247E+02  0.41428156152E+02  0.75291014171E+01  0.57660713338E+02  0.00000000000E+00 0.  1.
         11    1    4    4    0    0  0.51048531111E+02  0.73214353745E+02 -0.40732719631E+01  0.89346995849E+02  0.00000000000E+00 0. -1.
</event>
<event>
 8    1  0.3710605E-009  0.1200820E+03  0.7561462E-02  0.1242962E+00
          1   -1    0    0  501    0  0.00000000000E+00  0.00000000000E+00  0.20729326591E+03  0.20729326591E+03  0.00000000000E+00 0. -1.
         -1   -1    0    0    0  501 -0.00000000000E+00 -0.00000000000E+00 -0.10501649962E+03  0.10501649962E+03  0.00000000000E+00 0.  1.
         25    2    1    2    0    0  0.77923002385E+02  0.13295120713E+02 -0.87750520281E+01  0.14823148666E+03  0.12508723981E+03 0.  0.
         23    2    1    2    0    0 -0.77923002385E+02 -0.13295120713E+02  0.11105181832E+03  0.16407827887E+03  0.91325903827E+02 0.  0.
          5    1    3    3  502    0 -0.33995405051E+02 -0.42305734056E+01  0.25907840430E+00  0.34512676476E+02  0.41800000000E+01 0.  1.
         -5    1    3    3    0  502  0.11191840744E+03  0.17525694118E+02 -0.90341304324E+01  0.11371881018E+03  0.41800000000E+01 0.  1.
        -11    1    4    4    0    0 -0.20801932765E+02  0.17692164794E+02 -0.79907424995E+01  0.28453208388E+02  0.00000000000E+00 0.  1.
         11    1    4    4    0    0 -0.57121069619E+02 -0.30987285506E+02  0.11904256082E+03  0.13562507048E+03  0.00000000000E+00 0. -1.
</event>
<event>
 8    1  0.3710605E-009  0.1135089E+03  0.7561462E-02  0.1254207E+00
         -1   -1    0    0    0  501 -0.00000000000E+00  0.00000000000E+00  0.29812176205E+03  0.29812176205E+03  0.00000000000E+00 0.  1.
          1   -1    0    0  501    0  0.00000000000E+00 -0.00000000000E+00 -0.45480235882E+02  0.45480235882E+02  0.00000000000E+00 0. -1.
         25    2    1    2    0    0  0.32368278405E+02  0.22569775023E+02  0.13505701995E+03  0.18827015658E+03  0.12509257784E+03 0.  0.
         23    2    1    2    0    0 -0.32368278405E+02 -0.22569775023E+02  0.11758450622E+03  0.15533184135E+03  0.93513446327E+02 0.  0.
          5    1    3    3  502    0  0.66273498390E+02 -0.22775340461E+02  0.50733750163E+02  0.86615694465E+02  0.41800000000E+01 0. -1.
         -5    1    3    3    0  502 -0.33905219985E+02  0.45345115484E+02  0.84323269788E+02  0.10165446212E+03  0.41800000000E+01 0. -1.
        -11    1    4    4    0    0  0.92770564952E+01  0.30902975839E+02  0.50797428868E+02  0.60178372133E+02  0.00000000000E+00 0. -1.
         11    1    4    4    0    0 -0.41645334900E+02 -0.53472750862E+02  0.66787077349E+02  0.95153469220E+02  0.00000000000E+00 0.  1.
</event>
<event>
 8    1  0.3710605E-009  0.2626892E+03  0.7561462E-02  0.1105538E+00
          3   -1    0    0  501    0  0.00000000000E+00  0.00000000000E+00  0.35037260826E+03  0.35037260826E+03  0.00000000000E+00 0. -1.
         -3   -1    0    0    0  501 -0.00000000000E+00 -0.00000000000E+00 -0.21587997618E+03  0.21587997618E+03  0.00000000000E+00 0.  1.
         25    2    1    2    0    0  0.17932048341E+03  0.16210200628E+03  0.14334312240E+03  0.30761836186E+03  0.12509560186E+03 0.  0.
         23    2    1    2    0    0 -0.17932048341E+03 -0.16210200628E+03 -0.88504903170E+01  0.25863422258E+03  0.91544708738E+02 0.  0.
          5    1    3    3  502    0  0.16932890903E+03  0.85587282907E+02  0.73683039370E+02  0.20357830218E+03  0.41800000000E+01 0.  1.
         -5    1    3    3    0  502  0.99915743876E+01  0.76514723377E+02  0.69660083026E+02  0.10404005969E+03  0.41800000000E+01 0.  1.
        -11    1    4    4    0    0 -0.16269930169E+03 -0.93318564741E+02 -0.10454191308E+02  0.18785288769E+03  0.00000000000E+00 0.  1.
         11    1    4    4    0    0 -0.16621181721E+02 -0.68783441544E+02  0.16037009912E+01  0.70781334893E+02  0.00000000000E+00 0. -1.
</event>
<event>
 8    1  0.3710605E-009  0.1233777E+03  0.7561462E-02  0.1237627E+00
          1   -1    0    0  501    0  0.00000000000E+00  0.00000000000E+00  0.19097784132E+03  0.19097784132E+03  0.00000000000E+00 0. -1.
         -1   -1    0    0    0  501 -0.00000000000E+00 -0.00000000000E+00 -0.13388528372E+03  0.13388528372E+03  0.00000000000E+00 0.  1.
         25    2    1    2    0    0 -0.11927628477E+03 -0.18152760923E+02  0.31443536737E+02  0.17661313926E+03  0.12508856910E+03 0.  0.
         23    2    1    2    0    0  0.11927628477E+03  0.18152760923E+02  0.25649020860E+02  0.14824998578E+03  0.82242514404E+02 0.  0.
          5    1    3    3  502    0 -0.39929217950E+02 -0.23223313837E+02  0.73240021774E+02  0.86690472032E+02  0.41800000000E+01 0. -1.
         -5    1    3    3    0  502 -0.79347066818E+02  0.50705529142E+01 -0.41796485037E+02  0.89922667226E+02  0.41800000000E+01 0. -1.
        -11    1    4    4    0    0  0.43081096250E+02  0.90266915546E+01  0.51058966513E+02  0.67412759000E+02  0.00000000000E+00 0. -1.
         11    1    4    4    0    0  0.76195188518E+02  0.91260693684E+01 -0.25409945653E+02  0.80837226780E+02  0.00000000000E+00 0.  1.
</event>
<event>
 8    1  0.3710605E-009  0.1193869E+03  0.7561462E-02  0.1244112E+00
         -1   -1    0    0    0  501 -0.00000000000E+00  0.00000000000E+00  0.11633762173E+03  0.11633762173E+03  0.00000000000E+00 0.  1.
          1   -1    0    0  501    0  0.00000000000E+00 -0.00000000000E+00 -0.17784368422E+03  0.17784368422E+03  0.00000000000E+00 0. -1.
         25    2    1    2    0    0  0.46744529203E+02 -0.29318800831E+02 -0.11242633631E+03  0.17701840312E+03  0.12510471955E+03 0.  0.
         23    2    1    2    0    0 -0.46744529203E+02  0.29318800831E+02  0.50920273818E+02  0.11716290283E+03  0.89942361656E+02 0.  0.
          5    1    3    3  502    0  0.34445750985E+02 -0.78492735178E+02 -0.72938053955E+02  0.11262793326E+03  0.41800000000E+01 0.  1.
         -5    1    3    3    0  502  0.12298778217E+02  0.49173934348E+02 -0.39488282353E+02  0.64390469855E+02  0.41800000000E+01 0.  1.
        -11    1    4    4    0    0 -0.27886677624E+02 -0.29339414282E+02  0.60192176886E+01  0.40923086405E+02  0.00000000000E+00 0. -1.
         11    1    4    4    0    0 -0.18857851579E+02  0.58658215113E+02  0.44901056129E+02  0.76239816421E+02  0.00000000000E+00 0.  1.
</event>
<event>
 8    1  0.3710605E-009  0.7250898E+02  0.7561462E-02  0.1351763E+00
          3   -1    0    0  501    0  0.00000000000E+00  0.00000000000E+00  0.70996241349E+02  0.70996241349E+02  0.00000000000E+00 0. -1.
         -3   -1    0    0    0  501 -0.00000000000E+00 -0.00000000000E+00 -0.28002049366E+03  0.28002049366E+03  0.00000000000E+00 0.  1.
         25    2    1    2    0    0 -0.82582719010E+01  0.13671605352E+02 -0.22342258712E+03  0.25655393935E+03  0.12508860664E+03 0.  0.
         23    2    1    2    0    0  0.82582719010E+01 -0.13671605352E+02  0.14398334810E+02  0.94462795663E+02  0.91982584610E+02 0.  0.
          5    1    3    3  502    0  0.30054721877E+01 -0.17506621929E+02 -0.22237718229E+03  0.22312462499E+03  0.41800000000E+01 0. -1.
         -5    1    3    3    0  502 -0.11263744089E+02  0.31178227280E+02 -0.10454048363E+01  0.33429314359E+02  0.41800000000E+01 0. -1.
        -11    1    4    4    0    0  0.53630260081E+01 -0.53327064152E+02  0.85682885966E+01  0.54276637594E+02  0.00000000000E+00 0.  1.
         11    1    4    4    0    0  0.28952458929E+01  0.39655458801E+02  0.58300462136E+01  0.40186158069E+02  0.00000000000E+00 0. -1.
</event>
<event>
 8    1  0.3710605E-009  0.1103042E+03  0.7561462E-02  0.1260008E+00
         -3   -1    0    0    0  501 -0.00000000000E+00  0.00000000000E+00  0.65064813312E+02  0.65064813312E+02  0.00000000000E+00 0.  1.
          3   -1    0    0  501    0  0.00000000000E+00 -0.00000000000E+00 -0.27041050391E+03  0.27041050391E+03  0.00000000000E+00 0. -1.
         25    2    1    2    0    0 -0.43264009487E+02 -0.61487733592E+02 -0.10755307249E+03  0.18129037103E+03  0.12508404905E+03 0.  0.
         23    2    1    2    0    0  0.43264009487E+02  0.61487733592E+02 -0.97792618109E+02  0.15418494619E+03  0.92504516514E+02 0.  0.
          5    1    3    3  502    0 -0.22679864517E+02 -0.76316825927E+02 -0.99336080582E+01  0.80341665050E+02  0.41800000000E+01 0. -1.
         -5    1    3    3    0  502 -0.20584144970E+02  0.14829092335E+02 -0.97619464427E+02  0.10094870598E+03  0.41800000000E+01 0. -1.
        -11    1    4    4    0    0 -0.24165232066E+02  0.35422120068E+02 -0.17973008985E+02  0.46494237093E+02  0.00000000000E+00 0.  1.
         11    1    4    4    0    0  0.67429241553E+02  0.26065613524E+02 -0.79819609124E+02  0.10769070910E+03  0.00000000000E+00 0. -1.
</event>
<event>
 8    1  0.3710605E-009  0.1623212E+03  0.7561462E-02  0.1186101E+00
         -1   -1    0    0    0  501 -0.00000000000E+00  0.00000000000E+00  0.18703897937E+02  0.18703897937E+02  0.00000000000E+00 0.  1.
          1   -1    0    0  501    0  0.00000000000E+00 -0.00000000000E+00 -0.15307620098E+04  0.15307620098E+04  0.00000000000E+00 0. -1.
         25    2    1    2    0    0 -0.12433216856E+03 -0.21476293523E+01 -0.94232654478E+03  0.95869199298E+03  0.12509164622E+03 0.  0.
         23    2    1    2    0    0  0.12433216856E+03  0.21476293523E+01 -0.56973156706E+03  0.59077391474E+03  0.94639629001E+02 0.  0.
          5    1    3    3  502    0 -0.14863266383E+03 -0.92412078182E+01 -0.84544127827E+03  0.85846694525E+03  0.41800000000E+01 0.  1.
         -5    1    3    3    0  502  0.24300495274E+02  0.70935784659E+01 -0.96885266512E+02  0.10022504773E+03  0.41800000000E+01 0.  1.
        -11    1    4    4    0    0  0.78770154232E+02  0.42183117638E+02 -0.41646032011E+03  0.42593820072E+03  0.00000000000E+00 0. -1.
         11    1    4    4    0    0  0.45562014325E+02 -0.40035488285E+02 -0.15327124696E+03  0.16483571401E+03  0.00000000000E+00 0.  1.
</event>
<event>
 8    1  0.3710605E-009  0.2753489E+03  0.7561462E-02  0.1098257E+00
          1   -1    0    0  501    0  0.00000000000E+00  0.00000000000E+00  0.52983499704E+03  0.52983499704E+03  0.00000000000E+00 0. -1.
         -1   -1    0    0    0  501 -0.00000000000E+00 -0.00000000000E+00 -0.22808723366E+03  0.22808723366E+03  0.00000000000E+00 0.  1.
         25    2    1    2    0    0  0.11556938670E+03 -0.23692742027E+03 -0.62574301769E+02  0.29841873607E+03  0.12508922087E+03 0.  0.
         23    2    1    2    0    0 -0.11556938670E+03  0.23692742027E+03  0.36432206515E+03  0.45950349463E+03  0.94456385725E+02 0.  0.
          5    1    3    3  502    0  0.12397859181E+03 -0.19584925118E+03 -0.11374589916E+02  0.23210875492E+03  0.41800000000E+01 0. -1.
         -5    1    3    3    0  502 -0.84092051042E+01 -0.41078169086E+02 -0.51199711853E+02  0.66309981147E+02  0.41800000000E+01 0. -1.
        -11    1    4    4    0    0 -0.12721504570E+03  0.19202238704E+03  0.27392859434E+03  0.35790101952E+03  0.00000000000E+00 0. -1.
         11    1    4    4    0    0  0.11645659001E+02  0.44905033228E+02  0.90393470814E+02  0.10160247511E+03  0.00000000000E+00 0.  1.
</event>
<event>
 8    1  0.3710605E-009  0.1046304E+03  0.7561462E-02  0.1270850E+00
          2   -1    0    0  501    0  0.00000000000E+00  0.00000000000E+00  0.45190068683E+02  0.45190068683E+02  0.00000000000E+00 0. -1.
         -2   -1    0    0    0  501 -0.00000000000E+00 -0.00000000000E+00 -0.30056126984E+03  0.30056126984E+03  0.00000000000E+00 0.  1.
         25    2    1    2    0    0 -0.23971053411E+02  0.34035754706E+02 -0.15533026080E+03  0.20373181715E+03  0.12508444907E+03 0.  0.
         23    2    1    2    0    0  0.23971053411E+02 -0.34035754706E+02 -0.10004094036E+03  0.14201952138E+03  0.91805831535E+02 0.  0.
          5    1    3    3  502    0 -0.62355834163E+02 -0.49428396952E+01 -0.35755411914E+02  0.72170656084E+02  0.41800000000E+01 0. -1.
         -5    1    3    3    0  502  0.38384780752E+02  0.38978594401E+02 -0.11957484888E+03  0.13156116106E+03  0.41800000000E+01 0. -1.
        -11    1    4    4    0    0 -0.30586356439E+02 -0.12928146029E+02 -0.67142370960E+02  0.74905007430E+02  0.00000000000E+00 0.  1.
         11    1    4    4    0    0  0.54557409850E+02 -0.21107608676E+02 -0.32898569398E+02  0.67114513945E+02  0.00000000000E+00 0. -1.
</event>
<event>
 8    1  0.3710605E-009  0.1076494E+03  0.7561462E-02  0.1264986E+00
         -2   -1    0    0    0  501 -0.00000000000E+00  0.00000000000E+00  0.13143206095E+02  0.13143206095E+02  0.00000000000E+00 0.  1.
          2   -1    0    0  501    0  0.00000000000E+00 -0.00000000000E+00 -0.13002886357E+04  0.13002886357E+04  0.00000000000E+00 0. -1.
         25    2    1    2    0    0 -0.21974385168E+02 -0.60149020874E+02 -0.90705893792E+03  0.91787978315E+03  0.12508637470E+03 0.  0.
         23    2    1    2    0    0  0.21974385168E+02  0.60149020874E+02 -0.38008649172E+03  0.39555205868E+03  0.88853315208E+02 0.  0.
          5    1    3    3  502    0 -0.36549065302E+02  0.11781198727E+02 -0.63161915316E+03  0.63279922397E+03  0.41800000000E+01 0. -1.
         -5    1    3    3    0  502  0.14574680134E+02 -0.71930219601E+02 -0.27543978476E+03  0.28508055918E+03  0.41800000000E+01 0. -1.
        -11    1    4    4    0    0 -0.25366380305E+02  0.47992099619E+02 -0.26523633299E+03  0.27073420031E+03  0.00000000000E+00 0. -1.
         11    1    4    4    0    0  0.47340765472E+02  0.12156921255E+02 -0.11485015873E+03  0.12481785838E+03  0.00000000000E+00 0.  1.
</event>
<event>
 8    1  0.3710605E-009  0.1700586E+03  0.7561462E-02  0.1177787E+00
         -4   -1    0    0    0  501 -0.00000000000E+00  0.00000000000E+00  0.85373982590E+02  0.85373982590E+02  0.00000000000E+00 0. -1.
          4   -1    0    0  501    0  0.00000000000E+00 -0.00000000000E+00 -0.44061763680E+03  0.44061763680E+03  0.00000000000E+00 0.  1.
         25    2    1    2    0    0 -0.15804418464E+02 -0.14746053766E+03 -0.26907442370E+03  0.33172733840E+03  0.12509033433E+03 0.  0.
         23    2    1    2    0    0  0.15804418464E+02  0.14746053766E+03 -0.86169230513E+02  0.19426428099E+03  0.91209016940E+02 0.  0.
          5    1    3    3  502    0 -0.31249229934E+02  0.70691162055E+01 -0.19466758301E+02  0.37721530380E+02  0.41800000000E+01 0. -1.
         -5    1    3    3    0  502  0.15444811470E+02 -0.15452965387E+03 -0.24960766540E+03  0.29400580802E+03  0.41800000000E+01 0. -1.
        -11    1    4    4    0    0 -0.10605127270E+02  0.65150771305E+02 -0.85248564537E+02  0.10781655477E+03  0.00000000000E+00 0.  1.
         11    1    4    4    0    0  0.26409545733E+02  0.82309766356E+02 -0.92066597576E+00  0.86447726224E+02  0.00000000000E+00 0. -1.
</event>
<event>
 8    1  0.3710605E-009  0.1022618E+03  0.7561462E-02  0.1275610E+00
         -1   -1    0    0    0  501 -0.00000000000E+00  0.00000000000E+00  0.12754547554E+03  0.12754547554E+03  0.00000000000E+00 0.  1.
          1   -1    0    0  501    0  0.00000000000E+00 -0.00000000000E+00 -0.12904739510E+03  0.12904739510E+03  0.00000000000E+00 0. -1.
         25    2    1    2    0    0  0.30637656427E+02  0.62473862260E+02  0.86876837713E+01  0.14340409627E+03  0.12509040539E+03 0.  0.
         23    2    1    2    0    0 -0.30637656427E+02 -0.62473862260E+02 -0.10189603330E+02  0.11318877438E+03  0.88691719863E+02 0.  0.
          5    1    3    3  502    0  0.62813668980E+02  0.32721125873E+02  0.46950815046E+02  0.85076909456E+02  0.41800000000E+01 0.  1.
         -5    1    3    3    0  502 -0.32176012553E+02  0.29752736387E+02 -0.38263131275E+02  0.58327186811E+02  0.41800000000E+01 0.  1.
        -11    1    4    4    0    0 -0.46411118280E+02 -0.55383023686E+02 -0.37080243470E+02  0.81217089756E+02  0.00000000000E+00 0. -1.
         11    1    4    4    0    0  0.15773461853E+02 -0.70908385743E+01  0.26890640140E+02  0.31971684623E+02  0.00000000000E+00 0.  1.
</event>
<event>
 8    1  0.3710605E-009  0.1123334E+03  0.7561462E-02  0.1256309E+00
          1   -1    0    0  501    0  0.00000000000E+00  0.00000000000E+00  0.25439345993E+03  0.25439345993E+03  0.00000000000E+00 0. -1.
         -1   -1    0    0    0  501 -0.00000000000E+00 -0.00000000000E+00 -0.69690695693E+02  0.69690695693E+02  0.00000000000E+00 0.  1.
         25    2    1    2    0    0 -0.64711261397E+02 -0.42582047539E+02  0.11233381804E+03  0.18511157535E+03  0.12508649218E+03 0.  0.
         23    2    1    2    0    0  0.64711261397E+02  0.42582047539E+02  0.72368946194E+02  0.13897258028E+03  0.89862870931E+02 0.  0.
          5    1    3    3  502    0  0.37392876599E+02 -0.64486781112E+01  0.22335559923E+02  0.44228523679E+02  0.41800000000E+01 0. -1.
         -5    1    3    3    0  502 -0.10210413800E+03 -0.36133369428E+02  0.89998258122E+02  0.14088305167E+03  0.41800000000E+01 0. -1.
        -11    1    4    4    0    0  0.20850904008E+02  0.19458485106E+02 -0.19519631611E+02  0.34560220757E+02  0.00000000000E+00 0.  1.
         11    1    4    4    0    0  0.43860357390E+02  0.23123562433E+02  0.91888577804E+02  0.10441235952E+03  0.00000000000E+00 0. -1.
</event>
<event>
 8    1  0.3710605E-009  0.1624665E+03  0.7561462E-02  0.1185940E+00
         -2   -1    0    0    0  501 -0.00000000000E+00  0.00000000000E+00  0.50659955771E+02  0.50659955771E+02  0.00000000000E+00 0.  1.
          2   -1    0    0  501    0  0.00000000000E+00 -0.00000000000E+00 -0.69928443045E+03  0.69928443045E+03  0.00000000000E+00 0. -1.
         25    2    1    2    0    0  0.10645746470E+03 -0.62636365953E+02 -0.52286317667E+03  0.55162524537E+03  0.12509198090E+03 0.  0.
         23    2    1    2    0    0 -0.10645746470E+03  0.62636365953E+02 -0.12576129802E+03  0.19831914085E+03  0.90873931467E+02 0.  0.
          5    1    3    3  502    0  0.55502400890E+02  0.31966526523E+02 -0.25569157822E+03  0.26362479188E+03  0.41800000000E+01 0.  1.
         -5    1    3    3    0  502  0.50955063810E+02 -0.94602892475E+02 -0.26717159844E+03  0.28800045348E+03  0.41800000000E+01 0.  1.
        -11    1    4    4    0    0 -0.42408389236E+02 -0.21439443274E+02 -0.35242417374E+02  0.59162058685E+02  0.00000000000E+00 0.  1.
         11    1    4    4    0    0 -0.64049075464E+02  0.84075809227E+02 -0.90518880643E+02  0.13915708217E+03  0.00000000000E+00 0. -1.
</event>
<event>
 8    1  0.3710605E-009  0.1299396E+03  0.7561462E-02  0.1227545E+00
         -1   -1    0    0    0  501 -0.00000000000E+00  0.00000000000E+00  0.27745022258E+03  0.27745022258E+03  0.00000000000E+00 0.  1.
          1   -1    0    0  501    0  0.00000000000E+00 -0.00000000000E+00 -0.64060399300E+02  0.64060399300E+02  0.00000000000E+00 0. -1.
         25    2    1    2    0    0  0.56319250067E+02 -0.47366640163E+02  0.14405864123E+03  0.20449148957E+03  0.12509364757E+03 0.  0.
         23    2    1    2    0    0 -0.56319250067E+02  0.47366640163E+02  0.69331182042E+02  0.13701913231E+03  0.92476879740E+02 0.  0.
          5    1    3    3  502    0 -0.38948900145E+02 -0.15187359891E+02  0.60636535623E+02  0.73769469127E+02  0.41800000000E+01 0. -1.
         -5    1    3    3    0  502  0.95268150212E+02 -0.32179280272E+02  0.83422105611E+02  0.13072202044E+03  0.41800000000E+01 0. -1.
        -11    1    4    4    0    0 -0.82649193196E+01  0.65382102797E+02  0.47560981084E+02  0.81272228831E+02  0.00000000000E+00 0. -1.
         11    1    4    4    0    0 -0.48054330747E+02 -0.18015462634E+02  0.21770200958E+02  0.55746903476E+02  0.00000000000E+00 0.  1.
</event>
<event>
 8    1  0.3710605E-009  0.8890173E+02  0.7561462E-02  0.1305533E+00
         -2   -1    0    0    0  501 -0.00000000000E+00  0.00000000000E+00  0.38838248245E+02  0.38838248245E+02  0.00000000000E+00 0.  1.
          2   -1    0    0  501    0  0.00000000000E+00 -0.00000000000E+00 -0.29795780153E+03  0.29795780153E+03  0.00000000000E+00 0. -1.
         25    2    1    2    0    0  0.25838185265E+01 -0.96220923421E+01 -0.13961120285E+03  0.18771803524E+03  0.12509001564E+03 0.  0.
         23    2    1    2    0    0 -0.25838185265E+01  0.96220923421E+01 -0.11950835043E+03  0.14907801453E+03  0.88559289835E+02 0.  0.
          5    1    3    3  502    0 -0.42571091389E+02 -0.36800565994E+02 -0.11762557414E+03  0.13046006121E+03  0.41800000000E+01 0. -1.
         -5    1    3    3    0  502  0.45154909916E+02  0.27178473652E+02 -0.21985628709E+02  0.57257974024E+02  0.41800000000E+01 0. -1.
        -11    1    4    4    0    0 -0.12202962477E+02  0.37278936151E+02 -0.17503565130E+02  0.42953534966E+02  0.00000000000E+00 0.  1.
         11    1    4    4    0    0  0.96191439509E+01 -0.27656843809E+02 -0.10200478530E+03  0.10612447957E+03  0.00000000000E+00 0. -1.
</event>
<event>
 8    1  0.3710605E-009  0.1126945E+03  0.7561462E-02  0.1255660E+00
          1   -1    0    0  501    0  0.00000000000E+00  0.00000000000E+00  0.33252630421E+02  0.33252630421E+02  0.00000000000E+00 0. -1.
         -1   -1    0    0    0  501 -0.00000000000E+00 -0.00000000000E+00 -0.71265851481E+03  0.71265851481E+03  0.00000000000E+00 0.  1.
         25    2    1    2    0    0  0.88186780975E+02  0.40750138653E+02 -0.23730249747E+03  0.28530368370E+03  0.12509290343E+03 0.  0.
         23    2    1    2    0    0 -0.88186780975E+02 -0.40750138653E+02 -0.44210338692E+03  0.46060746154E+03  0.85242869236E+02 0.  0.
          5    1    3    3  502    0  0.79179991457E+01  0.29799104310E+02 -0.18761090430E+03  0.19017361841E+03  0.41800000000E+01 0. -1.
         -5    1    3    3    0  502  0.80268781829E+02  0.10951034343E+02 -0.49691593170E+02  0.95130065286E+02  0.41800000000E+01 0. -1.
        -11    1    4    4    0    0 -0.66720893293E+02  0.42133241090E+00 -0.36133909018E+03  0.36744767412E+03  0.00000000000E+00 0.  1.
         11    1    4    4    0    0 -0.21465887682E+02 -0.41171471064E+02 -0.80764296745E+02  0.93159787420E+02  0.00000000000E+00 0. -1.
</event>
<event>
 8    1  0.3710605E-009  0.1252776E+03  0.7561462E-02  0.1234636E+00
          2   -1    0    0  501    0  0.00000000000E+00  0.00000000000E+00  0.66890782797E+03  0.66890782797E+03  0.00000000000E+00 0. -1.
         -2   -1    0    0    0  501 -0.00000000000E+00 -0.00000000000E+00 -0.30295279567E+02  0.30295279567E+02  0.00000000000E+00 0.  1.
         25    2    1    2    0    0 -0.75532850064E+02  0.11654600108E+02  0.47806477035E+03  0.50003424789E+03  0.12508910134E+03 0.  0.
         23    2    1    2    0    0  0.75532850064E+02 -0.11654600108E+02  0.16054777805E+03  0.19916885964E+03  0.89730733151E+02 0.  0.
          5    1    3    3  502    0 -0.97817695144E+02 -0.20235936756E+02  0.26143876301E+03  0.27990265062E+03  0.41800000000E+01 0.  1.
         -5    1    3    3    0  502  0.22284845080E+02  0.31890536865E+02  0.21662600734E+03  0.22013159727E+03  0.41800000000E+01 0.  1.
        -11    1    4    4    0    0  0.75037322973E+02  0.21683830122E+02  0.13908439882E+03  0.15951569930E+03  0.00000000000E+00 0. -1.
         11    1    4    4    0    0  0.49552709095E+00 -0.33338430231E+02  0.21463379235E+02  0.39653160347E+02  0.00000000000E+00 0.  1.
</event>
<event>
 8    1  0.3710605E-009  0.2291028E+03  0.7561462E-02  0.1127273E+00
         -2   -1    0    0    0  501 -0.00000000000E+00  0.00000000000E+00  0.12432669753E+03  0.12432669753E+03  0.00000000000E+00 0.  1.
          2   -1    0    0  501    0  0.00000000000E+00 -0.00000000000E+00 -0.52963848840E+03  0.52963848840E+03  0.00000000000E+00 0. -1.
         25    2    1    2    0    0  0.22345727493E+03 -0.12838681443E+02 -0.12924807392E+03  0.28714521674E+03  0.12509726385E+03 0.  0.
         23    2    1    2    0    0 -0.22345727493E+03  0.12838681443E+02 -0.27606371695E+03  0.36681996919E+03  0.90817005654E+02 0.  0.
          5    1    3    3  502    0  0.98877992075E+02 -0.36006034453E+02  0.10854767593E+01  0.10531829135E+03  0.41800000000E+01 0.  1.
         -5    1    3    3    0  502  0.12457928286E+03  0.23167353010E+02 -0.13033355068E+03  0.18182692539E+03  0.41800000000E+01 0.  1.
        -11    1    4    4    0    0 -0.10994882865E+03 -0.97299070663E+01 -0.70663725799E+02  0.13106020814E+03  0.00000000000E+00 0.  1.
         11    1    4    4    0    0 -0.11350844628E+03  0.22568588510E+02 -0.20539999115E+03  0.23575976105E+03  0.00000000000E+00 0. -1.
</event>
<event>
 8    1  0.3710605E-009  0.1067987E+03  0.7561462E-02  0.1266616E+00
          1   -1    0    0  501    0  0.00000000000E+00  0.00000000000E+00  0.33483461670E+03  0.33483461670E+03  0.00000000000E+00 0. -1.
         -1   -1    0    0    0  501 -0.00000000000E+00 -0.00000000000E+00 -0.68674062697E+02  0.68674062697E+02  0.00000000000E+00 0.  1.
         25    2    1    2    0    0  0.25628690338E+02  0.35317536784E+02  0.11573787820E+02  0.13298840800E+03  0.12509119044E+03 0.  0.
         23    2    1    2    0    0 -0.25628690338E+02 -0.35317536784E+02  0.25458676618E+03  0.27052027139E+03  0.80390531444E+02 0.  0.
          5    1    3    3  502    0 -0.33430141774E+02  0.59116026925E+02 -0.50791552992E+00  0.68044172392E+02  0.41800000000E+01 0.  1.
         -5    1    3    3    0  502  0.59058832112E+02 -0.23798490141E+02  0.12081703350E+02  0.64944235612E+02  0.41800000000E+01 0.  1.
        -11    1    4    4    0    0 -0.18551998182E+02 -0.56470150174E+02  0.22894341898E+03  0.23653359928E+03  0.00000000000E+00 0.  1.
         11    1    4    4    0    0 -0.70766921554E+01  0.21152613390E+02  0.25643347206E+02  0.33986672109E+02  0.00000000000E+00 0. -1.
</event>
<event>
 8    1  0.3710605E-009  0.9959032E+02  0.7561462E-02  0.1281160E+00
         -2   -1    0    0    0  501 -0.00000000000E+00  0.00000000000E+00  0.10783033104E+03  0.10783033104E+03  0.00000000000E+00 0.  1.
          2   -1    0    0  501    0  0.00000000000E+00 -0.00000000000E+00 -0.11581264673E+03  0.11581264673E+03  0.00000000000E+00 0. -1.
         25    2    1    2    0    0  0.21647675328E+02 -0.18020543863E+01  0.10394764244E+02  0.12738825935E+03  0.12509135962E+03 0.  0.
         23    2    1    2    0    0 -0.21647675328E+02  0.18020543863E+01 -0.18377079937E+02  0.96254718418E+02  0.91953164729E+02 0.  0.
          5    1    3    3  502    0  0.31635239013E+02  0.55445830260E+02  0.22625106447E+02  0.67855701915E+02  0.41800000000E+01 0.  1.
         -5    1    3    3    0  502 -0.99875636855E+01 -0.57247884647E+02 -0.12230342203E+02  0.59532557440E+02  0.41800000000E+01 0.  1.
        -11    1    4    4    0    0 -0.46095066883E+02  0.15856287261E+02 -0.38077742865E+02  0.61855408319E+02  0.00000000000E+00 0. -1.
         11    1    4    4    0    0  0.24447391555E+02 -0.14054232875E+02  0.19700662928E+02  0.34399310100E+02  0.00000000000E+00 0.  1.
</event>
<event>
 8    1  0.3710605E-009  0.9866487E+02  0.7561462E-02  0.1283129E+00
         -2   -1    0    0    0  501 -0.00000000000E+00  0.00000000000E+00  0.17288776772E+02  0.17288776772E+02  0.00000000000E+00 0.  1.
          2   -1    0    0  501    0  0.00000000000E+00 -0.00000000000E+00 -0.13361185178E+04  0.13361185178E+04  0.00000000000E+00 0. -1.
         25    2    1    2    0    0  0.34988315675E+01  0.61467420165E+02 -0.11111327698E+04  0.11198457529E+04  0.12509193682E+03 0.  0.
         23    2    1    2    0    0 -0.34988315675E+01 -0.61467420165E+02 -0.20769697128E+03  0.23356154170E+03  0.87306794223E+02 0.  0.
          5    1    3    3  502    0 -0.20411128061E+02  0.70826964914E+02 -0.10591200194E+04  0.10616900494E+04  0.41800000000E+01 0. -1.
         -5    1    3    3    0  502  0.23909959628E+02 -0.93595447488E+01 -0.52012750341E+02  0.58155703464E+02  0.41800000000E+01 0. -1.
        -11    1    4    4    0    0  0.30121630122E+02 -0.32989967595E+01 -0.11595706402E+03  0.11985089352E+03  0.00000000000E+00 0. -1.
         11    1    4    4    0    0 -0.33620461689E+02 -0.58168423405E+02 -0.91739907260E+02  0.11371064818E+03  0.00000000000E+00 0.  1.
</event>
<event>
 8    1  0.3710605E-009  0.1362485E+03  0.7561462E-02  0.1218468E+00
          2   -1    0    0  501    0  0.00000000000E+00  0.00000000000E+00  0.12162608567E+04  0.12162608567E+04  0.00000000000E+00 0. -1.
         -2   -1    0    0    0  501 -0.00000000000E+00 -0.00000000000E+00 -0.21073673395E+02  0.21073673395E+02  0.00000000000E+00 0.  1.
         25    2    1    2    0    0 -0.42300834625E+02 -0.77896957370E+02  0.93475612194E+03  0.94724332909E+03  0.12507445956E+03 0.  0.
         23    2    1    2    0    0  0.42300834625E+02  0.77896957370E+02  0.26043106136E+03  0.29009120100E+03  0.92039505625E+02 0.  0.
          5    1    3    3  502    0 -0.83692892495E+02 -0.37879042811E+02  0.66894553041E+03  0.67523693412E+03  0.41800000000E+01 0. -1.
         -5    1    3    3    0  502  0.41392057869E+02 -0.40017914559E+02  0.26581059153E+03  0.27200639498E+03  0.41800000000E+01 0. -1.
        -11    1    4    4    0    0  0.47260000739E+02  0.25794996184E+01  0.14172950451E+03  0.14942360569E+03  0.00000000000E+00 0. -1.
         11    1    4    4    0    0 -0.49591661131E+01  0.75317457752E+02  0.11870155685E+03  0.14066759531E+03  0.00000000000E+00 0.  1.
</event>
<event>
 8    1  0.3710605E-009  0.1131918E+03  0.7561462E-02  0.1254771E+00
         -2   -1    0    0    0  501 -0.00000000000E+00  0.00000000000E+00  0.14713888985E+03  0.14713888985E+03  0.00000000000E+00 0.  1.
          2   -1    0    0  501    0  0.00000000000E+00 -0.00000000000E+00 -0.15492822054E+03  0.15492822054E+03  0.00000000000E+00 0. -1.
         25    2    1    2    0    0 -0.21703819807E+02 -0.92935600675E+02  0.39228963517E+02  0.16215615213E+03  0.12509046497E+03 0.  0.
         23    2    1    2    0    0  0.21703819807E+02  0.92935600675E+02 -0.47018294214E+02  0.13991095827E+03  0.90864044511E+02 0.  0.
          5    1    3    3  502    0 -0.23121506475E+02 -0.99542560191E+02  0.74158674606E+02  0.12633410771E+03  0.41800000000E+01 0. -1.
         -5    1    3    3    0  502  0.14176866682E+01  0.66069595157E+01 -0.34929711089E+02  0.35822044418E+02  0.41800000000E+01 0. -1.
        -11    1    4    4    0    0 -0.94884402354E+01 -0.67914725165E+01  0.14533649463E+02  0.18638174904E+02  0.00000000000E+00 0.  1.
         11    1    4    4    0    0  0.31192260042E+02  0.99727073191E+02 -0.61551943677E+02  0.12127278336E+03  0.00000000000E+00 0. -1.
</event>
<event>
 8    1  0.3710605E-009  0.1280763E+03  0.7561462E-02  0.1230338E+00
          1   -1    0    0  501    0  0.00000000000E+00  0.00000000000E+00  0.25893629847E+03  0.25893629847E+03  0.00000000000E+00 0. -1.
         -1   -1    0    0    0  501 -0.00000000000E+00 -0.00000000000E+00 -0.16610387999E+03  0.16610387999E+03  0.00000000000E+00 0.  1.
         25    2    1    2    0    0  0.30081793278E+02 -0.76950668389E+02 -0.11114062168E+03  0.18661530743E+03  0.12508683195E+03 0.  0.
         23    2    1    2    0    0 -0.30081793278E+02  0.76950668389E+02  0.20397304017E+03  0.23842487103E+03  0.91733845206E+02 0.  0.
          5    1    3    3  502    0 -0.13508510872E+02 -0.92753758778E+02 -0.40911471924E+02  0.10235702501E+03  0.41800000000E+01 0. -1.
         -5    1    3    3    0  502  0.43590304150E+02  0.15803090389E+02 -0.70229149756E+02  0.84258282425E+02  0.41800000000E+01 0. -1.
        -11    1    4    4    0    0  0.14230647453E+02  0.69372173633E+02  0.81539255846E+02  0.10799842612E+03  0.00000000000E+00 0.  1.
         11    1    4    4    0    0 -0.44312440731E+02  0.75784947564E+01  0.12243378432E+03  0.13042644490E+03  0.00000000000E+00 0. -1.
</event>
<event>
 8    1  0.3710605E-009  0.1424693E+03  0.7561462E-02  0.1210044E+00
         -1   -1    0    0    0  501 -0.00000000000E+00  0.00000000000E+00  0.33555542176E+03  0.33555542176E+03  0.00000000000E+00 0.  1.
          1   -1    0    0  501    0  0.00000000000E+00 -0.00000000000E+00 -0.10329596567E+03  0.10329596567E+03  0.00000000000E+00 0. -1.
         25    2    1    2    0    0 -0.21731450729E+02 -0.12093586370E+03  0.22602014716E+03  0.28606148565E+03  0.12509327547E+03 0.  0.
         23    2    1    2    0    0  0.21731450729E+02  0.12093586370E+03  0.62393089391E+01  0.15278990179E+03  0.90598488018E+02 0.  0.
          5    1    3    3  502    0  0.10899881789E+02 -0.12231963696E+03  0.10819143375E+03  0.16371853818E+03  0.41800000000E+01 0. -1.
         -5    1    3    3    0  502 -0.32631332518E+02  0.13837732544E+01  0.11782871341E+03  0.12234294746E+03  0.41800000000E+01 0. -1.
        -11    1    4    4    0    0  0.80481780660E+01  0.11306405070E+03 -0.26532685398E+02  0.11641407185E+03  0.00000000000E+00 0. -1.
         11    1    4    4    0    0  0.13683272663E+02  0.78718130077E+01  0.32771994337E+02  0.36375829937E+02  0.00000000000E+00 0.  1.
</event>
<event>
 8    1  0.3710605E-009  0.1287754E+03  0.7561462E-02  0.1229284E+00
          1   -1    0    0  501    0  0.00000000000E+00  0.00000000000E+00  0.57034297941E+02  0.57034297941E+02  0.00000000000E+00 0.  1.
         -1   -1    0    0    0  501 -0.00000000000E+00 -0.00000000000E+00 -0.40414207826E+03  0.40414207826E+03  0.00000000000E+00 0. -1.
         25    2    1    2    0    0 -0.64173418902E+01 -0.98306660907E+02 -0.13162580849E+03  0.20659519095E+03  0.12510330773E+03 0.  0.
         23    2    1    2    0    0  0.64173418902E+01  0.98306660907E+02 -0.21548197183E+03  0.25458118525E+03  0.93132796835E+02 0.  0.
          5    1    3    3  502    0 -0.31420780915E+02  0.19257254517E+02 -0.45342629038E+02  0.58579294404E+02  0.41800000000E+01 0. -1.
         -5    1    3    3    0  502  0.25003439025E+02 -0.11756391542E+03 -0.86283179450E+02  0.14801589654E+03  0.41800000000E+01 0. -1.
        -11    1    4    4    0    0 -0.63120338896E+01  0.41750298768E+02 -0.18365775297E+03  0.18844919593E+03  0.00000000000E+00 0. -1.
         11    1    4    4    0    0  0.12729375780E+02  0.56556362138E+02 -0.31824218851E+02  0.66131989321E+02  0.00000000000E+00 0.  1.
</event>
<event>
 8    1  0.3710605E-009  0.1147828E+03  0.7561462E-02  0.1251961E+00
          1   -1    0    0  501    0  0.00000000000E+00  0.00000000000E+00  0.23776007214E+03  0.23776007214E+03  0.00000000000E+00 0. -1.
         -1   -1    0    0    0  501 -0.00000000000E+00 -0.00000000000E+00 -0.59628208366E+02  0.59628208366E+02  0.00000000000E+00 0.  1.
         25    2    1    2    0    0  0.43329281315E+01 -0.47091348504E+02  0.11399491201E+03  0.17572246716E+03  0.12508867307E+03 0.  0.
         23    2    1    2    0    0 -0.43329281315E+01  0.47091348504E+02  0.64136951764E+02  0.12166581335E+03  0.91938306414E+02 0.  0.
          5    1    3    3  502    0  0.39944468972E+02 -0.72052229896E+02  0.44747406870E+02  0.93845017214E+02  0.41800000000E+01 0. -1.
         -5    1    3    3    0  502 -0.35611540840E+02  0.24960881392E+02  0.69247505141E+02  0.81877449943E+02  0.41800000000E+01 0. -1.
        -11    1    4    4    0    0 -0.46859173220E+02  0.36933415511E+02  0.37213756118E+02  0.70318723968E+02  0.00000000000E+00 0.  1.
         11    1    4    4    0    0  0.42526245089E+02  0.10157932993E+02  0.26923195647E+02  0.51347089381E+02  0.00000000000E+00 0. -1.
</event>
<event>
 8    1  0.3710605E-009  0.2023201E+03  0.7561462E-02  0.1147796E+00
         -1   -1    0    0    0  501 -0.00000000000E+00  0.00000000000E+00  0.19245952610E+03  0.19245952610E+03  0.00000000000E+00 0.  1.
          1   -1    0    0  501    0  0.00000000000E+00 -0.00000000000E+00 -0.36784820875E+03  0.36784820875E+03  0.00000000000E+00 0. -1.
         25    2    1    2    0    0 -0.15475844207E+03 -0.84776407713E+02  0.85505685936E+02  0.23258520059E+03  0.12508972184E+03 0.  0.
         23    2    1    2    0    0  0.15475844207E+03  0.84776407713E+02 -0.26089436858E+03  0.32772253426E+03  0.90548181663E+02 0.  0.
          5    1    3    3  502    0 -0.40430339379E+01 -0.61811076793E+02  0.11795974846E+02  0.63194720985E+02  0.41800000000E+01 0.  1.
         -5    1    3    3    0  502 -0.15071540814E+03 -0.22965330920E+02  0.73709711089E+02  0.16939047961E+03  0.41800000000E+01 0.  1.
        -11    1    4    4    0    0  0.12875123127E+03  0.97102900798E+02 -0.17905497997E+03  0.24096999554E+03  0.00000000000E+00 0.  1.
         11    1    4    4    0    0  0.26007210803E+02 -0.12326493085E+02 -0.81839388611E+02  0.86752538716E+02  0.00000000000E+00 0. -1.
</event>
<event>
 8    1  0.3710605E-009  0.7740230E+02  0.7561462E-02  0.1336589E+00
          2   -1    0    0  501    0  0.00000000000E+00  0.00000000000E+00  0.72844623360E+03  0.72844623360E+03  0.00000000000E+00 0. -1.
         -2   -1    0    0    0  501 -0.00000000000E+00 -0.00000000000E+00 -0.18151366774E+02  0.18151366774E+02  0.00000000000E+00 0.  1.
         25    2    1    2    0    0 -0.15226788464E+02 -0.31435001880E+01  0.52941877470E+03  0.54421810633E+03  0.12508945430E+03 0.  0.
         23    2    1    2    0    0  0.15226788464E+02  0.31435001880E+01  0.18087609213E+03  0.20237949404E+03  0.89440271831E+02 0.  0.
          5    1    3    3  502    0 -0.27846797016E+01 -0.37409775572E+02  0.48559863819E+03  0.48706339994E+03  0.41800000000E+01 0. -1.
         -5    1    3    3    0  502 -0.12442108763E+02  0.34266275384E+02  0.43820136508E+02  0.57154706392E+02  0.41800000000E+01 0. -1.
        -11    1    4    4    0    0 -0.28540824376E+02  0.18465026634E+02  0.12614508913E+03  0.13064501282E+03  0.00000000000E+00 0. -1.
         11    1    4    4    0    0  0.43767612840E+02 -0.15321526446E+02  0.54731003001E+02  0.71734481219E+02  0.00000000000E+00 0.  1.
</event>
<event>
 8    1  0.3710605E-009  0.1096952E+03  0.7561462E-02  0.1261135E+00
          1   -1    0    0  501    0  0.00000000000E+00  0.00000000000E+00  0.22315814323E+03  0.22315814323E+03  0.00000000000E+00 0. -1.
         -1   -1    0    0    0  501 -0.00000000000E+00 -0.00000000000E+00 -0.60898353778E+02  0.60898353778E+02  0.00000000000E+00 0.  1.
         25    2    1    2    0    0 -0.39866498650E+02 -0.65351075245E+01  0.10539218800E+03  0.16848676664E+03  0.12509289308E+03 0.  0.
         23    2    1    2    0    0  0.39866498650E+02  0.65351075245E+01  0.56867601455E+02  0.11556973036E+03  0.92143329309E+02 0.  0.
          5    1    3    3  502    0  0.73232416255E+01 -0.56676841687E+02  0.24892955633E+02  0.62474201809E+02  0.41800000000E+01 0.  1.
         -5    1    3    3    0  502 -0.47189740275E+02  0.50141734162E+02  0.80499232362E+02  0.10601256483E+03  0.41800000000E+01 0.  1.
        -11    1    4    4    0    0 -0.17603521980E+02  0.26889820405E+02  0.41871866606E+02  0.52784464008E+02  0.00000000000E+00 0. -1.
         11    1    4    4    0    0  0.57470020630E+02 -0.20354712881E+02  0.14995734850E+02  0.62785266356E+02  0.00000000000E+00 0.  1.
</event>
<event>
 8    1  0.3710605E-009  0.9436940E+02  0.7561462E-02  0.1292603E+00
          1   -1    0    0  501    0  0.00000000000E+00  0.00000000000E+00  0.67907597753E+03  0.67907597753E+03  0.00000000000E+00 0. -1.
         -1   -1    0    0    0  501 -0.00000000000E+00 -0.00000000000E+00 -0.21787905435E+02  0.21787905435E+02  0.00000000000E+00 0.  1.
         25    2    1    2    0    0 -0.46371069694E+02  0.30332040948E+02  0.35510951193E+03  0.38055361220E+03  0.12509187617E+03 0.  0.
         23    2    1    2    0    0  0.46371069694E+02 -0.30332040948E+02  0.30217856017E+03  0.32031027077E+03  0.90644793122E+02 0.  0.
          5    1    3    3  502    0 -0.61566141490E+02  0.27050795578E+02  0.78390243941E+02  0.10336652294E+03  0.41800000000E+01 0. -1.
         -5    1    3    3    0  502  0.15195071796E+02  0.32812453698E+01  0.27671926798E+03  0.27718708926E+03  0.41800000000E+01 0. -1.
        -11    1    4    4    0    0 -0.64225179361E+01 -0.48885693328E+02  0.12011326786E+03  0.12983935022E+03  0.00000000000E+00 0.  1.
         11    1    4    4    0    0  0.52793587630E+02  0.18553652379E+02  0.18206529231E+03  0.19047092055E+03  0.00000000000E+00 0. -1.
</event>
<event>
 8    1  0.3710605E-009  0.9619365E+02  0.7561462E-02  0.1288510E+00
         -2   -1    0    0    0  501 -0.00000000000E+00  0.00000000000E+00  0.31091271468E+03  0.31091271468E+03  0.00000000000E+00 0.  1.
          2   -1    0    0  501    0  0.00000000000E+00 -0.00000000000E+00 -0.64793714342E+02  0.64793714342E+02  0.00000000000E+00 0. -1.
         25    2    1    2    0    0  0.58253362812E+02 -0.48176316357E+01  0.22397996535E+03  0.26311855239E+03  0.12509070261E+03 0.  0.
         23    2    1    2    0    0 -0.58253362812E+02  0.48176316357E+01  0.22139034994E+02  0.11258787664E+03  0.93644162881E+02 0.  0.
          5    1    3    3  502    0  0.78429098955E+02 -0.52846707428E+01  0.62998744083E+02  0.10082343708E+03  0.41800000000E+01 0. -1.
         -5    1    3    3    0  502 -0.20175736144E+02  0.46703910713E+00  0.16098122126E+03  0.16229511531E+03  0.41800000000E+01 0. -1.
        -11    1    4    4    0    0 -0.49890661919E+02 -0.29350106022E+02 -0.16643639082E+02  0.60228876729E+02  0.00000000000E+00 0. -1.
         11    1    4    4    0    0 -0.83627008929E+01  0.34167737658E+02  0.38782674076E+02  0.52358999908E+02  0.00000000000E+00 0.  1.
</event>
<event>
 8    1  0.3710605E-009  0.1582442E+03  0.7561462E-02  0.1190693E+00
          2   -1    0    0  501    0  0.00000000000E+00  0.00000000000E+00  0.40561162456E+03  0.40561162456E+03  0.00000000000E+00 0. -1.
         -2   -1    0    0    0  501 -0.00000000000E+00 -0.00000000000E+00 -0.95280580792E+02  0.95280580792E+02  0.00000000000E+00 0.  1.
         25    2    1    2    0    0 -0.78743837725E+02 -0.13181003380E+03  0.23384504030E+03  0.30643941245E+03  0.12508850321E+03 0.  0.
         23    2    1    2    0    0  0.78743837725E+02  0.13181003380E+03  0.76486003471E+02  0.19445279291E+03  0.91582219638E+02 0.  0.
          5    1    3    3  502    0 -0.53120377406E+02 -0.71720159968E+02  0.22281035856E+03  0.24005725176E+03  0.41800000000E+01 0. -1.
         -5    1    3    3    0  502 -0.25623460319E+02 -0.60089873832E+02  0.11034681740E+02  0.66382160683E+02  0.41800000000E+01 0. -1.
        -11    1    4    4    0    0  0.42940367223E+02  0.26516468812E+02  0.65513735687E+02  0.82698535774E+02  0.00000000000E+00 0. -1.
         11    1    4    4    0    0  0.35803470502E+02  0.10529356499E+03  0.10972267784E+02  0.11175425714E+03  0.00000000000E+00 0.  1.
</event>
<event>
 8    1  0.3710605E-009  0.9771406E+02  0.7561462E-02  0.1285178E+00
          2   -1    0    0  501    0  0.00000000000E+00  0.00000000000E+00  0.56615713218E+02  0.56615713218E+02  0.00000000000E+00 0.  1.
         -2   -1    0    0    0  501 -0.00000000000E+00 -0.00000000000E+00 -0.48768199645E+03  0.48768199645E+03  0.00000000000E+00 0. -1.
         25    2    1    2    0    0 -0.34899324397E+02  0.70306984853E+02 -0.38963341278E+03  0.41668069603E+03  0.12509025194E+03 0.  0.
         23    2    1    2    0    0  0.34899324397E+02 -0.70306984853E+02 -0.41432870454E+02  0.12761701364E+03  0.91697243432E+02 0.  0.
          5    1    3    3  502    0 -0.73079667776E+01  0.29462926360E+02 -0.35494015990E+03  0.35626038219E+03  0.41800000000E+01 0. -1.
         -5    1    3    3    0  502 -0.27591357619E+02  0.40844058493E+02 -0.34693252878E+02  0.60420313842E+02  0.41800000000E+01 0. -1.
        -11    1    4    4    0    0  0.33509833183E+02 -0.89762681943E+02 -0.18626657206E+02  0.97607378554E+02  0.00000000000E+00 0.  1.
         11    1    4    4    0    0  0.13894912142E+01  0.19455697090E+02 -0.22806213248E+02  0.30009635083E+02  0.00000000000E+00 0. -1.
</event>
<event>
 8    1  0.3710605E-009  0.1242937E+03  0.7561462E-02  0.1236177E+00
         -2   -1    0    0    0  501 -0.00000000000E+00  0.00000000000E+00  0.59863771620E+02  0.59863771620E+02  0.00000000000E+00 0.  1.
          2   -1    0    0  501    0  0.00000000000E+00 -0.00000000000E+00 -0.78211841435E+03  0.78211841435E+03  0.00000000000E+00 0. -1.
         25    2    1    2    0    0 -0.13225485009E+02 -0.10976686290E+03 -0.66785131919E+03  0.68840163034E+03  0.12509093680E+03 0.  0.
         23    2    1    2    0    0  0.13225485009E+02  0.10976686290E+03 -0.54403323550E+02  0.15358055564E+03  0.91671084930E+02 0.  0.
          5    1    3    3  502    0 -0.10392566180E+02 -0.11668172214E+03 -0.66949832280E+03  0.67968235695E+03  0.41800000000E+01 0. -1.
         -5    1    3    3    0  502 -0.28329188287E+01  0.69148592447E+01  0.16470036188E+01  0.87192733863E+01  0.41800000000E+01 0. -1.
        -11    1    4    4    0    0  0.32968047067E+02  0.84760899163E+02 -0.47953856988E+00  0.90947963758E+02  0.00000000000E+00 0.  1.
         11    1    4    4    0    0 -0.19742562058E+02  0.25005963734E+02 -0.53923784980E+02  0.62632591879E+02  0.00000000000E+00 0. -1.
</event>
<event>
 8    1  0.3710605E-009  0.6705205E+02  0.7561462E-02  0.1370415E+00
          1   -1    0    0  501    0  0.00000000000E+00  0.00000000000E+00  0.11792842822E+03  0.11792842822E+03  0.00000000000E+00 0. -1.
         -1   -1    0    0    0  501 -0.00000000000E+00 -0.00000000000E+00 -0.15283397291E+03  0.15283397291E+03  0.00000000000E+00 0.  1.
         25    2    1    2    0    0  0.25088417352E+02  0.16060526206E+02  0.55618278054E+02  0.14010370132E+03  0.12509310566E+03 0.  0.
         23    2    1    2    0    0 -0.25088417352E+02 -0.16060526206E+02 -0.90523822737E+02  0.13065869981E+03  0.89385480734E+02 0.  0.
          5    1    3    3  502    0 -0.31720955564E+01 -0.74140641778E+01  0.89495591714E+02  0.89955343777E+02  0.41800000000E+01 0.  1.
         -5    1    3    3    0  502  0.28260512909E+02  0.23474590384E+02 -0.33877313660E+02  0.50148357544E+02  0.41800000000E+01 0.  1.
        -11    1    4    4    0    0  0.30703249264E+02 -0.39703553881E+01 -0.11186908425E+02  0.32918082529E+02  0.00000000000E+00 0. -1.
         11    1    4    4    0    0 -0.55791666616E+02 -0.12090170818E+02 -0.79336914311E+02  0.97740617282E+02  0.00000000000E+00 0.  1.
</event>
<event>
 8    1  0.3710605E-009  0.7846753E+02  0.7561462E-02  0.1333457E+00
         -2   -1    0    0    0  501 -0.00000000000E+00  0.00000000000E+00  0.18752155433E+03  0.18752155433E+03  0.00000000000E+00 0. -1.
          2   -1    0    0  501    0  0.00000000000E+00 -0.00000000000E+00 -0.10758289345E+03  0.10758289345E+03  0.00000000000E+00 0.  1.
         25    2    1    2    0    0 -0.55166197026E+01  0.43461721678E+02 -0.39785999427E+02  0.13839751258E+03  0.12510632036E+03 0.  0.
         23    2    1    2    0    0  0.55166197026E+01 -0.43461721678E+02  0.11972466031E+03  0.15670693520E+03  0.91124721738E+02 0.  0.
          5    1    3    3  502    0 -0.58626379080E+01  0.63428170511E+02  0.26444172210E+02  0.69096092375E+02  0.41800000000E+01 0. -1.
         -5    1    3    3    0  502  0.34601820537E+00 -0.19966448833E+02 -0.66230171637E+02  0.69301420207E+02  0.41800000000E+01 0. -1.
        -11    1    4    4    0    0 -0.12181668344E+02 -0.51742824144E+02  0.22814448305E+02  0.57846451452E+02  0.00000000000E+00 0.  1.
         11    1    4    4    0    0  0.17698288047E+02  0.82811024666E+01  0.96910212001E+02  0.98860483753E+02  0.00000000000E+00 0. -1.
</event>
<event>
 8    1  0.3710605E-009  0.1045505E+03  0.7561462E-02  0.1271008E+00
         -2   -1    0    0    0  501 -0.00000000000E+00  0.00000000000E+00  0.16088625130E+03  0.16088625130E+03  0.00000000000E+00 0.  1.
          2   -1    0    0  501    0  0.00000000000E+00 -0.00000000000E+00 -0.14814038898E+03  0.14814038898E+03  0.00000000000E+00 0. -1.
         25    2    1    2    0    0 -0.81664298400E+02  0.18708329999E+02  0.77732368491E+02  0.16943537962E+03  0.12508783918E+03 0.  0.
         23    2    1    2    0    0  0.81664298400E+02 -0.18708329999E+02 -0.64986506174E+02  0.13959126066E+03  0.90793253188E+02 0.  0.
          5    1    3    3  502    0 -0.28609740805E+02  0.14297076388E+02 -0.33218610325E+02  0.46301966849E+02  0.41800000000E+01 0. -1.
         -5    1    3    3    0  502 -0.53054557596E+02  0.44112536119E+01  0.11095097882E+03  0.12313341277E+03  0.41800000000E+01 0. -1.
        -11    1    4    4    0    0  0.20882772887E+01  0.30047438320E+02 -0.18257734007E+02  0.35221503413E+02  0.00000000000E+00 0. -1.
         11    1    4    4    0    0  0.79576021112E+02 -0.48755768319E+02 -0.46728772168E+02  0.10436975725E+03  0.00000000000E+00 0.  1.
</event>
<event>
 8    1  0.3710605E-009  0.1018332E+03  0.7561462E-02  0.1276488E+00
          1   -1    0    0  501    0  0.00000000000E+00  0.00000000000E+00  0.10382913108E+03  0.10382913108E+03  0.00000000000E+00 0. -1.
         -1   -1    0    0    0  501 -0.00000000000E+00 -0.00000000000E+00 -0.22006255744E+03  0.22006255744E+03  0.00000000000E+00 0.  1.
         25    2    1    2    0    0 -0.46442667578E+02 -0.51694224176E+01 -0.16359678525E+03  0.21117505021E+03  0.12508936561E+03 0.  0.
         23    2    1    2    0    0  0.46442667578E+02  0.51694224176E+01  0.47363358885E+02  0.11271663831E+03  0.90984111174E+02 0.  0.
          5    1    3    3  502    0  0.31756638070E+01 -0.58197771536E+02 -0.53553810606E+02  0.79262528869E+02  0.41800000000E+01 0.  1.
         -5    1    3    3    0  502 -0.49618331384E+02  0.53028349118E+02 -0.11004297464E+03  0.13191252134E+03  0.41800000000E+01 0.  1.
        -11    1    4    4    0    0 -0.97552031993E+00  0.22113718946E+02 -0.19165855562E+02  0.29279655478E+02  0.00000000000E+00 0.  1.
         11    1    4    4    0    0  0.47418187897E+02 -0.16944296528E+02  0.66529214447E+02  0.83436982827E+02  0.00000000000E+00 0. -1.
</event>
<event>
 8    1  0.3710605E-009  0.8751224E+02  0.7561462E-02  0.1308990E+00
          2   -1    0    0  501    0  0.00000000000E+00  0.00000000000E+00  0.42436562273E+03  0.42436562273E+03  0.00000000000E+00 0. -1.
         -2   -1    0    0    0  501 -0.00000000000E+00 -0.00000000000E+00 -0.40017239280E+02  0.40017239280E+02  0.00000000000E+00 0.  1.
         25    2    1    2    0    0 -0.54143666615E+02  0.29506765883E+02  0.27639277425E+03  0.30958505120E+03  0.12509097649E+03 0.  0.
         23    2    1    2    0    0  0.54143666615E+02 -0.29506765883E+02  0.10795560920E+03  0.15479781081E+03  0.92226692491E+02 0.  0.
          5    1    3    3  502    0 -0.39545985122E+02  0.28504642617E+02  0.28693250953E+03  0.29107410914E+03  0.41800000000E+01 0.  1.
         -5    1    3    3    0  502 -0.14597681493E+02  0.10021232659E+01 -0.10539735276E+02  0.18510942053E+02  0.41800000000E+01 0.  1.
        -11    1    4    4    0    0 -0.23534593102E+02 -0.23036503793E+02  0.34439735325E+02  0.47651368802E+02  0.00000000000E+00 0.  1.
         11    1    4    4    0    0  0.77678259717E+02 -0.64702620894E+01  0.73515873876E+02  0.10714644201E+03  0.00000000000E+00 0. -1.
</event>
<event>
 8    1  0.3710605E-009  0.2707690E+03  0.7561462E-02  0.1100840E+00
         -1   -1    0    0    0  501 -0.00000000000E+00  0.00000000000E+00  0.53476783778E+02  0.53476783778E+02  0.00000000000E+00 0.  1.
          1   -1    0    0  501    0  0.00000000000E+00 -0.00000000000E+00 -0.18353855957E+04  0.18353855957E+04  0.00000000000E+00 0. -1.
         25    2    1    2    0    0  0.11966852929E+03 -0.22865175629E+03 -0.13300333810E+04  0.13606022994E+04  0.12509052657E+03 0.  0.
         23    2    1    2    0    0 -0.11966852929E+03  0.22865175629E+03 -0.45187543088E+03  0.52826008009E+03  0.90912730887E+02 0.  0.
          5    1    3    3  502    0  0.26252081405E+02  0.48172886673E+01 -0.58521226630E+02  0.64456065770E+02  0.41800000000E+01 0. -1.
         -5    1    3    3    0  502  0.93416447880E+02 -0.23346904495E+03 -0.12715121544E+04  0.12961462336E+04  0.41800000000E+01 0. -1.
        -11    1    4    4    0    0 -0.59939683190E+02  0.63123035913E+02 -0.86509705034E+02  0.12272413108E+03  0.00000000000E+00 0.  1.
         11    1    4    4    0    0 -0.59728846095E+02  0.16552872037E+03 -0.36536572584E+03  0.40553594902E+03  0.00000000000E+00 0. -1.
</event>
<event>
 8    1  0.3710605E-009  0.8918498E+02  0.7561462E-02  0.1304837E+00
          2   -1    0    0  501    0  0.00000000000E+00  0.00000000000E+00  0.13236288031E+03  0.13236288031E+03  0.00000000000E+00 0. -1.
         -2   -1    0    0    0  501 -0.00000000000E+00 -0.00000000000E+00 -0.99099689978E+02  0.99099689978E+02  0.00000000000E+00 0.  1.
         25    2    1    2    0    0  0.35522835120E+02  0.11895008166E+02  0.30626911016E+02  0.13412118570E+03  0.12508845566E+03 0.  0.
         23    2    1    2    0    0 -0.35522835120E+02 -0.11895008166E+02  0.26362793208E+01  0.97341384595E+02  0.89805524062E+02 0.  0.
          5    1    3    3  502    0 -0.37761916555E+02 -0.22014652325E+02  0.30145486228E+02  0.53261900068E+02  0.41800000000E+01 0. -1.
         -5    1    3    3    0  502  0.73284751675E+02  0.33909660491E+02  0.48142478803E+00  0.80859285629E+02  0.41800000000E+01 0. -1.
        -11    1    4    4    0    0 -0.30381560834E+02 -0.25114598380E+02  0.40737129268E+02  0.56685941745E+02  0.00000000000E+00 0. -1.
         11    1    4    4    0    0 -0.51412742858E+01  0.13219590214E+02 -0.38100849947E+02  0.40655442851E+02  0.00000000000E+00 0.  1.
</event>
<event>
 8    1  0.3710605E-009  0.1808546E+03  0.7561462E-02  0.1166979E+00
         -3   -1    0    0    0  501 -0.00000000000E+00  0.00000000000E+00  0.11811509830E+04  0.11811509830E+04  0.00000000000E+00 0.  1.
          3   -1    0    0  501    0  0.00000000000E+00 -0.00000000000E+00 -0.40095798446E+02  0.40095798446E+02  0.00000000000E+00 0. -1.
         25    2    1    2    0    0  0.70351085382E+02  0.14257040573E+03  0.88487012890E+03  0.90769960741E+03  0.12509131248E+03 0.  0.
         23    2    1    2    0    0 -0.70351085382E+02 -0.14257040573E+03  0.25618505564E+03  0.31354717403E+03  0.86054934788E+02 0.  0.
          5    1    3    3  502    0 -0.60065354625E+00 -0.22074588653E+02  0.12013625756E+03  0.12222046077E+03  0.41800000000E+01 0. -1.
         -5    1    3    3    0  502  0.70951738928E+02  0.16464499439E+03  0.76473387134E+03  0.78547914664E+03  0.41800000000E+01 0. -1.
        -11    1    4    4    0    0 -0.27148754352E+02 -0.37484087259E+02  0.15376108703E+03  0.16057578754E+03  0.00000000000E+00 0.  1.
         11    1    4    4    0    0 -0.43202331030E+02 -0.10508631847E+03  0.10242396861E+03  0.15297138648E+03  0.00000000000E+00 0. -1.
</event>
<event>
 8    1  0.3710605E-009  0.9437970E+02  0.7561462E-02  0.1292579E+00
         -1   -1    0    0    0  501 -0.00000000000E+00  0.00000000000E+00  0.23065912452E+02  0.23065912452E+02  0.00000000000E+00 0.  1.
          1   -1    0    0  501    0  0.00000000000E+00 -0.00000000000E+00 -0.88312225224E+03  0.88312225224E+03  0.00000000000E+00 0. -1.
         25    2    1    2    0    0 -0.91965972304E+02 -0.60913635414E+01 -0.48925253438E+03  0.51333423492E+03  0.12509656102E+03 0.  0.
         23    2    1    2    0    0  0.91965972304E+02  0.60913635414E+01 -0.37080380541E+03  0.39285392977E+03  0.91344968420E+02 0.  0.
          5    1    3    3  502    0 -0.29041670577E+02  0.89913526936E+01 -0.14089793137E+02  0.33767702377E+02  0.41800000000E+01 0. -1.
         -5    1    3    3    0  502 -0.62924301726E+02 -0.15082716235E+02 -0.47516274124E+03  0.47956653255E+03  0.41800000000E+01 0. -1.
        -11    1    4    4    0    0  0.10330862772E+02  0.52553269237E+01  0.15152015256E+01  0.11689355087E+02  0.00000000000E+00 0.  1.
         11    1    4    4    0    0  0.81635109531E+02  0.83603661764E+00 -0.37231900694E+03  0.38116457468E+03  0.00000000000E+00 0. -1.
</event>
<event>
 8    1  0.3710605E-009  0.1226056E+03  0.7561462E-02  0.1238859E+00
         -1   -1    0    0    0  501 -0.00000000000E+00  0.00000000000E+00  0.37187284431E+02  0.37187284431E+02  0.00000000000E+00 0.  1.
          1   -1    0    0  501    0  0.00000000000E+00 -0.00000000000E+00 -0.67514972070E+03  0.67514972070E+03  0.00000000000E+00 0. -1.
         25    2    1    2    0    0 -0.41891683573E+02 -0.97164722501E+02 -0.24294597277E+03  0.29302925994E+03  0.12508998780E+03 0.  0.
         23    2    1    2    0    0  0.41891683573E+02  0.97164722501E+02 -0.39501646350E+03  0.41930774519E+03  0.92655719118E+02 0.  0.
          5    1    3    3  502    0 -0.50029909421E+02 -0.82250554832E+02 -0.25445274240E+03  0.27208788309E+03  0.41800000000E+01 0. -1.
         -5    1    3    3    0  502  0.81382258475E+01 -0.14914167669E+02  0.11506769635E+02  0.20941376857E+02  0.41800000000E+01 0. -1.
        -11    1    4    4    0    0 -0.22544489283E+02  0.36204409586E+02 -0.66298896621E+02  0.78832461357E+02  0.00000000000E+00 0.  1.
         11    1    4    4    0    0  0.64436172856E+02  0.60960312915E+02 -0.32871756688E+03  0.34047528383E+03  0.00000000000E+00 0. -1.
</event>
<event>
 8    1  0.3710605E-009  0.1055764E+03  0.7561462E-02  0.1268988E+00
         -2   -1    0    0    0  501 -0.00000000000E+00  0.00000000000E+00  0.45343994013E+02  0.45343994013E+02  0.00000000000E+00 0.  1.
          2   -1    0    0  501    0  0.00000000000E+00 -0.00000000000E+00 -0.34444151773E+03  0.34444151773E+03  0.00000000000E+00 0. -1.
         25    2    1    2    0    0  0.57453155075E+01  0.60329736322E+02 -0.14008758439E+03  0.19734376700E+03  0.12508934943E+03 0.  0.
         23    2    1    2    0    0 -0.57453155075E+01 -0.60329736322E+02 -0.15900993933E+03  0.19244174474E+03  0.89872012207E+02 0.  0.
          5    1    3    3  502    0 -0.53423589285E+02  0.16937345694E+02 -0.26696536118E+02  0.62218413769E+02  0.41800000000E+01 0.  1.
         -5    1    3    3    0  502  0.59168904793E+02  0.43392390628E+02 -0.11339104827E+03  0.13512535323E+03  0.41800000000E+01 0.  1.
        -11    1    4    4    0    0  0.24491696554E+02 -0.26384354738E+02 -0.11052518710E+02  0.37658140487E+02  0.00000000000E+00 0.  1.
         11    1    4    4    0    0 -0.30237012062E+02 -0.33945381584E+02 -0.14795742062E+03  0.15478360425E+03  0.00000000000E+00 0. -1.
</event>
<event>
 8    1  0.3710605E-009  0.2285218E+03  0.7561462E-02  0.1127685E+00
          2   -1    0    0  501    0  0.00000000000E+00  0.00000000000E+00  0.12974459896E+04  0.12974459896E+04  0.00000000000E+00 0. -1.
         -2   -1    0    0    0  501 -0.00000000000E+00 -0.00000000000E+00 -0.41145517738E+02  0.41145517738E+02  0.00000000000E+00 0.  1.
         25    2    1    2    0    0 -0.13207175827E+02  0.20298725967E+03  0.63212418007E+03  0.67572437133E+03  0.12507673604E+03 0.  0.
         23    2    1    2    0    0  0.13207175827E+02 -0.20298725967E+03  0.62417629180E+03  0.66286713602E+03  0.91752600391E+02 0.  0.
          5    1    3    3  502    0  0.44581282342E+02  0.34314441727E+02  0.10422973021E+03  0.11851700598E+03  0.41800000000E+01 0. -1.
         -5    1    3    3    0  502 -0.57788458169E+02  0.16867281795E+03  0.52789444986E+03  0.55720736535E+03  0.41800000000E+01 0. -1.
        -11    1    4    4    0    0 -0.25790123927E+02 -0.14059703172E+02  0.64393370429E+02  0.70776492571E+02  0.00000000000E+00 0. -1.
         11    1    4    4    0    0  0.38997299754E+02 -0.18892755650E+03  0.55978292137E+03  0.59209064344E+03  0.00000000000E+00 0.  1.
</event>
<event>
 8    1  0.3710605E-009  0.9576541E+02  0.7561462E-02  0.1289461E+00
          2   -1    0    0  501    0  0.00000000000E+00  0.00000000000E+00  0.97981717454E+03  0.97981717454E+03  0.00000000000E+00 0.  1.
         -2   -1    0    0    0  501 -0.00000000000E+00 -0.00000000000E+00 -0.17634953258E+02  0.17634953258E+02  0.00000000000E+00 0. -1.
         25    2    1    2    0    0 -0.53862202680E+02  0.16899478461E+02  0.71840717585E+03  0.73139618314E+03  0.12507908359E+03 0.  0.
         23    2    1    2    0    0  0.53862202680E+02 -0.16899478461E+02  0.24377504543E+03  0.26605594466E+03  0.90403338779E+02 0.  0.
          5    1    3    3  502    0 -0.22034397187E+02 -0.24084086766E+02  0.61252247615E+03  0.61340591299E+03  0.41800000000E+01 0.  1.
         -5    1    3    3    0  502 -0.31827805493E+02  0.40983565227E+02  0.10588469969E+03  0.11799027015E+03  0.41800000000E+01 0.  1.
        -11    1    4    4    0    0  0.73191133756E+02  0.95408596546E+01  0.16654881065E+03  0.18217155758E+03  0.00000000000E+00 0.  1.
         11    1    4    4    0    0 -0.19328931076E+02 -0.26440338115E+02  0.77226234787E+02  0.83884387079E+02  0.00000000000E+00 0. -1.
</event>
<event>
 8    1  0.3710605E-009  0.1447952E+03  0.7561462E-02  0.1207019E+00
          2   -1    0    0  501    0  0.00000000000E+00  0.00000000000E+00  0.86085234077E+03  0.86085234077E+03  0.00000000000E+00 0. -1.
         -2   -1    0    0    0  501 -0.00000000000E+00 -0.00000000000E+00 -0.34746219388E+02  0.34746219388E+02  0.00000000000E+00 0.  1.
         25    2    1    2    0    0 -0.20838975053E+02  0.12164774991E+03  0.57377780196E+03  0.60008400496E+03  0.12508960407E+03 0.  0.
         23    2    1    2    0    0  0.20838975053E+02 -0.12164774991E+03  0.25232831942E+03  0.29551455520E+03  0.91797786543E+02 0.  0.
          5    1    3    3  502    0 -0.48301998631E+02  0.56336989756E+02  0.46013522509E+03  0.46609960014E+03  0.41800000000E+01 0.  1.
         -5    1    3    3    0  502  0.27463023578E+02  0.65310760152E+02  0.11364257687E+03  0.13398440482E+03  0.41800000000E+01 0.  1.
        -11    1    4    4    0    0  0.49014484890E+02 -0.84200894450E+02  0.21341340449E+03  0.23460070667E+03  0.00000000000E+00 0. -1.
         11    1    4    4    0    0 -0.28175509837E+02 -0.37446855458E+02  0.38914914929E+02  0.60913848525E+02  0.00000000000E+00 0.  1.
</event>
<event>
 8    1  0.3710605E-009  0.1006623E+03  0.7561462E-02  0.1278909E+00
         -1   -1    0    0    0  501 -0.00000000000E+00  0.00000000000E+00  0.26833440638E+02  0.26833440638E+02  0.00000000000E+00 0.  1.
          1   -1    0    0  501    0  0.00000000000E+00 -0.00000000000E+00 -0.82056262270E+03  0.82056262270E+03  0.00000000000E+00 0. -1.
         25    2    1    2    0    0 -0.70982722048E+02 -0.66347767476E+02 -0.41494333011E+03  0.44414647737E+03  0.12509017979E+03 0.  0.
         23    2    1    2    0    0  0.70982722048E+02  0.66347767476E+02 -0.37878585196E+03  0.40324958597E+03  0.98442540934E+02 0.  0.
          5    1    3    3  502    0 -0.60957193855E+02 -0.64134619545E+02 -0.12081379052E+03  0.14980812157E+03  0.41800000000E+01 0.  1.
         -5    1    3    3    0  502 -0.10025528193E+02 -0.22131479307E+01 -0.29412953958E+03  0.29433835580E+03  0.41800000000E+01 0.  1.
        -11    1    4    4    0    0  0.31459590314E+02  0.10350283254E+02 -0.21583305326E+02  0.39530662212E+02  0.00000000000E+00 0.  1.
         11    1    4    4    0    0  0.39523131734E+02  0.55997484222E+02 -0.35720254663E+03  0.36371892376E+03  0.00000000000E+00 0. -1.
</event>
<event>
 8    1  0.3710605E-009  0.2346280E+03  0.7561462E-02  0.1123424E+00
         -1   -1    0    0    0  501 -0.00000000000E+00  0.00000000000E+00  0.10524278750E+03  0.10524278750E+03  0.00000000000E+00 0.  1.
          1   -1    0    0  501    0  0.00000000000E+00 -0.00000000000E+00 -0.63660881093E+03  0.63660881093E+03  0.00000000000E+00 0. -1.
         25    2    1    2    0    0 -0.11331844128E+03 -0.17477250035E+03 -0.42526082495E+03  0.48977545491E+03  0.12508689373E+03 0.  0.
         23    2    1    2    0    0  0.11331844128E+03  0.17477250035E+03 -0.10610519848E+03  0.25207614352E+03  0.94326947236E+02 0.  0.
          5    1    3    3  502    0  0.24715938575E+02 -0.84437736838E+01 -0.38829108925E+02  0.46982411960E+02  0.41800000000E+01 0.  1.
         -5    1    3    3    0  502 -0.13803437985E+03 -0.16632872667E+03 -0.38643171602E+03  0.44279304295E+03  0.41800000000E+01 0.  1.
        -11    1    4    4    0    0  0.11369928603E+02  0.98862073002E+02 -0.30042168620E+02  0.10394958706E+03  0.00000000000E+00 0.  1.
         11    1    4    4    0    0  0.10194851268E+03  0.75910427348E+02 -0.76063029858E+02  0.14812655646E+03  0.00000000000E+00 0. -1.
</event>
<event>
 8    1  0.3710605E-009  0.8513009E+02  0.7561462E-02  0.1315093E+00
          1   -1    0    0  501    0  0.00000000000E+00  0.00000000000E+00  0.15882144986E+03  0.15882144986E+03  0.00000000000E+00 0. -1.
         -1   -1    0    0    0  501 -0.00000000000E+00 -0.00000000000E+00 -0.10450538787E+03  0.10450538787E+03  0.00000000000E+00 0.  1.
         25    2    1    2    0    0  0.41634247025E+02  0.48937697487E+02  0.13023917295E+01  0.14063513700E+03  0.12509291256E+03 0.  0.
         23    2    1    2    0    0 -0.41634247025E+02 -0.48937697487E+02  0.53013670257E+02  0.12269170073E+03  0.90080494192E+02 0.  0.
          5    1    3    3  502    0 -0.74136090893E+01  0.44725468455E+02  0.52496817267E+02  0.69488972877E+02  0.41800000000E+01 0.  1.
         -5    1    3    3    0  502  0.49047856114E+02  0.42122290316E+01 -0.51194425538E+02  0.71146164120E+02  0.41800000000E+01 0.  1.
        -11    1    4    4    0    0 -0.19818079344E+01 -0.32241640893E+02 -0.19965284550E+02  0.37974511943E+02  0.00000000000E+00 0.  1.
         11    1    4    4    0    0 -0.39652439090E+02 -0.16696056593E+02  0.72978954807E+02  0.84717188789E+02  0.00000000000E+00 0. -1.
</event>
<event>
 8    1  0.3710605E-009  0.7707998E+02  0.7561462E-02  0.1337548E+00
          2   -1    0    0  501    0  0.00000000000E+00  0.00000000000E+00  0.14096420522E+03  0.14096420522E+03  0.00000000000E+00 0. -1.
         -2   -1    0    0    0  501 -0.00000000000E+00 -0.00000000000E+00 -0.12929932716E+03  0.12929932716E+03  0.00000000000E+00 0.  1.
         25    2    1    2    0    0 -0.15477523780E+02  0.54560576981E+02  0.63125093997E+02  0.15115819957E+03  0.12509042131E+03 0.  0.
         23    2    1    2    0    0  0.15477523780E+02 -0.54560576981E+02 -0.51460215943E+02  0.11910533281E+03  0.91222344713E+02 0.  0.
          5    1    3    3  502    0  0.32856799677E+01  0.46702582873E+02  0.99064443880E+02  0.10965018642E+03  0.41800000000E+01 0.  1.
         -5    1    3    3    0  502 -0.18763203747E+02  0.78579941071E+01 -0.35939349883E+02  0.41508013157E+02  0.41800000000E+01 0.  1.
        -11    1    4    4    0    0  0.36357380323E+02 -0.54493166721E+02 -0.66520015911E+02  0.93361002779E+02  0.00000000000E+00 0.  1.
         11    1    4    4    0    0 -0.20879856544E+02 -0.67410259888E-01  0.15059799967E+02  0.25744330026E+02  0.00000000000E+00 0. -1.
</event>
<event>
 8    1  0.3710605E-009  0.1045872E+03  0.7561462E-02  0.1270935E+00
         -1   -1    0    0    0  501 -0.00000000000E+00  0.00000000000E+00  0.91133735501E+03  0.91133735501E+03  0.00000000000E+00 0.  1.
          1   -1    0    0  501    0  0.00000000000E+00 -0.00000000000E+00 -0.13977022658E+02  0.13977022658E+02  0.00000000000E+00 0. -1.
         25    2    1    2    0    0  0.41496678509E+00 -0.31438029372E+02  0.46425844406E+03  0.48184629226E+03  0.12510565373E+03 0.  0.
         23    2    1    2    0    0 -0.41496678509E+00  0.31438029372E+02  0.43310188829E+03  0.44346808541E+03  0.89989861908E+02 0.  0.
          5    1    3    3  502    0  0.29911293246E+02  0.33406283367E+02  0.87713870319E+02  0.98599496339E+02  0.41800000000E+01 0. -1.
         -5    1    3    3    0  502 -0.29496326461E+02 -0.64844312739E+02  0.37654457374E+03  0.38324679592E+03  0.41800000000E+01 0. -1.
        -11    1    4    4    0    0  0.40987442208E+02  0.30973337659E+02  0.18797976295E+03  0.19487357272E+03  0.00000000000E+00 0. -1.
         11    1    4    4    0    0 -0.41402408993E+02  0.46469171264E+00  0.24512212534E+03  0.24859451269E+03  0.00000000000E+00 0.  1.
</event>
<event>
 8    1  0.3710605E-009  0.1516886E+03  0.7561462E-02  0.1198413E+00
         -1   -1    0    0    0  501 -0.00000000000E+00  0.00000000000E+00  0.52979155457E+03  0.52979155457E+03  0.00000000000E+00 0.  1.
          1   -1    0    0  501    0  0.00000000000E+00 -0.00000000000E+00 -0.48637678049E+02  0.48637678049E+02  0.00000000000E+00 0. -1.
         25    2    1    2    0    0 -0.54149153928E+02  0.10349316555E+03  0.27143027340E+03  0.32088079629E+03  0.12508847239E+03 0.  0.
         23    2    1    2    0    0  0.54149153928E+02 -0.10349316555E+03  0.20972360312E+03  0.25754843633E+03  0.93296522772E+02 0.  0.
          5    1    3    3  502    0  0.52374339380E+01 -0.17803741178E+02  0.10401963741E+03  0.10574479316E+03  0.41800000000E+01 0. -1.
         -5    1    3    3    0  502 -0.59386587866E+02  0.12129690673E+03  0.16741063599E+03  0.21513600313E+03  0.41800000000E+01 0. -1.
        -11    1    4    4    0    0 -0.10596094266E+02 -0.79475291758E+02  0.12014389731E+03  0.14444083659E+03  0.00000000000E+00 0.  1.
         11    1    4    4    0    0  0.64745248194E+02 -0.24017873793E+02  0.89579705809E+02  0.11310759974E+03  0.00000000000E+00 0. -1.
</event>
<event>
 8    1  0.3710605E-009  0.2082128E+03  0.7561462E-02  0.1142989E+00
          2   -1    0    0  501    0  0.00000000000E+00  0.00000000000E+00  0.38653447777E+02  0.38653447777E+02  0.00000000000E+00 0. -1.
         -2   -1    0    0    0  501 -0.00000000000E+00 -0.00000000000E+00 -0.18430348480E+04  0.18430348480E+04  0.00000000000E+00 0.  1.
         25    2    1    2    0    0 -0.17768063711E+03  0.34774386604E+02 -0.15002934674E+04  0.15163473877E+04  0.12509694283E+03 0.  0.
         23    2    1    2    0    0  0.17768063711E+03 -0.34774386604E+02 -0.30408793277E+03  0.36534090801E+03  0.90690911597E+02 0.  0.
          5    1    3    3  502    0 -0.23316859920E+02  0.54900194459E+02 -0.56787347012E+03  0.57101265991E+03  0.41800000000E+01 0. -1.
         -5    1    3    3    0  502 -0.15436377719E+03 -0.20125807856E+02 -0.93241999730E+03  0.94533472781E+03  0.41800000000E+01 0. -1.
        -11    1    4    4    0    0  0.77714863763E+02 -0.59560676242E+02 -0.17109447794E+03  0.19713039996E+03  0.00000000000E+00 0.  1.
         11    1    4    4    0    0  0.99965773352E+02  0.24786289638E+02 -0.13299345482E+03  0.16821050806E+03  0.00000000000E+00 0. -1.
</event>
<event>
 8    1  0.3710605E-009  0.1805456E+03  0.7561462E-02  0.1167276E+00
          1   -1    0    0  501    0  0.00000000000E+00  0.00000000000E+00  0.58991736624E+02  0.58991736624E+02  0.00000000000E+00 0. -1.
         -1   -1    0    0    0  501 -0.00000000000E+00 -0.00000000000E+00 -0.66172406460E+03  0.66172406460E+03  0.00000000000E+00 0.  1.
         25    2    1    2    0    0 -0.53484538175E+02 -0.14548380189E+03 -0.21314107631E+03  0.29172602800E+03  0.12509526198E+03 0.  0.
         23    2    1    2    0    0  0.53484538175E+02  0.14548380189E+03 -0.38959125167E+03  0.42898977322E+03  0.90690405842E+02 0.  0.
          5    1    3    3  502    0 -0.54189548650E+02 -0.11529498645E+02 -0.25485975369E+02  0.61126457957E+02  0.41800000000E+01 0. -1.
         -5    1    3    3    0  502  0.70501047556E+00 -0.13395430325E+03 -0.18765510094E+03  0.23059957005E+03  0.41800000000E+01 0. -1.
        -11    1    4    4    0    0  0.44480230327E+02  0.25665596223E+02 -0.64776729004E+02  0.82663403873E+02  0.00000000000E+00 0.  1.
         11    1    4    4    0    0  0.90043078479E+01  0.11981820567E+03 -0.32481452266E+03  0.34632636935E+03  0.00000000000E+00 0. -1.
</event>
<event>
 8    1  0.3710605E-009  0.2893210E+03  0.7561462E-02  0.1090704E+00
         -2   -1    0    0    0  501 -0.00000000000E+00  0.00000000000E+00  0.64519432077E+02  0.64519432077E+02  0.00000000000E+00 0.  1.
          2   -1    0    0  501    0  0.00000000000E+00 -0.00000000000E+00 -0.14047191489E+04  0.14047191489E+04  0.00000000000E+00 0. -1.
         25    2    1    2    0    0  0.14464095226E+03  0.23338108926E+03 -0.54033216106E+03  0.61886670709E+03  0.12509763779E+03 0.  0.
         23    2    1    2    0    0 -0.14464095226E+03 -0.23338108926E+03 -0.79986755576E+03  0.85037187388E+03  0.89199098831E+02 0.  0.
          5    1    3    3  502    0  0.10142196096E+03  0.76258805245E+02 -0.15424339933E+03  0.19977566964E+03  0.41800000000E+01 0. -1.
         -5    1    3    3    0  502  0.43218991300E+02  0.15712228401E+03 -0.38608876173E+03  0.41909103746E+03  0.41800000000E+01 0. -1.
        -11    1    4    4    0    0 -0.26010446443E+02 -0.12599908794E+03 -0.35089072880E+03  0.37373335019E+03  0.00000000000E+00 0. -1.
         11    1    4    4    0    0 -0.11863050582E+03 -0.10738200132E+03 -0.44897682696E+03  0.47663852369E+03  0.00000000000E+00 0.  1.
</event>
<event>
 8    1  0.3710605E-009  0.1042007E+03  0.7561462E-02  0.1271703E+00
         -1   -1    0    0    0  501 -0.00000000000E+00  0.00000000000E+00  0.13241163867E+03  0.13241163867E+03  0.00000000000E+00 0.  1.
          1   -1    0    0  501    0  0.00000000000E+00 -0.00000000000E+00 -0.11327920919E+03  0.11327920919E+03  0.00000000000E+00 0. -1.
         25    2    1    2    0    0 -0.29442482781E+02 -0.26067493009E+02 -0.25386388862E+02  0.13356181075E+03  0.12509162469E+03 0.  0.
         23    2    1    2    0    0  0.29442482781E+02  0.26067493009E+02  0.44518818338E+02  0.11212903711E+03  0.95103216523E+02 0.  0.
          5    1    3    3  502    0 -0.42840852859E+02 -0.71561261738E+02 -0.15459256892E+02  0.84928286683E+02  0.41800000000E+01 0. -1.
         -5    1    3    3    0  502  0.13398370078E+02  0.45493768729E+02 -0.99271319698E+01  0.48633524066E+02  0.41800000000E+01 0. -1.
        -11    1    4    4    0    0  0.40277054598E+01  0.45257484048E+02  0.61165226394E+02  0.76194797679E+02  0.00000000000E+00 0.  1.
         11    1    4    4    0    0  0.25414777322E+02 -0.19189991038E+02 -0.16646408055E+02  0.35934239431E+02  0.00000000000E+00 0. -1.
</event>
<event>
 8    1  0.3710605E-009  0.1536762E+03  0.7561462E-02  0.1196027E+00
          1   -1    0    0  501    0  0.00000000000E+00  0.00000000000E+00  0.66998568404E+03  0.66998568404E+03  0.00000000000E+00 0. -1.
         -1   -1    0    0    0  501 -0.00000000000E+00 -0.00000000000E+00 -0.67811123565E+02  0.67811123565E+02  0.00000000000E+00 0.  1.
         25    2    1    2    0    0  0.91783235867E+02  0.78122672225E+02  0.54731025450E+03  0.57421541686E+03  0.12509003147E+03 0.  0.
         23    2    1    2    0    0 -0.91783235867E+02 -0.78122672225E+02  0.54864305971E+02  0.16358139075E+03  0.96028459463E+02 0.  0.
          5    1    3    3  502    0 -0.28233545277E+02  0.27528060149E+02  0.83344745672E+02  0.92297054155E+02  0.41800000000E+01 0. -1.
         -5    1    3    3    0  502  0.12001678114E+03  0.50594612076E+02  0.46396550883E+03  0.48191836271E+03  0.41800000000E+01 0. -1.
        -11    1    4    4    0    0 -0.41309269951E+02  0.34584931387E+01 -0.15872955881E+02  0.44388823898E+02  0.00000000000E+00 0.  1.
         11    1    4    4    0    0 -0.50473965915E+02 -0.81581165363E+02  0.70737261852E+02  0.11919256685E+03  0.00000000000E+00 0. -1.
</event>
<event>
 8    1  0.3710605E-009  0.1059934E+03  0.7561462E-02  0.1268175E+00
          2   -1    0    0  501    0  0.00000000000E+00  0.00000000000E+00  0.14747862922E+03  0.14747862922E+03  0.00000000000E+00 0. -1.
         -2   -1    0    0    0  501 -0.00000000000E+00 -0.00000000000E+00 -0.15290111464E+03  0.15290111464E+03  0.00000000000E+00 0.  1.
         25    2    1    2    0    0 -0.98416965040E+02 -0.28617501287E+02  0.21868804464E+02  0.16319131495E+03  0.12509316640E+03 0.  0.
         23    2    1    2    0    0  0.98416965040E+02  0.28617501287E+02 -0.27291289877E+02  0.13718842891E+03  0.87011436806E+02 0.  0.
          5    1    3    3  502    0 -0.41011145848E+02 -0.54266295967E+01  0.72183293487E+02  0.83302236772E+02  0.41800000000E+01 0.  1.
         -5    1    3    3    0  502 -0.57405819192E+02 -0.23190871691E+02 -0.50314489022E+02  0.79889078180E+02  0.41800000000E+01 0.  1.
        -11    1    4    4    0    0  0.46655027752E+02 -0.45504878597E+01 -0.52820464932E+02  0.70621526959E+02  0.00000000000E+00 0.  1.
         11    1    4    4    0    0  0.51761937288E+02  0.33167989147E+02  0.25529175056E+02  0.66566901948E+02  0.00000000000E+00 0. -1.
</event>
<event>
 8    1  0.3710605E-009  0.1995215E+03  0.7561462E-02  0.1150143E+00
         -3   -1    0    0    0  501 -0.00000000000E+00  0.00000000000E+00  0.50358317089E+02  0.50358317089E+02  0.00000000000E+00 0.  1.
          3   -1    0    0  501    0  0.00000000000E+00 -0.00000000000E+00 -0.86297304017E+03  0.86297304017E+03  0.00000000000E+00 0. -1.
         25    2    1    2    0    0 -0.52972313562E+02  0.16260830491E+03 -0.31810036196E+03  0.38220264693E+03  0.12507396295E+03 0.  0.
         23    2    1    2    0    0  0.52972313562E+02 -0.16260830491E+03 -0.49451436112E+03  0.53112871034E+03  0.91135760041E+02 0.  0.
          5    1    3    3  502    0 -0.11111060524E+02 -0.19358740846E+02 -0.55437773496E+02  0.59908560685E+02  0.41800000000E+01 0. -1.
         -5    1    3    3    0  502 -0.41861253038E+02  0.18196704575E+03 -0.26266258847E+03  0.32229408624E+03  0.41800000000E+01 0. -1.
        -11    1    4    4    0    0  0.69116647487E+01 -0.13639489704E+03 -0.40129354658E+03  0.42389603628E+03  0.00000000000E+00 0. -1.
         11    1    4    4    0    0  0.46060648814E+02 -0.26213407871E+02 -0.93220814545E+02  0.10723267406E+03  0.00000000000E+00 0.  1.
</event>
<event>
 8    1  0.3710605E-009  0.1133222E+03  0.7561462E-02  0.1254539E+00
         -2   -1    0    0    0  501 -0.00000000000E+00  0.00000000000E+00  0.21958477851E+02  0.21958477851E+02  0.00000000000E+00 0.  1.
          2   -1    0    0  501    0  0.00000000000E+00 -0.00000000000E+00 -0.79467681019E+03  0.79467681019E+03  0.00000000000E+00 0. -1.
         25    2    1    2    0    0 -0.74214512042E+02  0.13724984785E+02 -0.42348221294E+03  0.44797380458E+03  0.12508867219E+03 0.  0.
         23    2    1    2    0    0  0.74214512042E+02 -0.13724984785E+02 -0.34923611941E+03  0.36866148347E+03  0.90825400015E+02 0.  0.
          5    1    3    3  502    0 -0.68928711386E+02  0.49652684287E+02 -0.15316080157E+03  0.17519206560E+03  0.41800000000E+01 0.  1.
         -5    1    3    3    0  502 -0.52858006554E+01 -0.35927699502E+02 -0.27032141136E+03  0.27278173898E+03  0.41800000000E+01 0.  1.
        -11    1    4    4    0    0  0.36095326566E+02 -0.43602374315E+02 -0.10132575769E+03  0.11606441667E+03  0.00000000000E+00 0.  1.
         11    1    4    4    0    0  0.38119185476E+02  0.29877389530E+02 -0.24791036172E+03  0.25259706680E+03  0.00000000000E+00 0. -1.
</event>
<event>
 8    1  0.3710605E-009  0.2934416E+03  0.7561462E-02  0.1088566E+00
          2   -1    0    0  501    0  0.00000000000E+00  0.00000000000E+00  0.17443380093E+03  0.17443380093E+03  0.00000000000E+00 0. -1.
         -2   -1    0    0    0  501 -0.00000000000E+00 -0.00000000000E+00 -0.68129785614E+03  0.68129785614E+03  0.00000000000E+00 0.  1.
         25    2    1    2    0    0  0.28205878341E+03 -0.91603670337E+01 -0.55757153227E+02  0.31368453573E+03  0.12509219879E+03 0.  0.
         23    2    1    2    0    0 -0.28205878341E+03  0.91603670337E+01 -0.45110690199E+03  0.54204712133E+03  0.10332751376E+03 0.  0.
          5    1    3    3  502    0  0.20424365757E+03  0.42816250831E+02 -0.88190445600E+01  0.20891134709E+03  0.41800000000E+01 0.  1.
         -5    1    3    3    0  502  0.77815125838E+02 -0.51976617865E+02 -0.46938108667E+02  0.10477318865E+03  0.41800000000E+01 0.  1.
        -11    1    4    4    0    0 -0.91273191801E+02  0.19833665387E+02 -0.73535119197E+02  0.11887633734E+03  0.00000000000E+00 0. -1.
         11    1    4    4    0    0 -0.19078559161E+03 -0.10673298354E+02 -0.37757178279E+03  0.42317078399E+03  0.00000000000E+00 0.  1.
</event>
<event>
 8    1  0.3710605E-009  0.1134193E+03  0.7561462E-02  0.1254366E+00
          2   -1    0    0  501    0  0.00000000000E+00  0.00000000000E+00  0.63461095717E+03  0.63461095717E+03  0.00000000000E+00 0.  1.
         -2   -1    0    0    0  501 -0.00000000000E+00 -0.00000000000E+00 -0.21413800434E+02  0.21413800434E+02  0.00000000000E+00 0. -1.
         25    2    1    2    0    0 -0.43556866412E+02  0.11177186585E+01  0.30217602589E+03  0.32993431275E+03  0.12509136742E+03 0.  0.
         23    2    1    2    0    0  0.43556866412E+02 -0.11177186585E+01  0.31102113085E+03  0.32609044485E+03  0.87763229675E+02 0.  0.
          5    1    3    3  502    0 -0.56026189139E+02 -0.52661384878E+02  0.16960407986E+03  0.18626639964E+03  0.41800000000E+01 0.  1.
         -5    1    3    3    0  502  0.12469322727E+02  0.53779103536E+02  0.13257194602E+03  0.14366791312E+03  0.41800000000E+01 0.  1.
        -11    1    4    4    0    0  0.45132134217E+02 -0.37118544981E+02  0.14766497560E+03  0.15880692976E+03  0.00000000000E+00 0. -1.
         11    1    4    4    0    0 -0.15752678050E+01  0.36000826322E+02  0.16335615524E+03  0.16728351509E+03  0.00000000000E+00 0.  1.
</event>
<event>
 8    1  0.3710605E-009  0.1205382E+03  0.7561462E-02  0.1242212E+00
          2   -1    0    0  501    0  0.00000000000E+00  0.00000000000E+00  0.29813212784E+02  0.29813212784E+02  0.00000000000E+00 0. -1.
         -2   -1    0    0    0  501 -0.00000000000E+00 -0.00000000000E+00 -0.61687993521E+03  0.61687993521E+03  0.00000000000E+00 0.  1.
         25    2    1    2    0    0 -0.52571145243E+02 -0.57035581337E+02 -0.26724434824E+03  0.30509542905E+03  0.12508755457E+03 0.  0.
         23    2    1    2    0    0  0.52571145243E+02  0.57035581337E+02 -0.31982237418E+03  0.34159771894E+03  0.91574383479E+02 0.  0.
          5    1    3    3  502    0  0.18343850506E+02  0.12154283251E+02 -0.26815767303E+01  0.22558517383E+02  0.41800000000E+01 0.  1.
         -5    1    3    3    0  502 -0.70914995750E+02 -0.69189864588E+02 -0.26456277151E+03  0.28253691167E+03  0.41800000000E+01 0.  1.
        -11    1    4    4    0    0 -0.12377804269E+02  0.53013884055E+02 -0.13031861224E+03  0.14123251268E+03  0.00000000000E+00 0.  1.
         11    1    4    4    0    0  0.64948949513E+02  0.40216972818E+01 -0.18950376194E+03  0.20036520626E+03  0.00000000000E+00 0. -1.
</event>
<event>
 8    1  0.3710605E-009  0.1066581E+03  0.7561462E-02  0.1266887E+00
         -2   -1    0    0    0  501 -0.00000000000E+00  0.00000000000E+00  0.47303214977E+02  0.47303214977E+02  0.00000000000E+00 0.  1.
          2   -1    0    0  501    0  0.00000000000E+00 -0.00000000000E+00 -0.27766555281E+03  0.27766555281E+03  0.00000000000E+00 0. -1.
         25    2    1    2    0    0  0.97917924337E+01  0.31963311341E+02 -0.87940594210E+02  0.15651886566E+03  0.12508826774E+03 0.  0.
         23    2    1    2    0    0 -0.97917924337E+01 -0.31963311341E+02 -0.14242174362E+03  0.16844990213E+03  0.83509783848E+02 0.  0.
          5    1    3    3  502    0 -0.22367232482E+02 -0.39796674644E+02 -0.12616734513E+02  0.47547058704E+02  0.41800000000E+01 0. -1.
         -5    1    3    3    0  502  0.32159024916E+02  0.71759985985E+02 -0.75323859697E+02  0.10897180696E+03  0.41800000000E+01 0. -1.
        -11    1    4    4    0    0  0.35509795387E+02 -0.23659495815E+02 -0.54717524648E+02  0.69388218123E+02  0.00000000000E+00 0. -1.
         11    1    4    4    0    0 -0.45301587820E+02 -0.83038155261E+01 -0.87704218976E+02  0.99061684003E+02  0.00000000000E+00 0.  1.
</event>
<event>
 8    1  0.3710605E-009  0.1199742E+03  0.7561462E-02  0.1243140E+00
          1   -1    0    0  501    0  0.00000000000E+00  0.00000000000E+00  0.53976136674E+03  0.53976136674E+03  0.00000000000E+00 0. -1.
         -1   -1    0    0    0  501 -0.00000000000E+00 -0.00000000000E+00 -0.32399068695E+02  0.32399068695E+02  0.00000000000E+00 0.  1.
         25    2    1    2    0    0  0.54951650858E+02  0.45064351854E+02  0.22518968176E+03  0.26722217614E+03  0.12508724519E+03 0.  0.
         23    2    1    2    0    0 -0.54951650858E+02 -0.45064351854E+02  0.28217261628E+03  0.30493825929E+03  0.91189236540E+02 0.  0.
          5    1    3    3  502    0 -0.28670495920E+02  0.27835992504E+02  0.19878753778E+02  0.44827191154E+02  0.41800000000E+01 0.  1.
         -5    1    3    3    0  502  0.83622146778E+02  0.17228359349E+02  0.20531092799E+03  0.22239498499E+03  0.41800000000E+01 0.  1.
        -11    1    4    4    0    0 -0.34032861591E+02  0.24313900929E+02  0.81955583280E+02  0.92011516003E+02  0.00000000000E+00 0. -1.
         11    1    4    4    0    0 -0.20918789267E+02 -0.69378252782E+02  0.20021703300E+03  0.21292674329E+03  0.00000000000E+00 0.  1.
</event>
<event>
 8    1  0.3710605E-009  0.8375143E+02  0.7561462E-02  0.1318730E+00
          1   -1    0    0  501    0  0.00000000000E+00  0.00000000000E+00  0.41698801240E+03  0.41698801240E+03  0.00000000000E+00 0. -1.
         -1   -1    0    0    0  501 -0.00000000000E+00 -0.00000000000E+00 -0.40298006154E+02  0.40298006154E+02  0.00000000000E+00 0.  1.
         25    2    1    2    0    0 -0.66082581154E+02  0.22052649094E+02  0.22304173302E+03  0.26504342210E+03  0.12508866482E+03 0.  0.
         23    2    1    2    0    0  0.66082581154E+02 -0.22052649094E+02  0.15364827323E+03  0.19224259646E+03  0.92174818484E+02 0.  0.
          5    1    3    3  502    0 -0.27141221161E+02  0.36670997019E+01 -0.89011130973E+01  0.29099754650E+02  0.41800000000E+01 0. -1.
         -5    1    3    3    0  502 -0.38941359993E+02  0.18385549392E+02  0.23194284611E+03  0.23594366744E+03  0.41800000000E+01 0. -1.
        -11    1    4    4    0    0  0.79706652188E+02 -0.22751211385E+02  0.15757497868E+03  0.17804674085E+03  0.00000000000E+00 0. -1.
         11    1    4    4    0    0 -0.13624071034E+02  0.69856229080E+00 -0.39267054454E+01  0.14195855609E+02  0.00000000000E+00 0.  1.
</event>
<event>
 8    1  0.3710605E-009  0.1229944E+03  0.7561462E-02  0.1238237E+00
          1   -1    0    0  501    0  0.00000000000E+00  0.00000000000E+00  0.11458211544E+04  0.11458211544E+04  0.00000000000E+00 0. -1.
         -1   -1    0    0    0  501 -0.00000000000E+00 -0.00000000000E+00 -0.22162063573E+02  0.22162063573E+02  0.00000000000E+00 0.  1.
         25    2    1    2    0    0  0.77330009439E+02 -0.32243170972E+02  0.89425465345E+03  0.90684055723E+03  0.12509539789E+03 0.  0.
         23    2    1    2    0    0 -0.77330009439E+02  0.32243170972E+02  0.22940443734E+03  0.26114266072E+03  0.92463727697E+02 0.  0.
          5    1    3    3  502    0 -0.10258483085E+02 -0.57843711883E+02  0.32224852292E+03  0.32758619385E+03  0.41800000000E+01 0.  1.
         -5    1    3    3    0  502  0.87588492524E+02  0.25600540912E+02  0.57200613054E+03  0.57925436338E+03  0.41800000000E+01 0.  1.
        -11    1    4    4    0    0 -0.24982712476E+02  0.35371485444E+02  0.24754086575E+02  0.49880283754E+02  0.00000000000E+00 0.  1.
         11    1    4    4    0    0 -0.52347296963E+02 -0.31283144727E+01  0.20465035077E+03  0.21126237696E+03  0.00000000000E+00 0. -1.
</event>
<event>
 8    1  0.3710605E-009  0.1122510E+03  0.7561462E-02  0.1256457E+00
         -2   -1    0    0    0  501 -0.00000000000E+00  0.00000000000E+00  0.19180963579E+02  0.19180963579E+02  0.00000000000E+00 0. -1.
          2   -1    0    0  501    0  0.00000000000E+00 -0.00000000000E+00 -0.73064582251E+03  0.73064582251E+03  0.00000000000E+00 0.  1.
         25    2    1    2    0    0  0.31294304776E+02 -0.39048093640E+02 -0.44492111259E+03  0.46487221779E+03  0.12508914948E+03 0.  0.
         23    2    1    2    0    0 -0.31294304776E+02  0.39048093640E+02 -0.26654374634E+03  0.28495456830E+03  0.87461135095E+02 0.  0.
          5    1    3    3  502    0  0.52015441488E+02 -0.73103854919E+02 -0.35894216165E+03  0.37000909119E+03  0.41800000000E+01 0. -1.
         -5    1    3    3    0  502 -0.20721136713E+02  0.34055761278E+02 -0.85978950941E+02  0.94863126598E+02  0.41800000000E+01 0. -1.
        -11    1    4    4    0    0  0.13386723953E+00  0.57934691688E+02 -0.20764047403E+03  0.21557136376E+03  0.00000000000E+00 0.  1.
         11    1    4    4    0    0 -0.31428172015E+02 -0.18886598047E+02 -0.58903272316E+02  0.69383204535E+02  0.00000000000E+00 0. -1.
</event>
<event>
 8    1  0.3710605E-009  0.9993640E+02  0.7561462E-02  0.1280430E+00
         -2   -1    0    0    0  501 -0.00000000000E+00  0.00000000000E+00  0.62751107937E+02  0.62751107937E+02  0.00000000000E+00 0. -1.
          2   -1    0    0  501    0  0.00000000000E+00 -0.00000000000E+00 -0.34406170905E+03  0.34406170905E+03  0.00000000000E+00 0.  1.
         25    2    1    2    0    0 -0.42382594019E+02 -0.67698530291E+02 -0.72719595052E+02  0.16527508644E+03  0.12509332281E+03 0.  0.
         23    2    1    2    0    0  0.42382594019E+02  0.67698530291E+02 -0.20859100606E+03  0.24153773055E+03  0.91928734304E+02 0.  0.
          5    1    3    3  502    0 -0.49970376907E+01 -0.42554599758E+02  0.30375266515E+02  0.52687698394E+02  0.41800000000E+01 0.  1.
         -5    1    3    3    0  502 -0.37385556328E+02 -0.25143930533E+02 -0.10309486157E+03  0.11258738804E+03  0.41800000000E+01 0.  1.
        -11    1    4    4    0    0  0.28917346551E+01  0.71811828927E+02 -0.17621039594E+03  0.19030345383E+03  0.00000000000E+00 0.  1.
         11    1    4    4    0    0  0.39490859363E+02 -0.41132986364E+01 -0.32380610117E+02  0.51234276715E+02  0.00000000000E+00 0. -1.
</event>
<event>
 8    1  0.3710605E-009  0.7195641E+02  0.7561462E-02  0.1353564E+00
         -1   -1    0    0    0  501 -0.00000000000E+00  0.00000000000E+00  0.36128494502E+02  0.36128494502E+02  0.00000000000E+00 0.  1.
          1   -1    0    0  501    0  0.00000000000E+00 -0.00000000000E+00 -0.66335065840E+03  0.66335065840E+03  0.00000000000E+00 0. -1.
         25    2    1    2    0    0 -0.47741950512E+02  0.12790965662E+02 -0.56510056360E+03  0.58088682060E+03  0.12509176118E+03 0.  0.
         23    2    1    2    0    0  0.47741950512E+02 -0.12790965662E+02 -0.62121600293E+02  0.11859233230E+03  0.88103038637E+02 0.  0.
          5    1    3    3  502    0 -0.28969628533E+02  0.10423179751E+02 -0.23542229143E+02  0.38981931796E+02  0.41800000000E+01 0.  1.
         -5    1    3    3    0  502 -0.18772321979E+02  0.23677859117E+01 -0.54155833446E+03  0.54190488880E+03  0.41800000000E+01 0.  1.
        -11    1    4    4    0    0  0.42364757899E+02  0.28993664232E+02 -0.56085671885E+02  0.76032939363E+02  0.00000000000E+00 0. -1.
         11    1    4    4    0    0  0.53771926129E+01 -0.41784629894E+02 -0.60359284083E+01  0.42559392941E+02  0.00000000000E+00 0.  1.
</event>
<event>
 8    1  0.3710605E-009  0.1368973E+03  0.7561462E-02  0.1217566E+00
         -1   -1    0    0    0  501 -0.00000000000E+00  0.00000000000E+00  0.26529619336E+03  0.26529619336E+03  0.00000000000E+00 0.  1.
          1   -1    0    0  501    0  0.00000000000E+00 -0.00000000000E+00 -0.84404042605E+02  0.84404042605E+02  0.00000000000E+00 0. -1.
         25    2    1    2    0    0  0.45150750168E+02  0.64047866224E+02  0.25975662269E+02  0.14987306782E+03  0.12508589856E+03 0.  0.
         23    2    1    2    0    0 -0.45150750168E+02 -0.64047866224E+02  0.15491648848E+03  0.19982716814E+03  0.98949781780E+02 0.  0.
          5    1    3    3  502    0 -0.43735225666E+02  0.22747198821E+02  0.10117735343E+02  0.50497980026E+02  0.41800000000E+01 0.  1.
         -5    1    3    3    0  502  0.88885975835E+02  0.41300667403E+02  0.15857926926E+02  0.99375087796E+02  0.41800000000E+01 0.  1.
        -11    1    4    4    0    0 -0.61033388499E+02 -0.83262266930E+00  0.75498313995E+02  0.97086369734E+02  0.00000000000E+00 0.  1.
         11    1    4    4    0    0  0.15882638330E+02 -0.63215243555E+02  0.79418174488E+02  0.10274079841E+03  0.00000000000E+00 0. -1.
</event>
<event>
 8    1  0.3710605E-009  0.1380202E+03  0.7561462E-02  0.1216018E+00
         -2   -1    0    0    0  501 -0.00000000000E+00  0.00000000000E+00  0.43373667256E+03  0.43373667256E+03  0.00000000000E+00 0.  1.
          2   -1    0    0  501    0  0.00000000000E+00 -0.00000000000E+00 -0.65449530014E+02  0.65449530014E+02  0.00000000000E+00 0. -1.
         25    2    1    2    0    0 -0.16419329088E+01 -0.12201257062E+03  0.25464341884E+03  0.30883778054E+03  0.12509092932E+03 0.  0.
         23    2    1    2    0    0  0.16419329088E+01  0.12201257062E+03  0.11364372371E+03  0.19034842203E+03  0.91803390458E+02 0.  0.
          5    1    3    3  502    0 -0.34153574398E+01 -0.11423261344E+03  0.94255008404E+02  0.14819660472E+03  0.41800000000E+01 0. -1.
         -5    1    3    3    0  502  0.17734245310E+01 -0.77799571777E+01  0.16038841044E+03  0.16064117583E+03  0.41800000000E+01 0. -1.
        -11    1    4    4    0    0  0.46121230842E+02  0.49937512960E+02  0.52441184530E+02  0.85854533776E+02  0.00000000000E+00 0. -1.
         11    1    4    4    0    0 -0.44479297933E+02  0.72075057659E+02  0.61202539176E+02  0.10449388826E+03  0.00000000000E+00 0.  1.
</event>
<event>
 8    1  0.3710605E-009  0.1662729E+03  0.7561462E-02  0.1181791E+00
         -2   -1    0    0    0  501 -0.00000000000E+00  0.00000000000E+00  0.32635845917E+02  0.32635845917E+02  0.00000000000E+00 0.  1.
          2   -1    0    0  501    0  0.00000000000E+00 -0.00000000000E+00 -0.13143033796E+04  0.13143033796E+04  0.00000000000E+00 0. -1.
         25    2    1    2    0    0 -0.79294116964E+02  0.14036650612E+03 -0.90773408804E+03  0.93038595089E+03  0.12508609039E+03 0.  0.
         23    2    1    2    0    0  0.79294116964E+02 -0.14036650612E+03 -0.37393344562E+03  0.41655327460E+03  0.87750189733E+02 0.  0.
          5    1    3    3  502    0 -0.23120260351E+02  0.94602312276E+02 -0.75521226687E+03  0.76147697559E+03  0.41800000000E+01 0.  1.
         -5    1    3    3    0  502 -0.56173856613E+02  0.45764193847E+02 -0.15252182117E+03  0.16890897530E+03  0.41800000000E+01 0.  1.
        -11    1    4    4    0    0  0.29338870076E+02 -0.33525941589E+02 -0.32004616225E+02  0.54854840410E+02  0.00000000000E+00 0.  1.
         11    1    4    4    0    0  0.49955246888E+02 -0.10684056454E+03 -0.34192882940E+03  0.36169843419E+03  0.00000000000E+00 0. -1.
</event>
<event>
 8    1  0.3710605E-009  0.1260583E+03  0.7561462E-02  0.1233425E+00
         -1   -1    0    0    0  501 -0.00000000000E+00  0.00000000000E+00  0.63989161091E+02  0.63989161091E+02  0.00000000000E+00 0.  1.
          1   -1    0    0  501    0  0.00000000000E+00 -0.00000000000E+00 -0.28551952812E+03  0.28551952812E+03  0.00000000000E+00 0. -1.
         25    2    1    2    0    0 -0.33604592255E+02 -0.64130839627E+02 -0.16552544850E+03  0.21974800918E+03  0.12509388565E+03 0.  0.
         23    2    1    2    0    0  0.33604592255E+02  0.64130839627E+02 -0.56004918533E+02  0.12976068003E+03  0.91974180997E+02 0.  0.
          5    1    3    3  502    0  0.43542831835E+02 -0.57729535863E+01 -0.30675484384E+02  0.53737909706E+02  0.41800000000E+01 0. -1.
         -5    1    3    3    0  502 -0.77147424090E+02 -0.58357886041E+02 -0.13484996412E+03  0.16601009948E+03  0.41800000000E+01 0. -1.
        -11    1    4    4    0    0  0.53672779067E+02  0.11565637726E+02 -0.73862494976E+01  0.55399349007E+02  0.00000000000E+00 0.  1.
         11    1    4    4    0    0 -0.20068186812E+02  0.52565201901E+02 -0.48618669035E+02  0.74361331023E+02  0.00000000000E+00 0. -1.
</event>
<event>
 8    1  0.3710605E-009  0.1167634E+03  0.7561462E-02  0.1248534E+00
          1   -1    0    0  501    0  0.00000000000E+00  0.00000000000E+00  0.44613368149E+02  0.44613368149E+02  0.00000000000E+00 0. -1.
         -1   -1    0    0    0  501 -0.00000000000E+00 -0.00000000000E+00 -0.38693868845E+03  0.38693868845E+03  0.00000000000E+00 0.  1.
         25    2    1    2    0    0 -0.29568018809E+01 -0.65236167684E+02 -0.13421476857E+03  0.19474596292E+03  0.12509150937E+03 0.  0.
         23    2    1    2    0    0  0.29568018809E+01  0.65236167684E+02 -0.20811055173E+03  0.23680609368E+03  0.92209674186E+02 0.  0.
          5    1    3    3  502    0  0.19274813305E+02  0.29460258529E+02 -0.68960410638E+02  0.77539898735E+02  0.41800000000E+01 0.  1.
         -5    1    3    3    0  502 -0.22231615186E+02 -0.94696426213E+02 -0.65254357937E+02  0.11720606418E+03  0.41800000000E+01 0.  1.
        -11    1    4    4    0    0 -0.25533670919E+02  0.67465350878E+02 -0.90280045758E+02  0.11555963215E+03  0.00000000000E+00 0. -1.
         11    1    4    4    0    0  0.28490472800E+02 -0.22291831939E+01 -0.11783050597E+03  0.12124646153E+03  0.00000000000E+00 0.  1.
</event>
<event>
 8    1  0.3710605E-009  0.1683873E+03  0.7561462E-02  0.1179540E+00
          2   -1    0    0  501    0  0.00000000000E+00  0.00000000000E+00  0.57143172520E+03  0.57143172520E+03  0.00000000000E+00 0. -1.
         -2   -1    0    0    0  501 -0.00000000000E+00 -0.00000000000E+00 -0.93213510361E+02  0.93213510361E+02  0.00000000000E+00 0.  1.
         25    2    1    2    0    0  0.75154325789E+02 -0.14176141898E+03  0.67868271428E+02  0.21446999452E+03  0.12508718434E+03 0.  0.
         23    2    1    2    0    0 -0.75154325789E+02  0.14176141898E+03  0.41034994341E+03  0.45017524104E+03  0.92337419252E+02 0.  0.
          5    1    3    3  502    0  0.58635764666E+02 -0.13335766593E+03  0.10027557461E+03  0.17690416395E+03  0.41800000000E+01 0.  1.
         -5    1    3    3    0  502  0.16518561123E+02 -0.84037530509E+01 -0.32407303181E+02  0.37565830570E+02  0.41800000000E+01 0.  1.
        -11    1    4    4    0    0 -0.43916583139E+02  0.13229835279E+03  0.38304285276E+03  0.40761912060E+03  0.00000000000E+00 0. -1.
         11    1    4    4    0    0 -0.31237742650E+02  0.94630661839E+01  0.27307090654E+02  0.42556120446E+02  0.00000000000E+00 0.  1.
</event>
<event>
 8    1  0.3710605E-009  0.1572818E+03  0.7561462E-02  0.1191800E+00
          2   -1    0    0  501    0  0.00000000000E+00  0.00000000000E+00  0.76919626704E+03  0.76919626704E+03  0.00000000000E+00 0. -1.
         -2   -1    0    0    0  501 -0.00000000000E+00 -0.00000000000E+00 -0.41950089493E+02  0.41950089493E+02  0.00000000000E+00 0.  1.
         25    2    1    2    0    0  0.91205748088E+02 -0.71527616226E+02  0.57034206383E+03  0.59529202284E+03  0.12509130393E+03 0.  0.
         23    2    1    2    0    0 -0.91205748088E+02  0.71527616226E+02  0.15690411372E+03  0.21585433370E+03  0.92409437316E+02 0.  0.
          5    1    3    3  502    0  0.45035404637E+02 -0.10160062910E+03  0.43752369629E+03  0.45143696428E+03  0.41800000000E+01 0. -1.
         -5    1    3    3    0  502  0.46170343451E+02  0.30073012872E+02  0.13281836754E+03  0.14385505856E+03  0.41800000000E+01 0. -1.
        -11    1    4    4    0    0  0.18974009242E+02  0.15411752022E+02  0.22450334613E+02  0.33189646749E+02  0.00000000000E+00 0.  1.
         11    1    4    4    0    0 -0.11017975733E+03  0.56115864203E+02  0.13445377911E+03  0.18266468695E+03  0.00000000000E+00 0. -1.
</event>
<event>
 8    1  0.3710605E-009  0.1214080E+03  0.7561462E-02  0.1240792E+00
         -1   -1    0    0    0  501 -0.00000000000E+00  0.00000000000E+00  0.16454550614E+03  0.16454550614E+03  0.00000000000E+00 0.  1.
          1   -1    0    0  501    0  0.00000000000E+00 -0.00000000000E+00 -0.14653327988E+03  0.14653327988E+03  0.00000000000E+00 0. -1.
         25    2    1    2    0    0  0.89415137775E+02  0.14188494705E+01  0.75442199132E+02  0.17127779631E+03  0.12508988009E+03 0.  0.
         23    2    1    2    0    0 -0.89415137775E+02 -0.14188494705E+01 -0.57429972880E+02  0.13980098971E+03  0.90824198003E+02 0.  0.
          5    1    3    3  502    0  0.59255577755E+01  0.36229448384E+02  0.71685726047E+02  0.80647386095E+02  0.41800000000E+01 0. -1.
         -5    1    3    3    0  502  0.83489580000E+02 -0.34810598913E+02  0.37564730853E+01  0.90630410212E+02  0.41800000000E+01 0. -1.
        -11    1    4    4    0    0 -0.20637869434E+02  0.32601039559E+02  0.74737059994E+01  0.39301472192E+02  0.00000000000E+00 0. -1.
         11    1    4    4    0    0 -0.68777268341E+02 -0.34019889029E+02 -0.64903678879E+02  0.10049951752E+03  0.00000000000E+00 0.  1.
</event>
<event>
 8    1  0.3710605E-009  0.8048072E+02  0.7561462E-02  0.1327693E+00
         -2   -1    0    0    0  501 -0.00000000000E+00  0.00000000000E+00  0.23463892524E+02  0.23463892524E+02  0.00000000000E+00 0.  1.
          2   -1    0    0  501    0  0.00000000000E+00 -0.00000000000E+00 -0.54469662318E+03  0.54469662318E+03  0.00000000000E+00 0. -1.
         25    2    1    2    0    0 -0.38272280620E+01 -0.38130205195E+02 -0.35585588430E+03  0.37914367946E+03  0.12509180255E+03 0.  0.
         23    2    1    2    0    0  0.38272280620E+01  0.38130205195E+02 -0.16537684636E+03  0.18901683625E+03  0.83122216336E+02 0.  0.
          5    1    3    3  502    0  0.32304625233E+02 -0.18544391536E+02 -0.32606301197E+03  0.32821036462E+03  0.41800000000E+01 0. -1.
         -5    1    3    3    0  502 -0.36131853295E+02 -0.19585813659E+02 -0.29792872324E+02  0.50933314840E+02  0.41800000000E+01 0. -1.
        -11    1    4    4    0    0 -0.34418224140E+02  0.20431248261E+02 -0.39343541436E+02  0.56124542860E+02  0.00000000000E+00 0.  1.
         11    1    4    4    0    0  0.38245452202E+02  0.17698956934E+02 -0.12603330493E+03  0.13289229339E+03  0.00000000000E+00 0. -1.
</event>
<event>
 8    1  0.3710605E-009  0.1479238E+03  0.7561462E-02  0.1203048E+00
          2   -1    0    0  501    0  0.00000000000E+00  0.00000000000E+00  0.12043444903E+04  0.12043444903E+04  0.00000000000E+00 0. -1.
         -2   -1    0    0    0  501 -0.00000000000E+00 -0.00000000000E+00 -0.38216275926E+02  0.38216275926E+02  0.00000000000E+00 0.  1.
         25    2    1    2    0    0 -0.82246919150E+02  0.11239461766E+03  0.95521450342E+03  0.97338546321E+03  0.12508959450E+03 0.  0.
         23    2    1    2    0    0  0.82246919150E+02 -0.11239461766E+03  0.21091371097E+03  0.26917530303E+03  0.92593976587E+02 0.  0.
          5    1    3    3  502    0 -0.45852460966E+02  0.18939316439E+02  0.94268401524E+02  0.10660745663E+03  0.41800000000E+01 0. -1.
         -5    1    3    3    0  502 -0.36394458184E+02  0.93455301217E+02  0.86094610190E+03  0.86677800657E+03  0.41800000000E+01 0. -1.
        -11    1    4    4    0    0  0.76370529465E+02 -0.72317780279E+02  0.80018765370E+02  0.13215642976E+03  0.00000000000E+00 0.  1.
         11    1    4    4    0    0  0.58763896847E+01 -0.40076837378E+02  0.13089494560E+03  0.13701887327E+03  0.00000000000E+00 0. -1.
</event>
<event>
 8    1  0.3710605E-009  0.9487359E+02  0.7561462E-02  0.1291461E+00
          1   -1    0    0  501    0  0.00000000000E+00  0.00000000000E+00  0.22390920110E+03  0.22390920110E+03  0.00000000000E+00 0. -1.
         -1   -1    0    0    0  501 -0.00000000000E+00 -0.00000000000E+00 -0.56103677098E+02  0.56103677098E+02  0.00000000000E+00 0.  1.
         25    2    1    2    0    0 -0.21180662618E+02 -0.14999803086E+02  0.11786780428E+03  0.17382111114E+03  0.12508934739E+03 0.  0.
         23    2    1    2    0    0  0.21180662618E+02  0.14999803086E+02  0.49937719718E+02  0.10619176706E+03  0.90051657278E+02 0.  0.
          5    1    3    3  502    0  0.33688376958E+02 -0.32344414615E+02  0.51189915078E+01  0.47167195940E+02  0.41800000000E+01 0. -1.
         -5    1    3    3    0  502 -0.54869039577E+02  0.17344611528E+02  0.11274881277E+03  0.12665391520E+03  0.41800000000E+01 0. -1.
        -11    1    4    4    0    0 -0.29159717853E+02 -0.73673394835E+01 -0.24460309538E+01  0.30175319447E+02  0.00000000000E+00 0.  1.
         11    1    4    4    0    0  0.50340380471E+02  0.22367142570E+02  0.52383750672E+02  0.76016447610E+02  0.00000000000E+00 0. -1.
</event>
<event>
 8    1  0.3710605E-009  0.1345359E+03  0.7561462E-02  0.1220876E+00
         -2   -1    0    0    0  501 -0.00000000000E+00  0.00000000000E+00  0.17784212920E+02  0.17784212920E+02  0.00000000000E+00 0. -1.
          2   -1    0    0  501    0  0.00000000000E+00 -0.00000000000E+00 -0.11567476443E+04  0.11567476443E+04  0.00000000000E+00 0.  1.
         25    2    1    2    0    0  0.96990309218E+02  0.29807031462E+01 -0.54429470306E+03  0.56685096357E+03  0.12508911406E+03 0.  0.
         23    2    1    2    0    0 -0.96990309218E+02 -0.29807031462E+01 -0.59466872837E+03  0.60768089369E+03  0.78925074484E+02 0.  0.
          5    1    3    3  502    0  0.12704581905E+03 -0.15132983408E+01 -0.45551240295E+03  0.47291854674E+03  0.41800000000E+01 0. -1.
         -5    1    3    3    0  502 -0.30055509828E+02  0.44940014870E+01 -0.88782300107E+02  0.93932416836E+02  0.41800000000E+01 0. -1.
        -11    1    4    4    0    0 -0.96881654560E+02  0.10808582584E+02 -0.57745216914E+03  0.58562264991E+03  0.00000000000E+00 0.  1.
         11    1    4    4    0    0 -0.10865465746E+00 -0.13789285731E+02 -0.17216559230E+02  0.22058243777E+02  0.00000000000E+00 0. -1.
</event>
<event>
 8    1  0.3710605E-009  0.1541922E+03  0.7561462E-02  0.1195414E+00
          1   -1    0    0  501    0  0.00000000000E+00  0.00000000000E+00  0.47892359367E+03  0.47892359367E+03  0.00000000000E+00 0. -1.
         -1   -1    0    0    0  501 -0.00000000000E+00 -0.00000000000E+00 -0.68242604649E+02  0.68242604649E+02  0.00000000000E+00 0.  1.
         25    2    1    2    0    0 -0.11308896636E+03  0.72914054948E+02  0.13916672106E+03  0.23047862819E+03  0.12508976009E+03 0.  0.
         23    2    1    2    0    0  0.11308896636E+03 -0.72914054948E+02  0.27151426796E+03  0.31668757013E+03  0.92007856463E+02 0.  0.
          5    1    3    3  502    0 -0.62240241174E+02  0.32488083850E+01  0.12926044418E+03  0.14356231123E+03  0.41800000000E+01 0. -1.
         -5    1    3    3    0  502 -0.50848725183E+02  0.69665246563E+02  0.99062768850E+01  0.86916316956E+02  0.41800000000E+01 0. -1.
        -11    1    4    4    0    0 -0.58137374215E+01 -0.33951740123E+02  0.88706801583E+02  0.95159954011E+02  0.00000000000E+00 0. -1.
         11    1    4    4    0    0  0.11890270378E+03 -0.38962314826E+02  0.18280746638E+03  0.22152761612E+03  0.00000000000E+00 0.  1.
</event>
<event>
 8    1  0.3710605E-009  0.1356568E+03  0.7561462E-02  0.1219296E+00
          2   -1    0    0  501    0  0.00000000000E+00  0.00000000000E+00  0.68738367116E+03  0.68738367116E+03  0.00000000000E+00 0. -1.
         -2   -1    0    0    0  501 -0.00000000000E+00 -0.00000000000E+00 -0.45391170835E+02  0.45391170835E+02  0.00000000000E+00 0.  1.
         25    2    1    2    0    0 -0.84078032510E+02  0.78028173528E+02  0.50651920665E+03  0.53419756047E+03  0.12509122869E+03 0.  0.
         23    2    1    2    0    0  0.84078032510E+02 -0.78028173528E+02  0.13547329368E+03  0.19857728152E+03  0.89007932358E+02 0.  0.
          5    1    3    3  502    0 -0.79235420391E+02  0.41430339870E+02  0.48067912023E+03  0.48894234214E+03  0.41800000000E+01 0.  1.
         -5    1    3    3    0  502 -0.48426121190E+01  0.36597833658E+02  0.25840086414E+02  0.45255218334E+02  0.41800000000E+01 0.  1.
        -11    1    4    4    0    0  0.13253753292E+01  0.17906557009E+02  0.22859492451E+02  0.29068157815E+02  0.00000000000E+00 0. -1.
         11    1    4    4    0    0  0.82752657181E+02 -0.95934730536E+02  0.11261380123E+03  0.16950912371E+03  0.00000000000E+00 0.  1.
</event>
<event>
 8    1  0.3710605E-009  0.1034694E+03  0.7561462E-02  0.1273165E+00
          1   -1    0    0  501    0  0.00000000000E+00  0.00000000000E+00  0.54629877420E+02  0.54629877420E+02  0.00000000000E+00 0. -1.
         -1   -1    0    0    0  501 -0.00000000000E+00 -0.00000000000E+00 -0.34470674916E+03  0.34470674916E+03  0.00000000000E+00 0.  1.
         25    2    1    2    0    0  0.80716760983E+02  0.16675189976E+02 -0.18526826986E+03  0.23825295592E+03  0.12508749628E+03 0.  0.
         23    2    1    2    0    0 -0.80716760983E+02 -0.16675189976E+02 -0.10480860187E+03  0.16108367065E+03  0.90387214024E+02 0.  0.
          5    1    3    3  502    0  0.17078405261E+02  0.25672091053E+02  0.99630171454E+01  0.32672041502E+02  0.41800000000E+01 0. -1.
         -5    1    3    3    0  502  0.63638355722E+02 -0.89969010768E+01 -0.19523128701E+03  0.20558091442E+03  0.41800000000E+01 0. -1.
        -11    1    4    4    0    0 -0.65173829813E+02  0.22755739871E+02 -0.30354752066E+02  0.75411290684E+02  0.00000000000E+00 0. -1.
         11    1    4    4    0    0 -0.15542931170E+02 -0.39430929847E+02 -0.74453849807E+02  0.85672379966E+02  0.00000000000E+00 0.  1.
</event>
<event>
 8    1  0.3710605E-009  0.2055327E+03  0.7561462E-02  0.1145153E+00
          1   -1    0    0  501    0  0.00000000000E+00  0.00000000000E+00  0.12448303177E+04  0.12448303177E+04  0.00000000000E+00 0. -1.
         -1   -1    0    0    0  501 -0.00000000000E+00 -0.00000000000E+00 -0.45347543382E+02  0.45347543382E+02  0.00000000000E+00 0.  1.
         25    2    1    2    0    0  0.15743550951E+03 -0.11622183905E+03  0.40606179672E+03  0.46778876640E+03  0.12508673665E+03 0.  0.
         23    2    1    2    0    0 -0.15743550951E+03  0.11622183905E+03  0.79342097761E+03  0.82238909470E+03  0.92268737026E+02 0.  0.
          5    1    3    3  502    0  0.41959896904E+02 -0.74947960312E+02  0.72856108625E+02  0.11270898219E+03  0.41800000000E+01 0.  1.
         -5    1    3    3    0  502  0.11547561261E+03 -0.41273878738E+02  0.33320568809E+03  0.35507978421E+03  0.41800000000E+01 0.  1.
        -11    1    4    4    0    0 -0.44682716426E+02  0.67049124880E+01  0.80192231897E+02  0.92045070782E+02  0.00000000000E+00 0.  1.
         11    1    4    4    0    0 -0.11275279309E+03  0.10951692656E+03  0.71322874572E+03  0.73034402391E+03  0.00000000000E+00 0. -1.
</event>
<event>
 8    1  0.3710605E-009  0.1230546E+03  0.7561462E-02  0.1238141E+00
          1   -1    0    0  501    0  0.00000000000E+00  0.00000000000E+00  0.49672617849E+03  0.49672617849E+03  0.00000000000E+00 0. -1.
         -1   -1    0    0    0  501 -0.00000000000E+00 -0.00000000000E+00 -0.43338078809E+02  0.43338078809E+02  0.00000000000E+00 0.  1.
         25    2    1    2    0    0  0.52492264382E+02  0.82903670766E+02  0.23945392914E+03  0.28742629929E+03  0.12508891596E+03 0.  0.
         23    2    1    2    0    0 -0.52492264382E+02 -0.82903670766E+02  0.21393417054E+03  0.25263795801E+03  0.91813136623E+02 0.  0.
          5    1    3    3  502    0 -0.23585052237E+01  0.77372151219E+02  0.55490416880E+02  0.95334522062E+02  0.41800000000E+01 0. -1.
         -5    1    3    3    0  502  0.54850769606E+02  0.55315195465E+01  0.18396351226E+03  0.19209177723E+03  0.41800000000E+01 0. -1.
        -11    1    4    4    0    0 -0.45258249543E+02 -0.19157515860E+02  0.16439015026E+03  0.17157925594E+03  0.00000000000E+00 0. -1.
         11    1    4    4    0    0 -0.72340148392E+01 -0.63746154906E+02  0.49544020275E+02  0.81058702068E+02  0.00000000000E+00 0.  1.
</event>
<event>
 8    1  0.3710605E-009  0.1011067E+03  0.7561462E-02  0.1277986E+00
          2   -1    0    0  501    0  0.00000000000E+00  0.00000000000E+00  0.80570675878E+03  0.80570675878E+03  0.00000000000E+00 0. -1.
         -2   -1    0    0    0  501 -0.00000000000E+00 -0.00000000000E+00 -0.17646257671E+02  0.17646257671E+02  0.00000000000E+00 0.  1.
         25    2    1    2    0    0  0.37636020346E+02  0.13088337992E+02  0.54759390396E+03  0.56311028228E+03  0.12508529781E+03 0.  0.
         23    2    1    2    0    0 -0.37636020346E+02 -0.13088337992E+02  0.24046659714E+03  0.26024273417E+03  0.91182902611E+02 0.  0.
          5    1    3    3  502    0  0.78708784699E+02  0.23850689257E+02  0.27069542525E+03  0.28294418852E+03  0.41800000000E+01 0. -1.
         -5    1    3    3    0  502 -0.41072764353E+02 -0.10762351265E+02  0.27689847871E+03  0.28016609375E+03  0.41800000000E+01 0. -1.
        -11    1    4    4    0    0  0.13231413072E+02  0.14254453054E+02  0.85524031781E+01  0.21246254350E+02  0.00000000000E+00 0.  1.
         11    1    4    4    0    0 -0.50867433418E+02 -0.27342791046E+02  0.23191419397E+03  0.23899647982E+03  0.00000000000E+00 0. -1.
</event>
<event>
 8    1  0.3710605E-009  0.7274739E+02  0.7561462E-02  0.1350992E+00
          2   -1    0    0  501    0  0.00000000000E+00  0.00000000000E+00  0.94697510447E+02  0.94697510447E+02  0.00000000000E+00 0. -1.
         -2   -1    0    0    0  501 -0.00000000000E+00 -0.00000000000E+00 -0.16111723865E+03  0.16111723865E+03  0.00000000000E+00 0.  1.
         25    2    1    2    0    0 -0.33515439284E+02  0.82441991703E+01  0.12248781267E+02  0.13033679294E+03  0.12508555256E+03 0.  0.
         23    2    1    2    0    0  0.33515439284E+02 -0.82441991703E+01 -0.78668509468E+02  0.12547795616E+03  0.91458906670E+02 0.  0.
          5    1    3    3  502    0 -0.62497521842E+02  0.13795125415E+02  0.50650790759E+02  0.81726499534E+02  0.41800000000E+01 0. -1.
         -5    1    3    3    0  502  0.28982082558E+02 -0.55509262452E+01 -0.38402009492E+02  0.48610293402E+02  0.41800000000E+01 0. -1.
        -11    1    4    4    0    0  0.36992399870E+02  0.54792411937E+01 -0.96042677154E+02  0.10306626784E+03  0.00000000000E+00 0.  1.
         11    1    4    4    0    0 -0.34769605859E+01 -0.13723440364E+02  0.17374167686E+02  0.22411688315E+02  0.00000000000E+00 0. -1.
</event>
<event>
 8    1  0.3710605E-009  0.1192782E+03  0.7561462E-02  0.1244293E+00
          1   -1    0    0  501    0  0.00000000000E+00  0.00000000000E+00  0.13561248465E+04  0.13561248465E+04  0.00000000000E+00 0. -1.
         -1   -1    0    0    0  501 -0.00000000000E+00 -0.00000000000E+00 -0.14364932016E+02  0.14364932016E+02  0.00000000000E+00 0.  1.
         25    2    1    2    0    0 -0.69630699762E+02 -0.10337820200E+02  0.98762876846E+03  0.99800433474E+03  0.12508702170E+03 0.  0.
         23    2    1    2    0    0  0.69630699762E+02  0.10337820200E+02  0.35413114604E+03  0.37248544379E+03  0.91549070799E+02 0.  0.
          5    1    3    3  502    0 -0.68924296647E+02 -0.48802482565E+02  0.87161393201E+03  0.87570574958E+03  0.41800000000E+01 0. -1.
         -5    1    3    3    0  502 -0.70640311533E+00  0.38464662366E+02  0.11601483645E+03  0.12229858516E+03  0.41800000000E+01 0. -1.
        -11    1    4    4    0    0  0.80233200797E+02 -0.20401571431E+02  0.24463704379E+03  0.25826512312E+03  0.00000000000E+00 0.  1.
         11    1    4    4    0    0 -0.10602501035E+02  0.30739391630E+02  0.10949410225E+03  0.11422032067E+03  0.00000000000E+00 0. -1.
</event>
<event>
 8    1  0.3710605E-009  0.2229536E+03  0.7561462E-02  0.1131700E+00
         -1   -1    0    0    0  501 -0.00000000000E+00  0.00000000000E+00  0.29496103957E+03  0.29496103957E+03  0.00000000000E+00 0.  1.
          1   -1    0    0  501    0  0.00000000000E+00 -0.00000000000E+00 -0.36852904512E+03  0.36852904512E+03  0.00000000000E+00 0. -1.
         25    2    1    2    0    0  0.17546130514E+03  0.10503068999E+03 -0.27244844739E+03  0.36289642710E+03  0.12509014701E+03 0.  0.
         23    2    1    2    0    0 -0.17546130514E+03 -0.10503068999E+03  0.19888044184E+03  0.30059365759E+03  0.94789247249E+02 0.  0.
          5    1    3    3  502    0  0.42461327052E+02  0.76070665409E+02 -0.45877701725E+02  0.98549207741E+02  0.41800000000E+01 0. -1.
         -5    1    3    3    0  502  0.13299997809E+03  0.28960024584E+02 -0.22657074566E+03  0.26434721936E+03  0.41800000000E+01 0. -1.
        -11    1    4    4    0    0 -0.70597922624E+02  0.46661679613E+01  0.41780578750E+02  0.82167247508E+02  0.00000000000E+00 0.  1.
         11    1    4    4    0    0 -0.10486338251E+03 -0.10969685795E+03  0.15709986309E+03  0.21842641008E+03  0.00000000000E+00 0. -1.
</event>
<event>
 8    1  0.3710605E-009  0.9773211E+02  0.7561462E-02  0.1285139E+00
          2   -1    0    0  501    0  0.00000000000E+00  0.00000000000E+00  0.11121310311E+03  0.11121310311E+03  0.00000000000E+00 0. -1.
         -2   -1    0    0    0  501 -0.00000000000E+00 -0.00000000000E+00 -0.11423247837E+03  0.11423247837E+03  0.00000000000E+00 0.  1.
         25    2    1    2    0    0 -0.83679735298E+00 -0.11735269552E+02  0.28480532996E+02  0.12882907563E+03  0.12508946074E+03 0.  0.
         23    2    1    2    0    0  0.83679735298E+00  0.11735269552E+02 -0.31499908256E+02  0.96616505846E+02  0.90576421879E+02 0.  0.
          5    1    3    3  502    0 -0.27948498896E+02 -0.57907995644E+02  0.37224481142E+02  0.74414977970E+02  0.41800000000E+01 0. -1.
         -5    1    3    3    0  502  0.27111701543E+02  0.46172726092E+02 -0.87439481461E+01  0.54414097663E+02  0.41800000000E+01 0. -1.
        -11    1    4    4    0    0 -0.32553142951E+02  0.25353573349E+02 -0.42182236786E+02  0.59007219032E+02  0.00000000000E+00 0.  1.
         11    1    4    4    0    0  0.33389940304E+02 -0.13618303797E+02  0.10682328530E+02  0.37609286814E+02  0.00000000000E+00 0. -1.
</event>
<event>
 8    1  0.3710605E-009  0.1645966E+03  0.7561462E-02  0.1183603E+00
          1   -1    0    0  501    0  0.00000000000E+00  0.00000000000E+00  0.10747354666E+03  0.10747354666E+03  0.00000000000E+00 0. -1.
         -1   -1    0    0    0  501 -0.00000000000E+00 -0.00000000000E+00 -0.33125372156E+03  0.33125372156E+03  0.00000000000E+00 0.  1.
         25    2    1    2    0    0 -0.12412954676E+03 -0.37900445780E+02 -0.21413729400E+03  0.27990545593E+03  0.12509074869E+03 0.  0.
         23    2    1    2    0    0  0.12412954676E+03  0.37900445780E+02 -0.96428808985E+01  0.15882181229E+03  0.91031833665E+02 0.  0.
          5    1    3    3  502    0 -0.21327116085E+02 -0.64451077861E+02 -0.50167449515E+02  0.84516464129E+02  0.41800000000E+01 0.  1.
         -5    1    3    3    0  502 -0.10280243067E+03  0.26550632082E+02 -0.16396984449E+03  0.19538899180E+03  0.41800000000E+01 0.  1.
        -11    1    4    4    0    0  0.62842031840E+02 -0.24505012710E+02 -0.20942541273E+02  0.70627237300E+02  0.00000000000E+00 0. -1.
         11    1    4    4    0    0  0.61287514916E+02  0.62405458490E+02  0.11299660374E+02  0.88194574995E+02  0.00000000000E+00 0.  1.
</event>
<event>
 8    1  0.3710605E-009  0.2044882E+03  0.7561462E-02  0.1146007E+00
          1   -1    0    0  501    0  0.00000000000E+00  0.00000000000E+00  0.27958213466E+03  0.27958213466E+03  0.00000000000E+00 0. -1.
         -1   -1    0    0    0  501 -0.00000000000E+00 -0.00000000000E+00 -0.21239108860E+03  0.21239108860E+03  0.00000000000E+00 0.  1.
         25    2    1    2    0    0  0.11730769652E+03  0.15277423358E+03  0.13786656971E+03  0.26787540775E+03  0.12509588692E+03 0.  0.
         23    2    1    2    0    0 -0.11730769652E+03 -0.15277423358E+03 -0.70675523642E+02  0.22409781552E+03  0.90131787788E+02 0.  0.
          5    1    3    3  502    0  0.44721190582E+02  0.89139766895E+02  0.36048758206E+00  0.99817259432E+02  0.41800000000E+01 0.  1.
         -5    1    3    3    0  502  0.72586505941E+02  0.63634466680E+02  0.13750608212E+03  0.16805814832E+03  0.41800000000E+01 0.  1.
        -11    1    4    4    0    0 -0.54092439841E+02 -0.13713504062E+03 -0.52509418160E+02  0.15649041635E+03  0.00000000000E+00 0.  1.
         11    1    4    4    0    0 -0.63215256682E+02 -0.15639192953E+02 -0.18166105482E+02  0.67607399166E+02  0.00000000000E+00 0. -1.
</event>
<event>
 8    1  0.3710605E-009  0.1044664E+03  0.7561462E-02  0.1271175E+00
         -1   -1    0    0    0  501 -0.00000000000E+00  0.00000000000E+00  0.20479022360E+03  0.20479022360E+03  0.00000000000E+00 0.  1.
          1   -1    0    0  501    0  0.00000000000E+00 -0.00000000000E+00 -0.68417076482E+02  0.68417076482E+02  0.00000000000E+00 0. -1.
         25    2    1    2    0    0 -0.12316183694E+02  0.44186851729E+02  0.85571837204E+02  0.15834781999E+03  0.12508927423E+03 0.  0.
         23    2    1    2    0    0  0.12316183694E+02 -0.44186851729E+02  0.50801309913E+02  0.11485948009E+03  0.92237523982E+02 0.  0.
          5    1    3    3  502    0  0.48421596063E+02  0.52736845711E+02  0.44161436679E+02  0.84223101049E+02  0.41800000000E+01 0. -1.
         -5    1    3    3    0  502 -0.60737779757E+02 -0.85499939814E+01  0.41410400525E+02  0.74124718945E+02  0.41800000000E+01 0. -1.
        -11    1    4    4    0    0  0.36886074356E+02 -0.28086213367E+02  0.66875252869E+02  0.81373935071E+02  0.00000000000E+00 0.  1.
         11    1    4    4    0    0 -0.24569890661E+02 -0.16100638363E+02 -0.16073942957E+02  0.33485545015E+02  0.00000000000E+00 0. -1.
</event>
<event>
 8    1  0.3710605E-009  0.1409915E+03  0.7561462E-02  0.1212001E+00
          2   -1    0    0  501    0  0.00000000000E+00  0.00000000000E+00  0.12428925165E+04  0.12428925165E+04  0.00000000000E+00 0. -1.
         -2   -1    0    0    0  501 -0.00000000000E+00 -0.00000000000E+00 -0.22698699343E+02  0.22698699343E+02  0.00000000000E+00 0.  1.
         25    2    1    2    0    0 -0.69283981753E+02 -0.10708273458E+03  0.68488083139E+03  0.70779634921E+03  0.12508771550E+03 0.  0.
         23    2    1    2    0    0  0.69283981753E+02  0.10708273458E+03  0.53531298578E+03  0.55779486665E+03  0.91148989830E+02 0.  0.
          5    1    3    3  502    0  0.19242448549E+02 -0.33863361600E+02  0.55076123971E+02  0.67585878086E+02  0.41800000000E+01 0.  1.
         -5    1    3    3    0  502 -0.88526430302E+02 -0.73219372979E+02  0.62980470742E+03  0.64021047112E+03  0.41800000000E+01 0.  1.
        -11    1    4    4    0    0  0.14365058819E+02  0.16081246266E+02  0.13891132390E+02  0.25650047864E+02  0.00000000000E+00 0.  1.
         11    1    4    4    0    0  0.54918922935E+02  0.91001488313E+02  0.52142185339E+03  0.53214481879E+03  0.00000000000E+00 0. -1.
</event>
<event>
 8    1  0.3710605E-009  0.1743799E+03  0.7561462E-02  0.1173356E+00
          1   -1    0    0  501    0  0.00000000000E+00  0.00000000000E+00  0.82224808616E+03  0.82224808616E+03  0.00000000000E+00 0. -1.
         -1   -1    0    0    0  501 -0.00000000000E+00 -0.00000000000E+00 -0.72736152879E+02  0.72736152879E+02  0.00000000000E+00 0.  1.
         25    2    1    2    0    0 -0.14507847996E+03  0.45216871364E+02  0.98184031345E+02  0.21995685238E+03  0.12509429281E+03 0.  0.
         23    2    1    2    0    0  0.14507847996E+03 -0.45216871364E+02  0.65132790194E+03  0.67502738666E+03  0.91332393469E+02 0.  0.
          5    1    3    3  502    0 -0.14020445860E+03 -0.10463245893E+02  0.66692627382E+02  0.15566678732E+03  0.41800000000E+01 0. -1.
         -5    1    3    3    0  502 -0.48740213602E+01  0.55680117257E+02  0.31491403963E+02  0.64290065061E+02  0.41800000000E+01 0. -1.
        -11    1    4    4    0    0  0.93400850922E+02 -0.31761783044E+02  0.56477643208E+03  0.57332795854E+03  0.00000000000E+00 0.  1.
         11    1    4    4    0    0  0.51677629042E+02 -0.13455088320E+02  0.86551469858E+02  0.10169942812E+03  0.00000000000E+00 0. -1.
</event>
<event>
 8    1  0.3710605E-009  0.5481505E+02  0.7561462E-02  0.1420976E+00
         -4   -1    0    0    0  501 -0.00000000000E+00  0.00000000000E+00  0.91044843951E+02  0.91044843951E+02  0.00000000000E+00 0.  1.
          4   -1    0    0  501    0  0.00000000000E+00 -0.00000000000E+00 -0.13935689020E+03  0.13935689020E+03  0.00000000000E+00 0. -1.
         25    2    1    2    0    0 -0.16219844255E+01  0.28554762581E+02 -0.26900360826E+02  0.13110761606E+03  0.12509025652E+03 0.  0.
         23    2    1    2    0    0  0.16219844255E+01 -0.28554762581E+02 -0.21411685428E+02  0.99294118098E+02  0.92643706297E+02 0.  0.
          5    1    3    3  502    0  0.12270217055E+02  0.54970499012E+01 -0.74740342738E+02  0.76055026243E+02  0.41800000000E+01 0. -1.
         -5    1    3    3    0  502 -0.13892201481E+02  0.23057712679E+02  0.47839981912E+02  0.55052589815E+02  0.41800000000E+01 0. -1.
        -11    1    4    4    0    0  0.62649095030E+01 -0.47953734125E+02  0.20770950350E+02  0.52633089269E+02  0.00000000000E+00 0.  1.
         11    1    4    4    0    0 -0.46429250775E+01  0.19398971544E+02 -0.42182635777E+02  0.46661028829E+02  0.00000000000E+00 0. -1.
</event>
<event>
 8    1  0.3710605E-009  0.1348696E+03  0.7561462E-02  0.1220404E+00
         -2   -1    0    0    0  501 -0.00000000000E+00  0.00000000000E+00  0.65805221633E+02  0.65805221633E+02  0.00000000000E+00 0.  1.
          2   -1    0    0  501    0  0.00000000000E+00 -0.00000000000E+00 -0.33363032429E+03  0.33363032429E+03  0.00000000000E+00 0. -1.
         25    2    1    2    0    0  0.32899207639E+02 -0.93456215071E+02 -0.11796122087E+03  0.19843813745E+03  0.12508566172E+03 0.  0.
         23    2    1    2    0    0 -0.32899207639E+02  0.93456215071E+02 -0.14986388179E+03  0.20099740847E+03  0.90135193731E+02 0.  0.
          5    1    3    3  502    0  0.79056301001E+02 -0.76749841445E+02 -0.79397747230E+02  0.13587461704E+03  0.41800000000E+01 0. -1.
         -5    1    3    3    0  502 -0.46157093363E+02 -0.16706373626E+02 -0.38563473635E+02  0.62563520411E+02  0.41800000000E+01 0. -1.
        -11    1    4    4    0    0  0.41529480699E+00  0.68710294270E+02 -0.31535378255E+02  0.75602626212E+02  0.00000000000E+00 0.  1.
         11    1    4    4    0    0 -0.33314502446E+02  0.24745920801E+02 -0.11832850354E+03  0.12539478226E+03  0.00000000000E+00 0. -1.
</event>
<event>
 8    1  0.3710605E-009  0.1041923E+03  0.7561462E-02  0.1271719E+00
         -1   -1    0    0    0  501 -0.00000000000E+00  0.00000000000E+00  0.17937697752E+03  0.17937697752E+03  0.00000000000E+00 0.  1.
          1   -1    0    0  501    0  0.00000000000E+00 -0.00000000000E+00 -0.76556436171E+02  0.76556436171E+02  0.00000000000E+00 0. -1.
         25    2    1    2    0    0 -0.24512249869E+02  0.35311023313E+02  0.61430660116E+02  0.14583764946E+03  0.12508866950E+03 0.  0.
         23    2    1    2    0    0  0.24512249869E+02 -0.35311023313E+02  0.41389881230E+02  0.11009576423E+03  0.92521544907E+02 0.  0.
          5    1    3    3  502    0 -0.44997552055E+02 -0.35391979186E+02  0.36428034547E+02  0.67984159792E+02  0.41800000000E+01 0. -1.
         -5    1    3    3    0  502  0.20485302186E+02  0.70703002499E+02  0.25002625569E+02  0.77853489667E+02  0.41800000000E+01 0. -1.
        -11    1    4    4    0    0 -0.22046553108E+02 -0.13378153647E+02  0.51546085079E+02  0.57637005351E+02  0.00000000000E+00 0.  1.
         11    1    4    4    0    0  0.46558802977E+02 -0.21932869666E+02 -0.10156203848E+02  0.52458758878E+02  0.00000000000E+00 0. -1.
</event>
<event>
 8    1  0.3710605E-009  0.1329803E+03  0.7561462E-02  0.1223099E+00
          2   -1    0    0  501    0  0.00000000000E+00  0.00000000000E+00  0.17131234114E+04  0.17131234114E+04  0.00000000000E+00 0. -1.
         -2   -1    0    0    0  501 -0.00000000000E+00 -0.00000000000E+00 -0.18687678884E+02  0.18687678884E+02  0.00000000000E+00 0.  1.
         25    2    1    2    0    0  0.11379671507E+03 -0.11826612463E+02  0.13057688285E+04  0.13167266285E+04  0.12508884686E+03 0.  0.
         23    2    1    2    0    0 -0.11379671507E+03  0.11826612463E+02  0.38866690406E+03  0.41508446182E+03  0.90241825188E+02 0.  0.
          5    1    3    3  502    0  0.93903901705E+02  0.12080657795E+02  0.42668531038E+03  0.43708318606E+03  0.41800000000E+01 0.  1.
         -5    1    3    3    0  502  0.19892813362E+02 -0.23907270257E+02  0.87908351812E+03  0.87964344244E+03  0.41800000000E+01 0.  1.
        -11    1    4    4    0    0 -0.74799370991E+01 -0.25930322198E+02  0.13176521236E+03  0.13450056601E+03  0.00000000000E+00 0.  1.
         11    1    4    4    0    0 -0.10631677797E+03  0.37756934660E+02  0.25690169170E+03  0.28058389581E+03  0.00000000000E+00 0. -1.
</event>
<event>
 8    1  0.3710605E-009  0.1012528E+03  0.7561462E-02  0.1277683E+00
          1   -1    0    0  501    0  0.00000000000E+00  0.00000000000E+00  0.36827569317E+03  0.36827569317E+03  0.00000000000E+00 0. -1.
         -1   -1    0    0    0  501 -0.00000000000E+00 -0.00000000000E+00 -0.43807537610E+02  0.43807537610E+02  0.00000000000E+00 0.  1.
         25    2    1    2    0    0  0.52000841603E+02 -0.40893061508E+02  0.16922203997E+03  0.22059138656E+03  0.12509248981E+03 0.  0.
         23    2    1    2    0    0 -0.52000841603E+02  0.40893061508E+02  0.15524611559E+03  0.19149184422E+03  0.90506574288E+02 0.  0.
          5    1    3    3  502    0 -0.23269123728E+01  0.21968903568E+02 -0.87577198552E+01  0.24129179477E+02  0.41800000000E+01 0. -1.
         -5    1    3    3    0  502  0.54327753976E+02 -0.62861965076E+02  0.17797975983E+03  0.19646220709E+03  0.41800000000E+01 0. -1.
        -11    1    4    4    0    0  0.65954679528E+01 -0.14667361254E+02 -0.46439519342E+00  0.16088733529E+02  0.00000000000E+00 0.  1.
         11    1    4    4    0    0 -0.58596309556E+02  0.55560422762E+02  0.15571051078E+03  0.17540311069E+03  0.00000000000E+00 0. -1.
</event>
<event>
 8    1  0.3710605E-009  0.1065409E+03  0.7561462E-02  0.1267113E+00
          2   -1    0    0  501    0  0.00000000000E+00  0.00000000000E+00  0.62285302530E+03  0.62285302530E+03  0.00000000000E+00 0.  1.
         -2   -1    0    0    0  501 -0.00000000000E+00 -0.00000000000E+00 -0.22849226814E+02  0.22849226814E+02  0.00000000000E+00 0. -1.
         25    2    1    2    0    0 -0.42731526622E+02  0.66335212338E+01  0.41073782803E+03  0.43153560965E+03  0.12508969602E+03 0.  0.
         23    2    1    2    0    0  0.42731526622E+02 -0.66335212338E+01  0.18926597046E+03  0.21416664246E+03  0.90419888299E+02 0.  0.
          5    1    3    3  502    0  0.33885119710E+02 -0.19457171938E+02  0.61239342261E+02  0.72763399578E+02  0.41800000000E+01 0. -1.
         -5    1    3    3    0  502 -0.76616646333E+02  0.26090693171E+02  0.34949848577E+03  0.35877221007E+03  0.41800000000E+01 0. -1.
        -11    1    4    4    0    0  0.65086351630E+02  0.86516281136E+01  0.16582095086E+03  0.17834705375E+03  0.00000000000E+00 0.  1.
         11    1    4    4    0    0 -0.22354825007E+02 -0.15285149347E+02  0.23445019596E+02  0.35819588713E+02  0.00000000000E+00 0. -1.
</event>
<event>
 8    1  0.3710605E-009  0.1043575E+03  0.7561462E-02  0.1271391E+00
         -1   -1    0    0    0  501 -0.00000000000E+00  0.00000000000E+00  0.22906088553E+02  0.22906088553E+02  0.00000000000E+00 0.  1.
          1   -1    0    0  501    0  0.00000000000E+00 -0.00000000000E+00 -0.12140035564E+04  0.12140035564E+04  0.00000000000E+00 0. -1.
         25    2    1    2    0    0 -0.18838234968E+02  0.30229526583E+02 -0.10529926047E+04  0.10609946066E+04  0.12508967298E+03 0.  0.
         23    2    1    2    0    0  0.18838234968E+02 -0.30229526583E+02 -0.13810486311E+03  0.17591503833E+03  0.10297788171E+03 0.  0.
          5    1    3    3  502    0 -0.70227622858E+02  0.22437840654E+00 -0.55436355956E+03  0.55880980479E+03  0.41800000000E+01 0.  1.
         -5    1    3    3    0  502  0.51389387890E+02  0.30005148177E+02 -0.49862904513E+03  0.50218480179E+03  0.41800000000E+01 0.  1.
        -11    1    4    4    0    0  0.21156825915E+02  0.19590742861E+02  0.26061206044E+00  0.28835332620E+02  0.00000000000E+00 0.  1.
         11    1    4    4    0    0 -0.23185909470E+01 -0.49820269445E+02 -0.13836547517E+03  0.14707970571E+03  0.00000000000E+00 0. -1.
</event>
<event>
 8    1  0.3710605E-009  0.6792220E+02  0.7561462E-02  0.1367305E+00
         -2   -1    0    0    0  501 -0.00000000000E+00  0.00000000000E+00  0.13661791835E+03  0.13661791835E+03  0.00000000000E+00 0. -1.
          2   -1    0    0  501    0  0.00000000000E+00 -0.00000000000E+00 -0.12980656646E+03  0.12980656646E+03  0.00000000000E+00 0.  1.
         25    2    1    2    0    0  0.16154498513E+02 -0.47649991622E+02  0.62496124461E+02  0.14860919941E+03  0.12508972400E+03 0.  0.
         23    2    1    2    0    0 -0.16154498513E+02  0.47649991622E+02 -0.55684772567E+02  0.11781528541E+03  0.90819370491E+02 0.  0.
          5    1    3    3  502    0 -0.16104693627E+02 -0.40082191970E+02  0.93473643865E+02  0.10305696370E+03  0.41800000000E+01 0. -1.
         -5    1    3    3    0  502  0.32259192140E+02 -0.75677996511E+01 -0.30977519404E+02  0.45552235703E+02  0.41800000000E+01 0. -1.
        -11    1    4    4    0    0  0.33637376885E+01  0.36329508313E+02 -0.77981005543E+02  0.86094048174E+02  0.00000000000E+00 0.  1.
         11    1    4    4    0    0 -0.19518236202E+02  0.11320483309E+02  0.22296232976E+02  0.31721237235E+02  0.00000000000E+00 0. -1.
</event>
<event>
 8    1  0.3710605E-009  0.1074259E+03  0.7561462E-02  0.1265412E+00
         -1   -1    0    0    0  501 -0.00000000000E+00  0.00000000000E+00  0.23352474219E+03  0.23352474219E+03  0.00000000000E+00 0.  1.
          1   -1    0    0  501    0  0.00000000000E+00 -0.00000000000E+00 -0.79141663519E+02  0.79141663519E+02  0.00000000000E+00 0. -1.
         25    2    1    2    0    0 -0.40860135713E+02  0.65244033076E+02  0.11411090005E+03  0.18599568319E+03  0.12508701817E+03 0.  0.
         23    2    1    2    0    0  0.40860135713E+02 -0.65244033076E+02  0.40272178620E+02  0.12667072251E+03  0.92180741096E+02 0.  0.
          5    1    3    3  502    0  0.42161299338E+01 -0.30626233448E+02  0.58444405472E+02  0.66249247979E+02  0.41800000000E+01 0.  1.
         -5    1    3    3    0  502 -0.45076265647E+02  0.95870266524E+02  0.55666494579E+02  0.11974643521E+03  0.41800000000E+01 0.  1.
        -11    1    4    4    0    0  0.56255139197E+01 -0.16908363944E+02 -0.29688349656E+02  0.34625673761E+02  0.00000000000E+00 0. -1.
         11    1    4    4    0    0  0.35234621793E+02 -0.48335669132E+02  0.69960528276E+02  0.92045048753E+02  0.00000000000E+00 0.  1.
</event>
<event>
 8    1  0.3710605E-009  0.1374910E+03  0.7561462E-02  0.1216745E+00
          1   -1    0    0  501    0  0.00000000000E+00  0.00000000000E+00  0.14737016780E+03  0.14737016780E+03  0.00000000000E+00 0. -1.
         -1   -1    0    0    0  501 -0.00000000000E+00 -0.00000000000E+00 -0.14974372663E+03  0.14974372663E+03  0.00000000000E+00 0.  1.
         25    2    1    2    0    0  0.15274213778E+02 -0.91426723067E+02 -0.41703027044E+02  0.16118050257E+03  0.12509142516E+03 0.  0.
         23    2    1    2    0    0 -0.15274213778E+02  0.91426723067E+02  0.39329468216E+02  0.13593339185E+03  0.91317756501E+02 0.  0.
          5    1    3    3  502    0  0.58016434530E+02 -0.86377787841E+02 -0.46593814082E+01  0.10424112021E+03  0.41800000000E+01 0.  1.
         -5    1    3    3    0  502 -0.42742220752E+02 -0.50489352266E+01 -0.37043645636E+02  0.56939382362E+02  0.41800000000E+01 0.  1.
        -11    1    4    4    0    0 -0.51681684065E+02  0.44432983926E+02  0.34227802968E+02  0.76268138986E+02  0.00000000000E+00 0. -1.
         11    1    4    4    0    0  0.36407470286E+02  0.46993739141E+02  0.51016652479E+01  0.59665252864E+02  0.00000000000E+00 0.  1.
</event>
<event>
 8    1  0.3710605E-009  0.9756340E+02  0.7561462E-02  0.1285505E+00
          1   -1    0    0  501    0  0.00000000000E+00  0.00000000000E+00  0.50543905439E+03  0.50543905439E+03  0.00000000000E+00 0. -1.
         -1   -1    0    0    0  501 -0.00000000000E+00 -0.00000000000E+00 -0.33707298318E+02  0.33707298318E+02  0.00000000000E+00 0.  1.
         25    2    1    2    0    0 -0.51583206549E+02  0.48066598323E+02  0.23330711239E+03  0.27395410041E+03  0.12508962934E+03 0.  0.
         23    2    1    2    0    0  0.51583206549E+02 -0.48066598323E+02  0.23842464369E+03  0.26519225230E+03  0.92246381453E+02 0.  0.
          5    1    3    3  502    0 -0.15906581286E+02  0.59417450588E+02  0.32595883380E+02  0.69738201697E+02  0.41800000000E+01 0.  1.
         -5    1    3    3    0  502 -0.35676625263E+02 -0.11350852266E+02  0.20071122901E+03  0.20421589871E+03  0.41800000000E+01 0.  1.
        -11    1    4    4    0    0 -0.48327992326E+01 -0.38232858880E+02  0.29418060925E+02  0.48482262274E+02  0.00000000000E+00 0.  1.
         11    1    4    4    0    0  0.56416005781E+02 -0.98337394422E+01  0.20900658276E+03  0.21670999003E+03  0.00000000000E+00 0. -1.
</event>
<event>
 8    1  0.3710605E-009  0.2058968E+03  0.7561462E-02  0.1144857E+00
          2   -1    0    0  501    0  0.00000000000E+00  0.00000000000E+00  0.43119715643E+02  0.43119715643E+02  0.00000000000E+00 0. -1.
         -2   -1    0    0    0  501 -0.00000000000E+00 -0.00000000000E+00 -0.10101645058E+04  0.10101645058E+04  0.00000000000E+00 0.  1.
         25    2    1    2    0    0  0.77705691011E+02  0.15766476980E+03 -0.58128189925E+03  0.62002696280E+03  0.12509370148E+03 0.  0.
         23    2    1    2    0    0 -0.77705691011E+02 -0.15766476980E+03 -0.38576289095E+03  0.43325725869E+03  0.89456638198E+02 0.  0.
          5    1    3    3  502    0  0.95440262979E+02  0.16906947238E+03 -0.52740140922E+03  0.56201694738E+03  0.41800000000E+01 0.  1.
         -5    1    3    3    0  502 -0.17734571968E+02 -0.11404702578E+02 -0.53880490023E+02  0.58010015419E+02  0.41800000000E+01 0.  1.
        -11    1    4    4    0    0 -0.70475526851E+01 -0.11145684371E+03 -0.19652488436E+03  0.22604054101E+03  0.00000000000E+00 0.  1.
         11    1    4    4    0    0 -0.70658138326E+02 -0.46207926096E+02 -0.18923800659E+03  0.20721671768E+03  0.00000000000E+00 0. -1.
</event>
<event>
 8    1  0.3710605E-009  0.4588664E+02  0.7561462E-02  0.1468881E+00
         -1   -1    0    0    0  501 -0.00000000000E+00  0.00000000000E+00  0.31144893373E+02  0.31144893373E+02  0.00000000000E+00 0.  1.
          1   -1    0    0  501    0  0.00000000000E+00 -0.00000000000E+00 -0.40116541736E+03  0.40116541736E+03  0.00000000000E+00 0. -1.
         25    2    1    2    0    0  0.20326290011E+02  0.17721337124E+02 -0.22953894186E+03  0.26279794142E+03  0.12508968114E+03 0.  0.
         23    2    1    2    0    0 -0.20326290011E+02 -0.17721337124E+02 -0.14048158212E+03  0.16951236931E+03  0.90951440775E+02 0.  0.
          5    1    3    3  502    0  0.20461447387E+02  0.84324519538E+01 -0.24403960309E+03  0.24507667647E+03  0.41800000000E+01 0. -1.
         -5    1    3    3    0  502 -0.13515737580E+00  0.92888851706E+01  0.14500661228E+02  0.17721264946E+02  0.41800000000E+01 0. -1.
        -11    1    4    4    0    0  0.16255598042E+02 -0.15426552665E+02  0.18978892717E+01  0.22490553095E+02  0.00000000000E+00 0.  1.
         11    1    4    4    0    0 -0.36581888053E+02 -0.22947844598E+01 -0.14237947140E+03  0.14702181622E+03  0.00000000000E+00 0. -1.
</event>
<event>
 8    1  0.3710605E-009  0.1588250E+03  0.7561462E-02  0.1190030E+00
         -2   -1    0    0    0  501 -0.00000000000E+00  0.00000000000E+00  0.16336087421E+03  0.16336087421E+03  0.00000000000E+00 0.  1.
          2   -1    0    0  501    0  0.00000000000E+00 -0.00000000000E+00 -0.19172824856E+03  0.19172824856E+03  0.00000000000E+00 0. -1.
         25    2    1    2    0    0  0.11283805080E+03 -0.86032565501E+02 -0.28126131331E+02  0.19123829378E+03  0.12508787995E+03 0.  0.
         23    2    1    2    0    0 -0.11283805080E+03  0.86032565501E+02 -0.24124302315E+00  0.16385082899E+03  0.81932947747E+02 0.  0.
          5    1    3    3  502    0  0.13181579210E+03 -0.67555405690E+02 -0.50259019905E+02  0.15646909396E+03  0.41800000000E+01 0.  1.
         -5    1    3    3    0  502 -0.18977741299E+02 -0.18477159811E+02  0.22132888573E+02  0.34769199820E+02  0.41800000000E+01 0.  1.
        -11    1    4    4    0    0 -0.87939772458E+02  0.58956311279E+02 -0.36705649152E+02  0.11205603464E+03  0.00000000000E+00 0. -1.
         11    1    4    4    0    0 -0.24898278339E+02  0.27076254223E+02  0.36464406128E+02  0.51794794346E+02  0.00000000000E+00 0.  1.
</event>
<event>
 8    1  0.3710605E-009  0.1247467E+03  0.7561462E-02  0.1235466E+00
          1   -1    0    0  501    0  0.00000000000E+00  0.00000000000E+00  0.16717668776E+03  0.16717668776E+03  0.00000000000E+00 0. -1.
         -1   -1    0    0    0  501 -0.00000000000E+00 -0.00000000000E+00 -0.11347244457E+03  0.11347244457E+03  0.00000000000E+00 0.  1.
         25    2    1    2    0    0 -0.79168861265E+02 -0.58358025076E+01  0.39813336155E+01  0.14820811230E+03  0.12509207948E+03 0.  0.
         23    2    1    2    0    0  0.79168861265E+02  0.58358025076E+01  0.49722909574E+02  0.13244102004E+03  0.93629540573E+02 0.  0.
          5    1    3    3  502    0 -0.54299729325E+02  0.55207336281E+02 -0.16046288688E+02  0.79191327585E+02  0.41800000000E+01 0. -1.
         -5    1    3    3    0  502 -0.24869131941E+02 -0.61043138789E+02  0.20027622304E+02  0.69016784711E+02  0.41800000000E+01 0. -1.
        -11    1    4    4    0    0  0.35338467854E+02  0.37727320638E+02  0.57905261743E+02  0.77622016016E+02  0.00000000000E+00 0. -1.
         11    1    4    4    0    0  0.43830393411E+02 -0.31891518131E+02 -0.81823521690E+01  0.54819004025E+02  0.00000000000E+00 0.  1.
</event>
<event>
 8    1  0.3710605E-009  0.9159738E+02  0.7561462E-02  0.1299029E+00
         -2   -1    0    0    0  501 -0.00000000000E+00  0.00000000000E+00  0.90693558878E+02  0.90693558878E+02  0.00000000000E+00 0.  1.
          2   -1    0    0  501    0  0.00000000000E+00 -0.00000000000E+00 -0.17469471189E+03  0.17469471189E+03  0.00000000000E+00 0. -1.
         25    2    1    2    0    0  0.21994369437E+02 -0.64834429417E+02 -0.24980025893E+02  0.14477135211E+03  0.12508991635E+03 0.  0.
         23    2    1    2    0    0 -0.21994369437E+02  0.64834429417E+02 -0.59021127118E+02  0.12061691866E+03  0.79860453893E+02 0.  0.
          5    1    3    3  502    0 -0.16503236770E+02  0.10332898355E+01  0.40627061965E+02  0.44061945890E+02  0.41800000000E+01 0. -1.
         -5    1    3    3    0  502  0.38497606208E+02 -0.65867719253E+02 -0.65607087858E+02  0.10070940622E+03  0.41800000000E+01 0. -1.
        -11    1    4    4    0    0  0.19608605920E+02  0.14266204219E+02 -0.48595492087E+02  0.54309703185E+02  0.00000000000E+00 0. -1.
         11    1    4    4    0    0 -0.41602975357E+02  0.50568225199E+02 -0.10425635032E+02  0.66307215475E+02  0.00000000000E+00 0.  1.
</event>
<event>
 8    1  0.3710605E-009  0.7118572E+02  0.7561462E-02  0.1356107E+00
          1   -1    0    0  501    0  0.00000000000E+00  0.00000000000E+00  0.38386093741E+03  0.38386093741E+03  0.00000000000E+00 0. -1.
         -1   -1    0    0    0  501 -0.00000000000E+00 -0.00000000000E+00 -0.32287309418E+02  0.32287309418E+02  0.00000000000E+00 0.  1.
         25    2    1    2    0    0 -0.10911110197E+02  0.21263084753E+02  0.22642361111E+03  0.25978047669E+03  0.12508826205E+03 0.  0.
         23    2    1    2    0    0  0.10911110197E+02 -0.21263084753E+02  0.12515001689E+03  0.15636777014E+03  0.90648671877E+02 0.  0.
          5    1    3    3  502    0 -0.19275038466E+02  0.33528844637E+02  0.66471432500E+01  0.39463495080E+02  0.41800000000E+01 0.  1.
         -5    1    3    3    0  502  0.83639282690E+01 -0.12265759884E+02  0.21977646786E+03  0.22031698161E+03  0.41800000000E+01 0.  1.
        -11    1    4    4    0    0  0.47249923405E+02 -0.21005867426E+02  0.45732180906E+02  0.69030675054E+02  0.00000000000E+00 0.  1.
         11    1    4    4    0    0 -0.36338813208E+02 -0.25721732725E+00  0.79417835982E+02  0.87337095087E+02  0.00000000000E+00 0. -1.
</event>
<event>
 8    1  0.3710605E-009  0.1227032E+03  0.7561462E-02  0.1238703E+00
          1   -1    0    0  501    0  0.00000000000E+00  0.00000000000E+00  0.27916256397E+03  0.27916256397E+03  0.00000000000E+00 0. -1.
         -1   -1    0    0    0  501 -0.00000000000E+00 -0.00000000000E+00 -0.55718429445E+02  0.55718429445E+02  0.00000000000E+00 0.  1.
         25    2    1    2    0    0 -0.10052763879E+01 -0.62899141870E+02  0.12278969266E+03  0.18623193066E+03  0.12509080999E+03 0.  0.
         23    2    1    2    0    0  0.10052763879E+01  0.62899141870E+02  0.10065444186E+03  0.14864906276E+03  0.89486951920E+02 0.  0.
          5    1    3    3  502    0 -0.58747626529E+02 -0.55808092330E+02  0.79524318774E+02  0.11361081141E+03  0.41800000000E+01 0. -1.
         -5    1    3    3    0  502  0.57742350141E+02 -0.70910495396E+01  0.43265373890E+02  0.72621119251E+02  0.41800000000E+01 0. -1.
        -11    1    4    4    0    0 -0.37110033369E+02  0.56042922168E+02  0.80883954002E+02  0.10516737953E+03  0.00000000000E+00 0. -1.
         11    1    4    4    0    0  0.38115309757E+02  0.68562197021E+01  0.19770487863E+02  0.43481683233E+02  0.00000000000E+00 0.  1.
</event>
<event>
 8    1  0.3710605E-009  0.1800838E+03  0.7561462E-02  0.1167722E+00
          1   -1    0    0  501    0  0.00000000000E+00  0.00000000000E+00  0.15760139543E+04  0.15760139543E+04  0.00000000000E+00 0. -1.
         -1   -1    0    0    0  501 -0.00000000000E+00 -0.00000000000E+00 -0.29387736555E+02  0.29387736555E+02  0.00000000000E+00 0.  1.
         25    2    1    2    0    0 -0.28528932677E+02  0.15400607258E+03  0.11763000626E+04  0.11932545598E+04  0.12507132681E+03 0.  0.
         23    2    1    2    0    0  0.28528932677E+02 -0.15400607258E+03  0.37032615520E+03  0.41214713112E+03  0.90509812043E+02 0.  0.
          5    1    3    3  502    0 -0.72946003207E+02  0.91130954732E+02  0.84899631621E+03  0.85699369171E+03  0.41800000000E+01 0.  1.
         -5    1    3    3    0  502  0.44417070529E+02  0.62875117847E+02  0.32730374637E+03  0.33626086806E+03  0.41800000000E+01 0.  1.
        -11    1    4    4    0    0 -0.16857065650E+02 -0.33599374485E+02  0.29327134191E+02  0.47677661729E+02  0.00000000000E+00 0.  1.
         11    1    4    4    0    0  0.45385998328E+02 -0.12040669809E+03  0.34099902101E+03  0.36446946939E+03  0.00000000000E+00 0. -1.
</event>
<event>
 8    1  0.3710605E-009  0.9296920E+02  0.7561462E-02  0.1295817E+00
          1   -1    0    0  501    0  0.00000000000E+00  0.00000000000E+00  0.88000523094E+03  0.88000523094E+03  0.00000000000E+00 0. -1.
         -1   -1    0    0    0  501 -0.00000000000E+00 -0.00000000000E+00 -0.14798974337E+02  0.14798974337E+02  0.00000000000E+00 0.  1.
         25    2    1    2    0    0  0.28997351657E+02 -0.13044211945E+02  0.52990619462E+03  0.54540122285E+03  0.12510364072E+03 0.  0.
         23    2    1    2    0    0 -0.28997351657E+02  0.13044211945E+02  0.33530006198E+03  0.34940298242E+03  0.92980184420E+02 0.  0.
          5    1    3    3  502    0  0.33279146798E+02  0.35045314442E+02  0.44502171019E+03  0.44765776059E+03  0.41800000000E+01 0.  1.
         -5    1    3    3    0  502 -0.42817951404E+01 -0.48089526387E+02  0.84884484431E+02  0.97743462261E+02  0.41800000000E+01 0.  1.
        -11    1    4    4    0    0 -0.53426830224E+02  0.28005522252E+02  0.28679558649E+03  0.29307071483E+03  0.00000000000E+00 0. -1.
         11    1    4    4    0    0  0.24429478566E+02 -0.14961310307E+02  0.48504475494E+02  0.56332267592E+02  0.00000000000E+00 0.  1.
</event>
<event>
 8    1  0.3710605E-009  0.1081545E+03  0.7561462E-02  0.1264026E+00
          1   -1    0    0  501    0  0.00000000000E+00  0.00000000000E+00  0.57046058393E+03  0.57046058393E+03  0.00000000000E+00 0. -1.
         -1   -1    0    0    0  501 -0.00000000000E+00 -0.00000000000E+00 -0.25269438553E+02  0.25269438553E+02  0.00000000000E+00 0.  1.
         25    2    1    2    0    0 -0.11428419254E+02  0.13904113464E+02  0.18908522768E+03  0.22742989721E+03  0.12508877518E+03 0.  0.
         23    2    1    2    0    0  0.11428419254E+02 -0.13904113464E+02  0.35610591770E+03  0.36830012528E+03  0.92247626119E+02 0.  0.
          5    1    3    3  502    0  0.51053494879E+02  0.31399660255E+02  0.74785622845E+02  0.95931015776E+02  0.41800000000E+01 0. -1.
         -5    1    3    3    0  502 -0.62481914132E+02 -0.17495546792E+02  0.11429960484E+03  0.13149888143E+03  0.41800000000E+01 0. -1.
        -11    1    4    4    0    0  0.50212163082E+02 -0.63463321634E+00  0.23925410696E+03  0.24446715890E+03  0.00000000000E+00 0. -1.
         11    1    4    4    0    0 -0.38783743828E+02 -0.13269480247E+02  0.11685181073E+03  0.12383296638E+03  0.00000000000E+00 0.  1.
</event>
<event>
 8    1  0.3710605E-009  0.2542704E+03  0.7561462E-02  0.1110635E+00
          4   -1    0    0  501    0  0.00000000000E+00  0.00000000000E+00  0.10649181884E+03  0.10649181884E+03  0.00000000000E+00 0. -1.
         -4   -1    0    0    0  501 -0.00000000000E+00 -0.00000000000E+00 -0.66492200847E+03  0.66492200847E+03  0.00000000000E+00 0.  1.
         25    2    1    2    0    0  0.22511215123E+03 -0.90395324615E+02 -0.29868658888E+03  0.40460577260E+03  0.12508140349E+03 0.  0.
         23    2    1    2    0    0 -0.22511215123E+03  0.90395324615E+02 -0.25974360074E+03  0.36680805470E+03  0.90744782350E+02 0.  0.
          5    1    3    3  502    0  0.14043170353E+03 -0.85822911965E+02 -0.26759898308E+03  0.31418676566E+03  0.41800000000E+01 0.  1.
         -5    1    3    3    0  502  0.84680447704E+02 -0.45724126506E+01 -0.31087605806E+02  0.90419006937E+02  0.41800000000E+01 0.  1.
        -11    1    4    4    0    0 -0.11771049319E+03 -0.13951781752E+01 -0.11805217516E+03  0.16671539457E+03  0.00000000000E+00 0.  1.
         11    1    4    4    0    0 -0.10740165805E+03  0.91790502791E+02 -0.14169142559E+03  0.20009266013E+03  0.00000000000E+00 0. -1.
</event>
<event>
 8    1  0.3710605E-009  0.1163363E+03  0.7561462E-02  0.1249266E+00
         -1   -1    0    0    0  501 -0.00000000000E+00  0.00000000000E+00  0.36531497953E+02  0.36531497953E+02  0.00000000000E+00 0.  1.
          1   -1    0    0  501    0  0.00000000000E+00 -0.00000000000E+00 -0.55793752844E+03  0.55793752844E+03  0.00000000000E+00 0. -1.
         25    2    1    2    0    0 -0.54315143669E+01 -0.87650697467E+02 -0.35085328741E+03  0.38269873309E+03  0.12509254538E+03 0.  0.
         23    2    1    2    0    0  0.54315143669E+01  0.87650697467E+02 -0.17055274308E+03  0.21177029330E+03  0.89701019162E+02 0.  0.
          5    1    3    3  502    0 -0.27070624707E+02 -0.88550947796E+02 -0.12420085852E+03  0.15497552947E+03  0.41800000000E+01 0.  1.
         -5    1    3    3    0  502  0.21639110340E+02  0.90025032942E+00 -0.22665242888E+03  0.22772320362E+03  0.41800000000E+01 0.  1.
        -11    1    4    4    0    0 -0.35649767681E+02  0.54555472105E+02 -0.12932391307E+03  0.14481671162E+03  0.00000000000E+00 0. -1.
         11    1    4    4    0    0  0.41081282048E+02  0.33095225362E+02 -0.41228830012E+02  0.66953581686E+02  0.00000000000E+00 0.  1.
</event>
