<event>
 6    1  0.5317355E-006  0.1074257E+03  0.7561462E-02  0.1265413E+00
          1   -1    0    0  501    0  0.00000000000E+00  0.00000000000E+00  0.69814957820E+03  0.69814957820E+03  0.00000000000E+00 0. -1.
         -1   -1    0    0    0  501 -0.00000000000E+00 -0.00000000000E+00 -0.20842962976E+02  0.20842962976E+02  0.00000000000E+00 0.  1.
          5    1    1    2  502    0  0.52159094617E+02 -0.19551656355E+02  0.22431284928E+03  0.23116350311E+03  0.41800000000E+01 0. -1.
         -5    1    1    2    0  502 -0.24267821616E+02  0.53851890555E+02  0.70108812418E+02  0.91769664165E+02  0.41800000000E+01 0. -1.
        -11    1    1    2    0    0 -0.44119160695E+02 -0.56870776242E+02  0.24286249007E+03  0.25330411487E+03  0.00000000000E+00 0.  1.
         11    1    1    2    0    0  0.16227887694E+02  0.22570542041E+02  0.14002246345E+03  0.14275525902E+03  0.00000000000E+00 0. -1.
</event>
<event>
 6    1  0.5317355E-006  0.1357305E+03  0.7561462E-02  0.1219192E+00
         -2   -1    0    0    0  501 -0.00000000000E+00  0.00000000000E+00  0.12145321929E+03  0.12145321929E+03  0.00000000000E+00 0.  1.
          2   -1    0    0  501    0  0.00000000000E+00 -0.00000000000E+00 -0.18551429342E+03  0.18551429342E+03  0.00000000000E+00 0. -1.
          5    1    1    2  502    0 -0.59466922112E+02  0.63850474721E+02  0.30726279564E+01  0.87407730723E+02  0.41800000000E+01 0.  1.
         -5    1    1    2    0  502 -0.42449535175E+02 -0.53326727937E+02 -0.37519165009E+02  0.77915743544E+02  0.41800000000E+01 0.  1.
        -11    1    1    2    0    0  0.50873715542E+02 -0.32369530000E+02  0.23587244095E+02  0.64747814553E+02  0.00000000000E+00 0.  1.
         11    1    1    2    0    0  0.51042741745E+02  0.21845783216E+02 -0.53201781168E+02  0.76896223890E+02  0.00000000000E+00 0. -1.
</event>
<event>
 6    1  0.5317355E-006  0.1207813E+03  0.7561462E-02  0.1241814E+00
         -2   -1    0    0    0  501 -0.00000000000E+00  0.00000000000E+00  0.10349076801E+03  0.10349076801E+03  0.00000000000E+00 0.  1.
          2   -1    0    0  501    0  0.00000000000E+00 -0.00000000000E+00 -0.21388466825E+03  0.21388466825E+03  0.00000000000E+00 0. -1.
          5    1    1    2  502    0  0.96545769412E+02 -0.19121644725E+02 -0.29112233593E+00  0.98510304236E+02  0.41800000000E+01 0. -1.
         -5    1    1    2    0  502 -0.17753899604E+02  0.49035995553E+02  0.88441808980E+00  0.52325752803E+02  0.41800000000E+01 0. -1.
        -11    1    1    2    0    0 -0.42501354985E+02  0.17992143172E+01  0.31381067436E+01  0.42655012152E+02  0.00000000000E+00 0.  1.
         11    1    1    2    0    0 -0.36290514823E+02 -0.31713565145E+02 -0.11412530273E+03  0.12388436707E+03  0.00000000000E+00 0. -1.
</event>
<event>
 6    1  0.5317355E-006  0.2394261E+03  0.7561462E-02  0.1120176E+00
          1   -1    0    0  501    0  0.00000000000E+00  0.00000000000E+00  0.11447005114E+04  0.11447005114E+04  0.00000000000E+00 0. -1.
         -1   -1    0    0    0  501 -0.00000000000E+00 -0.00000000000E+00 -0.57411576117E+02  0.57411576117E+02  0.00000000000E+00 0.  1.
          5    1    1    2  502    0  0.17390821020E+03 -0.51510155822E+02  0.54259175800E+03  0.57211943681E+03  0.41800000000E+01 0. -1.
         -5    1    1    2    0  502 -0.10068636396E+03 -0.77163682079E+02  0.34025891003E+03  0.36316053747E+03  0.41800000000E+01 0.  1.
        -11    1    1    2    0    0 -0.30705299855E+02  0.12398474134E+03  0.16489936896E+03  0.20858291735E+03  0.00000000000E+00 0.  1.
         11    1    1    2    0    0 -0.42516546392E+02  0.46890965562E+01  0.39538898287E+02  0.58249195886E+02  0.00000000000E+00 0. -1.
</event>
<event>
 6    1  0.5317355E-006  0.1276187E+03  0.7561462E-02  0.1231033E+00
          1   -1    0    0  501    0  0.00000000000E+00  0.00000000000E+00  0.44231504262E+03  0.44231504262E+03  0.00000000000E+00 0. -1.
         -1   -1    0    0    0  501 -0.00000000000E+00 -0.00000000000E+00 -0.41330318628E+02  0.41330318628E+02  0.00000000000E+00 0.  1.
          5    1    1    2  502    0  0.95389409674E+02 -0.58282510207E+02  0.13999849742E+03  0.17920112208E+03  0.41800000000E+01 0. -1.
         -5    1    1    2    0  502 -0.21764136049E+02  0.27969291590E+02  0.59269786055E+02  0.69183371044E+02  0.41800000000E+01 0. -1.
        -11    1    1    2    0    0 -0.61434837690E+02  0.53518146655E+02  0.18963729524E+03  0.20639945506E+03  0.00000000000E+00 0. -1.
         11    1    1    2    0    0 -0.12190435935E+02 -0.23204928038E+02  0.12079145279E+02  0.28861413066E+02  0.00000000000E+00 0.  1.
</event>
<event>
 6    1  0.5317355E-006  0.1756832E+03  0.7561462E-02  0.1172047E+00
          1   -1    0    0  501    0  0.00000000000E+00  0.00000000000E+00  0.55773648443E+02  0.55773648443E+02  0.00000000000E+00 0. -1.
         -1   -1    0    0    0  501 -0.00000000000E+00 -0.00000000000E+00 -0.74025767423E+03  0.74025767423E+03  0.00000000000E+00 0.  1.
          5    1    1    2  502    0  0.12027710444E+03  0.11071838383E+03 -0.37178155220E+03  0.40615777394E+03  0.41800000000E+01 0.  1.
         -5    1    1    2    0  502 -0.18337766535E+02 -0.37735038860E+00 -0.14759810983E+03  0.14879210497E+03  0.41800000000E+01 0.  1.
        -11    1    1    2    0    0 -0.49010213755E+02 -0.10493783299E+03 -0.80168895125E+02  0.14085809025E+03  0.00000000000E+00 0. -1.
         11    1    1    2    0    0 -0.52929124152E+02 -0.54032004527E+01 -0.84935468621E+02  0.10022335351E+03  0.00000000000E+00 0.  1.
</event>
<event>
 6    1  0.5317355E-006  0.2971931E+03  0.7561462E-02  0.1086652E+00
          1   -1    0    0  501    0  0.00000000000E+00  0.00000000000E+00  0.46504619328E+03  0.46504619328E+03  0.00000000000E+00 0. -1.
         -1   -1    0    0    0  501 -0.00000000000E+00 -0.00000000000E+00 -0.25711287794E+03  0.25711287794E+03  0.00000000000E+00 0.  1.
          5    1    1    2  502    0  0.10025379205E+03 -0.68977340908E+02 -0.76336971359E+02  0.14371326305E+03  0.41800000000E+01 0.  1.
         -5    1    1    2    0  502  0.10996423581E+03 -0.13871868705E+03  0.32941884570E+02  0.18010454590E+03  0.41800000000E+01 0.  1.
        -11    1    1    2    0    0 -0.11188402998E+03  0.10705138662E+03  0.73022067682E+02  0.17120238874E+03  0.00000000000E+00 0. -1.
         11    1    1    2    0    0 -0.98333997879E+02  0.10064464134E+03  0.17830633445E+03  0.22713887354E+03  0.00000000000E+00 0.  1.
</event>
<event>
 6    1  0.5317355E-006  0.1003328E+03  0.7561462E-02  0.1279598E+00
          2   -1    0    0  501    0  0.00000000000E+00  0.00000000000E+00  0.56851968084E+03  0.56851968084E+03  0.00000000000E+00 0.  1.
         -2   -1    0    0    0  501 -0.00000000000E+00 -0.00000000000E+00 -0.22653332535E+02  0.22653332535E+02  0.00000000000E+00 0. -1.
          5    1    1    2  502    0  0.53488528398E+02  0.51840390527E+02  0.11964239876E+03  0.14099725083E+03  0.41800000000E+01 0.  1.
         -5    1    1    2    0  502 -0.26255608125E+02 -0.31198787636E+02  0.19605138345E+03  0.20029063548E+03  0.41800000000E+01 0.  1.
        -11    1    1    2    0    0 -0.32698984498E+02  0.23705341367E+02  0.50101518249E+02  0.64353157867E+02  0.00000000000E+00 0. -1.
         11    1    1    2    0    0  0.54660642259E+01 -0.44346944258E+02  0.18007104785E+03  0.18553196920E+03  0.00000000000E+00 0.  1.
</event>
<event>
 6    1  0.5317355E-006  0.1156886E+03  0.7561462E-02  0.1250384E+00
         -2   -1    0    0    0  501 -0.00000000000E+00  0.00000000000E+00  0.11101109049E+03  0.11101109049E+03  0.00000000000E+00 0.  1.
          2   -1    0    0  501    0  0.00000000000E+00 -0.00000000000E+00 -0.20401631703E+03  0.20401631703E+03  0.00000000000E+00 0. -1.
          5    1    1    2  502    0 -0.48224933714E+02 -0.98017913037E+02 -0.28260658938E+02  0.11291276611E+03  0.41800000000E+01 0. -1.
         -5    1    1    2    0  502  0.14017051679E+02  0.16013522781E+02  0.34376326437E+02  0.40646215924E+02  0.41800000000E+01 0. -1.
        -11    1    1    2    0    0  0.18758857234E+02  0.82802058011E+02 -0.29084611491E+02  0.89744025769E+02  0.00000000000E+00 0.  1.
         11    1    1    2    0    0  0.15449024801E+02 -0.79766775507E+00 -0.70036282551E+02  0.71724399716E+02  0.00000000000E+00 0. -1.
</event>
<event>
 6    1  0.5317355E-006  0.2465432E+03  0.7561462E-02  0.1115509E+00
          2   -1    0    0  501    0  0.00000000000E+00  0.00000000000E+00  0.39364410553E+03  0.39364410553E+03  0.00000000000E+00 0. -1.
         -2   -1    0    0    0  501 -0.00000000000E+00 -0.00000000000E+00 -0.26608272746E+03  0.26608272746E+03  0.00000000000E+00 0.  1.
          5    1    1    2  502    0 -0.12641287641E+02  0.92413674829E+01 -0.35430535445E+01  0.16590076992E+02  0.41800000000E+01 0. -1.
         -5    1    1    2    0  502  0.20046026742E+03 -0.12714848393E+03 -0.14413215102E+03  0.27774557627E+03  0.41800000000E+01 0. -1.
        -11    1    1    2    0    0 -0.13245557797E+03  0.12682394485E+03  0.19711671402E+03  0.26922814131E+03  0.00000000000E+00 0.  1.
         11    1    1    2    0    0 -0.55363401806E+02 -0.89168283977E+01  0.78119868606E+02  0.96163038426E+02  0.00000000000E+00 0. -1.
</event>
<event>
 6    1  0.5317355E-006  0.1088188E+03  0.7561462E-02  0.1262773E+00
         -1   -1    0    0    0  501 -0.00000000000E+00  0.00000000000E+00  0.17070584615E+03  0.17070584615E+03  0.00000000000E+00 0.  1.
          1   -1    0    0  501    0  0.00000000000E+00 -0.00000000000E+00 -0.80745927805E+02  0.80745927805E+02  0.00000000000E+00 0. -1.
          5    1    1    2  502    0  0.71845556730E+02 -0.31465178607E+02  0.47231689158E+02  0.91652312286E+02  0.41800000000E+01 0.  1.
         -5    1    1    2    0  502 -0.48937119140E+02 -0.46892629631E+01  0.18443724718E+01  0.49373119474E+02  0.41800000000E+01 0.  1.
        -11    1    1    2    0    0  0.34182322263E+01 -0.23920537758E+02  0.37674352627E+02  0.44757494166E+02  0.00000000000E+00 0.  1.
         11    1    1    2    0    0 -0.26326669817E+02  0.60074979328E+02  0.32095040878E+01  0.65668848028E+02  0.00000000000E+00 0. -1.
</event>
<event>
 6    1  0.5317355E-006  0.1921985E+03  0.7561462E-02  0.1156493E+00
         -4   -1    0    0    0  501 -0.00000000000E+00  0.00000000000E+00  0.36553458439E+03  0.36553458439E+03  0.00000000000E+00 0. -1.
          4   -1    0    0  501    0  0.00000000000E+00 -0.00000000000E+00 -0.12578082993E+03  0.12578082993E+03  0.00000000000E+00 0.  1.
          5    1    1    2  502    0  0.83759596765E+02  0.24221370988E+02  0.60150935674E+02  0.10600920868E+03  0.41800000000E+01 0. -1.
         -5    1    1    2    0  502  0.65754176511E+02 -0.90251928398E+02  0.16239848103E+03  0.19712879381E+03  0.41800000000E+01 0. -1.
        -11    1    1    2    0    0 -0.16029172499E+03  0.53843671981E+02  0.23528205927E+02  0.17072244898E+03  0.00000000000E+00 0. -1.
         11    1    1    2    0    0  0.10777951711E+02  0.12186885429E+02 -0.63238681608E+01  0.17454962849E+02  0.00000000000E+00 0.  1.
</event>
<event>
 6    1  0.5317355E-006  0.1064846E+03  0.7561462E-02  0.1267222E+00
          2   -1    0    0  501    0  0.00000000000E+00  0.00000000000E+00  0.35647735744E+02  0.35647735744E+02  0.00000000000E+00 0. -1.
         -2   -1    0    0    0  501 -0.00000000000E+00 -0.00000000000E+00 -0.39523921345E+03  0.39523921345E+03  0.00000000000E+00 0.  1.
          5    1    1    2  502    0  0.76867258111E+02 -0.10500181864E+02 -0.80364741746E+02  0.11178011140E+03  0.41800000000E+01 0.  1.
         -5    1    1    2    0  502 -0.41025218214E+02 -0.22288891232E+02 -0.12541188048E+03  0.13388605367E+03  0.41800000000E+01 0.  1.
        -11    1    1    2    0    0 -0.56831173541E+02  0.10517140949E+02 -0.14035298931E+03  0.15178720021E+03  0.00000000000E+00 0.  1.
         11    1    1    2    0    0  0.20989133644E+02  0.22271932147E+02 -0.13461866177E+02  0.33433583919E+02  0.00000000000E+00 0. -1.
</event>
<event>
 6    1  0.5317355E-006  0.1130655E+03  0.7561462E-02  0.1254996E+00
          1   -1    0    0  501    0  0.00000000000E+00  0.00000000000E+00  0.13155380950E+03  0.13155380950E+03  0.00000000000E+00 0. -1.
         -1   -1    0    0    0  501 -0.00000000000E+00 -0.00000000000E+00 -0.11564887536E+03  0.11564887536E+03  0.00000000000E+00 0.  1.
          5    1    1    2  502    0 -0.46593216131E+02  0.24186094254E+01 -0.21687387996E+02  0.51619692551E+02  0.41800000000E+01 0. -1.
         -5    1    1    2    0  502  0.76959152606E+02 -0.31841041922E+02 -0.84071963780E+01  0.83813581665E+02  0.41800000000E+01 0. -1.
        -11    1    1    2    0    0  0.21250884859E+01  0.54693946062E+02  0.44563636782E+02  0.70582302740E+02  0.00000000000E+00 0. -1.
         11    1    1    2    0    0 -0.32491024961E+02 -0.25271513565E+02  0.14358817253E+01  0.41187107901E+02  0.00000000000E+00 0.  1.
</event>
<event>
 6    1  0.5317355E-006  0.7923211E+02  0.7561462E-02  0.1331245E+00
         -1   -1    0    0    0  501 -0.00000000000E+00  0.00000000000E+00  0.26484869344E+02  0.26484869344E+02  0.00000000000E+00 0.  1.
          1   -1    0    0  501    0  0.00000000000E+00 -0.00000000000E+00 -0.41193753897E+03  0.41193753897E+03  0.00000000000E+00 0. -1.
          5    1    1    2  502    0 -0.10830753665E+02 -0.37340680954E+02 -0.19336568081E+03  0.19727998022E+03  0.41800000000E+01 0.  1.
         -5    1    1    2    0  502 -0.26587396417E+01  0.38632158936E+02 -0.73837222608E+01  0.39642204215E+02  0.41800000000E+01 0.  1.
        -11    1    1    2    0    0  0.13286993499E+02  0.38444317884E+02 -0.99153113006E+02  0.10717205602E+03  0.00000000000E+00 0.  1.
         11    1    1    2    0    0  0.20249980792E+00 -0.39735795865E+02 -0.85550153544E+02  0.94328167854E+02  0.00000000000E+00 0. -1.
</event>
<event>
 6    1  0.5317355E-006  0.9408285E+02  0.7561462E-02  0.1293255E+00
          1   -1    0    0  501    0  0.00000000000E+00  0.00000000000E+00  0.37090689499E+03  0.37090689499E+03  0.00000000000E+00 0.  1.
         -1   -1    0    0    0  501 -0.00000000000E+00 -0.00000000000E+00 -0.51581249541E+02  0.51581249541E+02  0.00000000000E+00 0. -1.
          5    1    1    2  502    0  0.25275598080E+02 -0.63467389918E+02 -0.11327248987E+02  0.69373946197E+02  0.41800000000E+01 0.  1.
         -5    1    1    2    0  502 -0.12736088722E+02  0.13047314744E+02  0.80641344960E+02  0.82782481811E+02  0.41800000000E+01 0.  1.
        -11    1    1    2    0    0 -0.22187458037E+02  0.73087762193E+02  0.20862725577E+03  0.22216983622E+03  0.00000000000E+00 0.  1.
         11    1    1    2    0    0  0.96479486799E+01 -0.22667687018E+02  0.41384293706E+02  0.48161880300E+02  0.00000000000E+00 0. -1.
</event>
<event>
 6    1  0.5317355E-006  0.1279669E+03  0.7561462E-02  0.1230504E+00
         -2   -1    0    0    0  501 -0.00000000000E+00  0.00000000000E+00  0.74652608936E+02  0.74652608936E+02  0.00000000000E+00 0.  1.
          2   -1    0    0  501    0  0.00000000000E+00 -0.00000000000E+00 -0.28804224304E+03  0.28804224304E+03  0.00000000000E+00 0. -1.
          5    1    1    2  502    0  0.17147436707E+02 -0.32241097654E+02 -0.23158690135E+01  0.36828774252E+02  0.41800000000E+01 0. -1.
         -5    1    1    2    0  502 -0.10770630308E+03  0.37853380965E+02 -0.68019256548E+02  0.13295720302E+03  0.41800000000E+01 0. -1.
        -11    1    1    2    0    0  0.43591028638E+01 -0.17397413563E+02  0.71654318056E+01  0.19313601151E+02  0.00000000000E+00 0.  1.
         11    1    1    2    0    0  0.86199763504E+02  0.11785130252E+02 -0.15021994035E+03  0.17359527356E+03  0.00000000000E+00 0. -1.
</event>
<event>
 6    1  0.5317355E-006  0.3553476E+03  0.7561462E-02  0.1060441E+00
          3   -1    0    0  501    0  0.00000000000E+00  0.00000000000E+00  0.12130814015E+03  0.12130814015E+03  0.00000000000E+00 0. -1.
         -3   -1    0    0    0  501 -0.00000000000E+00 -0.00000000000E+00 -0.11808940910E+04  0.11808940910E+04  0.00000000000E+00 0.  1.
          5    1    1    2  502    0  0.11226596831E+03  0.11116657565E+03 -0.26248806051E+03  0.30639698023E+03  0.41800000000E+01 0. -1.
         -5    1    1    2    0  502 -0.36624800693E+02 -0.11976477794E+03 -0.33508673719E+03  0.35775071196E+03  0.41800000000E+01 0.  1.
        -11    1    1    2    0    0  0.15486080360E+03 -0.87197348496E+02 -0.26951164156E+03  0.32283396818E+03  0.00000000000E+00 0.  1.
         11    1    1    2    0    0 -0.23050197121E+03  0.95795550789E+02 -0.19249951156E+03  0.31522057077E+03  0.00000000000E+00 0. -1.
</event>
<event>
 6    1  0.5317355E-006  0.1354660E+03  0.7561462E-02  0.1219563E+00
          4   -1    0    0  501    0  0.00000000000E+00  0.00000000000E+00  0.19750339882E+03  0.19750339882E+03  0.00000000000E+00 0. -1.
         -4   -1    0    0    0  501 -0.00000000000E+00 -0.00000000000E+00 -0.10486229487E+03  0.10486229487E+03  0.00000000000E+00 0.  1.
          5    1    1    2  502    0 -0.99410320217E+02 -0.72455339221E+02  0.24822908087E+02  0.12556208470E+03  0.41800000000E+01 0. -1.
         -5    1    1    2    0  502  0.21914270801E+02  0.23096420997E+02  0.56361112754E+01  0.32602424418E+02  0.41800000000E+01 0. -1.
        -11    1    1    2    0    0  0.55120728555E+02  0.67346215522E+02  0.72930858787E+02  0.11354610352E+03  0.00000000000E+00 0. -1.
         11    1    1    2    0    0  0.22375320861E+02 -0.17987297298E+02 -0.10748774192E+02  0.30655081053E+02  0.00000000000E+00 0.  1.
</event>
<event>
 6    1  0.5317355E-006  0.1562167E+03  0.7561462E-02  0.1193035E+00
         -2   -1    0    0    0  501 -0.00000000000E+00  0.00000000000E+00  0.35390603717E+03  0.35390603717E+03  0.00000000000E+00 0.  1.
          2   -1    0    0  501    0  0.00000000000E+00 -0.00000000000E+00 -0.12660233737E+03  0.12660233737E+03  0.00000000000E+00 0. -1.
          5    1    1    2  502    0  0.13242192020E+02  0.14444781117E+03 -0.62690021556E+01  0.14524909153E+03  0.41800000000E+01 0. -1.
         -5    1    1    2    0  502  0.11150713793E+00 -0.17049372578E+02  0.15982131896E+03  0.16078252372E+03  0.41800000000E+01 0.  1.
        -11    1    1    2    0    0  0.10907692903E+02 -0.12490001318E+03  0.37645762853E+02  0.13090528835E+03  0.00000000000E+00 0.  1.
         11    1    1    2    0    0 -0.24261392061E+02 -0.24984254171E+01  0.36105620143E+02  0.43571470944E+02  0.00000000000E+00 0. -1.
</event>
<event>
 6    1  0.5317355E-006  0.1289029E+03  0.7561462E-02  0.1229093E+00
         -2   -1    0    0    0  501 -0.00000000000E+00  0.00000000000E+00  0.60368887398E+02  0.60368887398E+02  0.00000000000E+00 0.  1.
          2   -1    0    0  501    0  0.00000000000E+00 -0.00000000000E+00 -0.30525691305E+03  0.30525691305E+03  0.00000000000E+00 0. -1.
          5    1    1    2  502    0  0.17852141661E+02 -0.63938643438E+02 -0.53947294440E+02  0.85642466476E+02  0.41800000000E+01 0.  1.
         -5    1    1    2    0  502 -0.81220960656E+02  0.13581913743E+02 -0.63292392513E+02  0.10394571747E+03  0.41800000000E+01 0.  1.
        -11    1    1    2    0    0  0.75781652852E+02  0.23652114594E+02 -0.52109340228E+02  0.94961385693E+02  0.00000000000E+00 0.  1.
         11    1    1    2    0    0 -0.12412833857E+02  0.26704615102E+02 -0.75538998468E+02  0.81076230806E+02  0.00000000000E+00 0. -1.
</event>
<event>
 6    1  0.5317355E-006  0.9296671E+02  0.7561462E-02  0.1295822E+00
         -2   -1    0    0    0  501 -0.00000000000E+00  0.00000000000E+00  0.86210197147E+02  0.86210197147E+02  0.00000000000E+00 0. -1.
          2   -1    0    0  501    0  0.00000000000E+00 -0.00000000000E+00 -0.16884414394E+03  0.16884414394E+03  0.00000000000E+00 0.  1.
          5    1    1    2  502    0 -0.28706200734E+01  0.64846219375E+02 -0.56123646959E+02  0.85910469530E+02  0.41800000000E+01 0. -1.
         -5    1    1    2    0  502  0.24047216523E+02 -0.23909328681E+02  0.35181774039E+02  0.49042371935E+02  0.41800000000E+01 0. -1.
        -11    1    1    2    0    0 -0.51167058971E+01  0.21578463461E+02  0.93938397684E+01  0.24084330802E+02  0.00000000000E+00 0. -1.
         11    1    1    2    0    0 -0.16059890552E+02 -0.62515354156E+02 -0.71085913640E+02  0.96017168818E+02  0.00000000000E+00 0.  1.
</event>
<event>
 6    1  0.5317355E-006  0.5328934E+02  0.7561462E-02  0.1428366E+00
         -2   -1    0    0    0  501 -0.00000000000E+00  0.00000000000E+00  0.27257561416E+03  0.27257561416E+03  0.00000000000E+00 0.  1.
          2   -1    0    0  501    0  0.00000000000E+00 -0.00000000000E+00 -0.79029433733E+02  0.79029433733E+02  0.00000000000E+00 0. -1.
          5    1    1    2  502    0  0.93014438531E+01  0.26428046481E+02 -0.57352158164E+01  0.28901965314E+02  0.41800000000E+01 0.  1.
         -5    1    1    2    0  502 -0.14106116053E+02  0.35117284016E+01  0.22387090391E+03  0.22438130217E+03  0.41800000000E+01 0.  1.
        -11    1    1    2    0    0 -0.14134604759E+01  0.16354639224E+02 -0.44585580681E+02  0.47511536487E+02  0.00000000000E+00 0. -1.
         11    1    1    2    0    0  0.62181326763E+01 -0.46294414107E+02  0.19996073017E+02  0.50810243924E+02  0.00000000000E+00 0.  1.
</event>
<event>
 6    1  0.5317355E-006  0.1049849E+03  0.7561462E-02  0.1270149E+00
          2   -1    0    0  501    0  0.00000000000E+00  0.00000000000E+00  0.35964989298E+03  0.35964989298E+03  0.00000000000E+00 0. -1.
         -2   -1    0    0    0  501 -0.00000000000E+00 -0.00000000000E+00 -0.81299359833E+02  0.81299359833E+02  0.00000000000E+00 0.  1.
          5    1    1    2  502    0 -0.27975040325E+02  0.20564610365E+01 -0.45949276343E+02  0.53996669431E+02  0.41800000000E+01 0. -1.
         -5    1    1    2    0  502 -0.46263717983E+02  0.58199441093E+02  0.75800363042E+02  0.10625758318E+03  0.41800000000E+01 0. -1.
        -11    1    1    2    0    0  0.77376143598E+02 -0.40869729723E+02  0.24575027991E+03  0.26086510399E+03  0.00000000000E+00 0. -1.
         11    1    1    2    0    0 -0.31373852896E+01 -0.19386172406E+02  0.27491665353E+01  0.19829896209E+02  0.00000000000E+00 0.  1.
</event>
<event>
 6    1  0.5317355E-006  0.1161453E+03  0.7561462E-02  0.1249595E+00
          1   -1    0    0  501    0  0.00000000000E+00  0.00000000000E+00  0.30681730551E+02  0.30681730551E+02  0.00000000000E+00 0. -1.
         -1   -1    0    0    0  501 -0.00000000000E+00 -0.00000000000E+00 -0.51923367336E+03  0.51923367336E+03  0.00000000000E+00 0.  1.
          5    1    1    2  502    0 -0.25496587937E+02  0.86615750710E+02 -0.19841214275E+03  0.21803030766E+03  0.41800000000E+01 0. -1.
         -5    1    1    2    0  502 -0.21966300187E+02 -0.44527012256E+02 -0.10432996898E+03  0.11561742079E+03  0.41800000000E+01 0. -1.
        -11    1    1    2    0    0 -0.63139716495E+01 -0.37585673503E+02 -0.14119491008E+03  0.14624825375E+03  0.00000000000E+00 0.  1.
         11    1    1    2    0    0  0.53776859774E+02 -0.45030649512E+01 -0.44614921004E+02  0.70019421715E+02  0.00000000000E+00 0. -1.
</event>
<event>
 6    1  0.5317355E-006  0.1611906E+03  0.7561462E-02  0.1187359E+00
         -2   -1    0    0    0  501 -0.00000000000E+00  0.00000000000E+00  0.20346849598E+02  0.20346849598E+02  0.00000000000E+00 0.  1.
          2   -1    0    0  501    0  0.00000000000E+00 -0.00000000000E+00 -0.14388409303E+04  0.14388409303E+04  0.00000000000E+00 0. -1.
          5    1    1    2  502    0 -0.71347276820E+02 -0.11332192278E+03 -0.42305098437E+03  0.44375883075E+03  0.41800000000E+01 0.  1.
         -5    1    1    2    0  502  0.13325648966E+01  0.18662003400E+02 -0.25481365464E+03  0.25553378855E+03  0.41800000000E+01 0.  1.
        -11    1    1    2    0    0  0.46611434854E+02 -0.21076292673E+02 -0.25890310251E+03  0.26390841681E+03  0.00000000000E+00 0.  1.
         11    1    1    2    0    0  0.23403277069E+02  0.11573621205E+03 -0.48172633922E+03  0.49598674383E+03  0.00000000000E+00 0. -1.
</event>
<event>
 6    1  0.5317355E-006  0.2551398E+03  0.7561462E-02  0.1110099E+00
          1   -1    0    0  501    0  0.00000000000E+00  0.00000000000E+00  0.81907303380E+02  0.81907303380E+02  0.00000000000E+00 0. -1.
         -1   -1    0    0    0  501 -0.00000000000E+00 -0.00000000000E+00 -0.10495584984E+04  0.10495584984E+04  0.00000000000E+00 0.  1.
          5    1    1    2  502    0 -0.83505869672E+02  0.95883118698E+01 -0.34553758810E+03  0.35563866941E+03  0.41800000000E+01 0. -1.
         -5    1    1    2    0  502 -0.12863387508E+03 -0.12095179822E+03 -0.39592571830E+03  0.43353276476E+03  0.41800000000E+01 0. -1.
        -11    1    1    2    0    0  0.19715231045E+02 -0.98962643993E+01 -0.49804152472E+02  0.54470909554E+02  0.00000000000E+00 0.  1.
         11    1    1    2    0    0  0.19242451371E+03  0.12125975075E+03 -0.17638373617E+03  0.28782345807E+03  0.00000000000E+00 0. -1.
</event>
<event>
 6    1  0.5317355E-006  0.8795650E+02  0.7561462E-02  0.1307877E+00
         -3   -1    0    0    0  501 -0.00000000000E+00  0.00000000000E+00  0.42999088156E+03  0.42999088156E+03  0.00000000000E+00 0.  1.
          3   -1    0    0  501    0  0.00000000000E+00 -0.00000000000E+00 -0.40971113402E+02  0.40971113402E+02  0.00000000000E+00 0. -1.
          5    1    1    2  502    0 -0.50200262257E+02 -0.10761584419E+02  0.29482214167E+03  0.29928823173E+03  0.41800000000E+01 0.  1.
         -5    1    1    2    0  502 -0.12644986436E+02  0.26495034518E+01 -0.10873482757E+02  0.17395993153E+02  0.41800000000E+01 0.  1.
        -11    1    1    2    0    0  0.24255123005E+02 -0.41440461336E+02  0.60617794129E+02  0.77331363578E+02  0.00000000000E+00 0.  1.
         11    1    1    2    0    0  0.38590125688E+02  0.49552542303E+02  0.44453315111E+02  0.76946406502E+02  0.00000000000E+00 0. -1.
</event>
<event>
 6    1  0.5317355E-006  0.1521547E+03  0.7561462E-02  0.1197850E+00
         -2   -1    0    0    0  501 -0.00000000000E+00  0.00000000000E+00  0.11684169428E+03  0.11684169428E+03  0.00000000000E+00 0.  1.
          2   -1    0    0  501    0  0.00000000000E+00 -0.00000000000E+00 -0.79031830516E+03  0.79031830516E+03  0.00000000000E+00 0. -1.
          5    1    1    2  502    0 -0.24206665325E+02  0.22228313253E+02  0.61446841053E+02  0.69808647255E+02  0.41800000000E+01 0.  1.
         -5    1    1    2    0  502 -0.10856963089E+03 -0.22708026973E+02 -0.30742761634E+02  0.11517642568E+03  0.41800000000E+01 0.  1.
        -11    1    1    2    0    0  0.19138394932E+02 -0.36052167989E+02 -0.17404731186E+03  0.17876941501E+03  0.00000000000E+00 0.  1.
         11    1    1    2    0    0  0.11363790128E+03  0.36531881709E+02 -0.53013337844E+03  0.54340551150E+03  0.00000000000E+00 0. -1.
</event>
<event>
 6    1  0.5317355E-006  0.9446013E+02  0.7561462E-02  0.1292397E+00
          1   -1    0    0  501    0  0.00000000000E+00  0.00000000000E+00  0.52054944174E+02  0.52054944174E+02  0.00000000000E+00 0. -1.
         -1   -1    0    0    0  501 -0.00000000000E+00 -0.00000000000E+00 -0.35850238624E+03  0.35850238624E+03  0.00000000000E+00 0.  1.
          5    1    1    2  502    0 -0.12654863955E+02  0.28361727159E+02 -0.14039372319E+02  0.34338164253E+02  0.41800000000E+01 0.  1.
         -5    1    1    2    0  502  0.44835271642E+02 -0.56325649605E+02 -0.26139928469E+03  0.27116385973E+03  0.41800000000E+01 0.  1.
        -11    1    1    2    0    0 -0.56411771018E+02  0.17378840387E+02 -0.45840485728E+02  0.74737287443E+02  0.00000000000E+00 0.  1.
         11    1    1    2    0    0  0.24231363331E+02  0.10585082060E+02  0.14831700666E+02  0.30318018994E+02  0.00000000000E+00 0. -1.
</event>
<event>
 6    1  0.5317355E-006  0.1062777E+03  0.7561462E-02  0.1267623E+00
         -1   -1    0    0    0  501 -0.00000000000E+00  0.00000000000E+00  0.58374970259E+02  0.58374970259E+02  0.00000000000E+00 0.  1.
          1   -1    0    0  501    0  0.00000000000E+00 -0.00000000000E+00 -0.21473546737E+03  0.21473546737E+03  0.00000000000E+00 0. -1.
          5    1    1    2  502    0 -0.36539149307E+02 -0.41365816003E+02 -0.52813741272E+02  0.76504926853E+02  0.41800000000E+01 0. -1.
         -5    1    1    2    0  502  0.52760752509E+02  0.37892029116E+02 -0.15212389537E+02  0.66846032577E+02  0.41800000000E+01 0. -1.
        -11    1    1    2    0    0 -0.60484655202E+01 -0.43566666129E+02 -0.58292099894E+02  0.73024702962E+02  0.00000000000E+00 0.  1.
         11    1    1    2    0    0 -0.10173137682E+02  0.47040453015E+02 -0.30042266408E+02  0.56734775236E+02  0.00000000000E+00 0. -1.
</event>
<event>
 6    1  0.5317355E-006  0.1154615E+03  0.7561462E-02  0.1250778E+00
          3   -1    0    0  501    0  0.00000000000E+00  0.00000000000E+00  0.19201428284E+03  0.19201428284E+03  0.00000000000E+00 0. -1.
         -3   -1    0    0    0  501 -0.00000000000E+00 -0.00000000000E+00 -0.96199003734E+02  0.96199003734E+02  0.00000000000E+00 0.  1.
          5    1    1    2  502    0 -0.73339193335E+01 -0.98883562178E+02  0.31668231579E+02  0.10417338688E+03  0.41800000000E+01 0. -1.
         -5    1    1    2    0  502  0.40211235594E+02  0.27107724093E+02  0.16031043882E+02  0.51246843234E+02  0.41800000000E+01 0. -1.
        -11    1    1    2    0    0 -0.12361517937E+02  0.55378546465E+02 -0.19704038569E+02  0.60065295057E+02  0.00000000000E+00 0.  1.
         11    1    1    2    0    0 -0.20515798323E+02  0.16397291620E+02  0.67820042214E+02  0.72727761406E+02  0.00000000000E+00 0. -1.
</event>
<event>
 6    1  0.5317355E-006  0.7522115E+02  0.7561462E-02  0.1343188E+00
          2   -1    0    0  501    0  0.00000000000E+00  0.00000000000E+00  0.12365782081E+02  0.12365782081E+02  0.00000000000E+00 0.  1.
         -2   -1    0    0    0  501 -0.00000000000E+00 -0.00000000000E+00 -0.86983243651E+03  0.86983243651E+03  0.00000000000E+00 0. -1.
          5    1    1    2  502    0  0.66399342079E+02 -0.35107172948E+01 -0.59700118849E+03  0.60070715763E+03  0.41800000000E+01 0. -1.
         -5    1    1    2    0  502 -0.40124433403E+02 -0.11241883330E+02 -0.10602438332E+03  0.11399558042E+03  0.41800000000E+01 0. -1.
        -11    1    1    2    0    0 -0.25291127798E+02 -0.18031515104E+01 -0.14725269208E+03  0.14941970360E+03  0.00000000000E+00 0. -1.
         11    1    1    2    0    0 -0.98378087788E+00  0.16555752135E+02 -0.71883905435E+01  0.18075776945E+02  0.00000000000E+00 0.  1.
</event>
<event>
 6    1  0.5317355E-006  0.1053393E+03  0.7561462E-02  0.1269452E+00
          2   -1    0    0  501    0  0.00000000000E+00  0.00000000000E+00  0.87470024682E+03  0.87470024682E+03  0.00000000000E+00 0. -1.
         -2   -1    0    0    0  501 -0.00000000000E+00 -0.00000000000E+00 -0.22198308863E+02  0.22198308863E+02  0.00000000000E+00 0.  1.
          5    1    1    2  502    0  0.85021350268E+01 -0.42584694298E+01  0.27546042104E+03  0.27565619315E+03  0.41800000000E+01 0.  1.
         -5    1    1    2    0  502  0.78503096198E+01  0.88126775734E+02  0.13116220781E+03  0.15826861066E+03  0.41800000000E+01 0.  1.
        -11    1    1    2    0    0  0.26719273649E+02 -0.15434061726E+02  0.48741725789E+02  0.57687829553E+02  0.00000000000E+00 0.  1.
         11    1    1    2    0    0 -0.43071718296E+02 -0.68434244578E+02  0.39713758332E+03  0.40528592232E+03  0.00000000000E+00 0. -1.
</event>
<event>
 6    1  0.5317355E-006  0.1236307E+03  0.7561462E-02  0.1237225E+00
          1   -1    0    0  501    0  0.00000000000E+00  0.00000000000E+00  0.10362779083E+03  0.10362779083E+03  0.00000000000E+00 0. -1.
         -1   -1    0    0    0  501 -0.00000000000E+00 -0.00000000000E+00 -0.25428010826E+03  0.25428010826E+03  0.00000000000E+00 0.  1.
          5    1    1    2  502    0  0.11724836988E+01 -0.62487421734E+00 -0.76431684562E+02  0.76557429364E+02  0.41800000000E+01 0. -1.
         -5    1    1    2    0  502  0.11928126588E+03  0.82891665256E+00 -0.16797233680E+02  0.12053350967E+03  0.41800000000E+01 0. -1.
        -11    1    1    2    0    0 -0.62674324942E+02 -0.13765725633E+02  0.16267425576E+02  0.66198152119E+02  0.00000000000E+00 0. -1.
         11    1    1    2    0    0 -0.57779424638E+02  0.13561683197E+02 -0.73690824758E+02  0.94618807940E+02  0.00000000000E+00 0.  1.
</event>
<event>
 6    1  0.5317355E-006  0.1075921E+03  0.7561462E-02  0.1265095E+00
          2   -1    0    0  501    0  0.00000000000E+00  0.00000000000E+00  0.13292906909E+03  0.13292906909E+03  0.00000000000E+00 0. -1.
         -2   -1    0    0    0  501 -0.00000000000E+00 -0.00000000000E+00 -0.11862870744E+03  0.11862870744E+03  0.00000000000E+00 0.  1.
          5    1    1    2  502    0 -0.30200508105E+02  0.85796559130E+02 -0.31087652720E+01  0.91105746635E+02  0.41800000000E+01 0. -1.
         -5    1    1    2    0  502  0.42705971710E+02 -0.23827306822E+02 -0.34948480485E+01  0.49205964405E+02  0.41800000000E+01 0. -1.
        -11    1    1    2    0    0  0.11698229865E+02 -0.42221767670E+02 -0.28879162432E+02  0.52474110473E+02  0.00000000000E+00 0.  1.
         11    1    1    2    0    0 -0.24203693470E+02 -0.19747484639E+02  0.49783137396E+02  0.58771955014E+02  0.00000000000E+00 0. -1.
</event>
<event>
 6    1  0.5317355E-006  0.9374085E+02  0.7561462E-02  0.1294037E+00
         -2   -1    0    0    0  501 -0.00000000000E+00  0.00000000000E+00  0.36445132421E+02  0.36445132421E+02  0.00000000000E+00 0.  1.
          2   -1    0    0  501    0  0.00000000000E+00 -0.00000000000E+00 -0.39914257921E+03  0.39914257921E+03  0.00000000000E+00 0. -1.
          5    1    1    2  502    0 -0.58783353770E+02  0.22113033285E+02 -0.15107167323E+03  0.16365998831E+03  0.41800000000E+01 0.  1.
         -5    1    1    2    0  502  0.20587691584E+02 -0.14908889475E+02  0.11096570560E+02  0.28048784436E+02  0.41800000000E+01 0.  1.
        -11    1    1    2    0    0  0.64943124844E+02  0.11746531905E+02 -0.16076395278E+03  0.17378331045E+03  0.00000000000E+00 0.  1.
         11    1    1    2    0    0 -0.26747462658E+02 -0.18950675716E+02 -0.61958391337E+02  0.70095628436E+02  0.00000000000E+00 0. -1.
</event>
<event>
 6    1  0.5317355E-006  0.8582448E+02  0.7561462E-02  0.1313290E+00
         -2   -1    0    0    0  501 -0.00000000000E+00  0.00000000000E+00  0.53783708579E+03  0.53783708579E+03  0.00000000000E+00 0.  1.
          2   -1    0    0  501    0  0.00000000000E+00 -0.00000000000E+00 -0.35097543965E+02  0.35097543965E+02  0.00000000000E+00 0. -1.
          5    1    1    2  502    0  0.15696649588E+02  0.45958481323E+02  0.30196218382E+02  0.57339783906E+02  0.41800000000E+01 0. -1.
         -5    1    1    2    0  502  0.31948457617E+02  0.12604217454E+02  0.32351273194E+03  0.32535754236E+03  0.41800000000E+01 0. -1.
        -11    1    1    2    0    0  0.92241974068E+01 -0.81178726006E+01 -0.87594849834E+01  0.15090203794E+02  0.00000000000E+00 0. -1.
         11    1    1    2    0    0 -0.56869304611E+02 -0.50444826177E+02  0.15779007649E+03  0.17514709970E+03  0.00000000000E+00 0.  1.
</event>
<event>
 6    1  0.5317355E-006  0.1667261E+03  0.7561462E-02  0.1181306E+00
         -1   -1    0    0    0  501 -0.00000000000E+00  0.00000000000E+00  0.20854173377E+03  0.20854173377E+03  0.00000000000E+00 0.  1.
          1   -1    0    0  501    0  0.00000000000E+00 -0.00000000000E+00 -0.18281845084E+03  0.18281845084E+03  0.00000000000E+00 0. -1.
          5    1    1    2  502    0  0.70805870497E+02  0.17694647889E+02  0.71135572382E+02  0.10200153881E+03  0.41800000000E+01 0. -1.
         -5    1    1    2    0  502  0.56420970251E+02  0.80404680586E+02 -0.35811136052E+02  0.10463340007E+03  0.41800000000E+01 0. -1.
        -11    1    1    2    0    0 -0.72670541543E+02 -0.68969762364E+02 -0.48863028273E+02  0.11146941850E+03  0.00000000000E+00 0. -1.
         11    1    1    2    0    0 -0.54556299205E+02 -0.29129566110E+02  0.39261874874E+02  0.73255827231E+02  0.00000000000E+00 0.  1.
</event>
<event>
 6    1  0.5317355E-006  0.7559198E+02  0.7561462E-02  0.1342048E+00
          2   -1    0    0  501    0  0.00000000000E+00  0.00000000000E+00  0.22519393602E+03  0.22519393602E+03  0.00000000000E+00 0. -1.
         -2   -1    0    0    0  501 -0.00000000000E+00 -0.00000000000E+00 -0.25968366237E+03  0.25968366237E+03  0.00000000000E+00 0.  1.
          5    1    1    2  502    0 -0.39761514083E+02  0.10311711602E+02  0.48214062879E+01  0.41569553245E+02  0.41800000000E+01 0. -1.
         -5    1    1    2    0  502  0.15134344579E+02 -0.17489187331E+01 -0.22998579046E+03  0.23052774955E+03  0.41800000000E+01 0.  1.
        -11    1    1    2    0    0 -0.20917740973E+02  0.28517219871E+02  0.63076231997E+02  0.72314554272E+02  0.00000000000E+00 0.  1.
         11    1    1    2    0    0  0.45544910477E+02 -0.37080012741E+02  0.12759842581E+03  0.14046574132E+03  0.00000000000E+00 0. -1.
</event>
<event>
 6    1  0.5317355E-006  0.1048890E+03  0.7561462E-02  0.1270338E+00
          1   -1    0    0  501    0  0.00000000000E+00  0.00000000000E+00  0.99081766701E+02  0.99081766701E+02  0.00000000000E+00 0. -1.
         -1   -1    0    0    0  501 -0.00000000000E+00 -0.00000000000E+00 -0.14104174432E+03  0.14104174432E+03  0.00000000000E+00 0.  1.
          5    1    1    2  502    0  0.15732140237E+01 -0.69341529168E+02 -0.16342945566E+02  0.71381278634E+02  0.41800000000E+01 0.  1.
         -5    1    1    2    0  502  0.22267199987E+02  0.46789979233E+02  0.26484975296E+02  0.58344294222E+02  0.41800000000E+01 0.  1.
        -11    1    1    2    0    0 -0.53558217663E+02  0.49969093827E+01 -0.53483753464E+02  0.75854885586E+02  0.00000000000E+00 0.  1.
         11    1    1    2    0    0  0.29717803652E+02  0.17554640552E+02  0.13817461193E+01  0.34543052575E+02  0.00000000000E+00 0. -1.
</event>
<event>
 6    1  0.5317355E-006  0.1069728E+03  0.7561462E-02  0.1266281E+00
          1   -1    0    0  501    0  0.00000000000E+00  0.00000000000E+00  0.13031926079E+03  0.13031926079E+03  0.00000000000E+00 0. -1.
         -1   -1    0    0    0  501 -0.00000000000E+00 -0.00000000000E+00 -0.98928538620E+02  0.98928538620E+02  0.00000000000E+00 0.  1.
          5    1    1    2  502    0 -0.15264978759E+02  0.62858623347E+02  0.94940123529E+01  0.65512096411E+02  0.41800000000E+01 0.  1.
         -5    1    1    2    0  502 -0.11628850886E+02 -0.59473754889E+02 -0.15158297939E+02  0.62606741569E+02  0.41800000000E+01 0.  1.
        -11    1    1    2    0    0 -0.21828204462E+02  0.24039583414E+02 -0.26131321793E+01  0.32576073130E+02  0.00000000000E+00 0.  1.
         11    1    1    2    0    0  0.48722034108E+02 -0.27424451872E+02  0.39668139934E+02  0.68552888297E+02  0.00000000000E+00 0. -1.
</event>
<event>
 6    1  0.5317355E-006  0.6121797E+02  0.7561462E-02  0.1392790E+00
         -1   -1    0    0    0  501 -0.00000000000E+00  0.00000000000E+00  0.26112336240E+02  0.26112336240E+02  0.00000000000E+00 0.  1.
          1   -1    0    0  501    0  0.00000000000E+00 -0.00000000000E+00 -0.58136550056E+03  0.58136550056E+03  0.00000000000E+00 0. -1.
          5    1    1    2  502    0 -0.22954274904E+01  0.15011027085E+02 -0.36372168049E+03  0.36406254021E+03  0.41800000000E+01 0. -1.
         -5    1    1    2    0  502  0.53657806104E+01 -0.21250168626E+02  0.82908251121E+01  0.23802761378E+02  0.41800000000E+01 0.  1.
        -11    1    1    2    0    0  0.17843966038E+02  0.40486873226E+02 -0.14548194250E+03  0.15206113777E+03  0.00000000000E+00 0.  1.
         11    1    1    2    0    0 -0.20914319158E+02 -0.34247731685E+02 -0.54340366445E+02  0.67551397445E+02  0.00000000000E+00 0. -1.
</event>
<event>
 6    1  0.5317355E-006  0.1192495E+03  0.7561462E-02  0.1244340E+00
          2   -1    0    0  501    0  0.00000000000E+00  0.00000000000E+00  0.22379734451E+03  0.22379734451E+03  0.00000000000E+00 0.  1.
         -2   -1    0    0    0  501 -0.00000000000E+00 -0.00000000000E+00 -0.23354911139E+03  0.23354911139E+03  0.00000000000E+00 0. -1.
          5    1    1    2  502    0 -0.81989213321E+02  0.44596449262E+02  0.14763657933E+02  0.94586005220E+02  0.41800000000E+01 0.  1.
         -5    1    1    2    0  502 -0.11047874326E+02 -0.49940419890E+02 -0.16412870869E+03  0.17196455008E+03  0.41800000000E+01 0. -1.
        -11    1    1    2    0    0  0.47231866018E+02  0.78517513196E+01  0.13668526808E+03  0.14482873222E+03  0.00000000000E+00 0.  1.
         11    1    1    2    0    0  0.45805221629E+02 -0.25077806917E+01  0.29280158001E+01  0.45967168382E+02  0.00000000000E+00 0. -1.
</event>
<event>
 6    1  0.5317355E-006  0.1370277E+03  0.7561462E-02  0.1217385E+00
         -3   -1    0    0    0  501 -0.00000000000E+00  0.00000000000E+00  0.86147677941E+03  0.86147677941E+03  0.00000000000E+00 0.  1.
          3   -1    0    0  501    0  0.00000000000E+00 -0.00000000000E+00 -0.27693284258E+02  0.27693284258E+02  0.00000000000E+00 0. -1.
          5    1    1    2  502    0 -0.71947782253E+02 -0.89003835591E+02  0.26269872648E+03  0.28657679497E+03  0.41800000000E+01 0.  1.
         -5    1    1    2    0  502 -0.14721748858E+02  0.25802266547E+02  0.25355645822E+03  0.25532496304E+03  0.41800000000E+01 0.  1.
        -11    1    1    2    0    0  0.70270360898E+02  0.65727559622E+01  0.23817151466E+03  0.24840852468E+03  0.00000000000E+00 0.  1.
         11    1    1    2    0    0  0.16399170213E+02  0.56628813082E+02  0.79356795803E+02  0.98859780978E+02  0.00000000000E+00 0. -1.
</event>
<event>
 6    1  0.5317355E-006  0.8083682E+02  0.7561462E-02  0.1326693E+00
         -3   -1    0    0    0  501 -0.00000000000E+00  0.00000000000E+00  0.10865620418E+03  0.10865620418E+03  0.00000000000E+00 0.  1.
          3   -1    0    0  501    0  0.00000000000E+00 -0.00000000000E+00 -0.14298757427E+03  0.14298757427E+03  0.00000000000E+00 0. -1.
          5    1    1    2  502    0  0.27283299786E+02 -0.37243877705E+02 -0.52713175060E+02  0.70197123151E+02  0.41800000000E+01 0.  1.
         -5    1    1    2    0  502  0.24099263720E+02  0.13544073577E+02  0.61288105692E+02  0.67364090880E+02  0.41800000000E+01 0.  1.
        -11    1    1    2    0    0  0.33317902011E+01 -0.18162800452E+02 -0.41222816493E+02  0.45169776907E+02  0.00000000000E+00 0. -1.
         11    1    1    2    0    0 -0.54714353706E+02  0.41862604581E+02 -0.16834842321E+01  0.68912787514E+02  0.00000000000E+00 0.  1.
</event>
<event>
 6    1  0.5317355E-006  0.9237976E+02  0.7561462E-02  0.1297189E+00
         -1   -1    0    0    0  501 -0.00000000000E+00  0.00000000000E+00  0.58726756779E+02  0.58726756779E+02  0.00000000000E+00 0.  1.
          1   -1    0    0  501    0  0.00000000000E+00 -0.00000000000E+00 -0.23268002172E+03  0.23268002172E+03  0.00000000000E+00 0. -1.
          5    1    1    2  502    0 -0.69568180443E+02 -0.69206685329E+01 -0.81436459891E+01  0.70508288542E+02  0.41800000000E+01 0. -1.
         -5    1    1    2    0  502  0.52285181879E+02  0.74173568486E+01 -0.32509432182E+02  0.62153785142E+02  0.41800000000E+01 0. -1.
        -11    1    1    2    0    0 -0.31542501467E+01  0.27170086167E+02 -0.11794696656E+03  0.12107704075E+03  0.00000000000E+00 0. -1.
         11    1    1    2    0    0  0.20437248711E+02 -0.27666774483E+02 -0.15353220208E+02  0.37667664062E+02  0.00000000000E+00 0.  1.
</event>
<event>
 6    1  0.5317355E-006  0.1027737E+03  0.7561462E-02  0.1274569E+00
         -1   -1    0    0    0  501 -0.00000000000E+00  0.00000000000E+00  0.27823790029E+02  0.27823790029E+02  0.00000000000E+00 0.  1.
          1   -1    0    0  501    0  0.00000000000E+00 -0.00000000000E+00 -0.64790277747E+03  0.64790277747E+03  0.00000000000E+00 0. -1.
          5    1    1    2  502    0  0.26551288509E+02 -0.28018996349E+02 -0.25983083283E+03  0.26271575737E+03  0.41800000000E+01 0.  1.
         -5    1    1    2    0  502 -0.19578002659E+02 -0.56222627359E+02 -0.36773521791E+02  0.70100259059E+02  0.41800000000E+01 0.  1.
        -11    1    1    2    0    0  0.12991558183E+02 -0.62186379798E+01 -0.14870407255E+02  0.20702199261E+02  0.00000000000E+00 0.  1.
         11    1    1    2    0    0 -0.19964844032E+02  0.90460261688E+02 -0.30860422556E+03  0.32220835181E+03  0.00000000000E+00 0. -1.
</event>
<event>
 6    1  0.5317355E-006  0.1079325E+03  0.7561462E-02  0.1264447E+00
          1   -1    0    0  501    0  0.00000000000E+00  0.00000000000E+00  0.40337918739E+03  0.40337918739E+03  0.00000000000E+00 0. -1.
         -1   -1    0    0    0  501 -0.00000000000E+00 -0.00000000000E+00 -0.42956974228E+02  0.42956974228E+02  0.00000000000E+00 0.  1.
          5    1    1    2  502    0 -0.60909271884E+02 -0.25057816270E+01  0.23233746981E+02  0.65371995088E+02  0.41800000000E+01 0. -1.
         -5    1    1    2    0  502  0.53798038557E+02  0.22144187292E+02  0.52066411109E+02  0.78185532864E+02  0.41800000000E+01 0.  1.
        -11    1    1    2    0    0 -0.11278155637E+02 -0.55231302291E+02  0.21238054528E+03  0.21973436136E+03  0.00000000000E+00 0. -1.
         11    1    1    2    0    0  0.18389388964E+02  0.35592896626E+02  0.72741509798E+02  0.83044272315E+02  0.00000000000E+00 0.  1.
</event>
<event>
 6    1  0.5317355E-006  0.8128788E+02  0.7561462E-02  0.1325436E+00
         -1   -1    0    0    0  501 -0.00000000000E+00  0.00000000000E+00  0.13656927620E+03  0.13656927620E+03  0.00000000000E+00 0.  1.
          1   -1    0    0  501    0  0.00000000000E+00 -0.00000000000E+00 -0.10818592862E+03  0.10818592862E+03  0.00000000000E+00 0. -1.
          5    1    1    2  502    0 -0.80062407733E+01  0.52282481321E+02  0.71553074445E+02  0.89077901900E+02  0.41800000000E+01 0. -1.
         -5    1    1    2    0  502 -0.77200096828E+01  0.51394782048E+01 -0.50083347626E+02  0.51106035800E+02  0.41800000000E+01 0. -1.
        -11    1    1    2    0    0  0.45269791759E+02 -0.52622523346E+02  0.19499178897E+02  0.72102024846E+02  0.00000000000E+00 0.  1.
         11    1    1    2    0    0 -0.29543541303E+02 -0.47994361792E+01 -0.12585558137E+02  0.32469242276E+02  0.00000000000E+00 0. -1.
</event>
<event>
 6    1  0.5317355E-006  0.1148752E+03  0.7561462E-02  0.1251799E+00
         -3   -1    0    0    0  501 -0.00000000000E+00  0.00000000000E+00  0.94172385376E+03  0.94172385376E+03  0.00000000000E+00 0.  1.
          3   -1    0    0  501    0  0.00000000000E+00 -0.00000000000E+00 -0.26246793181E+02  0.26246793181E+02  0.00000000000E+00 0. -1.
          5    1    1    2  502    0  0.66931413742E+02  0.26948386383E+02  0.59999680026E+03  0.60433406523E+03  0.41800000000E+01 0. -1.
         -5    1    1    2    0  502  0.14635014304E+02 -0.51078307459E+02  0.11855865118E+03  0.12998770444E+03  0.41800000000E+01 0. -1.
        -11    1    1    2    0    0 -0.47631897945E+02 -0.17254099806E+02  0.16202061624E+03  0.16975624215E+03  0.00000000000E+00 0.  1.
         11    1    1    2    0    0 -0.33934530100E+02  0.41384020882E+02  0.34900992903E+02  0.63892635125E+02  0.00000000000E+00 0. -1.
</event>
<event>
 6    1  0.5317355E-006  0.1661412E+03  0.7561462E-02  0.1181933E+00
         -1   -1    0    0    0  501 -0.00000000000E+00  0.00000000000E+00  0.16916693463E+03  0.16916693463E+03  0.00000000000E+00 0.  1.
          1   -1    0    0  501    0  0.00000000000E+00 -0.00000000000E+00 -0.50120300263E+03  0.50120300263E+03  0.00000000000E+00 0. -1.
          5    1    1    2  502    0  0.24783767018E+02  0.43229923470E+02 -0.29450136570E+02  0.58033131355E+02  0.41800000000E+01 0. -1.
         -5    1    1    2    0  502 -0.80666610696E+01  0.11587615169E+03  0.11129313533E+03  0.16092230399E+03  0.41800000000E+01 0. -1.
        -11    1    1    2    0    0 -0.31739826862E+02 -0.12076211873E+03 -0.21776226261E+03  0.25102053491E+03  0.00000000000E+00 0.  1.
         11    1    1    2    0    0  0.15022720913E+02 -0.38343956433E+02 -0.19611680416E+03  0.20039396700E+03  0.00000000000E+00 0. -1.
</event>
<event>
 6    1  0.5317355E-006  0.1652455E+03  0.7561462E-02  0.1182899E+00
         -2   -1    0    0    0  501 -0.00000000000E+00  0.00000000000E+00  0.49190785226E+03  0.49190785226E+03  0.00000000000E+00 0.  1.
          2   -1    0    0  501    0  0.00000000000E+00 -0.00000000000E+00 -0.84015872559E+02  0.84015872559E+02  0.00000000000E+00 0. -1.
          5    1    1    2  502    0  0.66488221990E+02 -0.13111348945E+03  0.18895191903E+03  0.23944045373E+03  0.41800000000E+01 0.  1.
         -5    1    1    2    0  502  0.83730190005E+01  0.52392911863E+01  0.15022967808E+03  0.15061203868E+03  0.41800000000E+01 0.  1.
        -11    1    1    2    0    0 -0.55653323306E+02  0.11636567897E+02  0.23403265737E+02  0.61485079122E+02  0.00000000000E+00 0. -1.
         11    1    1    2    0    0 -0.19207917684E+02  0.11423763036E+03  0.45307116862E+02  0.12438615329E+03  0.00000000000E+00 0.  1.
</event>
<event>
 6    1  0.5317355E-006  0.1004957E+03  0.7561462E-02  0.1279257E+00
          4   -1    0    0  501    0  0.00000000000E+00  0.00000000000E+00  0.51922211349E+02  0.51922211349E+02  0.00000000000E+00 0. -1.
         -4   -1    0    0    0  501 -0.00000000000E+00 -0.00000000000E+00 -0.27278739335E+03  0.27278739335E+03  0.00000000000E+00 0.  1.
          5    1    1    2  502    0 -0.63650322156E+02  0.47348794494E+02 -0.10427521129E+03  0.13108800074E+03  0.41800000000E+01 0.  1.
         -5    1    1    2    0  502  0.45044114475E+02 -0.20736665605E+02 -0.69080517563E+02  0.85138545067E+02  0.41800000000E+01 0.  1.
        -11    1    1    2    0    0 -0.20953393416E+02  0.45336857543E+01 -0.53636873866E+02  0.57762559156E+02  0.00000000000E+00 0.  1.
         11    1    1    2    0    0  0.39559601096E+02 -0.31145814643E+02  0.61274207119E+01  0.50720499734E+02  0.00000000000E+00 0. -1.
</event>
<event>
 6    1  0.5317355E-006  0.6841549E+02  0.7561462E-02  0.1365566E+00
         -2   -1    0    0    0  501 -0.00000000000E+00  0.00000000000E+00  0.67124332852E+02  0.67124332852E+02  0.00000000000E+00 0. -1.
          2   -1    0    0  501    0  0.00000000000E+00 -0.00000000000E+00 -0.22567216565E+03  0.22567216565E+03  0.00000000000E+00 0.  1.
          5    1    1    2  502    0 -0.52730461138E+02 -0.28365170995E+02  0.42181660709E+02  0.73361088853E+02  0.41800000000E+01 0. -1.
         -5    1    1    2    0  502  0.12032510319E+02  0.30428144778E+02 -0.36274361876E+02  0.49030144082E+02  0.41800000000E+01 0.  1.
        -11    1    1    2    0    0  0.11305709416E+02 -0.79834725657E+01 -0.68135588219E+02  0.69527068697E+02  0.00000000000E+00 0. -1.
         11    1    1    2    0    0  0.29392241404E+02  0.59204987833E+01 -0.96319543413E+02  0.10087819687E+03  0.00000000000E+00 0.  1.
</event>
<event>
 6    1  0.5317355E-006  0.1196047E+03  0.7561462E-02  0.1243751E+00
         -1   -1    0    0    0  501 -0.00000000000E+00  0.00000000000E+00  0.16305454876E+03  0.16305454876E+03  0.00000000000E+00 0.  1.
          1   -1    0    0  501    0  0.00000000000E+00 -0.00000000000E+00 -0.10569033331E+03  0.10569033331E+03  0.00000000000E+00 0. -1.
          5    1    1    2  502    0 -0.50772492247E+02 -0.79439960811E+02  0.15381214110E+02  0.95616983272E+02  0.41800000000E+01 0.  1.
         -5    1    1    2    0  502 -0.11684214470E+02  0.45270581314E+02  0.28240448067E+02  0.54780851648E+02  0.41800000000E+01 0.  1.
        -11    1    1    2    0    0  0.20598766456E+02  0.49266760590E+02  0.39964222891E+02  0.66698290757E+02  0.00000000000E+00 0. -1.
         11    1    1    2    0    0  0.41857940260E+02 -0.15097381093E+02 -0.26221669627E+02  0.51648756391E+02  0.00000000000E+00 0.  1.
</event>
<event>
 6    1  0.5317355E-006  0.9502994E+02  0.7561462E-02  0.1291109E+00
          1   -1    0    0  501    0  0.00000000000E+00  0.00000000000E+00  0.50421788457E+02  0.50421788457E+02  0.00000000000E+00 0. -1.
         -1   -1    0    0    0  501 -0.00000000000E+00 -0.00000000000E+00 -0.48830594179E+03  0.48830594179E+03  0.00000000000E+00 0.  1.
          5    1    1    2  502    0 -0.14877635656E+02 -0.11453885114E+01 -0.22320177739E+03  0.22373904842E+03  0.41800000000E+01 0. -1.
         -5    1    1    2    0  502  0.86375785165E+02  0.33123674951E+02 -0.13531596063E+03  0.16396900837E+03  0.41800000000E+01 0. -1.
        -11    1    1    2    0    0 -0.27220471539E+02 -0.25336303844E+02  0.19861132286E+02  0.42158592706E+02  0.00000000000E+00 0. -1.
         11    1    1    2    0    0 -0.44277677970E+02 -0.66419825951E+01 -0.99227547591E+02  0.10886108074E+03  0.00000000000E+00 0.  1.
</event>
<event>
 6    1  0.5317355E-006  0.2642389E+03  0.7561462E-02  0.1104623E+00
          2   -1    0    0  501    0  0.00000000000E+00  0.00000000000E+00  0.39926230540E+03  0.39926230540E+03  0.00000000000E+00 0. -1.
         -2   -1    0    0    0  501 -0.00000000000E+00 -0.00000000000E+00 -0.23171971396E+03  0.23171971396E+03  0.00000000000E+00 0.  1.
          5    1    1    2  502    0  0.19306765315E+03  0.27551027509E+02  0.11160282422E+01  0.19507151439E+03  0.41800000000E+01 0. -1.
         -5    1    1    2    0  502  0.43010283383E+02  0.63948346363E+02 -0.48849981602E+02  0.91340399505E+02  0.41800000000E+01 0. -1.
        -11    1    1    2    0    0 -0.88119179121E+02 -0.54863016695E+02  0.14078299913E+03  0.17491367349E+03  0.00000000000E+00 0. -1.
         11    1    1    2    0    0 -0.14795875741E+03 -0.36636357177E+02  0.74493545665E+02  0.16965643197E+03  0.00000000000E+00 0.  1.
</event>
<event>
 6    1  0.5317355E-006  0.2523533E+03  0.7561462E-02  0.1111827E+00
         -2   -1    0    0    0  501 -0.00000000000E+00  0.00000000000E+00  0.56853158427E+02  0.56853158427E+02  0.00000000000E+00 0.  1.
          2   -1    0    0  501    0  0.00000000000E+00 -0.00000000000E+00 -0.11829090374E+04  0.11829090374E+04  0.00000000000E+00 0. -1.
          5    1    1    2  502    0  0.36581626366E+02  0.40886302999E+02 -0.13451199893E+03  0.14533016004E+03  0.41800000000E+01 0. -1.
         -5    1    1    2    0  502  0.19507691005E+03 -0.76583677940E+02 -0.40248037406E+03  0.45379288719E+03  0.41800000000E+01 0. -1.
        -11    1    1    2    0    0 -0.17910816900E+03  0.49339613934E+02 -0.35859405252E+03  0.40386114966E+03  0.00000000000E+00 0. -1.
         11    1    1    2    0    0 -0.52550367419E+02 -0.13642238993E+02 -0.23046945346E+03  0.23677799894E+03  0.00000000000E+00 0.  1.
</event>
<event>
 6    1  0.5317355E-006  0.1034451E+03  0.7561462E-02  0.1273214E+00
         -2   -1    0    0    0  501 -0.00000000000E+00  0.00000000000E+00  0.17997809490E+03  0.17997809490E+03  0.00000000000E+00 0.  1.
          2   -1    0    0  501    0  0.00000000000E+00 -0.00000000000E+00 -0.11362215931E+03  0.11362215931E+03  0.00000000000E+00 0. -1.
          5    1    1    2  502    0  0.23419382801E+02 -0.22765976923E+02  0.77597527578E+02  0.84294755959E+02  0.41800000000E+01 0.  1.
         -5    1    1    2    0  502 -0.63899462780E+02  0.58085319700E+02  0.38563882495E+02  0.94666209078E+02  0.41800000000E+01 0.  1.
        -11    1    1    2    0    0 -0.16914757414E+02  0.46789295047E+01  0.12024813894E+02  0.21274340151E+02  0.00000000000E+00 0.  1.
         11    1    1    2    0    0  0.57394837393E+02 -0.39998272281E+02 -0.61830288382E+02  0.93364949024E+02  0.00000000000E+00 0. -1.
</event>
<event>
 6    1  0.5317355E-006  0.9992558E+02  0.7561462E-02  0.1280453E+00
         -1   -1    0    0    0  501 -0.00000000000E+00  0.00000000000E+00  0.27680831321E+03  0.27680831321E+03  0.00000000000E+00 0.  1.
          1   -1    0    0  501    0  0.00000000000E+00 -0.00000000000E+00 -0.43187022730E+02  0.43187022730E+02  0.00000000000E+00 0. -1.
          5    1    1    2  502    0  0.22544366363E+02 -0.48306497229E+02  0.12499861029E+03  0.13595547471E+03  0.41800000000E+01 0.  1.
         -5    1    1    2    0  502 -0.39483602405E+02  0.38741822199E+02  0.26580251928E+02  0.61513135498E+02  0.41800000000E+01 0.  1.
        -11    1    1    2    0    0  0.47385159587E+02 -0.17157507718E+02  0.48315689541E+02  0.69815036174E+02  0.00000000000E+00 0. -1.
         11    1    1    2    0    0 -0.30445923545E+02  0.26722182748E+02  0.33726738720E+02  0.52711689558E+02  0.00000000000E+00 0.  1.
</event>
<event>
 6    1  0.5317355E-006  0.1241624E+03  0.7561462E-02  0.1236384E+00
         -2   -1    0    0    0  501 -0.00000000000E+00  0.00000000000E+00  0.34575437925E+02  0.34575437925E+02  0.00000000000E+00 0.  1.
          2   -1    0    0  501    0  0.00000000000E+00 -0.00000000000E+00 -0.62119845964E+03  0.62119845964E+03  0.00000000000E+00 0. -1.
          5    1    1    2  502    0 -0.60802502218E+02 -0.31615727037E+01 -0.39857089437E+02  0.72890327180E+02  0.41800000000E+01 0. -1.
         -5    1    1    2    0  502 -0.26277199401E+02  0.48726762700E+02 -0.26743322861E+03  0.27313511817E+03  0.41800000000E+01 0. -1.
        -11    1    1    2    0    0  0.59749699119E+02  0.18153121283E+02 -0.10545198451E+03  0.12255481791E+03  0.00000000000E+00 0. -1.
         11    1    1    2    0    0  0.27330002501E+02 -0.63718311280E+02 -0.17388071917E+03  0.18719363431E+03  0.00000000000E+00 0.  1.
</event>
<event>
 6    1  0.5317355E-006  0.1009893E+03  0.7561462E-02  0.1278229E+00
         -1   -1    0    0    0  501 -0.00000000000E+00  0.00000000000E+00  0.66877454537E+02  0.66877454537E+02  0.00000000000E+00 0.  1.
          1   -1    0    0  501    0  0.00000000000E+00 -0.00000000000E+00 -0.27000473643E+03  0.27000473643E+03  0.00000000000E+00 0. -1.
          5    1    1    2  502    0 -0.87755765293E+02  0.35410693479E+02 -0.29663330340E+02  0.99259141250E+02  0.41800000000E+01 0.  1.
         -5    1    1    2    0  502  0.88970113749E+01 -0.20204873779E+02 -0.86587731421E+02  0.89455583216E+02  0.41800000000E+01 0.  1.
        -11    1    1    2    0    0  0.44607457757E+02  0.52121346972E+01  0.76656152545E+01  0.45560435608E+02  0.00000000000E+00 0.  1.
         11    1    1    2    0    0  0.34251296162E+02 -0.20417954397E+02 -0.94541835389E+02  0.10260703090E+03  0.00000000000E+00 0. -1.
</event>
<event>
 6    1  0.5317355E-006  0.1199666E+03  0.7561462E-02  0.1243152E+00
         -3   -1    0    0    0  501 -0.00000000000E+00  0.00000000000E+00  0.61300519609E+02  0.61300519609E+02  0.00000000000E+00 0.  1.
          3   -1    0    0  501    0  0.00000000000E+00 -0.00000000000E+00 -0.35159335252E+03  0.35159335252E+03  0.00000000000E+00 0. -1.
          5    1    1    2  502    0  0.21052163177E+02 -0.24535340632E+02  0.13549243368E+02  0.35301995839E+02  0.41800000000E+01 0.  1.
         -5    1    1    2    0  502 -0.87265757363E+02 -0.37239473249E+02 -0.11646141212E+03  0.15027582537E+03  0.41800000000E+01 0.  1.
        -11    1    1    2    0    0 -0.12768890484E+02  0.17977054161E+02 -0.97266304674E+02  0.99734412644E+02  0.00000000000E+00 0.  1.
         11    1    1    2    0    0  0.78982484670E+02  0.43797759720E+02 -0.90114359485E+02  0.12758163828E+03  0.00000000000E+00 0. -1.
</event>
<event>
 6    1  0.5317355E-006  0.9881522E+02  0.7561462E-02  0.1282807E+00
          1   -1    0    0  501    0  0.00000000000E+00  0.00000000000E+00  0.32146229731E+03  0.32146229731E+03  0.00000000000E+00 0. -1.
         -1   -1    0    0    0  501 -0.00000000000E+00 -0.00000000000E+00 -0.85638311674E+02  0.85638311674E+02  0.00000000000E+00 0.  1.
          5    1    1    2  502    0  0.41187801304E+01 -0.39747496286E+02  0.56401448895E+02  0.69248997453E+02  0.41800000000E+01 0. -1.
         -5    1    1    2    0  502 -0.47539869001E+02  0.25623910947E+02 -0.57720442177E+02  0.79156464057E+02  0.41800000000E+01 0.  1.
        -11    1    1    2    0    0 -0.27280798203E+02 -0.92706959162E+01  0.71093123779E+02  0.76709973289E+02  0.00000000000E+00 0.  1.
         11    1    1    2    0    0  0.70701887073E+02  0.23394281256E+02  0.16604985514E+03  0.18198517419E+03  0.00000000000E+00 0. -1.
</event>
<event>
 6    1  0.5317355E-006  0.2031452E+03  0.7561462E-02  0.1147112E+00
         -2   -1    0    0    0  501 -0.00000000000E+00  0.00000000000E+00  0.41201522397E+02  0.41201522397E+02  0.00000000000E+00 0. -1.
          2   -1    0    0  501    0  0.00000000000E+00 -0.00000000000E+00 -0.13817347400E+04  0.13817347400E+04  0.00000000000E+00 0.  1.
          5    1    1    2  502    0 -0.44793357431E+02 -0.50010750389E+02 -0.90233891804E+02  0.11254842360E+03  0.41800000000E+01 0. -1.
         -5    1    1    2    0  502 -0.12601564759E+03  0.71768403466E+02 -0.23192606800E+03  0.27356502078E+03  0.41800000000E+01 0. -1.
        -11    1    1    2    0    0  0.10907967230E+03 -0.56777309007E+02 -0.68932779936E+03  0.70021057740E+03  0.00000000000E+00 0.  1.
         11    1    1    2    0    0  0.61729332720E+02  0.35019655930E+02 -0.32904545845E+03  0.33661224063E+03  0.00000000000E+00 0. -1.
</event>
<event>
 6    1  0.5317355E-006  0.1736870E+03  0.7561462E-02  0.1174057E+00
          2   -1    0    0  501    0  0.00000000000E+00  0.00000000000E+00  0.63671299305E+03  0.63671299305E+03  0.00000000000E+00 0. -1.
         -2   -1    0    0    0  501 -0.00000000000E+00 -0.00000000000E+00 -0.55455762213E+02  0.55455762213E+02  0.00000000000E+00 0.  1.
          5    1    1    2  502    0 -0.10024743120E+03 -0.10375889596E+03  0.16697260685E+03  0.22070971839E+03  0.41800000000E+01 0. -1.
         -5    1    1    2    0  502 -0.24992311357E+02  0.35622643169E+02  0.31961302771E+02  0.54153352695E+02  0.41800000000E+01 0. -1.
        -11    1    1    2    0    0  0.71299003074E+02 -0.14054151407E+01  0.10981800874E+03  0.13094089535E+03  0.00000000000E+00 0.  1.
         11    1    1    2    0    0  0.53940739481E+02  0.69541667933E+02  0.27250531248E+03  0.28636478884E+03  0.00000000000E+00 0. -1.
</event>
<event>
 6    1  0.5317355E-006  0.1293751E+03  0.7561462E-02  0.1228386E+00
          1   -1    0    0  501    0  0.00000000000E+00  0.00000000000E+00  0.94659442983E+02  0.94659442983E+02  0.00000000000E+00 0. -1.
         -1   -1    0    0    0  501 -0.00000000000E+00 -0.00000000000E+00 -0.21816432969E+03  0.21816432969E+03  0.00000000000E+00 0.  1.
          5    1    1    2  502    0 -0.72672791487E+01 -0.43895653969E+02  0.11735368973E+01  0.44704489399E+02  0.41800000000E+01 0. -1.
         -5    1    1    2    0  502 -0.85426679831E+02  0.54167427891E+02 -0.86338773832E+02  0.13305519207E+03  0.41800000000E+01 0. -1.
        -11    1    1    2    0    0  0.24441181439E+02  0.25871109847E+02 -0.45197696921E+02  0.57528405869E+02  0.00000000000E+00 0.  1.
         11    1    1    2    0    0  0.68252777540E+02 -0.36142883769E+02  0.68580471478E+01  0.77535685331E+02  0.00000000000E+00 0. -1.
</event>
<event>
 6    1  0.5317355E-006  0.1572985E+03  0.7561462E-02  0.1191781E+00
          1   -1    0    0  501    0  0.00000000000E+00  0.00000000000E+00  0.83729190857E+02  0.83729190857E+02  0.00000000000E+00 0. -1.
         -1   -1    0    0    0  501 -0.00000000000E+00 -0.00000000000E+00 -0.32886931030E+03  0.32886931030E+03  0.00000000000E+00 0.  1.
          5    1    1    2  502    0 -0.82545505242E+02 -0.12059146995E+03 -0.11009139108E+03  0.18301270407E+03  0.41800000000E+01 0.  1.
         -5    1    1    2    0  502  0.46030488716E+01  0.25184136177E+02 -0.41535394432E+02  0.48970298799E+02  0.41800000000E+01 0.  1.
        -11    1    1    2    0    0  0.91821518693E+02  0.84835518950E+02 -0.10187713870E+03  0.16126750435E+03  0.00000000000E+00 0.  1.
         11    1    1    2    0    0 -0.13879062323E+02  0.10571814821E+02  0.83638047619E+01  0.19347993944E+02  0.00000000000E+00 0. -1.
</event>
<event>
 6    1  0.5317355E-006  0.7220125E+02  0.7561462E-02  0.1352764E+00
         -1   -1    0    0    0  501 -0.00000000000E+00  0.00000000000E+00  0.34757645966E+03  0.34757645966E+03  0.00000000000E+00 0.  1.
          1   -1    0    0  501    0  0.00000000000E+00 -0.00000000000E+00 -0.36781049928E+02  0.36781049928E+02  0.00000000000E+00 0. -1.
          5    1    1    2  502    0 -0.19814131868E+02  0.25968945754E+02  0.20065519887E+03  0.20333953673E+03  0.41800000000E+01 0.  1.
         -5    1    1    2    0  502 -0.12885210790E+02 -0.88853608382E+01 -0.15971692677E+02  0.22749629916E+02  0.41800000000E+01 0.  1.
        -11    1    1    2    0    0  0.24570429966E+02  0.34885694956E+02  0.63322848889E+02  0.76357716916E+02  0.00000000000E+00 0.  1.
         11    1    1    2    0    0  0.81289126926E+01 -0.51969279872E+02  0.62789054659E+02  0.81910626032E+02  0.00000000000E+00 0. -1.
</event>
<event>
 6    1  0.5317355E-006  0.2008886E+03  0.7561462E-02  0.1148991E+00
         -2   -1    0    0    0  501 -0.00000000000E+00  0.00000000000E+00  0.24718516771E+03  0.24718516771E+03  0.00000000000E+00 0.  1.
          2   -1    0    0  501    0  0.00000000000E+00 -0.00000000000E+00 -0.19754170558E+03  0.19754170558E+03  0.00000000000E+00 0. -1.
          5    1    1    2  502    0 -0.16027304661E+02 -0.35829531451E+02  0.44519850250E+00  0.39475314063E+02  0.41800000000E+01 0. -1.
         -5    1    1    2    0  502  0.15773644490E+03 -0.69731207555E+02  0.97360690622E+02  0.19809039309E+03  0.41800000000E+01 0. -1.
        -11    1    1    2    0    0 -0.11412805748E+03  0.43966637190E+02 -0.63714357209E+02  0.13790503256E+03  0.00000000000E+00 0. -1.
         11    1    1    2    0    0 -0.27581082756E+02  0.61594101816E+02  0.15551930215E+02  0.69256133576E+02  0.00000000000E+00 0.  1.
</event>
<event>
 6    1  0.5317355E-006  0.1516795E+03  0.7561462E-02  0.1198424E+00
          2   -1    0    0  501    0  0.00000000000E+00  0.00000000000E+00  0.41522895828E+03  0.41522895828E+03  0.00000000000E+00 0. -1.
         -2   -1    0    0    0  501 -0.00000000000E+00 -0.00000000000E+00 -0.71391936291E+02  0.71391936291E+02  0.00000000000E+00 0.  1.
          5    1    1    2  502    0 -0.10948939773E+03  0.41854435119E+02  0.17296379536E+03  0.20898246065E+03  0.41800000000E+01 0. -1.
         -5    1    1    2    0  502  0.83614634005E+02  0.18089283846E+01  0.73306068341E+01  0.84058845092E+02  0.41800000000E+01 0.  1.
        -11    1    1    2    0    0 -0.28356496858E+02  0.57828717408E+01  0.60593197277E+02  0.67149594756E+02  0.00000000000E+00 0.  1.
         11    1    1    2    0    0  0.54231260583E+02 -0.49446235244E+02  0.10294942252E+03  0.12642999407E+03  0.00000000000E+00 0. -1.
</event>
<event>
 6    1  0.5317355E-006  0.8600243E+02  0.7561462E-02  0.1312832E+00
          2   -1    0    0  501    0  0.00000000000E+00  0.00000000000E+00  0.14594932435E+03  0.14594932435E+03  0.00000000000E+00 0. -1.
         -2   -1    0    0    0  501 -0.00000000000E+00 -0.00000000000E+00 -0.16015585555E+03  0.16015585555E+03  0.00000000000E+00 0.  1.
          5    1    1    2  502    0 -0.53173139400E+02  0.63667805725E+02 -0.11356106353E+03  0.14069314052E+03  0.41800000000E+01 0.  1.
         -5    1    1    2    0  502  0.69272329925E+01 -0.11776050145E+02  0.24141812901E+02  0.28052833085E+02  0.41800000000E+01 0.  1.
        -11    1    1    2    0    0 -0.94868910244E+00 -0.14280463638E+02 -0.20023384151E+02  0.24612345796E+02  0.00000000000E+00 0.  1.
         11    1    1    2    0    0  0.47194595510E+02 -0.37611291942E+02  0.95236103583E+02  0.11274686050E+03  0.00000000000E+00 0. -1.
</event>
<event>
 6    1  0.5317355E-006  0.9026581E+02  0.7561462E-02  0.1302209E+00
         -2   -1    0    0    0  501 -0.00000000000E+00  0.00000000000E+00  0.15545938973E+03  0.15545938973E+03  0.00000000000E+00 0.  1.
          2   -1    0    0  501    0  0.00000000000E+00 -0.00000000000E+00 -0.92683664345E+02  0.92683664345E+02  0.00000000000E+00 0. -1.
          5    1    1    2  502    0  0.14528152828E+01  0.19286140890E+02  0.70589982427E+02  0.73310871784E+02  0.41800000000E+01 0. -1.
         -5    1    1    2    0  502 -0.51752169146E+02 -0.35070290606E+02 -0.28469705470E+02  0.68820119326E+02  0.41800000000E+01 0. -1.
        -11    1    1    2    0    0  0.47139453361E+02  0.47086353711E+02 -0.29294528260E+01  0.66692086958E+02  0.00000000000E+00 0. -1.
         11    1    1    2    0    0  0.31599005028E+01 -0.31302203994E+02  0.23584901255E+02  0.39319976008E+02  0.00000000000E+00 0.  1.
</event>
<event>
 6    1  0.5317355E-006  0.1795956E+03  0.7561462E-02  0.1168195E+00
         -2   -1    0    0    0  501 -0.00000000000E+00  0.00000000000E+00  0.51865313648E+02  0.51865313648E+02  0.00000000000E+00 0.  1.
          2   -1    0    0  501    0  0.00000000000E+00 -0.00000000000E+00 -0.80023300794E+03  0.80023300794E+03  0.00000000000E+00 0. -1.
          5    1    1    2  502    0 -0.61907276579E+02 -0.79784580885E+02 -0.18051116665E+03  0.20688123145E+03  0.41800000000E+01 0.  1.
         -5    1    1    2    0  502 -0.80688498891E+02  0.21170878741E+02 -0.50015994955E+02  0.97354569031E+02  0.41800000000E+01 0.  1.
        -11    1    1    2    0    0  0.14656897537E+03  0.35054217883E+02 -0.48008161044E+03  0.50317950616E+03  0.00000000000E+00 0. -1.
         11    1    1    2    0    0 -0.39731998953E+01  0.23559484261E+02 -0.37758922244E+02  0.44683014951E+02  0.00000000000E+00 0.  1.
</event>
<event>
 6    1  0.5317355E-006  0.9431886E+02  0.7561462E-02  0.1292718E+00
         -2   -1    0    0    0  501 -0.00000000000E+00  0.00000000000E+00  0.39003581627E+03  0.39003581627E+03  0.00000000000E+00 0. -1.
          2   -1    0    0  501    0  0.00000000000E+00 -0.00000000000E+00 -0.78252051286E+02  0.78252051286E+02  0.00000000000E+00 0.  1.
          5    1    1    2  502    0  0.43178824079E+01  0.51777619684E+01 -0.11226330508E+02  0.13746134881E+02  0.41800000000E+01 0. -1.
         -5    1    1    2    0  502  0.39714313583E+02  0.56481464664E+02  0.32715649187E+03  0.33438933165E+03  0.41800000000E+01 0. -1.
        -11    1    1    2    0    0 -0.21943018566E+01  0.19819166219E+02  0.16939773334E+02  0.26164293051E+02  0.00000000000E+00 0.  1.
         11    1    1    2    0    0 -0.41837894135E+02 -0.81478392851E+02 -0.21086169707E+02  0.93988107972E+02  0.00000000000E+00 0. -1.
</event>
<event>
 6    1  0.5317355E-006  0.8410905E+02  0.7561462E-02  0.1317779E+00
          2   -1    0    0  501    0  0.00000000000E+00  0.00000000000E+00  0.96009700310E+02  0.96009700310E+02  0.00000000000E+00 0. -1.
         -2   -1    0    0    0  501 -0.00000000000E+00 -0.00000000000E+00 -0.20081826090E+03  0.20081826090E+03  0.00000000000E+00 0.  1.
          5    1    1    2  502    0  0.15044816781E+02  0.21858446384E+02  0.16282864007E+02  0.31412453750E+02  0.41800000000E+01 0.  1.
         -5    1    1    2    0  502  0.42071174169E+02 -0.45214434574E+02 -0.14803622532E+03  0.16045723790E+03  0.41800000000E+01 0.  1.
        -11    1    1    2    0    0 -0.50385767803E+02 -0.46974784846E+01 -0.16131887630E+02  0.53113366488E+02  0.00000000000E+00 0.  1.
         11    1    1    2    0    0 -0.67302231465E+01  0.28053466674E+02  0.43076688343E+02  0.51844903073E+02  0.00000000000E+00 0. -1.
</event>
<event>
 6    1  0.5317355E-006  0.9687352E+02  0.7561462E-02  0.1287011E+00
         -1   -1    0    0    0  501 -0.00000000000E+00  0.00000000000E+00  0.40131749835E+02  0.40131749835E+02  0.00000000000E+00 0.  1.
          1   -1    0    0  501    0  0.00000000000E+00 -0.00000000000E+00 -0.51551402356E+03  0.51551402356E+03  0.00000000000E+00 0. -1.
          5    1    1    2  502    0  0.30098127944E+02 -0.25387545705E+02 -0.15204161732E+03  0.15711317762E+03  0.41800000000E+01 0. -1.
         -5    1    1    2    0  502 -0.37016684602E+02 -0.56924906022E+02 -0.19655966369E+02  0.70813199889E+02  0.41800000000E+01 0. -1.
        -11    1    1    2    0    0  0.14940826021E+02  0.33889170147E+02 -0.24857375929E+02  0.44604857062E+02  0.00000000000E+00 0.  1.
         11    1    1    2    0    0 -0.80222693625E+01  0.48423281580E+02 -0.27882731411E+03  0.28311453883E+03  0.00000000000E+00 0. -1.
</event>
<event>
 6    1  0.5317355E-006  0.9489246E+02  0.7561462E-02  0.1291418E+00
         -1   -1    0    0    0  501 -0.00000000000E+00  0.00000000000E+00  0.67943177785E+02  0.67943177785E+02  0.00000000000E+00 0.  1.
          1   -1    0    0  501    0  0.00000000000E+00 -0.00000000000E+00 -0.17399324743E+03  0.17399324743E+03  0.00000000000E+00 0. -1.
          5    1    1    2  502    0 -0.51554512317E+02  0.37677254013E+01  0.38997120427E+01  0.52007149979E+02  0.41800000000E+01 0.  1.
         -5    1    1    2    0  502  0.59102765517E+02 -0.78031931371E+01 -0.62228449778E+02  0.86277917665E+02  0.41800000000E+01 0.  1.
        -11    1    1    2    0    0  0.23805072091E+02 -0.25643503500E+02 -0.49294482230E+02  0.60450117513E+02  0.00000000000E+00 0. -1.
         11    1    1    2    0    0 -0.31353325291E+02  0.29678971236E+02  0.15731503210E+01  0.43201240056E+02  0.00000000000E+00 0.  1.
</event>
<event>
 6    1  0.5317355E-006  0.9644551E+02  0.7561462E-02  0.1287953E+00
         -1   -1    0    0    0  501 -0.00000000000E+00  0.00000000000E+00  0.49968776397E+03  0.49968776397E+03  0.00000000000E+00 0.  1.
          1   -1    0    0  501    0  0.00000000000E+00 -0.00000000000E+00 -0.21172680330E+02  0.21172680330E+02  0.00000000000E+00 0. -1.
          5    1    1    2  502    0  0.54388588726E+02 -0.21373109901E+02  0.95262479027E+02  0.11183622276E+03  0.41800000000E+01 0. -1.
         -5    1    1    2    0  502 -0.33488776971E+02  0.26908592349E+02  0.19404871434E+03  0.19879121324E+03  0.41800000000E+01 0.  1.
        -11    1    1    2    0    0  0.34606217406E+02 -0.82249162453E+01  0.84869022041E+02  0.92021684578E+02  0.00000000000E+00 0. -1.
         11    1    1    2    0    0 -0.55506029160E+02  0.26894337974E+01  0.10433486824E+03  0.11821132373E+03  0.00000000000E+00 0.  1.
</event>
<event>
 6    1  0.5317355E-006  0.1077589E+03  0.7561462E-02  0.1264777E+00
         -1   -1    0    0    0  501 -0.00000000000E+00  0.00000000000E+00  0.30185862095E+03  0.30185862095E+03  0.00000000000E+00 0.  1.
          1   -1    0    0  501    0  0.00000000000E+00 -0.00000000000E+00 -0.48132145196E+02  0.48132145196E+02  0.00000000000E+00 0. -1.
          5    1    1    2  502    0  0.82805708669E+00 -0.81093725301E+02  0.33242406953E+02  0.87746270472E+02  0.41800000000E+01 0. -1.
         -5    1    1    2    0  502 -0.68616924000E+01  0.33203722629E+02  0.82811968584E+02  0.89581608379E+02  0.41800000000E+01 0. -1.
        -11    1    1    2    0    0  0.41482484557E+02  0.11633938252E+01  0.34421142484E+02  0.53916278248E+02  0.00000000000E+00 0. -1.
         11    1    1    2    0    0 -0.35448849244E+02  0.46726608846E+02  0.10325095773E+03  0.11874660904E+03  0.00000000000E+00 0.  1.
</event>
<event>
 6    1  0.5317355E-006  0.8433013E+02  0.7561462E-02  0.1317194E+00
         -1   -1    0    0    0  501 -0.00000000000E+00  0.00000000000E+00  0.30153262935E+02  0.30153262935E+02  0.00000000000E+00 0.  1.
          1   -1    0    0  501    0  0.00000000000E+00 -0.00000000000E+00 -0.61046282878E+03  0.61046282878E+03  0.00000000000E+00 0. -1.
          5    1    1    2  502    0  0.46788614239E+01 -0.24952985170E+02  0.10278491090E+02  0.27706731894E+02  0.41800000000E+01 0.  1.
         -5    1    1    2    0  502  0.16343997772E+02 -0.43097231903E+02 -0.23251210254E+03  0.23707350735E+03  0.41800000000E+01 0.  1.
        -11    1    1    2    0    0 -0.44683184869E+02  0.48610829557E+02 -0.32113814962E+03  0.32785562508E+03  0.00000000000E+00 0. -1.
         11    1    1    2    0    0  0.23660325673E+02  0.19439387517E+02 -0.36937804780E+02  0.47980227385E+02  0.00000000000E+00 0.  1.
</event>
<event>
 6    1  0.5317355E-006  0.1303986E+03  0.7561462E-02  0.1226866E+00
          2   -1    0    0  501    0  0.00000000000E+00  0.00000000000E+00  0.26683965150E+03  0.26683965150E+03  0.00000000000E+00 0. -1.
         -2   -1    0    0    0  501 -0.00000000000E+00 -0.00000000000E+00 -0.86976978177E+02  0.86976978177E+02  0.00000000000E+00 0.  1.
          5    1    1    2  502    0  0.29014665927E+02  0.63556446001E+02  0.87794367734E+02  0.11227909900E+03  0.41800000000E+01 0. -1.
         -5    1    1    2    0  502  0.58585039478E+02 -0.98941460139E+01 -0.20539242920E+02  0.63003443364E+02  0.41800000000E+01 0. -1.
        -11    1    1    2    0    0 -0.37642392143E+01 -0.46993778128E+02  0.14521973143E+02  0.49330238024E+02  0.00000000000E+00 0.  1.
         11    1    1    2    0    0 -0.83835466190E+02 -0.66685218593E+01  0.98085575364E+02  0.12920384928E+03  0.00000000000E+00 0. -1.
</event>
<event>
 6    1  0.5317355E-006  0.2044627E+03  0.7561462E-02  0.1146028E+00
          2   -1    0    0  501    0  0.00000000000E+00  0.00000000000E+00  0.80209317952E+03  0.80209317952E+03  0.00000000000E+00 0.  1.
         -2   -1    0    0    0  501 -0.00000000000E+00 -0.00000000000E+00 -0.78455304280E+02  0.78455304280E+02  0.00000000000E+00 0. -1.
          5    1    1    2  502    0 -0.97853833355E+02  0.75040904338E+02  0.26113704802E+02  0.12611862672E+03  0.41800000000E+01 0. -1.
         -5    1    1    2    0  502 -0.55711566682E+02  0.43766658532E+02  0.14463813552E+03  0.16111164361E+03  0.41800000000E+01 0. -1.
        -11    1    1    2    0    0  0.15429737602E+03 -0.76436740060E+02  0.42344881783E+03  0.45712050577E+03  0.00000000000E+00 0. -1.
         11    1    1    2    0    0 -0.73197598331E+00 -0.42370822810E+02  0.12943721710E+03  0.13619770771E+03  0.00000000000E+00 0.  1.
</event>
<event>
 6    1  0.5317355E-006  0.1098020E+03  0.7561462E-02  0.1260937E+00
         -1   -1    0    0    0  501 -0.00000000000E+00  0.00000000000E+00  0.28354612927E+02  0.28354612927E+02  0.00000000000E+00 0.  1.
          1   -1    0    0  501    0  0.00000000000E+00 -0.00000000000E+00 -0.50252018868E+03  0.50252018868E+03  0.00000000000E+00 0. -1.
          5    1    1    2  502    0  0.54768232787E+02 -0.50741764467E+01 -0.16840762098E+03  0.17721147196E+03  0.41800000000E+01 0. -1.
         -5    1    1    2    0  502 -0.39955088932E+02  0.50126200583E+02 -0.62349334992E+02  0.89520707607E+02  0.41800000000E+01 0. -1.
        -11    1    1    2    0    0 -0.42649178585E+02  0.49916293670E+01 -0.77099434931E+02  0.88250731807E+02  0.00000000000E+00 0. -1.
         11    1    1    2    0    0  0.27836034730E+02 -0.50043653503E+02 -0.16630918485E+03  0.17589189024E+03  0.00000000000E+00 0.  1.
</event>
<event>
 6    1  0.5317355E-006  0.1664762E+03  0.7561462E-02  0.1181573E+00
         -2   -1    0    0    0  501 -0.00000000000E+00  0.00000000000E+00  0.41938533096E+02  0.41938533096E+02  0.00000000000E+00 0.  1.
          2   -1    0    0  501    0  0.00000000000E+00 -0.00000000000E+00 -0.70704789230E+03  0.70704789230E+03  0.00000000000E+00 0. -1.
          5    1    1    2  502    0 -0.29669816209E+02 -0.34645482480E+02 -0.16294039858E+03  0.16925617667E+03  0.41800000000E+01 0. -1.
         -5    1    1    2    0  502 -0.94801208441E+02  0.82649524223E+02 -0.18371417482E+03  0.22268045133E+03  0.41800000000E+01 0. -1.
        -11    1    1    2    0    0  0.36283300582E+02 -0.62176124204E+02 -0.13430959813E+03  0.15238574891E+03  0.00000000000E+00 0. -1.
         11    1    1    2    0    0  0.88187724068E+02  0.14172082461E+02 -0.18414518768E+03  0.20466404848E+03  0.00000000000E+00 0.  1.
</event>
<event>
 6    1  0.5317355E-006  0.2499083E+03  0.7561462E-02  0.1113363E+00
         -1   -1    0    0    0  501 -0.00000000000E+00  0.00000000000E+00  0.65154858015E+02  0.65154858015E+02  0.00000000000E+00 0.  1.
          1   -1    0    0  501    0  0.00000000000E+00 -0.00000000000E+00 -0.11979107859E+04  0.11979107859E+04  0.00000000000E+00 0. -1.
          5    1    1    2  502    0 -0.14156852062E+03 -0.11994252718E+03 -0.24949050073E+03  0.31095150460E+03  0.41800000000E+01 0.  1.
         -5    1    1    2    0  502  0.15027705160E+02 -0.68333256751E+02 -0.56934056920E+02  0.90300748269E+02  0.41800000000E+01 0.  1.
        -11    1    1    2    0    0  0.81457786623E+02  0.43184364551E+02 -0.34208572822E+03  0.35429211930E+03  0.00000000000E+00 0.  1.
         11    1    1    2    0    0  0.45083028838E+02  0.14509141938E+03 -0.48424564196E+03  0.50752127170E+03  0.00000000000E+00 0. -1.
</event>
<event>
 6    1  0.5317355E-006  0.1732074E+03  0.7561462E-02  0.1174544E+00
         -1   -1    0    0    0  501 -0.00000000000E+00  0.00000000000E+00  0.39903304653E+03  0.39903304653E+03  0.00000000000E+00 0.  1.
          1   -1    0    0  501    0  0.00000000000E+00 -0.00000000000E+00 -0.12729201033E+03  0.12729201033E+03  0.00000000000E+00 0. -1.
          5    1    1    2  502    0  0.69492336863E+02  0.98488763676E+02  0.80379862740E+02  0.14494004342E+03  0.41800000000E+01 0. -1.
         -5    1    1    2    0  502  0.42600589971E+02  0.22118364951E+02  0.18678845451E+03  0.19290264765E+03  0.41800000000E+01 0. -1.
        -11    1    1    2    0    0 -0.67246754977E+02 -0.11391152343E+03  0.31185529464E+02  0.13590621204E+03  0.00000000000E+00 0.  1.
         11    1    1    2    0    0 -0.44846171857E+02 -0.66956052002E+01 -0.26612810511E+02  0.52576153745E+02  0.00000000000E+00 0. -1.
</event>
<event>
 6    1  0.5317355E-006  0.6600890E+02  0.7561462E-02  0.1374216E+00
         -2   -1    0    0    0  501 -0.00000000000E+00  0.00000000000E+00  0.67878582110E+02  0.67878582110E+02  0.00000000000E+00 0.  1.
          2   -1    0    0  501    0  0.00000000000E+00 -0.00000000000E+00 -0.20267890857E+03  0.20267890857E+03  0.00000000000E+00 0. -1.
          5    1    1    2  502    0 -0.20474815435E+02 -0.30169092203E+02 -0.97428379260E+02  0.10411125624E+03  0.41800000000E+01 0.  1.
         -5    1    1    2    0  502 -0.83436341985E+01  0.85022879640E+00  0.38875426077E+02  0.39988876870E+02  0.41800000000E+01 0.  1.
        -11    1    1    2    0    0 -0.83375405223E+01  0.44892065708E+02 -0.67904349053E+01  0.46161912349E+02  0.00000000000E+00 0.  1.
         11    1    1    2    0    0  0.37155990156E+02 -0.15573202302E+02 -0.69456938371E+02  0.80295445215E+02  0.00000000000E+00 0. -1.
</event>
<event>
 6    1  0.5317355E-006  0.1458906E+03  0.7561462E-02  0.1205616E+00
         -3   -1    0    0    0  501 -0.00000000000E+00  0.00000000000E+00  0.16258352298E+04  0.16258352298E+04  0.00000000000E+00 0.  1.
          3   -1    0    0  501    0  0.00000000000E+00 -0.00000000000E+00 -0.25573135883E+02  0.25573135883E+02  0.00000000000E+00 0. -1.
          5    1    1    2  502    0 -0.54811903688E+02  0.74827757968E+02  0.41998201719E+03  0.43012312808E+03  0.41800000000E+01 0. -1.
         -5    1    1    2    0  502  0.21162650170E+02  0.40803384110E+02  0.90666736396E+03  0.90784137116E+03  0.41800000000E+01 0. -1.
        -11    1    1    2    0    0 -0.15139641009E+02 -0.10058913812E+03  0.17580658524E+03  0.20311410303E+03  0.00000000000E+00 0.  1.
         11    1    1    2    0    0  0.48788894527E+02 -0.15042003959E+02  0.97806127550E+02  0.11032976343E+03  0.00000000000E+00 0. -1.
</event>
<event>
 6    1  0.5317355E-006  0.1035824E+03  0.7561462E-02  0.1272938E+00
          2   -1    0    0  501    0  0.00000000000E+00  0.00000000000E+00  0.38375449797E+02  0.38375449797E+02  0.00000000000E+00 0. -1.
         -2   -1    0    0    0  501 -0.00000000000E+00 -0.00000000000E+00 -0.47511250751E+03  0.47511250751E+03  0.00000000000E+00 0.  1.
          5    1    1    2  502    0 -0.34326494299E+02  0.81381202980E+01 -0.68099734970E+01  0.36171609749E+02  0.41800000000E+01 0. -1.
         -5    1    1    2    0  502 -0.36056631149E+02  0.39115210897E+02 -0.28287700602E+03  0.28786620731E+03  0.41800000000E+01 0.  1.
        -11    1    1    2    0    0  0.89145577075E+02 -0.43291227012E+02 -0.13206800303E+03  0.16511517699E+03  0.00000000000E+00 0.  1.
         11    1    1    2    0    0 -0.18762451627E+02 -0.39621041828E+01 -0.14982075160E+02  0.24334963257E+02  0.00000000000E+00 0. -1.
</event>
<event>
 6    1  0.5317355E-006  0.1080282E+03  0.7561462E-02  0.1264265E+00
          1   -1    0    0  501    0  0.00000000000E+00  0.00000000000E+00  0.10815616953E+02  0.10815616953E+02  0.00000000000E+00 0. -1.
         -1   -1    0    0    0  501 -0.00000000000E+00 -0.00000000000E+00 -0.14363476873E+04  0.14363476873E+04  0.00000000000E+00 0.  1.
          5    1    1    2  502    0  0.21938233930E+02  0.59296539626E+02 -0.79997721415E+03  0.80248263612E+03  0.41800000000E+01 0. -1.
         -5    1    1    2    0  502 -0.47003536621E+02 -0.14605783461E+02 -0.17569394038E+03  0.18250614908E+03  0.41800000000E+01 0. -1.
        -11    1    1    2    0    0  0.53430496084E+02 -0.38470867839E+01 -0.28446483570E+03  0.28946478324E+03  0.00000000000E+00 0.  1.
         11    1    1    2    0    0 -0.28365193392E+02 -0.40843669381E+02 -0.16539608014E+03  0.17270973583E+03  0.00000000000E+00 0. -1.
</event>
<event>
 6    1  0.5317355E-006  0.1154178E+03  0.7561462E-02  0.1250853E+00
          1   -1    0    0  501    0  0.00000000000E+00  0.00000000000E+00  0.11317179628E+03  0.11317179628E+03  0.00000000000E+00 0. -1.
         -1   -1    0    0    0  501 -0.00000000000E+00 -0.00000000000E+00 -0.16205584048E+03  0.16205584048E+03  0.00000000000E+00 0.  1.
          5    1    1    2  502    0  0.27269070512E+02  0.38030663845E+02 -0.24873950139E+02  0.53161258399E+02  0.41800000000E+01 0.  1.
         -5    1    1    2    0  502 -0.83063546203E+02 -0.33665842364E+02 -0.62789883040E+02  0.10951248085E+03  0.41800000000E+01 0.  1.
        -11    1    1    2    0    0 -0.13189774533E+02  0.17361834921E+02  0.33586133225E+02  0.40042874635E+02  0.00000000000E+00 0. -1.
         11    1    1    2    0    0  0.68984250225E+02 -0.21726656403E+02  0.51936557573E+01  0.72511022870E+02  0.00000000000E+00 0.  1.
</event>
<event>
 6    1  0.5317355E-006  0.8504372E+02  0.7561462E-02  0.1315318E+00
         -2   -1    0    0    0  501 -0.00000000000E+00  0.00000000000E+00  0.44006053093E+02  0.44006053093E+02  0.00000000000E+00 0.  1.
          2   -1    0    0  501    0  0.00000000000E+00 -0.00000000000E+00 -0.30909090516E+03  0.30909090516E+03  0.00000000000E+00 0. -1.
          5    1    1    2  502    0  0.86402981486E+01 -0.73580518550E+02 -0.40465163833E+02  0.84520112081E+02  0.41800000000E+01 0. -1.
         -5    1    1    2    0  502 -0.26130613394E+02  0.41415258535E+02 -0.74643152473E+02  0.89370605945E+02  0.41800000000E+01 0. -1.
        -11    1    1    2    0    0 -0.59877438122E+01  0.18777058955E+02  0.62369422240E+01  0.20671972990E+02  0.00000000000E+00 0.  1.
         11    1    1    2    0    0  0.23478059057E+02  0.13388201059E+02 -0.15621347798E+03  0.15853426723E+03  0.00000000000E+00 0. -1.
</event>
<event>
 6    1  0.5317355E-006  0.1637059E+03  0.7561462E-02  0.1184575E+00
          1   -1    0    0  501    0  0.00000000000E+00  0.00000000000E+00  0.59604990196E+03  0.59604990196E+03  0.00000000000E+00 0. -1.
         -1   -1    0    0    0  501 -0.00000000000E+00 -0.00000000000E+00 -0.72416797793E+02  0.72416797793E+02  0.00000000000E+00 0.  1.
          5    1    1    2  502    0  0.10496523864E+02 -0.40775746130E+02 -0.64192806242E+01  0.42796238730E+02  0.41800000000E+01 0. -1.
         -5    1    1    2    0  502 -0.13282733459E+03  0.58308866693E+02  0.12202192321E+03  0.18960444850E+03  0.41800000000E+01 0.  1.
        -11    1    1    2    0    0  0.36612315810E+02  0.24953434177E+02  0.56790003810E+02  0.72029438974E+02  0.00000000000E+00 0.  1.
         11    1    1    2    0    0  0.85718494912E+02 -0.42486554740E+02  0.35124045778E+03  0.36403657355E+03  0.00000000000E+00 0. -1.
</event>
<event>
 6    1  0.5317355E-006  0.1000293E+03  0.7561462E-02  0.1280234E+00
          1   -1    0    0  501    0  0.00000000000E+00  0.00000000000E+00  0.11927861766E+03  0.11927861766E+03  0.00000000000E+00 0. -1.
         -1   -1    0    0    0  501 -0.00000000000E+00 -0.00000000000E+00 -0.13026146998E+03  0.13026146998E+03  0.00000000000E+00 0.  1.
          5    1    1    2  502    0 -0.11815694081E+00 -0.23718006152E+02  0.32222000744E+02  0.40227944377E+02  0.41800000000E+01 0.  1.
         -5    1    1    2    0  502  0.36163667357E+02  0.62630958929E+02 -0.70113603029E+02  0.10081585978E+03  0.41800000000E+01 0.  1.
        -11    1    1    2    0    0 -0.37217861793E+01 -0.63069549456E+02  0.25462904276E+02  0.68117393191E+02  0.00000000000E+00 0.  1.
         11    1    1    2    0    0 -0.32323724237E+02  0.24156596679E+02  0.14458456918E+01  0.40378890294E+02  0.00000000000E+00 0. -1.
</event>
<event>
 6    1  0.5317355E-006  0.9964647E+02  0.7561462E-02  0.1281041E+00
         -3   -1    0    0    0  501 -0.00000000000E+00  0.00000000000E+00  0.61456204161E+02  0.61456204161E+02  0.00000000000E+00 0.  1.
          3   -1    0    0  501    0  0.00000000000E+00 -0.00000000000E+00 -0.21336212399E+03  0.21336212399E+03  0.00000000000E+00 0. -1.
          5    1    1    2  502    0  0.15372880750E+02 -0.43539462154E+02  0.43313963666E+01  0.46564402946E+02  0.41800000000E+01 0.  1.
         -5    1    1    2    0  502  0.17556363018E+02  0.60332503995E+02 -0.88647428321E+02  0.10873856661E+03  0.41800000000E+01 0.  1.
        -11    1    1    2    0    0 -0.55809438965E+01 -0.48079374681E+02 -0.11569944774E+02  0.49765819862E+02  0.00000000000E+00 0. -1.
         11    1    1    2    0    0 -0.27348299871E+02  0.31286332839E+02 -0.56019943105E+02  0.69749538736E+02  0.00000000000E+00 0.  1.
</event>
<event>
 6    1  0.5317355E-006  0.1129810E+03  0.7561462E-02  0.1255147E+00
         -1   -1    0    0    0  501 -0.00000000000E+00  0.00000000000E+00  0.65434958557E+02  0.65434958557E+02  0.00000000000E+00 0.  1.
          1   -1    0    0  501    0  0.00000000000E+00 -0.00000000000E+00 -0.25026775661E+03  0.25026775661E+03  0.00000000000E+00 0. -1.
          5    1    1    2  502    0 -0.45723132228E+02 -0.62636658976E+02 -0.55686720696E+01  0.77861661792E+02  0.41800000000E+01 0.  1.
         -5    1    1    2    0  502  0.35738069804E+02 -0.49372979042E+01 -0.81329997066E+02  0.89070912012E+02  0.41800000000E+01 0.  1.
        -11    1    1    2    0    0  0.49145056278E+02  0.45782402618E+02 -0.59599437608E+02  0.89796202087E+02  0.00000000000E+00 0.  1.
         11    1    1    2    0    0 -0.39159993853E+02  0.21791554262E+02 -0.38334691304E+02  0.58973939271E+02  0.00000000000E+00 0. -1.
</event>
<event>
 6    1  0.5317355E-006  0.2019024E+03  0.7561462E-02  0.1148144E+00
         -2   -1    0    0    0  501 -0.00000000000E+00  0.00000000000E+00  0.28518772325E+03  0.28518772325E+03  0.00000000000E+00 0.  1.
          2   -1    0    0  501    0  0.00000000000E+00 -0.00000000000E+00 -0.17947895526E+03  0.17947895526E+03  0.00000000000E+00 0. -1.
          5    1    1    2  502    0 -0.73432433430E+02 -0.46306196325E+02  0.57299957820E+02  0.10410256320E+03  0.41800000000E+01 0.  1.
         -5    1    1    2    0  502 -0.10320603555E+03  0.83150917794E+02  0.81130317251E+02  0.15545147694E+03  0.41800000000E+01 0.  1.
        -11    1    1    2    0    0  0.12219957195E+03 -0.42908907831E+02  0.17632693504E+02  0.13070891950E+03  0.00000000000E+00 0.  1.
         11    1    1    2    0    0  0.54438897030E+02  0.60641863622E+01 -0.50354200588E+02  0.74403718878E+02  0.00000000000E+00 0. -1.
</event>
<event>
 6    1  0.5317355E-006  0.9997567E+02  0.7561462E-02  0.1280347E+00
         -2   -1    0    0    0  501 -0.00000000000E+00  0.00000000000E+00  0.14920167702E+03  0.14920167702E+03  0.00000000000E+00 0. -1.
          2   -1    0    0  501    0  0.00000000000E+00 -0.00000000000E+00 -0.17200746582E+03  0.17200746582E+03  0.00000000000E+00 0.  1.
          5    1    1    2  502    0  0.41866045900E+02  0.22185575380E+02  0.54916779965E+01  0.47881066002E+02  0.41800000000E+01 0.  1.
         -5    1    1    2    0  502 -0.71640024311E+02  0.12208504119E+02  0.91017775903E+02  0.11654633665E+03  0.41800000000E+01 0.  1.
        -11    1    1    2    0    0 -0.58362410685E+01  0.16486585759E+02  0.46788640656E+01  0.18104170480E+02  0.00000000000E+00 0. -1.
         11    1    1    2    0    0  0.35610219479E+02 -0.50880665258E+02 -0.12399410677E+03  0.13867756971E+03  0.00000000000E+00 0.  1.
</event>
<event>
 6    1  0.5317355E-006  0.1033326E+03  0.7561462E-02  0.1273440E+00
          2   -1    0    0  501    0  0.00000000000E+00  0.00000000000E+00  0.53361503814E+03  0.53361503814E+03  0.00000000000E+00 0. -1.
         -2   -1    0    0    0  501 -0.00000000000E+00 -0.00000000000E+00 -0.22909070550E+02  0.22909070550E+02  0.00000000000E+00 0.  1.
          5    1    1    2  502    0 -0.30999526864E+02 -0.40160106011E+02  0.14575925374E+03  0.15439247789E+03  0.41800000000E+01 0.  1.
         -5    1    1    2    0  502  0.39704543887E+02  0.62630132873E+02  0.14020245169E+03  0.15866059438E+03  0.41800000000E+01 0.  1.
        -11    1    1    2    0    0  0.15006783052E+02  0.24580840943E+02  0.29438099852E+02  0.41182799832E+02  0.00000000000E+00 0.  1.
         11    1    1    2    0    0 -0.23711800075E+02 -0.47050867806E+02  0.19530616231E+03  0.20228823659E+03  0.00000000000E+00 0. -1.
</event>
<event>
 6    1  0.5317355E-006  0.1095153E+03  0.7561462E-02  0.1261470E+00
         -1   -1    0    0    0  501 -0.00000000000E+00  0.00000000000E+00  0.10626462311E+03  0.10626462311E+03  0.00000000000E+00 0.  1.
          1   -1    0    0  501    0  0.00000000000E+00 -0.00000000000E+00 -0.13504540511E+03  0.13504540511E+03  0.00000000000E+00 0. -1.
          5    1    1    2  502    0  0.27204018979E+01 -0.66979280812E+02  0.31446162541E+02  0.74161702941E+02  0.41800000000E+01 0. -1.
         -5    1    1    2    0  502 -0.24948632184E+02  0.50477988801E+02 -0.48478486475E+01  0.56669530065E+02  0.41800000000E+01 0. -1.
        -11    1    1    2    0    0  0.37164044560E+02  0.47904414232E+02 -0.38537568852E+02  0.71841097737E+02  0.00000000000E+00 0.  1.
         11    1    1    2    0    0 -0.14935814274E+02 -0.31403122221E+02 -0.16841527035E+02  0.38637697474E+02  0.00000000000E+00 0. -1.
</event>
<event>
 6    1  0.5317355E-006  0.1046782E+03  0.7561462E-02  0.1270755E+00
         -1   -1    0    0    0  501 -0.00000000000E+00  0.00000000000E+00  0.20565121335E+03  0.20565121335E+03  0.00000000000E+00 0.  1.
          1   -1    0    0  501    0  0.00000000000E+00 -0.00000000000E+00 -0.10425241843E+03  0.10425241843E+03  0.00000000000E+00 0. -1.
          5    1    1    2  502    0  0.43734560624E+02  0.23487640235E+02  0.88987182129E+02  0.10198319479E+03  0.41800000000E+01 0. -1.
         -5    1    1    2    0  502 -0.64449749184E+02 -0.34566460791E+02  0.66311334550E+02  0.98809290410E+02  0.41800000000E+01 0. -1.
        -11    1    1    2    0    0  0.45871750638E+02  0.29996463025E+02 -0.54958775305E+02  0.77617474087E+02  0.00000000000E+00 0. -1.
         11    1    1    2    0    0 -0.25156562078E+02 -0.18917642468E+02  0.10590535436E+01  0.31493672484E+02  0.00000000000E+00 0.  1.
</event>
<event>
 6    1  0.5317355E-006  0.9091471E+02  0.7561462E-02  0.1300652E+00
          1   -1    0    0  501    0  0.00000000000E+00  0.00000000000E+00  0.61988410951E+02  0.61988410951E+02  0.00000000000E+00 0. -1.
         -1   -1    0    0    0  501 -0.00000000000E+00 -0.00000000000E+00 -0.26203776901E+03  0.26203776901E+03  0.00000000000E+00 0.  1.
          5    1    1    2  502    0  0.20929984440E+02 -0.34662531574E+02 -0.16457870109E+03  0.16953812726E+03  0.41800000000E+01 0.  1.
         -5    1    1    2    0  502 -0.21828140526E+02  0.50104535784E+02 -0.30527085158E+02  0.62739999627E+02  0.41800000000E+01 0.  1.
        -11    1    1    2    0    0 -0.14520657601E+02  0.32689514782E+02 -0.17277972727E+02  0.39723824280E+02  0.00000000000E+00 0.  1.
         11    1    1    2    0    0  0.15418813687E+02 -0.48131518992E+02  0.12334400910E+02  0.52024228796E+02  0.00000000000E+00 0. -1.
</event>
<event>
 6    1  0.5317355E-006  0.1060278E+03  0.7561462E-02  0.1268108E+00
          2   -1    0    0  501    0  0.00000000000E+00  0.00000000000E+00  0.71425596857E+03  0.71425596857E+03  0.00000000000E+00 0. -1.
         -2   -1    0    0    0  501 -0.00000000000E+00 -0.00000000000E+00 -0.20800952823E+02  0.20800952823E+02  0.00000000000E+00 0.  1.
          5    1    1    2  502    0  0.12875813475E+02  0.27641366379E+02  0.18183802300E+02  0.35748493311E+02  0.41800000000E+01 0. -1.
         -5    1    1    2    0  502 -0.12850326683E+02 -0.75123907538E+02  0.29724472625E+03  0.30688863137E+03  0.41800000000E+01 0. -1.
        -11    1    1    2    0    0 -0.46762655291E+02  0.21421499733E+02  0.20145868837E+03  0.20792121032E+03  0.00000000000E+00 0. -1.
         11    1    1    2    0    0  0.46737168499E+02  0.26061041427E+02  0.17656779883E+03  0.18449858640E+03  0.00000000000E+00 0.  1.
</event>
<event>
 6    1  0.5317355E-006  0.1207213E+03  0.7561462E-02  0.1241912E+00
         -3   -1    0    0    0  501 -0.00000000000E+00  0.00000000000E+00  0.20883721096E+03  0.20883721096E+03  0.00000000000E+00 0.  1.
          3   -1    0    0  501    0  0.00000000000E+00 -0.00000000000E+00 -0.91616783982E+02  0.91616783982E+02  0.00000000000E+00 0. -1.
          5    1    1    2  502    0  0.32529747916E+01  0.50796380896E+02  0.20558849687E+02  0.55054453567E+02  0.41800000000E+01 0. -1.
         -5    1    1    2    0  502  0.78653777041E+02 -0.58720736432E+02  0.56778500031E+02  0.11347163520E+03  0.41800000000E+01 0. -1.
        -11    1    1    2    0    0 -0.52461216365E+02 -0.15274754430E+02  0.66414607232E+02  0.86002310430E+02  0.00000000000E+00 0.  1.
         11    1    1    2    0    0 -0.29445535468E+02  0.23199109966E+02 -0.26531529967E+02  0.45925595746E+02  0.00000000000E+00 0. -1.
</event>
<event>
 6    1  0.5317355E-006  0.2531508E+03  0.7561462E-02  0.1111330E+00
          2   -1    0    0  501    0  0.00000000000E+00  0.00000000000E+00  0.29709491022E+03  0.29709491022E+03  0.00000000000E+00 0. -1.
         -2   -1    0    0    0  501 -0.00000000000E+00 -0.00000000000E+00 -0.24851151367E+03  0.24851151367E+03  0.00000000000E+00 0.  1.
          5    1    1    2  502    0  0.15874690276E+02  0.31542458031E+02  0.27627818857E+02  0.45030003606E+02  0.41800000000E+01 0. -1.
         -5    1    1    2    0  502  0.22568882187E+03  0.84467756344E+01 -0.46110820789E+02  0.23054386248E+03  0.41800000000E+01 0. -1.
        -11    1    1    2    0    0 -0.11841783790E+03 -0.18705028685E+02 -0.14557382540E+02  0.12076663371E+03  0.00000000000E+00 0.  1.
         11    1    1    2    0    0 -0.12314567424E+03 -0.21284204980E+02  0.81623781018E+02  0.14926592409E+03  0.00000000000E+00 0. -1.
</event>
<event>
 6    1  0.5317355E-006  0.1318552E+03  0.7561462E-02  0.1224729E+00
          1   -1    0    0  501    0  0.00000000000E+00  0.00000000000E+00  0.64028625651E+02  0.64028625651E+02  0.00000000000E+00 0. -1.
         -1   -1    0    0    0  501 -0.00000000000E+00 -0.00000000000E+00 -0.41560249513E+03  0.41560249513E+03  0.00000000000E+00 0.  1.
          5    1    1    2  502    0  0.25001487328E+02  0.81419632127E+02 -0.20772288316E+03  0.22454509447E+03  0.41800000000E+01 0.  1.
         -5    1    1    2    0  502 -0.58089398981E+02  0.22485114149E+02 -0.41823462587E+02  0.75144081970E+02  0.41800000000E+01 0.  1.
        -11    1    1    2    0    0  0.17070385173E+02 -0.97124672265E+02 -0.26046063783E+02  0.10199508543E+03  0.00000000000E+00 0. -1.
         11    1    1    2    0    0  0.16017526481E+02 -0.67800740113E+01 -0.75981459950E+02  0.77946858913E+02  0.00000000000E+00 0.  1.
</event>
<event>
 6    1  0.5317355E-006  0.2533780E+03  0.7561462E-02  0.1111188E+00
         -2   -1    0    0    0  501 -0.00000000000E+00  0.00000000000E+00  0.22481462392E+03  0.22481462392E+03  0.00000000000E+00 0.  1.
          2   -1    0    0  501    0  0.00000000000E+00 -0.00000000000E+00 -0.43813354880E+03  0.43813354880E+03  0.00000000000E+00 0. -1.
          5    1    1    2  502    0  0.12897948909E+03 -0.23832597449E+02  0.15874691259E+02  0.13218615484E+03  0.41800000000E+01 0. -1.
         -5    1    1    2    0  502 -0.19704126394E+03  0.13768725459E+03  0.24688663046E+02  0.24168169616E+03  0.41800000000E+01 0.  1.
        -11    1    1    2    0    0  0.69393969005E+02 -0.10313743540E+03 -0.24627615260E+03  0.27587097864E+03  0.00000000000E+00 0. -1.
         11    1    1    2    0    0 -0.13321941542E+01 -0.10717221746E+02 -0.76061265743E+01  0.13209343083E+02  0.00000000000E+00 0.  1.
</event>
<event>
 6    1  0.5317355E-006  0.1050615E+03  0.7561462E-02  0.1269998E+00
          2   -1    0    0  501    0  0.00000000000E+00  0.00000000000E+00  0.41769708692E+03  0.41769708692E+03  0.00000000000E+00 0.  1.
         -2   -1    0    0    0  501 -0.00000000000E+00 -0.00000000000E+00 -0.35761725240E+02  0.35761725240E+02  0.00000000000E+00 0. -1.
          5    1    1    2  502    0 -0.75337513504E+02 -0.12955643887E+02  0.57727005463E+02  0.95882580322E+02  0.41800000000E+01 0. -1.
         -5    1    1    2    0  502  0.24488417653E+02 -0.88680574389E+01  0.15360340885E+03  0.15585186766E+03  0.41800000000E+01 0. -1.
        -11    1    1    2    0    0  0.54206971760E+02 -0.25387184307E+02  0.85998284105E+02  0.10477886134E+03  0.00000000000E+00 0. -1.
         11    1    1    2    0    0 -0.33578759089E+01  0.47210885633E+02  0.84606663262E+02  0.96945502842E+02  0.00000000000E+00 0.  1.
</event>
<event>
 6    1  0.5317355E-006  0.1616542E+03  0.7561462E-02  0.1186842E+00
          4   -1    0    0  501    0  0.00000000000E+00  0.00000000000E+00  0.16810800883E+03  0.16810800883E+03  0.00000000000E+00 0. -1.
         -4   -1    0    0    0  501 -0.00000000000E+00 -0.00000000000E+00 -0.24382935784E+03  0.24382935784E+03  0.00000000000E+00 0.  1.
          5    1    1    2  502    0  0.61300137806E+02 -0.70510706175E+02  0.37102845918E+02  0.10061590409E+03  0.41800000000E+01 0. -1.
         -5    1    1    2    0  502  0.12085486124E+02 -0.61988650995E+02 -0.11886669885E+03  0.13466779987E+03  0.41800000000E+01 0.  1.
        -11    1    1    2    0    0 -0.12568777651E+02 -0.69448495665E+01 -0.17581838287E+02  0.22700796125E+02  0.00000000000E+00 0.  1.
         11    1    1    2    0    0 -0.60816846279E+02  0.13944420674E+03  0.23624342207E+02  0.15395286658E+03  0.00000000000E+00 0. -1.
</event>
<event>
 6    1  0.5317355E-006  0.1320225E+03  0.7561462E-02  0.1224485E+00
          1   -1    0    0  501    0  0.00000000000E+00  0.00000000000E+00  0.70850531225E+02  0.70850531225E+02  0.00000000000E+00 0. -1.
         -1   -1    0    0    0  501 -0.00000000000E+00 -0.00000000000E+00 -0.30538253451E+03  0.30538253451E+03  0.00000000000E+00 0.  1.
          5    1    1    2  502    0  0.49410626715E+02 -0.91534224406E+02 -0.62719834865E+02  0.12153672019E+03  0.41800000000E+01 0.  1.
         -5    1    1    2    0  502  0.18705555090E+02  0.25443004219E+02 -0.98456720763E+02  0.10348160473E+03  0.41800000000E+01 0.  1.
        -11    1    1    2    0    0 -0.86212499079E+01 -0.20950810829E+02 -0.29079523705E+02  0.36863004805E+02  0.00000000000E+00 0.  1.
         11    1    1    2    0    0 -0.59494931898E+02  0.87042031016E+02 -0.44275923953E+02  0.11435173600E+03  0.00000000000E+00 0. -1.
</event>
<event>
 6    1  0.5317355E-006  0.9041569E+02  0.7561462E-02  0.1301848E+00
         -1   -1    0    0    0  501 -0.00000000000E+00  0.00000000000E+00  0.53124082264E+03  0.53124082264E+03  0.00000000000E+00 0.  1.
          1   -1    0    0  501    0  0.00000000000E+00 -0.00000000000E+00 -0.29725963879E+02  0.29725963879E+02  0.00000000000E+00 0. -1.
          5    1    1    2  502    0 -0.21881345815E+02 -0.44612405542E+02  0.35461494960E+03  0.35810374880E+03  0.41800000000E+01 0. -1.
         -5    1    1    2    0  502  0.37106887597E+02  0.37007516712E+02  0.91487683372E+02  0.10551751518E+03  0.41800000000E+01 0. -1.
        -11    1    1    2    0    0  0.31256164355E+02  0.63479043276E+01  0.32398868835E+02  0.45463506259E+02  0.00000000000E+00 0.  1.
         11    1    1    2    0    0 -0.46481706137E+02  0.12569845016E+01  0.23013356950E+02  0.51882016283E+02  0.00000000000E+00 0. -1.
</event>
<event>
 6    1  0.5317355E-006  0.7631246E+02  0.7561462E-02  0.1339854E+00
          2   -1    0    0  501    0  0.00000000000E+00  0.00000000000E+00  0.41586841685E+03  0.41586841685E+03  0.00000000000E+00 0. -1.
         -2   -1    0    0    0  501 -0.00000000000E+00 -0.00000000000E+00 -0.36010410759E+02  0.36010410759E+02  0.00000000000E+00 0.  1.
          5    1    1    2  502    0  0.25984493595E+02 -0.18442995669E+02 -0.24999330014E+01  0.32234454573E+02  0.41800000000E+01 0.  1.
         -5    1    1    2    0  502 -0.31467694838E+01  0.66690551398E+02  0.17552861382E+03  0.18784381404E+03  0.41800000000E+01 0.  1.
        -11    1    1    2    0    0 -0.31331475564E+01 -0.11203788450E+02 -0.72104778392E+01  0.13686945602E+02  0.00000000000E+00 0.  1.
         11    1    1    2    0    0 -0.19704576555E+02 -0.37043767278E+02  0.21403980311E+03  0.21811361339E+03  0.00000000000E+00 0. -1.
</event>
<event>
 6    1  0.5317355E-006  0.2065180E+03  0.7561462E-02  0.1144353E+00
          2   -1    0    0  501    0  0.00000000000E+00  0.00000000000E+00  0.50159962518E+03  0.50159962518E+03  0.00000000000E+00 0. -1.
         -2   -1    0    0    0  501 -0.00000000000E+00 -0.00000000000E+00 -0.88023422500E+02  0.88023422500E+02  0.00000000000E+00 0.  1.
          5    1    1    2  502    0  0.31118454108E+02 -0.16444509130E+02  0.25622247789E+02  0.43735020846E+02  0.41800000000E+01 0. -1.
         -5    1    1    2    0  502 -0.10587710547E+03 -0.14388763309E+03  0.23355549061E+03  0.29407354865E+03  0.41800000000E+01 0. -1.
        -11    1    1    2    0    0  0.76949581510E+02  0.57538877800E+02  0.76641473894E+02  0.12290596435E+03  0.00000000000E+00 0. -1.
         11    1    1    2    0    0 -0.21909301432E+01  0.10279326442E+03  0.77756990387E+02  0.12890851383E+03  0.00000000000E+00 0.  1.
</event>
<event>
 6    1  0.5317355E-006  0.8207755E+02  0.7561462E-02  0.1323257E+00
         -2   -1    0    0    0  501 -0.00000000000E+00  0.00000000000E+00  0.36386240694E+03  0.36386240694E+03  0.00000000000E+00 0.  1.
          2   -1    0    0  501    0  0.00000000000E+00 -0.00000000000E+00 -0.40965262026E+02  0.40965262026E+02  0.00000000000E+00 0. -1.
          5    1    1    2  502    0  0.83879919526E+01 -0.58234463298E+02  0.19335875154E+03  0.20215511451E+03  0.41800000000E+01 0. -1.
         -5    1    1    2    0  502  0.27015367086E+02  0.15737550095E+02 -0.36108605625E+01  0.31749192994E+02  0.41800000000E+01 0. -1.
        -11    1    1    2    0    0 -0.11197755264E+01  0.39167260454E+02  0.13063721760E+03  0.13638698916E+03  0.00000000000E+00 0.  1.
         11    1    1    2    0    0 -0.34283583512E+02  0.33296527495E+01  0.25120363398E+01  0.34536372312E+02  0.00000000000E+00 0. -1.
</event>
<event>
 6    1  0.5317355E-006  0.1078252E+03  0.7561462E-02  0.1264651E+00
          1   -1    0    0  501    0  0.00000000000E+00  0.00000000000E+00  0.56996533983E+03  0.56996533983E+03  0.00000000000E+00 0. -1.
         -1   -1    0    0    0  501 -0.00000000000E+00 -0.00000000000E+00 -0.23719905103E+02  0.23719905103E+02  0.00000000000E+00 0.  1.
          5    1    1    2  502    0 -0.28273579790E+01 -0.45116171452E+02  0.11031554062E+03  0.11929146567E+03  0.41800000000E+01 0.  1.
         -5    1    1    2    0  502 -0.48051455861E+01  0.86241452107E+02  0.20126687355E+03  0.21905822119E+03  0.41800000000E+01 0.  1.
        -11    1    1    2    0    0 -0.16547012897E+02 -0.53933173180E+02  0.21326346100E+03  0.22059894516E+03  0.00000000000E+00 0. -1.
         11    1    1    2    0    0  0.24179516462E+02  0.12807892525E+02  0.21399559555E+02  0.34736612910E+02  0.00000000000E+00 0.  1.
</event>
<event>
 6    1  0.5317355E-006  0.9146201E+02  0.7561462E-02  0.1299349E+00
         -1   -1    0    0    0  501 -0.00000000000E+00  0.00000000000E+00  0.58211437607E+03  0.58211437607E+03  0.00000000000E+00 0.  1.
          1   -1    0    0  501    0  0.00000000000E+00 -0.00000000000E+00 -0.29469373340E+02  0.29469373340E+02  0.00000000000E+00 0. -1.
          5    1    1    2  502    0  0.42047977836E+02 -0.53357307733E+02  0.68165026155E+02  0.96327451536E+02  0.41800000000E+01 0. -1.
         -5    1    1    2    0  502  0.24751594563E+02  0.33280624943E+02  0.23874231914E+03  0.24235430423E+03  0.41800000000E+01 0. -1.
        -11    1    1    2    0    0 -0.20719851051E+02  0.17333828317E+02  0.46214247394E+01  0.27406776504E+02  0.00000000000E+00 0. -1.
         11    1    1    2    0    0 -0.46079721348E+02  0.27428544724E+01  0.24111623270E+03  0.24549521714E+03  0.00000000000E+00 0.  1.
</event>
<event>
 6    1  0.5317355E-006  0.2245270E+03  0.7561462E-02  0.1130552E+00
          1   -1    0    0  501    0  0.00000000000E+00  0.00000000000E+00  0.79407504238E+03  0.79407504238E+03  0.00000000000E+00 0. -1.
         -1   -1    0    0    0  501 -0.00000000000E+00 -0.00000000000E+00 -0.74822520259E+02  0.74822520259E+02  0.00000000000E+00 0.  1.
          5    1    1    2  502    0  0.56068100972E+01  0.49298614703E+02  0.50735791120E+01  0.50050008353E+02  0.41800000000E+01 0. -1.
         -5    1    1    2    0  502  0.43783159365E+02  0.16065794820E+03  0.30789627942E+03  0.35006504059E+03  0.41800000000E+01 0. -1.
        -11    1    1    2    0    0  0.25464353084E+02 -0.52921541865E+02  0.12391915940E+03  0.13713161903E+03  0.00000000000E+00 0.  1.
         11    1    1    2    0    0 -0.74854322546E+02 -0.15703502103E+03  0.28236350420E+03  0.33165089467E+03  0.00000000000E+00 0. -1.
</event>
<event>
 6    1  0.5317355E-006  0.1253012E+03  0.7561462E-02  0.1234599E+00
         -2   -1    0    0    0  501 -0.00000000000E+00  0.00000000000E+00  0.24322142880E+02  0.24322142880E+02  0.00000000000E+00 0.  1.
          2   -1    0    0  501    0  0.00000000000E+00 -0.00000000000E+00 -0.76384963417E+03  0.76384963417E+03  0.00000000000E+00 0. -1.
          5    1    1    2  502    0 -0.65398895703E+02 -0.42910542122E+01 -0.24348441787E+03  0.25218557225E+03  0.41800000000E+01 0.  1.
         -5    1    1    2    0  502  0.23486296822E+02 -0.61096793682E+02 -0.81624400652E+02  0.10471121964E+03  0.41800000000E+01 0.  1.
        -11    1    1    2    0    0  0.35781048223E+02 -0.14943325105E+02 -0.14082226120E+03  0.14606332745E+03  0.00000000000E+00 0. -1.
         11    1    1    2    0    0  0.61315506583E+01  0.80331173000E+02 -0.27359641156E+03  0.28521165770E+03  0.00000000000E+00 0.  1.
</event>
<event>
 6    1  0.5317355E-006  0.1885506E+03  0.7561462E-02  0.1159775E+00
         -1   -1    0    0    0  501 -0.00000000000E+00  0.00000000000E+00  0.12194532931E+03  0.12194532931E+03  0.00000000000E+00 0.  1.
          1   -1    0    0  501    0  0.00000000000E+00 -0.00000000000E+00 -0.46524709402E+03  0.46524709402E+03  0.00000000000E+00 0. -1.
          5    1    1    2  502    0 -0.10476563831E+03 -0.67264207068E+02 -0.19242138293E+03  0.22922428653E+03  0.41800000000E+01 0. -1.
         -5    1    1    2    0  502  0.13456685425E+03  0.92988462043E+02  0.14755872755E+02  0.16428725001E+03  0.41800000000E+01 0.  1.
        -11    1    1    2    0    0 -0.41262533178E+01 -0.52004037826E+02 -0.13852018126E+03  0.14801785883E+03  0.00000000000E+00 0.  1.
         11    1    1    2    0    0 -0.25674962622E+02  0.26279782851E+02 -0.27116073272E+02  0.45663027955E+02  0.00000000000E+00 0. -1.
</event>
<event>
 6    1  0.5317355E-006  0.8071527E+02  0.7561462E-02  0.1327034E+00
         -1   -1    0    0    0  501 -0.00000000000E+00  0.00000000000E+00  0.26820017216E+03  0.26820017216E+03  0.00000000000E+00 0.  1.
          1   -1    0    0  501    0  0.00000000000E+00 -0.00000000000E+00 -0.71567882194E+02  0.71567882194E+02  0.00000000000E+00 0. -1.
          5    1    1    2  502    0  0.14491654489E+02  0.40223306593E+02  0.16823015936E+02  0.46134680104E+02  0.41800000000E+01 0.  1.
         -5    1    1    2    0  502  0.30926250873E+02 -0.60976558117E+02  0.17786422949E+03  0.19059834775E+03  0.41800000000E+01 0.  1.
        -11    1    1    2    0    0 -0.32216328458E+02  0.13725054097E+02 -0.43122823020E+02  0.55550398689E+02  0.00000000000E+00 0. -1.
         11    1    1    2    0    0 -0.13201576905E+02  0.70281974268E+01  0.45067867567E+02  0.47484627817E+02  0.00000000000E+00 0.  1.
</event>
<event>
 6    1  0.5317355E-006  0.1051471E+03  0.7561462E-02  0.1269830E+00
         -2   -1    0    0    0  501 -0.00000000000E+00  0.00000000000E+00  0.22709144741E+03  0.22709144741E+03  0.00000000000E+00 0.  1.
          2   -1    0    0  501    0  0.00000000000E+00 -0.00000000000E+00 -0.85079837043E+02  0.85079837043E+02  0.00000000000E+00 0. -1.
          5    1    1    2  502    0  0.48248665287E+02  0.72747952168E+01  0.91690658119E+02  0.10394953359E+03  0.41800000000E+01 0. -1.
         -5    1    1    2    0  502 -0.25221617845E+02  0.73071580470E+02  0.10984162642E+02  0.78190217470E+02  0.41800000000E+01 0. -1.
        -11    1    1    2    0    0 -0.21046478419E+02 -0.62451368576E+02  0.68947018934E+02  0.95377246295E+02  0.00000000000E+00 0.  1.
         11    1    1    2    0    0 -0.19805690228E+01 -0.17895007111E+02 -0.29610229331E+02  0.34654287097E+02  0.00000000000E+00 0. -1.
</event>
<event>
 6    1  0.5317355E-006  0.1693750E+03  0.7561462E-02  0.1178501E+00
         -2   -1    0    0    0  501 -0.00000000000E+00  0.00000000000E+00  0.95420616788E+02  0.95420616788E+02  0.00000000000E+00 0. -1.
          2   -1    0    0  501    0  0.00000000000E+00 -0.00000000000E+00 -0.39884184249E+03  0.39884184249E+03  0.00000000000E+00 0.  1.
          5    1    1    2  502    0  0.56903555396E+02  0.12500925205E+03 -0.16794281501E+02  0.13843716266E+03  0.41800000000E+01 0.  1.
         -5    1    1    2    0  502  0.28188736990E+02  0.62220837517E+00 -0.71789768460E+02  0.77241409178E+02  0.41800000000E+01 0.  1.
        -11    1    1    2    0    0 -0.10179224435E+03 -0.11125772376E+03 -0.16193006752E+03  0.22127197941E+03  0.00000000000E+00 0. -1.
         11    1    1    2    0    0  0.16699951963E+02 -0.14373736666E+02 -0.52907108228E+02  0.57311908032E+02  0.00000000000E+00 0.  1.
</event>
<event>
 6    1  0.5317355E-006  0.9027857E+02  0.7561462E-02  0.1302179E+00
          2   -1    0    0  501    0  0.00000000000E+00  0.00000000000E+00  0.29796939607E+03  0.29796939607E+03  0.00000000000E+00 0. -1.
         -2   -1    0    0    0  501 -0.00000000000E+00 -0.00000000000E+00 -0.28866735582E+03  0.28866735582E+03  0.00000000000E+00 0.  1.
          5    1    1    2  502    0 -0.28830470993E+02  0.14760442023E+02 -0.79111576506E+01  0.33602463031E+02  0.41800000000E+01 0. -1.
         -5    1    1    2    0  502 -0.18859500178E+01  0.15869336664E+02 -0.25216759575E+03  0.25270805567E+03  0.41800000000E+01 0.  1.
        -11    1    1    2    0    0 -0.97669883070E+01  0.44757641158E+02  0.74056049345E+02  0.87080072044E+02  0.00000000000E+00 0.  1.
         11    1    1    2    0    0  0.40483409317E+02 -0.75387419844E+02  0.19532474431E+03  0.21324616114E+03  0.00000000000E+00 0. -1.
</event>
<event>
 6    1  0.5317355E-006  0.1238005E+03  0.7561462E-02  0.1236956E+00
          1   -1    0    0  501    0  0.00000000000E+00  0.00000000000E+00  0.36248144420E+03  0.36248144420E+03  0.00000000000E+00 0. -1.
         -1   -1    0    0    0  501 -0.00000000000E+00 -0.00000000000E+00 -0.62307865399E+02  0.62307865399E+02  0.00000000000E+00 0.  1.
          5    1    1    2  502    0  0.62906765136E+02  0.10390119861E+03  0.81409447895E+02  0.14627949541E+03  0.41800000000E+01 0.  1.
         -5    1    1    2    0  502 -0.16802141707E+02 -0.26400524300E+02  0.10684900160E+02  0.33330753677E+02  0.41800000000E+01 0.  1.
        -11    1    1    2    0    0 -0.12468267407E+02 -0.48523288876E+02  0.23503334975E+02  0.55338720715E+02  0.00000000000E+00 0.  1.
         11    1    1    2    0    0 -0.33636356022E+02 -0.28977385433E+02  0.18457589577E+03  0.18984033980E+03  0.00000000000E+00 0. -1.
</event>
<event>
 6    1  0.5317355E-006  0.1169254E+03  0.7561462E-02  0.1248257E+00
         -2   -1    0    0    0  501 -0.00000000000E+00  0.00000000000E+00  0.52631536484E+02  0.52631536484E+02  0.00000000000E+00 0.  1.
          2   -1    0    0  501    0  0.00000000000E+00 -0.00000000000E+00 -0.34804817044E+03  0.34804817044E+03  0.00000000000E+00 0. -1.
          5    1    1    2  502    0  0.59464151968E+02 -0.29342836477E+02 -0.24055945093E+02  0.70662212788E+02  0.41800000000E+01 0. -1.
         -5    1    1    2    0  502 -0.23839486853E+02  0.62092270278E+02 -0.42821085145E+02  0.79214196295E+02  0.41800000000E+01 0. -1.
        -11    1    1    2    0    0 -0.44727814123E+02 -0.58393298081E+02 -0.18896425921E+03  0.20277535816E+03  0.00000000000E+00 0. -1.
         11    1    1    2    0    0  0.91031490085E+01  0.25643864280E+02 -0.39575344501E+02  0.48027939675E+02  0.00000000000E+00 0.  1.
</event>
<event>
 6    1  0.5317355E-006  0.1004188E+03  0.7561462E-02  0.1279418E+00
         -1   -1    0    0    0  501 -0.00000000000E+00  0.00000000000E+00  0.36382461852E+02  0.36382461852E+02  0.00000000000E+00 0.  1.
          1   -1    0    0  501    0  0.00000000000E+00 -0.00000000000E+00 -0.35516823913E+03  0.35516823913E+03  0.00000000000E+00 0. -1.
          5    1    1    2  502    0  0.47825765466E+02 -0.23223509394E+02 -0.12203084651E+03  0.13317520464E+03  0.41800000000E+01 0. -1.
         -5    1    1    2    0  502 -0.41107710876E+02  0.32723079054E+02 -0.19822948319E+02  0.56312214273E+02  0.41800000000E+01 0. -1.
        -11    1    1    2    0    0  0.41197632442E+02 -0.19924650493E+02 -0.10957485443E+03  0.11874714876E+03  0.00000000000E+00 0.  1.
         11    1    1    2    0    0 -0.47915687032E+02  0.10425080833E+02 -0.67357128020E+02  0.83316133306E+02  0.00000000000E+00 0. -1.
</event>
<event>
 6    1  0.5317355E-006  0.1061718E+03  0.7561462E-02  0.1267828E+00
         -1   -1    0    0    0  501 -0.00000000000E+00  0.00000000000E+00  0.70872303147E+03  0.70872303147E+03  0.00000000000E+00 0.  1.
          1   -1    0    0  501    0  0.00000000000E+00 -0.00000000000E+00 -0.20797027392E+02  0.20797027392E+02  0.00000000000E+00 0. -1.
          5    1    1    2  502    0  0.62072097605E+02 -0.51354214950E+02  0.32955853240E+03  0.33928822463E+03  0.41800000000E+01 0.  1.
         -5    1    1    2    0  502 -0.30740247487E+02  0.36735638409E+02  0.14976218484E+03  0.15729162200E+03  0.41800000000E+01 0.  1.
        -11    1    1    2    0    0 -0.52741774648E+02 -0.69529282816E+01  0.55619608927E+02  0.76964790013E+02  0.00000000000E+00 0. -1.
         11    1    1    2    0    0  0.21409924530E+02  0.21571504823E+02  0.15298567792E+03  0.15597542222E+03  0.00000000000E+00 0.  1.
</event>
<event>
 6    1  0.5317355E-006  0.1101510E+03  0.7561462E-02  0.1260290E+00
          1   -1    0    0  501    0  0.00000000000E+00  0.00000000000E+00  0.30488264000E+03  0.30488264000E+03  0.00000000000E+00 0. -1.
         -1   -1    0    0    0  501 -0.00000000000E+00 -0.00000000000E+00 -0.61185410515E+02  0.61185410515E+02  0.00000000000E+00 0.  1.
          5    1    1    2  502    0 -0.92186897074E+02  0.38219332571E+02  0.44570163189E+02  0.10937601758E+03  0.41800000000E+01 0.  1.
         -5    1    1    2    0  502  0.28837130573E+02  0.77091733493E+01  0.74024922433E+02  0.79926047035E+02  0.41800000000E+01 0.  1.
        -11    1    1    2    0    0  0.53279921774E+02 -0.11633590609E+02  0.12972842157E+03  0.14072510031E+03  0.00000000000E+00 0. -1.
         11    1    1    2    0    0  0.10069844727E+02 -0.34294915311E+02 -0.46262777034E+01  0.36040885595E+02  0.00000000000E+00 0.  1.
</event>
<event>
 6    1  0.5317355E-006  0.9899398E+02  0.7561462E-02  0.1282426E+00
         -1   -1    0    0    0  501 -0.00000000000E+00  0.00000000000E+00  0.31564661174E+02  0.31564661174E+02  0.00000000000E+00 0.  1.
          1   -1    0    0  501    0  0.00000000000E+00 -0.00000000000E+00 -0.47690515223E+03  0.47690515223E+03  0.00000000000E+00 0. -1.
          5    1    1    2  502    0  0.55165455445E+02  0.53928990912E+02 -0.11101165565E+03  0.13525022597E+03  0.41800000000E+01 0. -1.
         -5    1    1    2    0  502 -0.46395715250E+02 -0.87663796676E+00 -0.18169118130E+03  0.18756995669E+03  0.41800000000E+01 0. -1.
        -11    1    1    2    0    0 -0.27025530139E+02 -0.12729006743E+02 -0.34946688642E+01  0.30076894827E+02  0.00000000000E+00 0.  1.
         11    1    1    2    0    0  0.18255789945E+02 -0.40323346203E+02 -0.14914298524E+03  0.15557273592E+03  0.00000000000E+00 0. -1.
</event>
<event>
 6    1  0.5317355E-006  0.1134318E+03  0.7561462E-02  0.1254343E+00
          1   -1    0    0  501    0  0.00000000000E+00  0.00000000000E+00  0.38275829655E+03  0.38275829655E+03  0.00000000000E+00 0. -1.
         -1   -1    0    0    0  501 -0.00000000000E+00 -0.00000000000E+00 -0.34389883770E+02  0.34389883770E+02  0.00000000000E+00 0.  1.
          5    1    1    2  502    0  0.26523265698E+02 -0.45464167782E+02  0.60281104068E+02  0.80135872635E+02  0.41800000000E+01 0. -1.
         -5    1    1    2    0  502 -0.62664259071E+02  0.44480277531E+02  0.11239134859E+03  0.13621524178E+03  0.41800000000E+01 0. -1.
        -11    1    1    2    0    0  0.23879227969E+02 -0.44225460236E+02  0.86160341030E+02  0.99748249247E+02  0.00000000000E+00 0. -1.
         11    1    1    2    0    0  0.12261765404E+02  0.45209350487E+02  0.89535619089E+02  0.10104881666E+03  0.00000000000E+00 0.  1.
</event>
<event>
 6    1  0.5317355E-006  0.8811640E+02  0.7561462E-02  0.1307478E+00
          2   -1    0    0  501    0  0.00000000000E+00  0.00000000000E+00  0.86935194276E+02  0.86935194276E+02  0.00000000000E+00 0. -1.
         -2   -1    0    0    0  501 -0.00000000000E+00 -0.00000000000E+00 -0.14486417442E+03  0.14486417442E+03  0.00000000000E+00 0.  1.
          5    1    1    2  502    0  0.63043563100E+02 -0.20401074655E+02 -0.46601258957E+02  0.81116240247E+02  0.41800000000E+01 0.  1.
         -5    1    1    2    0  502 -0.44816094871E+02  0.26974520450E+02  0.35271672062E+01  0.52592969316E+02  0.41800000000E+01 0.  1.
        -11    1    1    2    0    0 -0.16244068311E+02 -0.29860459481E+02 -0.47211298867E+02  0.58175798546E+02  0.00000000000E+00 0.  1.
         11    1    1    2    0    0 -0.19833999175E+01  0.23287013686E+02  0.32356410478E+02  0.39914360582E+02  0.00000000000E+00 0. -1.
</event>
<event>
 6    1  0.5317355E-006  0.1178002E+03  0.7561462E-02  0.1246771E+00
         -3   -1    0    0    0  501 -0.00000000000E+00  0.00000000000E+00  0.63399055592E+03  0.63399055592E+03  0.00000000000E+00 0.  1.
          3   -1    0    0  501    0  0.00000000000E+00 -0.00000000000E+00 -0.30417426969E+02  0.30417426969E+02  0.00000000000E+00 0. -1.
          5    1    1    2  502    0 -0.64318648802E+02 -0.17054763864E+02  0.24303033789E+03  0.25200986308E+03  0.41800000000E+01 0.  1.
         -5    1    1    2    0  502  0.53410849172E+02 -0.54400189892E+02  0.20623911051E+03  0.21991849075E+03  0.41800000000E+01 0.  1.
        -11    1    1    2    0    0 -0.22354067360E+02  0.14578353689E+02  0.10973348038E+03  0.11293214529E+03  0.00000000000E+00 0.  1.
         11    1    1    2    0    0  0.33261866990E+02  0.56876600066E+02  0.44570200170E+02  0.79547483769E+02  0.00000000000E+00 0. -1.
</event>
<event>
 6    1  0.5317355E-006  0.9496660E+02  0.7561462E-02  0.1291251E+00
          2   -1    0    0  501    0  0.00000000000E+00  0.00000000000E+00  0.55758849211E+02  0.55758849211E+02  0.00000000000E+00 0. -1.
         -2   -1    0    0    0  501 -0.00000000000E+00 -0.00000000000E+00 -0.22849467658E+03  0.22849467658E+03  0.00000000000E+00 0.  1.
          5    1    1    2  502    0 -0.27226198435E+02  0.29887901488E+02  0.10918944634E+02  0.42086200690E+02  0.41800000000E+01 0. -1.
         -5    1    1    2    0  502  0.54149217163E+02 -0.18006002489E+02 -0.96894335104E+02  0.11252705639E+03  0.41800000000E+01 0. -1.
        -11    1    1    2    0    0  0.21944156328E+02  0.23185244924E+02 -0.49454224929E+02  0.58862738150E+02  0.00000000000E+00 0.  1.
         11    1    1    2    0    0 -0.48867175056E+02 -0.35067143923E+02 -0.37306211973E+02  0.70777530563E+02  0.00000000000E+00 0. -1.
</event>
<event>
 6    1  0.5317355E-006  0.1461975E+03  0.7561462E-02  0.1205225E+00
          2   -1    0    0  501    0  0.00000000000E+00  0.00000000000E+00  0.13915899032E+04  0.13915899032E+04  0.00000000000E+00 0. -1.
         -2   -1    0    0    0  501 -0.00000000000E+00 -0.00000000000E+00 -0.18452356509E+02  0.18452356509E+02  0.00000000000E+00 0.  1.
          5    1    1    2  502    0  0.98599385068E+02 -0.42783992836E+02  0.25590199903E+03  0.27758893041E+03  0.41800000000E+01 0.  1.
         -5    1    1    2    0  502 -0.23579870486E+02 -0.35675965378E+02  0.28137107225E+03  0.28463298736E+03  0.41800000000E+01 0.  1.
        -11    1    1    2    0    0  0.21384052789E+02  0.18947666678E+02  0.16331340420E+03  0.16579372659E+03  0.00000000000E+00 0. -1.
         11    1    1    2    0    0 -0.96403567371E+02  0.59512291536E+02  0.67255107123E+03  0.68202661536E+03  0.00000000000E+00 0.  1.
</event>
<event>
 6    1  0.5317355E-006  0.1433707E+03  0.7561462E-02  0.1208864E+00
         -1   -1    0    0    0  501 -0.00000000000E+00  0.00000000000E+00  0.56610156943E+02  0.56610156943E+02  0.00000000000E+00 0.  1.
          1   -1    0    0  501    0  0.00000000000E+00 -0.00000000000E+00 -0.49472633242E+03  0.49472633242E+03  0.00000000000E+00 0. -1.
          5    1    1    2  502    0  0.19232210528E+02 -0.17619547667E+02 -0.10866701009E+03  0.11183164965E+03  0.41800000000E+01 0.  1.
         -5    1    1    2    0  502  0.87173128800E+02  0.80370540309E+02 -0.65007980862E+02  0.13528521024E+03  0.41800000000E+01 0.  1.
        -11    1    1    2    0    0 -0.74430380971E+02 -0.76628743040E+02 -0.23663583228E+03  0.25963120573E+03  0.00000000000E+00 0.  1.
         11    1    1    2    0    0 -0.31974958357E+02  0.13877750397E+02 -0.27805352251E+02  0.44588423742E+02  0.00000000000E+00 0. -1.
</event>
<event>
 6    1  0.5317355E-006  0.7419355E+02  0.7561462E-02  0.1346387E+00
         -3   -1    0    0    0  501 -0.00000000000E+00  0.00000000000E+00  0.30690013323E+03  0.30690013323E+03  0.00000000000E+00 0.  1.
          3   -1    0    0  501    0  0.00000000000E+00 -0.00000000000E+00 -0.47712469864E+02  0.47712469864E+02  0.00000000000E+00 0. -1.
          5    1    1    2  502    0 -0.10945720128E+02 -0.38373327506E+02  0.19342444138E+03  0.19754191448E+03  0.41800000000E+01 0. -1.
         -5    1    1    2    0  502 -0.28975584855E+02  0.16717524246E+02 -0.40078270348E+01  0.33949892668E+02  0.41800000000E+01 0. -1.
        -11    1    1    2    0    0  0.51386868167E+02  0.15537248970E+01  0.82123809515E+02  0.96888308740E+02  0.00000000000E+00 0.  1.
         11    1    1    2    0    0 -0.11465563184E+02  0.20102078363E+02 -0.12352760490E+02  0.26232487213E+02  0.00000000000E+00 0. -1.
</event>
<event>
 6    1  0.5317355E-006  0.9150410E+02  0.7561462E-02  0.1299250E+00
          2   -1    0    0  501    0  0.00000000000E+00  0.00000000000E+00  0.53104181396E+03  0.53104181396E+03  0.00000000000E+00 0. -1.
         -2   -1    0    0    0  501 -0.00000000000E+00 -0.00000000000E+00 -0.27058640591E+02  0.27058640591E+02  0.00000000000E+00 0.  1.
          5    1    1    2  502    0  0.11509352171E+02 -0.53369967549E+02  0.15505984873E+03  0.16444405648E+03  0.41800000000E+01 0. -1.
         -5    1    1    2    0  502 -0.14917893923E+02  0.39232921455E+02  0.10319451829E+02  0.43424983259E+02  0.41800000000E+01 0. -1.
        -11    1    1    2    0    0 -0.39307914132E+02 -0.43052274954E+01  0.20443027493E+03  0.20821955817E+03  0.00000000000E+00 0. -1.
         11    1    1    2    0    0  0.42716455884E+02  0.18442273589E+02  0.13417359788E+03  0.14201185664E+03  0.00000000000E+00 0.  1.
</event>
<event>
 6    1  0.5317355E-006  0.8858873E+02  0.7561462E-02  0.1306306E+00
          1   -1    0    0  501    0  0.00000000000E+00  0.00000000000E+00  0.63044802493E+03  0.63044802493E+03  0.00000000000E+00 0. -1.
         -1   -1    0    0    0  501 -0.00000000000E+00 -0.00000000000E+00 -0.23760991579E+02  0.23760991579E+02  0.00000000000E+00 0.  1.
          5    1    1    2  502    0 -0.13271354726E+02 -0.43676869247E+02  0.27555072535E+02  0.53484130225E+02  0.41800000000E+01 0.  1.
         -5    1    1    2    0  502 -0.26002721780E+02  0.30544148615E+01  0.30689092692E+03  0.30803406373E+03  0.41800000000E+01 0.  1.
        -11    1    1    2    0    0  0.64159954850E+01  0.64113128293E+02  0.19734487099E+03  0.20759734180E+03  0.00000000000E+00 0. -1.
         11    1    1    2    0    0  0.32858081021E+02 -0.23490673908E+02  0.74896162908E+02  0.85093480757E+02  0.00000000000E+00 0.  1.
</event>
<event>
 6    1  0.5317355E-006  0.2151956E+03  0.7561462E-02  0.1137516E+00
          2   -1    0    0  501    0  0.00000000000E+00  0.00000000000E+00  0.67106399192E+02  0.67106399192E+02  0.00000000000E+00 0. -1.
         -2   -1    0    0    0  501 -0.00000000000E+00 -0.00000000000E+00 -0.72557901232E+03  0.72557901232E+03  0.00000000000E+00 0.  1.
          5    1    1    2  502    0  0.50766977504E+02  0.10877891969E+03 -0.18836907007E+03  0.22340662106E+03  0.41800000000E+01 0. -1.
         -5    1    1    2    0  502  0.10339691039E+03 -0.88825643993E+00 -0.22606519217E+03  0.24862552883E+03  0.41800000000E+01 0. -1.
        -11    1    1    2    0    0 -0.10852138903E+03 -0.11771280824E+03 -0.20263215031E+03  0.25824985081E+03  0.00000000000E+00 0.  1.
         11    1    1    2    0    0 -0.45642498862E+02  0.98221449948E+01 -0.41406200575E+02  0.62403410810E+02  0.00000000000E+00 0. -1.
</event>
<event>
 6    1  0.5317355E-006  0.7698400E+02  0.7561462E-02  0.1337835E+00
          2   -1    0    0  501    0  0.00000000000E+00  0.00000000000E+00  0.40226062026E+03  0.40226062026E+03  0.00000000000E+00 0. -1.
         -2   -1    0    0    0  501 -0.00000000000E+00 -0.00000000000E+00 -0.39853357314E+02  0.39853357314E+02  0.00000000000E+00 0.  1.
          5    1    1    2  502    0 -0.20630877027E+02  0.26842023001E+02  0.19855941695E+03  0.20146821523E+03  0.41800000000E+01 0. -1.
         -5    1    1    2    0  502 -0.68502756252E+00  0.32906204870E+02 -0.89638608718E+01  0.34367292349E+02  0.41800000000E+01 0. -1.
        -11    1    1    2    0    0  0.22398981951E+02  0.41424863664E+01  0.81285574944E+00  0.22793317446E+02  0.00000000000E+00 0.  1.
         11    1    1    2    0    0 -0.10830773611E+01 -0.63890714237E+02  0.17199885112E+03  0.18348515256E+03  0.00000000000E+00 0. -1.
</event>
<event>
 6    1  0.5317355E-006  0.1099138E+03  0.7561462E-02  0.1260730E+00
          2   -1    0    0  501    0  0.00000000000E+00  0.00000000000E+00  0.57402863983E+03  0.57402863983E+03  0.00000000000E+00 0. -1.
         -2   -1    0    0    0  501 -0.00000000000E+00 -0.00000000000E+00 -0.31328661168E+02  0.31328661168E+02  0.00000000000E+00 0.  1.
          5    1    1    2  502    0 -0.39871692169E+02 -0.23293864851E+02  0.19326806288E+02  0.50232995306E+02  0.41800000000E+01 0. -1.
         -5    1    1    2    0  502  0.15959314607E+02 -0.49964280074E+02  0.26111537170E+03  0.26636410934E+03  0.41800000000E+01 0. -1.
        -11    1    1    2    0    0 -0.32725235100E+01 -0.21764473543E+02  0.47956200544E+02  0.52765508520E+02  0.00000000000E+00 0. -1.
         11    1    1    2    0    0  0.27184901072E+02  0.95022618468E+02  0.21430160013E+03  0.23599468783E+03  0.00000000000E+00 0.  1.
</event>
<event>
 6    1  0.5317355E-006  0.8751672E+02  0.7561462E-02  0.1308979E+00
          1   -1    0    0  501    0  0.00000000000E+00  0.00000000000E+00  0.34641107114E+03  0.34641107114E+03  0.00000000000E+00 0. -1.
         -1   -1    0    0    0  501 -0.00000000000E+00 -0.00000000000E+00 -0.34987528140E+02  0.34987528140E+02  0.00000000000E+00 0.  1.
          5    1    1    2  502    0  0.27029056403E+02 -0.23230623808E+02  0.75946600683E+01  0.36679463383E+02  0.41800000000E+01 0. -1.
         -5    1    1    2    0  502 -0.43067947325E+02  0.47281892967E+02  0.17637972592E+03  0.18766381006E+03  0.41800000000E+01 0. -1.
        -11    1    1    2    0    0 -0.25763426467E+02 -0.20828211101E+02  0.13745163964E+02  0.35867785733E+02  0.00000000000E+00 0.  1.
         11    1    1    2    0    0  0.41802317389E+02 -0.32230580578E+01  0.11370399305E+03  0.12118754011E+03  0.00000000000E+00 0. -1.
</event>
<event>
 6    1  0.5317355E-006  0.9920995E+02  0.7561462E-02  0.1281966E+00
          1   -1    0    0  501    0  0.00000000000E+00  0.00000000000E+00  0.76526781552E+02  0.76526781552E+02  0.00000000000E+00 0. -1.
         -1   -1    0    0    0  501 -0.00000000000E+00 -0.00000000000E+00 -0.21526364630E+03  0.21526364630E+03  0.00000000000E+00 0.  1.
          5    1    1    2  502    0  0.32378477547E+02  0.36549096514E+02 -0.83672609792E+02  0.96967934358E+02  0.41800000000E+01 0. -1.
         -5    1    1    2    0  502  0.25572820642E+02 -0.68056129731E+02 -0.12079974442E+02  0.73817370124E+02  0.41800000000E+01 0. -1.
        -11    1    1    2    0    0 -0.51449280574E+02  0.40511321575E+02 -0.67528250739E+02  0.94065191730E+02  0.00000000000E+00 0.  1.
         11    1    1    2    0    0 -0.65020176147E+01 -0.90042883578E+01  0.24543970229E+02  0.26939931635E+02  0.00000000000E+00 0. -1.
</event>
<event>
 6    1  0.5317355E-006  0.1059299E+03  0.7561462E-02  0.1268298E+00
         -1   -1    0    0    0  501 -0.00000000000E+00  0.00000000000E+00  0.26167134059E+03  0.26167134059E+03  0.00000000000E+00 0.  1.
          1   -1    0    0  501    0  0.00000000000E+00 -0.00000000000E+00 -0.78204532651E+02  0.78204532651E+02  0.00000000000E+00 0. -1.
          5    1    1    2  502    0  0.12946432103E+02  0.67910182163E+02  0.16437305375E+03  0.17836865236E+03  0.41800000000E+01 0. -1.
         -5    1    1    2    0  502  0.38436977129E+02 -0.27192361439E+02  0.14319810962E+02  0.49389828076E+02  0.41800000000E+01 0. -1.
        -11    1    1    2    0    0 -0.75784983069E+01 -0.49986102936E+02  0.31887314625E+02  0.59773279626E+02  0.00000000000E+00 0.  1.
         11    1    1    2    0    0 -0.43804910925E+02  0.92682822117E+01 -0.27113371396E+02  0.52344113181E+02  0.00000000000E+00 0. -1.
</event>
<event>
 6    1  0.5317355E-006  0.8706892E+02  0.7561462E-02  0.1310109E+00
         -1   -1    0    0    0  501 -0.00000000000E+00  0.00000000000E+00  0.10675079097E+03  0.10675079097E+03  0.00000000000E+00 0.  1.
          1   -1    0    0  501    0  0.00000000000E+00 -0.00000000000E+00 -0.17828519173E+03  0.17828519173E+03  0.00000000000E+00 0. -1.
          5    1    1    2  502    0  0.20621193099E+02  0.15766502126E+02 -0.68550869364E+02  0.73420094557E+02  0.41800000000E+01 0. -1.
         -5    1    1    2    0  502 -0.20038017981E+01  0.61775298490E+02  0.45290215209E+02  0.76739029957E+02  0.41800000000E+01 0. -1.
        -11    1    1    2    0    0  0.39256883459E+01 -0.50666769616E+02 -0.75126896809E+02  0.90700513761E+02  0.00000000000E+00 0. -1.
         11    1    1    2    0    0 -0.22543079647E+02 -0.26875031000E+02  0.26853150198E+02  0.44176344425E+02  0.00000000000E+00 0.  1.
</event>
<event>
 6    1  0.5317355E-006  0.1846311E+03  0.7561462E-02  0.1163395E+00
         -1   -1    0    0    0  501 -0.00000000000E+00  0.00000000000E+00  0.24441338277E+03  0.24441338277E+03  0.00000000000E+00 0.  1.
          1   -1    0    0  501    0  0.00000000000E+00 -0.00000000000E+00 -0.15016463614E+03  0.15016463614E+03  0.00000000000E+00 0. -1.
          5    1    1    2  502    0  0.15452525321E+02 -0.22974627509E+02  0.29745576841E+02  0.40851998600E+02  0.41800000000E+01 0. -1.
         -5    1    1    2    0  502 -0.16277446638E+03 -0.32919427265E+02  0.28108594869E+02  0.16848377103E+03  0.41800000000E+01 0. -1.
        -11    1    1    2    0    0  0.13580797205E+03  0.19789586202E+02  0.48342378115E+02  0.14550745175E+03  0.00000000000E+00 0.  1.
         11    1    1    2    0    0  0.11513969011E+02  0.36104468572E+02 -0.11947803193E+02  0.39734797526E+02  0.00000000000E+00 0. -1.
</event>
<event>
 6    1  0.5317355E-006  0.1355120E+03  0.7561462E-02  0.1219499E+00
         -3   -1    0    0    0  501 -0.00000000000E+00  0.00000000000E+00  0.23578229743E+03  0.23578229743E+03  0.00000000000E+00 0.  1.
          3   -1    0    0  501    0  0.00000000000E+00 -0.00000000000E+00 -0.10353247788E+03  0.10353247788E+03  0.00000000000E+00 0. -1.
          5    1    1    2  502    0 -0.98251447697E+02  0.53541453061E+02  0.98777618296E+02  0.14931351060E+03  0.41800000000E+01 0. -1.
         -5    1    1    2    0  502  0.32783046702E+02  0.32266007270E+02  0.66193925547E+01  0.46659534224E+02  0.41800000000E+01 0. -1.
        -11    1    1    2    0    0  0.34751786119E+02 -0.19644518813E+02  0.52558084994E+02  0.65999591333E+02  0.00000000000E+00 0.  1.
         11    1    1    2    0    0  0.30716614876E+02 -0.66162941519E+02 -0.25705276288E+02  0.77342139154E+02  0.00000000000E+00 0. -1.
</event>
<event>
 6    1  0.5317355E-006  0.1175356E+03  0.7561462E-02  0.1247219E+00
          4   -1    0    0  501    0  0.00000000000E+00  0.00000000000E+00  0.10380198980E+03  0.10380198980E+03  0.00000000000E+00 0. -1.
         -4   -1    0    0    0  501 -0.00000000000E+00 -0.00000000000E+00 -0.14905212850E+03  0.14905212850E+03  0.00000000000E+00 0.  1.
          5    1    1    2  502    0 -0.10905483994E+02 -0.94105155006E+02 -0.52328177805E+02  0.10830706520E+03  0.41800000000E+01 0. -1.
         -5    1    1    2    0  502  0.16069420475E+02  0.33431664328E+02  0.70788242282E+01  0.37993217903E+02  0.41800000000E+01 0. -1.
        -11    1    1    2    0    0  0.23192506812E+02 -0.11123705544E+02  0.12084554893E+02  0.28419459252E+02  0.00000000000E+00 0.  1.
         11    1    1    2    0    0 -0.28356443292E+02  0.71797196222E+02 -0.12085340014E+02  0.78134375948E+02  0.00000000000E+00 0. -1.
</event>
<event>
 6    1  0.5317355E-006  0.1125254E+03  0.7561462E-02  0.1255964E+00
          3   -1    0    0  501    0  0.00000000000E+00  0.00000000000E+00  0.12898295329E+03  0.12898295329E+03  0.00000000000E+00 0. -1.
         -3   -1    0    0    0  501 -0.00000000000E+00 -0.00000000000E+00 -0.12061650953E+03  0.12061650953E+03  0.00000000000E+00 0.  1.
          5    1    1    2  502    0  0.73356245149E+01 -0.30060559712E+02  0.22199872367E+02  0.38311295597E+02  0.41800000000E+01 0. -1.
         -5    1    1    2    0  502 -0.74229990820E+02  0.53458103533E+02 -0.26834150499E+02  0.95422242709E+02  0.41800000000E+01 0.  1.
        -11    1    1    2    0    0  0.10059751615E+02  0.25416993104E+02 -0.20129607948E+02  0.33947360091E+02  0.00000000000E+00 0. -1.
         11    1    1    2    0    0  0.56834614690E+02 -0.48814536926E+02  0.33130329839E+02  0.81918564425E+02  0.00000000000E+00 0.  1.
</event>
<event>
 6    1  0.5317355E-006  0.1522812E+03  0.7561462E-02  0.1197698E+00
         -2   -1    0    0    0  501 -0.00000000000E+00  0.00000000000E+00  0.21103704148E+02  0.21103704148E+02  0.00000000000E+00 0.  1.
          2   -1    0    0  501    0  0.00000000000E+00 -0.00000000000E+00 -0.12238409938E+04  0.12238409938E+04  0.00000000000E+00 0. -1.
          5    1    1    2  502    0  0.12163092011E+03  0.70214412057E+02 -0.55011646092E+03  0.56777613314E+03  0.41800000000E+01 0.  1.
         -5    1    1    2    0  502 -0.22444295565E+02 -0.64087926663E+01 -0.36616110430E+02  0.43623743190E+02  0.41800000000E+01 0.  1.
        -11    1    1    2    0    0 -0.49014092733E+02  0.11036596256E+02 -0.13227820460E+03  0.14149809594E+03  0.00000000000E+00 0.  1.
         11    1    1    2    0    0 -0.50172531807E+02 -0.74842215647E+02 -0.48372651369E+03  0.49204672567E+03  0.00000000000E+00 0. -1.
</event>
<event>
 6    1  0.5317355E-006  0.1203022E+03  0.7561462E-02  0.1242599E+00
         -1   -1    0    0    0  501 -0.00000000000E+00  0.00000000000E+00  0.60624920344E+02  0.60624920344E+02  0.00000000000E+00 0.  1.
          1   -1    0    0  501    0  0.00000000000E+00 -0.00000000000E+00 -0.34662453955E+03  0.34662453955E+03  0.00000000000E+00 0. -1.
          5    1    1    2  502    0  0.37574287239E+02  0.87283111367E+02 -0.40365138484E+02  0.10332949916E+03  0.41800000000E+01 0.  1.
         -5    1    1    2    0  502 -0.33509047567E+02 -0.27192018462E+02 -0.11386738065E+02  0.44826246113E+02  0.41800000000E+01 0.  1.
        -11    1    1    2    0    0 -0.31896907521E+02 -0.66335519323E+02 -0.20680015296E+03  0.21950880870E+03  0.00000000000E+00 0. -1.
         11    1    1    2    0    0  0.27831667849E+02  0.62444264171E+01 -0.27447589697E+02  0.39584905920E+02  0.00000000000E+00 0.  1.
</event>
<event>
 6    1  0.5317355E-006  0.1859420E+03  0.7561462E-02  0.1162173E+00
          1   -1    0    0  501    0  0.00000000000E+00  0.00000000000E+00  0.42680074276E+03  0.42680074276E+03  0.00000000000E+00 0. -1.
         -1   -1    0    0    0  501 -0.00000000000E+00 -0.00000000000E+00 -0.89179006885E+02  0.89179006885E+02  0.00000000000E+00 0.  1.
          5    1    1    2  502    0 -0.85962485108E+02 -0.61640224517E+02  0.73982837370E+02  0.12915106949E+03  0.41800000000E+01 0.  1.
         -5    1    1    2    0  502 -0.67052838306E+02  0.59639821116E+02  0.33866122055E+02  0.96007176871E+02  0.41800000000E+01 0.  1.
        -11    1    1    2    0    0  0.24021947987E+02 -0.34582276227E+02  0.75311554385E+02  0.86283358986E+02  0.00000000000E+00 0. -1.
         11    1    1    2    0    0  0.12899337543E+03  0.36582679627E+02  0.15446122207E+03  0.20453814430E+03  0.00000000000E+00 0.  1.
</event>
<event>
 6    1  0.5317355E-006  0.1282856E+03  0.7561462E-02  0.1230022E+00
         -1   -1    0    0    0  501 -0.00000000000E+00  0.00000000000E+00  0.61096655979E+02  0.61096655979E+02  0.00000000000E+00 0.  1.
          1   -1    0    0  501    0  0.00000000000E+00 -0.00000000000E+00 -0.50975274780E+03  0.50975274780E+03  0.00000000000E+00 0. -1.
          5    1    1    2  502    0 -0.47270769013E+02  0.26205578669E+02 -0.50854736233E+02  0.74329903496E+02  0.41800000000E+01 0. -1.
         -5    1    1    2    0  502  0.45024205412E+02 -0.85088864455E+02 -0.12886012194E+02  0.97215305572E+02  0.41800000000E+01 0.  1.
        -11    1    1    2    0    0 -0.38982860803E+02  0.67913537950E+01 -0.15638614713E+03  0.16131463956E+03  0.00000000000E+00 0. -1.
         11    1    1    2    0    0  0.41229424404E+02  0.52091931991E+02 -0.22852919626E+03  0.23798955515E+03  0.00000000000E+00 0.  1.
</event>
<event>
 6    1  0.5317355E-006  0.1268322E+03  0.7561462E-02  0.1232233E+00
         -1   -1    0    0    0  501 -0.00000000000E+00  0.00000000000E+00  0.27021647936E+02  0.27021647936E+02  0.00000000000E+00 0.  1.
          1   -1    0    0  501    0  0.00000000000E+00 -0.00000000000E+00 -0.78976781399E+03  0.78976781399E+03  0.00000000000E+00 0. -1.
          5    1    1    2  502    0  0.43828881892E+02  0.54519034342E+02 -0.15957064925E+03  0.17428012077E+03  0.41800000000E+01 0.  1.
         -5    1    1    2    0  502  0.28382962217E+02 -0.61130394933E+02 -0.71900009424E+02  0.98638742308E+02  0.41800000000E+01 0.  1.
        -11    1    1    2    0    0 -0.77878935958E+02 -0.26655105133E+02 -0.39419003121E+03  0.40269269176E+03  0.00000000000E+00 0.  1.
         11    1    1    2    0    0  0.56670918487E+01  0.33266465725E+02 -0.13708547617E+03  0.14117790709E+03  0.00000000000E+00 0. -1.
</event>
<event>
 6    1  0.5317355E-006  0.1264629E+03  0.7561462E-02  0.1232801E+00
          2   -1    0    0  501    0  0.00000000000E+00  0.00000000000E+00  0.12173761616E+04  0.12173761616E+04  0.00000000000E+00 0. -1.
         -2   -1    0    0    0  501 -0.00000000000E+00 -0.00000000000E+00 -0.22029496087E+02  0.22029496087E+02  0.00000000000E+00 0.  1.
          5    1    1    2  502    0 -0.52197752466E+02  0.68450919808E+02  0.27609959646E+03  0.28923795282E+03  0.41800000000E+01 0. -1.
         -5    1    1    2    0  502  0.23343403446E+02  0.28237913374E+02  0.62463176926E+03  0.62571927715E+03  0.41800000000E+01 0. -1.
        -11    1    1    2    0    0 -0.28904180798E+02 -0.30484589166E+02  0.14480829592E+03  0.15077866033E+03  0.00000000000E+00 0. -1.
         11    1    1    2    0    0  0.57758529819E+02 -0.66204244017E+02  0.14980700387E+03  0.17366976738E+03  0.00000000000E+00 0.  1.
</event>
<event>
 6    1  0.5317355E-006  0.6752869E+02  0.7561462E-02  0.1368704E+00
          4   -1    0    0  501    0  0.00000000000E+00  0.00000000000E+00  0.17119233166E+03  0.17119233166E+03  0.00000000000E+00 0. -1.
         -4   -1    0    0    0  501 -0.00000000000E+00 -0.00000000000E+00 -0.65574003590E+02  0.65574003590E+02  0.00000000000E+00 0.  1.
          5    1    1    2  502    0 -0.48846567237E+02  0.19633186449E+02  0.73516213536E+02  0.90518258896E+02  0.41800000000E+01 0. -1.
         -5    1    1    2    0  502  0.39948882856E+02 -0.17110729721E+02 -0.17261390406E+02  0.46948038423E+02  0.41800000000E+01 0. -1.
        -11    1    1    2    0    0  0.89707228238E+01 -0.19576136131E+02 -0.19075920420E+02  0.28767859039E+02  0.00000000000E+00 0.  1.
         11    1    1    2    0    0 -0.73038442727E-01  0.17053679403E+02  0.68439425362E+02  0.70532178895E+02  0.00000000000E+00 0. -1.
</event>
<event>
 6    1  0.5317355E-006  0.1083190E+03  0.7561462E-02  0.1263715E+00
          2   -1    0    0  501    0  0.00000000000E+00  0.00000000000E+00  0.78846106161E+02  0.78846106161E+02  0.00000000000E+00 0. -1.
         -2   -1    0    0    0  501 -0.00000000000E+00 -0.00000000000E+00 -0.18379389666E+03  0.18379389666E+03  0.00000000000E+00 0.  1.
          5    1    1    2  502    0 -0.70806790095E+02  0.31342521793E+02 -0.58395013319E+00  0.77548491886E+02  0.41800000000E+01 0. -1.
         -5    1    1    2    0  502  0.38939501031E+02  0.10457696811E+02 -0.56762433306E+02  0.69750228659E+02  0.41800000000E+01 0. -1.
        -11    1    1    2    0    0  0.59877686728E+02 -0.36267395069E+02 -0.50965989904E+02  0.86592109571E+02  0.00000000000E+00 0.  1.
         11    1    1    2    0    0 -0.28010397664E+02 -0.55328235349E+01  0.33645828442E+01  0.28749172706E+02  0.00000000000E+00 0. -1.
</event>
<event>
 6    1  0.5317355E-006  0.1289001E+03  0.7561462E-02  0.1229097E+00
          1   -1    0    0  501    0  0.00000000000E+00  0.00000000000E+00  0.23045658254E+02  0.23045658254E+02  0.00000000000E+00 0. -1.
         -1   -1    0    0    0  501 -0.00000000000E+00 -0.00000000000E+00 -0.90657589050E+03  0.90657589050E+03  0.00000000000E+00 0.  1.
          5    1    1    2  502    0  0.51304456525E+02  0.46366665484E+02 -0.17169529083E+03  0.18514524088E+03  0.41800000000E+01 0. -1.
         -5    1    1    2    0  502  0.37764370823E+02 -0.65075708658E+02 -0.40424829106E+03  0.41121180526E+03  0.41800000000E+01 0. -1.
        -11    1    1    2    0    0 -0.22411168759E+02 -0.24908197546E+02 -0.31766230417E+02  0.46171118516E+02  0.00000000000E+00 0. -1.
         11    1    1    2    0    0 -0.66657658588E+02  0.43617240721E+02 -0.27582041994E+03  0.28709338410E+03  0.00000000000E+00 0.  1.
</event>
<event>
 6    1  0.5317355E-006  0.1474265E+03  0.7561462E-02  0.1203671E+00
          2   -1    0    0  501    0  0.00000000000E+00  0.00000000000E+00  0.12958388175E+04  0.12958388175E+04  0.00000000000E+00 0. -1.
         -2   -1    0    0    0  501 -0.00000000000E+00 -0.00000000000E+00 -0.23992063037E+02  0.23992063037E+02  0.00000000000E+00 0.  1.
          5    1    1    2  502    0 -0.19750863793E+02  0.70135947874E+02  0.83476301780E+02  0.11088242946E+03  0.41800000000E+01 0.  1.
         -5    1    1    2    0  502 -0.59029191842E+02  0.28686496915E+02  0.37779960080E+03  0.38348060102E+03  0.41800000000E+01 0.  1.
        -11    1    1    2    0    0  0.14390755053E+01 -0.75233870286E+02  0.39532417024E+03  0.40242192504E+03  0.00000000000E+00 0.  1.
         11    1    1    2    0    0  0.77340980130E+02 -0.23588574503E+02  0.41524668160E+03  0.42304592497E+03  0.00000000000E+00 0. -1.
</event>
<event>
 6    1  0.5317355E-006  0.1054331E+03  0.7561462E-02  0.1269269E+00
          3   -1    0    0  501    0  0.00000000000E+00  0.00000000000E+00  0.17028612353E+03  0.17028612353E+03  0.00000000000E+00 0. -1.
         -3   -1    0    0    0  501 -0.00000000000E+00 -0.00000000000E+00 -0.79432477476E+02  0.79432477476E+02  0.00000000000E+00 0.  1.
          5    1    1    2  502    0  0.84753825246E+01  0.43404806061E+02  0.19981171437E+02  0.48708612279E+02  0.41800000000E+01 0. -1.
         -5    1    1    2    0  502 -0.20387135085E+02 -0.82811204888E+02  0.66363141353E+01  0.85643703781E+02  0.41800000000E+01 0. -1.
        -11    1    1    2    0    0 -0.24519009587E+02  0.37209304181E+02  0.37458303172E+01  0.44718512873E+02  0.00000000000E+00 0.  1.
         11    1    1    2    0    0  0.36430762147E+02  0.21970946459E+01  0.60490330166E+02  0.70647772074E+02  0.00000000000E+00 0. -1.
</event>
<event>
 6    1  0.5317355E-006  0.1069633E+03  0.7561462E-02  0.1266299E+00
          2   -1    0    0  501    0  0.00000000000E+00  0.00000000000E+00  0.75364751815E+03  0.75364751815E+03  0.00000000000E+00 0. -1.
         -2   -1    0    0    0  501 -0.00000000000E+00 -0.00000000000E+00 -0.25250896057E+02  0.25250896057E+02  0.00000000000E+00 0.  1.
          5    1    1    2  502    0  0.62287129425E+02 -0.65987004736E+02  0.29826991513E+03  0.31179542325E+03  0.41800000000E+01 0. -1.
         -5    1    1    2    0  502  0.47658275843E+01  0.21973353393E+02  0.16646653172E+01  0.22929999619E+02  0.41800000000E+01 0. -1.
        -11    1    1    2    0    0 -0.43118680857E+02  0.58172916148E+02  0.39026198044E+03  0.39692281641E+03  0.00000000000E+00 0. -1.
         11    1    1    2    0    0 -0.23934276152E+02 -0.14159264806E+02  0.38200061211E+02  0.47250174934E+02  0.00000000000E+00 0.  1.
</event>
<event>
 6    1  0.5863462E-006  0.2406299E+03  0.7561462E-02  0.1119374E+00
          2   -1    0    0  501    0  0.00000000000E+00  0.00000000000E+00  0.15069746961E+03  0.15069746961E+03  0.00000000000E+00 0. -1.
         -2   -1    0    0    0  501 -0.00000000000E+00 -0.00000000000E+00 -0.42707792509E+03  0.42707792509E+03  0.00000000000E+00 0.  1.
          5    1    1    2  502    0  0.44459531537E+02 -0.53947372132E+02 -0.11547064854E+03  0.13504781368E+03  0.41800000000E+01 0. -1.
         -5    1    1    2    0  502 -0.20710822846E+01 -0.16865917535E+03 -0.66496186980E+02  0.18135441019E+03  0.41800000000E+01 0. -1.
        -11    1    1    2    0    0  0.13689997069E+02  0.15067733775E+03 -0.71448762792E+02  0.16732005808E+03  0.00000000000E+00 0.  1.
         11    1    1    2    0    0 -0.56078446321E+02  0.71929209732E+02 -0.22964857159E+02  0.94053112754E+02  0.00000000000E+00 0. -1.
</event>
<event>
 6    1  0.5317355E-006  0.1160534E+03  0.7561462E-02  0.1249753E+00
         -1   -1    0    0    0  501 -0.00000000000E+00  0.00000000000E+00  0.10756464113E+03  0.10756464113E+03  0.00000000000E+00 0.  1.
          1   -1    0    0  501    0  0.00000000000E+00 -0.00000000000E+00 -0.18033537952E+03  0.18033537952E+03  0.00000000000E+00 0. -1.
          5    1    1    2  502    0  0.11641335938E+02 -0.34419565575E+02 -0.36255972912E+02  0.51499467654E+02  0.41800000000E+01 0. -1.
         -5    1    1    2    0  502  0.53232779918E+02  0.92588199334E+02 -0.77162423707E+01  0.10716023661E+03  0.41800000000E+01 0. -1.
        -11    1    1    2    0    0 -0.52940938418E+02 -0.37825708319E+02  0.25622307424E+02  0.69928748081E+02  0.00000000000E+00 0.  1.
         11    1    1    2    0    0 -0.11933177438E+02 -0.20342925440E+02 -0.54420830531E+02  0.59311568306E+02  0.00000000000E+00 0. -1.
</event>
<event>
 6    1  0.5317355E-006  0.1018353E+03  0.7561462E-02  0.1276483E+00
          2   -1    0    0  501    0  0.00000000000E+00  0.00000000000E+00  0.66803942712E+03  0.66803942712E+03  0.00000000000E+00 0. -1.
         -2   -1    0    0    0  501 -0.00000000000E+00 -0.00000000000E+00 -0.28004805362E+02  0.28004805362E+02  0.00000000000E+00 0.  1.
          5    1    1    2  502    0 -0.63414848053E+02 -0.43724414693E+02  0.38567792521E+03  0.39331692283E+03  0.41800000000E+01 0.  1.
         -5    1    1    2    0  502  0.57729470686E+01 -0.12936772983E+02 -0.48911478846E+01  0.15559008345E+02  0.41800000000E+01 0.  1.
        -11    1    1    2    0    0 -0.14270775256E+02  0.33165865868E+02  0.34151391193E+02  0.49698563416E+02  0.00000000000E+00 0.  1.
         11    1    1    2    0    0  0.71912676241E+02  0.23495321807E+02  0.22509645325E+03  0.23746973790E+03  0.00000000000E+00 0. -1.
</event>
<event>
 6    1  0.5317355E-006  0.9345721E+02  0.7561462E-02  0.1294689E+00
         -2   -1    0    0    0  501 -0.00000000000E+00  0.00000000000E+00  0.36344771938E+03  0.36344771938E+03  0.00000000000E+00 0.  1.
          2   -1    0    0  501    0  0.00000000000E+00 -0.00000000000E+00 -0.41375619368E+02  0.41375619368E+02  0.00000000000E+00 0. -1.
          5    1    1    2  502    0  0.72124009606E+02  0.43205785671E+01  0.12830708689E+03  0.14731164620E+03  0.41800000000E+01 0. -1.
         -5    1    1    2    0  502 -0.46200938953E+02 -0.35659168119E+02  0.12976641392E+03  0.14234780509E+03  0.41800000000E+01 0. -1.
        -11    1    1    2    0    0 -0.83028966885E+01  0.36687114303E+02  0.81498809772E+02  0.89760450331E+02  0.00000000000E+00 0.  1.
         11    1    1    2    0    0 -0.17620173965E+02 -0.53485247511E+01 -0.17500210575E+02  0.25403437124E+02  0.00000000000E+00 0. -1.
</event>
<event>
 6    1  0.5317355E-006  0.8135057E+02  0.7561462E-02  0.1325262E+00
          2   -1    0    0  501    0  0.00000000000E+00  0.00000000000E+00  0.29725087755E+03  0.29725087755E+03  0.00000000000E+00 0. -1.
         -2   -1    0    0    0  501 -0.00000000000E+00 -0.00000000000E+00 -0.56420248505E+02  0.56420248505E+02  0.00000000000E+00 0.  1.
          5    1    1    2  502    0  0.98886829866E+01  0.35886161140E+02 -0.29324970666E+02  0.47571303505E+02  0.41800000000E+01 0. -1.
         -5    1    1    2    0  502 -0.33292682344E+02 -0.34894743227E+02  0.71798570835E+02  0.86594185582E+02  0.41800000000E+01 0. -1.
        -11    1    1    2    0    0 -0.26397903314E+02  0.43208314445E+01  0.14031490542E+03  0.14284184109E+03  0.00000000000E+00 0. -1.
         11    1    1    2    0    0  0.49801902671E+02 -0.53122493573E+01  0.58042123457E+02  0.76663795877E+02  0.00000000000E+00 0.  1.
</event>
<event>
 6    1  0.5317355E-006  0.1485305E+03  0.7561462E-02  0.1202290E+00
         -1   -1    0    0    0  501 -0.00000000000E+00  0.00000000000E+00  0.12205511420E+03  0.12205511420E+03  0.00000000000E+00 0.  1.
          1   -1    0    0  501    0  0.00000000000E+00 -0.00000000000E+00 -0.22280236819E+03  0.22280236819E+03  0.00000000000E+00 0. -1.
          5    1    1    2  502    0 -0.28158118271E+02 -0.51608648092E+02 -0.19259630599E+02  0.62005950950E+02  0.41800000000E+01 0. -1.
         -5    1    1    2    0  502  0.10250074556E+03 -0.39335050649E+02  0.65099475412E+01  0.11006135047E+03  0.41800000000E+01 0. -1.
        -11    1    1    2    0    0 -0.73589927704E+02  0.53938740960E+02 -0.17123628656E+02  0.92833635576E+02  0.00000000000E+00 0.  1.
         11    1    1    2    0    0 -0.75269958514E+00  0.37004957781E+02 -0.70873942283E+02  0.79956545397E+02  0.00000000000E+00 0. -1.
</event>
<event>
 6    1  0.5317355E-006  0.1131424E+03  0.7561462E-02  0.1254859E+00
         -4   -1    0    0    0  501 -0.00000000000E+00  0.00000000000E+00  0.10169129736E+04  0.10169129736E+04  0.00000000000E+00 0. -1.
          4   -1    0    0  501    0  0.00000000000E+00 -0.00000000000E+00 -0.22527560644E+02  0.22527560644E+02  0.00000000000E+00 0.  1.
          5    1    1    2  502    0 -0.42927436122E+01 -0.60818001458E+02  0.94785096205E+02  0.11277829495E+03  0.41800000000E+01 0. -1.
         -5    1    1    2    0  502 -0.32145301918E+01 -0.38635815937E+02  0.55659804455E+03  0.55796228821E+03  0.41800000000E+01 0. -1.
        -11    1    1    2    0    0  0.11633269605E+02 -0.10784353382E+02  0.12268949665E+02  0.20053986273E+02  0.00000000000E+00 0. -1.
         11    1    1    2    0    0 -0.41259958011E+01  0.11023817078E+03  0.33073332255E+03  0.34864596482E+03  0.00000000000E+00 0.  1.
</event>
<event>
 6    1  0.5317355E-006  0.8836768E+02  0.7561462E-02  0.1306853E+00
          1   -1    0    0  501    0  0.00000000000E+00  0.00000000000E+00  0.42286879316E+03  0.42286879316E+03  0.00000000000E+00 0. -1.
         -1   -1    0    0    0  501 -0.00000000000E+00 -0.00000000000E+00 -0.38392636415E+02  0.38392636415E+02  0.00000000000E+00 0.  1.
          5    1    1    2  502    0  0.48113235891E+02  0.14905642252E+02  0.10638300652E+03  0.11777893749E+03  0.41800000000E+01 0.  1.
         -5    1    1    2    0  502 -0.33199023398E+02 -0.15791325037E+02 -0.12805238450E+02  0.39153385968E+02  0.41800000000E+01 0.  1.
        -11    1    1    2    0    0 -0.48624961704E+02 -0.16390307417E+02  0.17775309692E+03  0.18501133084E+03  0.00000000000E+00 0.  1.
         11    1    1    2    0    0  0.33710749210E+02  0.17275990201E+02  0.11314529176E+03  0.11931777527E+03  0.00000000000E+00 0. -1.
</event>
<event>
 6    1  0.5317355E-006  0.1173449E+03  0.7561462E-02  0.1247543E+00
          4   -1    0    0  501    0  0.00000000000E+00  0.00000000000E+00  0.11777347447E+02  0.11777347447E+02  0.00000000000E+00 0. -1.
         -4   -1    0    0    0  501 -0.00000000000E+00 -0.00000000000E+00 -0.14667154602E+04  0.14667154602E+04  0.00000000000E+00 0.  1.
          5    1    1    2  502    0  0.77996375168E+02  0.57154025819E+02 -0.59411169066E+03  0.60194367725E+03  0.41800000000E+01 0.  1.
         -5    1    1    2    0  502 -0.30750018018E+02 -0.17524507924E+02 -0.45558390065E+03  0.45697574872E+03  0.41800000000E+01 0.  1.
        -11    1    1    2    0    0 -0.42681539901E+02 -0.64299559150E+02 -0.35644248804E+03  0.36470178837E+03  0.00000000000E+00 0.  1.
         11    1    1    2    0    0 -0.45648172494E+01  0.24670041256E+02 -0.48800033386E+02  0.54871593293E+02  0.00000000000E+00 0. -1.
</event>
<event>
 6    1  0.5317355E-006  0.9262776E+02  0.7561462E-02  0.1296610E+00
         -4   -1    0    0    0  501 -0.00000000000E+00  0.00000000000E+00  0.46112281796E+02  0.46112281796E+02  0.00000000000E+00 0.  1.
          4   -1    0    0  501    0  0.00000000000E+00 -0.00000000000E+00 -0.32542960535E+03  0.32542960535E+03  0.00000000000E+00 0. -1.
          5    1    1    2  502    0  0.29555170119E+02  0.31679664425E+02 -0.87672800234E+02  0.97883101298E+02  0.41800000000E+01 0. -1.
         -5    1    1    2    0  502 -0.83206099585E+02 -0.27237846551E+02 -0.85742866546E+02  0.12261511675E+03  0.41800000000E+01 0. -1.
        -11    1    1    2    0    0  0.18616393839E+02 -0.39976130233E+01  0.15584806407E+02  0.24605633912E+02  0.00000000000E+00 0.  1.
         11    1    1    2    0    0  0.35034535627E+02 -0.44420485020E+00 -0.12148646319E+03  0.12643803519E+03  0.00000000000E+00 0. -1.
</event>
<event>
 6    1  0.5317355E-006  0.3304458E+03  0.7561462E-02  0.1070940E+00
          2   -1    0    0  501    0  0.00000000000E+00  0.00000000000E+00  0.40304668725E+03  0.40304668725E+03  0.00000000000E+00 0. -1.
         -2   -1    0    0    0  501 -0.00000000000E+00 -0.00000000000E+00 -0.30516045409E+03  0.30516045409E+03  0.00000000000E+00 0.  1.
          5    1    1    2  502    0 -0.89854874217E+02 -0.25113565285E+03  0.12982821702E+02  0.26707497190E+03  0.41800000000E+01 0.  1.
         -5    1    1    2    0  502  0.20298074409E+02 -0.64815148901E+02 -0.44295808133E+02  0.81194866648E+02  0.41800000000E+01 0.  1.
        -11    1    1    2    0    0  0.62691410729E+02  0.19266759024E+03  0.37295057633E+02  0.20601440394E+03  0.00000000000E+00 0.  1.
         11    1    1    2    0    0  0.68653890794E+01  0.12328321151E+03  0.91904161961E+02  0.15392289886E+03  0.00000000000E+00 0. -1.
</event>
<event>
 6    1  0.5317355E-006  0.9191037E+02  0.7561462E-02  0.1298290E+00
          2   -1    0    0  501    0  0.00000000000E+00  0.00000000000E+00  0.49032569118E+03  0.49032569118E+03  0.00000000000E+00 0. -1.
         -2   -1    0    0    0  501 -0.00000000000E+00 -0.00000000000E+00 -0.36016494226E+02  0.36016494226E+02  0.00000000000E+00 0.  1.
          5    1    1    2  502    0  0.17216132355E+02 -0.72266428173E+01 -0.16012688190E+02  0.24949913081E+02  0.41800000000E+01 0.  1.
         -5    1    1    2    0  502  0.29953823402E+02 -0.52913717387E+02  0.20716664715E+03  0.21594579207E+03  0.41800000000E+01 0.  1.
        -11    1    1    2    0    0  0.17646298383E+02  0.42414369953E+01  0.95475464337E+02  0.97185111641E+02  0.00000000000E+00 0. -1.
         11    1    1    2    0    0 -0.64816254140E+02  0.55898923209E+02  0.16767977366E+03  0.18826136861E+03  0.00000000000E+00 0.  1.
</event>
<event>
 6    1  0.5317355E-006  0.9468041E+02  0.7561462E-02  0.1291897E+00
          2   -1    0    0  501    0  0.00000000000E+00  0.00000000000E+00  0.61617078297E+03  0.61617078297E+03  0.00000000000E+00 0. -1.
         -2   -1    0    0    0  501 -0.00000000000E+00 -0.00000000000E+00 -0.34516516141E+02  0.34516516141E+02  0.00000000000E+00 0.  1.
          5    1    1    2  502    0  0.68796618041E+01 -0.62337380034E+02  0.19356387152E+02  0.65767931544E+02  0.41800000000E+01 0. -1.
         -5    1    1    2    0  502  0.37795668773E+01 -0.23344654103E+02  0.19806546812E+03  0.19951606467E+03  0.41800000000E+01 0. -1.
        -11    1    1    2    0    0  0.21325249258E+02  0.19115146093E+02  0.24353317445E+02  0.37593072988E+02  0.00000000000E+00 0.  1.
         11    1    1    2    0    0 -0.31984477939E+02  0.66566888044E+02  0.33987909412E+03  0.34781022991E+03  0.00000000000E+00 0. -1.
</event>
<event>
 6    1  0.5317355E-006  0.9957350E+02  0.7561462E-02  0.1281195E+00
         -2   -1    0    0    0  501 -0.00000000000E+00  0.00000000000E+00  0.15176221864E+03  0.15176221864E+03  0.00000000000E+00 0.  1.
          2   -1    0    0  501    0  0.00000000000E+00 -0.00000000000E+00 -0.11901672432E+03  0.11901672432E+03  0.00000000000E+00 0. -1.
          5    1    1    2  502    0 -0.42108532319E+02  0.84916596486E+01  0.54283036814E+02  0.69349529655E+02  0.41800000000E+01 0.  1.
         -5    1    1    2    0  502  0.39583848764E+02  0.68136928899E+02 -0.19809140394E+02  0.81359674323E+02  0.41800000000E+01 0.  1.
        -11    1    1    2    0    0  0.53640451449E+01 -0.44306968719E+02  0.44870929479E+02  0.63287287583E+02  0.00000000000E+00 0.  1.
         11    1    1    2    0    0 -0.28393615895E+01 -0.32321619829E+02 -0.46599331581E+02  0.56782451395E+02  0.00000000000E+00 0. -1.
</event>
<event>
 6    1  0.5317355E-006  0.1020943E+03  0.7561462E-02  0.1275952E+00
          2   -1    0    0  501    0  0.00000000000E+00  0.00000000000E+00  0.29933284537E+03  0.29933284537E+03  0.00000000000E+00 0.  1.
         -2   -1    0    0    0  501 -0.00000000000E+00 -0.00000000000E+00 -0.81730546559E+02  0.81730546559E+02  0.00000000000E+00 0. -1.
          5    1    1    2  502    0 -0.84925303251E+02  0.54263432774E+02  0.80175954353E+02  0.12885062408E+03  0.41800000000E+01 0. -1.
         -5    1    1    2    0  502  0.21073750633E+01 -0.53134224815E+01 -0.34670285621E+02  0.35386079087E+02  0.41800000000E+01 0. -1.
        -11    1    1    2    0    0  0.57881152921E+02 -0.32776912979E+02  0.17475454209E+03  0.18698583868E+03  0.00000000000E+00 0.  1.
         11    1    1    2    0    0  0.24936775267E+02 -0.16173097314E+02 -0.26579120063E+01  0.29840850083E+02  0.00000000000E+00 0. -1.
</event>
<event>
 6    1  0.5317355E-006  0.2780541E+03  0.7561462E-02  0.1096757E+00
          2   -1    0    0  501    0  0.00000000000E+00  0.00000000000E+00  0.72477025993E+03  0.72477025993E+03  0.00000000000E+00 0. -1.
         -2   -1    0    0    0  501 -0.00000000000E+00 -0.00000000000E+00 -0.15056895034E+03  0.15056895034E+03  0.00000000000E+00 0.  1.
          5    1    1    2  502    0  0.20335546801E+03 -0.14330825081E+03  0.11882521717E+03  0.27573103880E+03  0.41800000000E+01 0.  1.
         -5    1    1    2    0  502  0.22166868897E+02 -0.14493549841E+02 -0.29170974797E+02  0.39621348214E+02  0.41800000000E+01 0.  1.
        -11    1    1    2    0    0 -0.17423612234E+03  0.91934113213E+02  0.32980844092E+03  0.38416625985E+03  0.00000000000E+00 0.  1.
         11    1    1    2    0    0 -0.51286214567E+02  0.65867687443E+02  0.15473862628E+03  0.17582056341E+03  0.00000000000E+00 0. -1.
</event>
<event>
 6    1  0.5317355E-006  0.9974896E+02  0.7561462E-02  0.1280825E+00
         -1   -1    0    0    0  501 -0.00000000000E+00  0.00000000000E+00  0.32387804665E+02  0.32387804665E+02  0.00000000000E+00 0.  1.
          1   -1    0    0  501    0  0.00000000000E+00 -0.00000000000E+00 -0.38080431420E+03  0.38080431420E+03  0.00000000000E+00 0. -1.
          5    1    1    2  502    0 -0.54387935773E+02 -0.51603131976E+01 -0.13200315656E+03  0.14292299371E+03  0.41800000000E+01 0.  1.
         -5    1    1    2    0  502  0.53534885693E+02  0.33835288023E+02 -0.55483154851E+02  0.84301029495E+02  0.41800000000E+01 0.  1.
        -11    1    1    2    0    0 -0.34285843479E+02  0.23441744302E+01 -0.25895846570E+02  0.43030327519E+02  0.00000000000E+00 0.  1.
         11    1    1    2    0    0  0.35138893559E+02 -0.31019149255E+02 -0.13503435156E+03  0.14293776814E+03  0.00000000000E+00 0. -1.
</event>
<event>
 6    1  0.5317355E-006  0.1119052E+03  0.7561462E-02  0.1257082E+00
          1   -1    0    0  501    0  0.00000000000E+00  0.00000000000E+00  0.39559851566E+03  0.39559851566E+03  0.00000000000E+00 0. -1.
         -1   -1    0    0    0  501 -0.00000000000E+00 -0.00000000000E+00 -0.55058027574E+02  0.55058027574E+02  0.00000000000E+00 0.  1.
          5    1    1    2  502    0 -0.34655035224E+02  0.48802730556E+02  0.10631937049E+03  0.12208177144E+03  0.41800000000E+01 0. -1.
         -5    1    1    2    0  502 -0.53989475519E+02 -0.42903711349E+02  0.86170357537E+01  0.69622680353E+02  0.41800000000E+01 0. -1.
        -11    1    1    2    0    0  0.64140413598E+02  0.10834667442E+02  0.53257677843E+02  0.84069988250E+02  0.00000000000E+00 0.  1.
         11    1    1    2    0    0  0.24504097145E+02 -0.16733686648E+02  0.17234640400E+03  0.17488210320E+03  0.00000000000E+00 0. -1.
</event>
<event>
 6    1  0.5317355E-006  0.1748847E+03  0.7561462E-02  0.1172848E+00
          2   -1    0    0  501    0  0.00000000000E+00  0.00000000000E+00  0.21175925454E+04  0.21175925454E+04  0.00000000000E+00 0. -1.
         -2   -1    0    0    0  501 -0.00000000000E+00 -0.00000000000E+00 -0.65094490182E+02  0.65094490182E+02  0.00000000000E+00 0.  1.
          5    1    1    2  502    0  0.72402116739E+02  0.25061248798E+02  0.13474265955E+04  0.13496095862E+04  0.41800000000E+01 0. -1.
         -5    1    1    2    0  502 -0.14639458355E+03  0.16111572702E+02  0.35168104040E+02  0.15147681278E+03  0.41800000000E+01 0.  1.
        -11    1    1    2    0    0  0.51777448710E+02  0.23836433327E+02  0.31152957489E+03  0.31670136687E+03  0.00000000000E+00 0.  1.
         11    1    1    2    0    0  0.22215018098E+02 -0.65009254827E+02  0.35837378086E+03  0.36489926973E+03  0.00000000000E+00 0. -1.
</event>
<event>
 6    1  0.5317355E-006  0.1427357E+03  0.7561462E-02  0.1209695E+00
         -1   -1    0    0    0  501 -0.00000000000E+00  0.00000000000E+00  0.28012575906E+03  0.28012575906E+03  0.00000000000E+00 0.  1.
          1   -1    0    0  501    0  0.00000000000E+00 -0.00000000000E+00 -0.97775294943E+02  0.97775294943E+02  0.00000000000E+00 0. -1.
          5    1    1    2  502    0  0.16905048483E+02 -0.10836554958E+03  0.31645485850E+02  0.11422688902E+03  0.41800000000E+01 0.  1.
         -5    1    1    2    0  502 -0.49438386058E+02 -0.10553985279E+02  0.77291380266E+02  0.92449826851E+02  0.41800000000E+01 0.  1.
        -11    1    1    2    0    0 -0.10114875782E+01  0.29004609637E+02  0.69340897658E+02  0.75169479014E+02  0.00000000000E+00 0.  1.
         11    1    1    2    0    0  0.33544825154E+02  0.89914925221E+02  0.40727003387E+01  0.96054859118E+02  0.00000000000E+00 0. -1.
</event>
<event>
 6    1  0.5317355E-006  0.1031859E+03  0.7561462E-02  0.1273736E+00
         -2   -1    0    0    0  501 -0.00000000000E+00  0.00000000000E+00  0.46511194767E+02  0.46511194767E+02  0.00000000000E+00 0. -1.
          2   -1    0    0  501    0  0.00000000000E+00 -0.00000000000E+00 -0.28818401534E+03  0.28818401534E+03  0.00000000000E+00 0.  1.
          5    1    1    2  502    0  0.38084025746E+02 -0.48308569136E+02 -0.42913174348E+02  0.75120728175E+02  0.41800000000E+01 0. -1.
         -5    1    1    2    0  502 -0.12205259126E+01  0.68605214511E+02 -0.76671252769E+02  0.10297630088E+03  0.41800000000E+01 0. -1.
        -11    1    1    2    0    0 -0.31850961795E+02  0.18512452588E+02 -0.10440050023E+02  0.38290851552E+02  0.00000000000E+00 0. -1.
         11    1    1    2    0    0 -0.50125380381E+01 -0.38809097964E+02 -0.11164834343E+03  0.11830732950E+03  0.00000000000E+00 0.  1.
</event>
<event>
 6    1  0.5317355E-006  0.9762025E+02  0.7561462E-02  0.1285381E+00
         -2   -1    0    0    0  501 -0.00000000000E+00  0.00000000000E+00  0.27836754599E+02  0.27836754599E+02  0.00000000000E+00 0.  1.
          2   -1    0    0  501    0  0.00000000000E+00 -0.00000000000E+00 -0.46153316887E+03  0.46153316887E+03  0.00000000000E+00 0. -1.
          5    1    1    2  502    0 -0.19187561095E+02 -0.67702058716E+02 -0.17467959182E+03  0.18836709759E+03  0.41800000000E+01 0. -1.
         -5    1    1    2    0  502  0.47306419457E+02  0.33082973245E+02 -0.78486711057E+02  0.97519314257E+02  0.41800000000E+01 0. -1.
        -11    1    1    2    0    0 -0.15976303798E+02  0.46932123033E+02 -0.17943253219E+03  0.18615558026E+03  0.00000000000E+00 0. -1.
         11    1    1    2    0    0 -0.12142554565E+02 -0.12313037562E+02 -0.10975792119E+01  0.17327931368E+02  0.00000000000E+00 0.  1.
</event>
<event>
 6    1  0.5317355E-006  0.1110684E+03  0.7561462E-02  0.1258604E+00
          2   -1    0    0  501    0  0.00000000000E+00  0.00000000000E+00  0.46779729820E+03  0.46779729820E+03  0.00000000000E+00 0. -1.
         -2   -1    0    0    0  501 -0.00000000000E+00 -0.00000000000E+00 -0.44312952235E+02  0.44312952235E+02  0.00000000000E+00 0.  1.
          5    1    1    2  502    0 -0.49831856100E+02 -0.36499851052E+01  0.77828401245E+01  0.50740331828E+02  0.41800000000E+01 0. -1.
         -5    1    1    2    0  502  0.45320189221E+02 -0.60249331477E+02  0.10567843695E+03  0.12988189223E+03  0.41800000000E+01 0. -1.
        -11    1    1    2    0    0  0.36952961970E+02  0.47374085420E+02  0.27311197055E+03  0.27964258228E+03  0.00000000000E+00 0. -1.
         11    1    1    2    0    0 -0.32441295091E+02  0.16525231162E+02  0.36911098343E+02  0.51845444092E+02  0.00000000000E+00 0.  1.
</event>
<event>
 6    1  0.5317355E-006  0.9037947E+02  0.7561462E-02  0.1301935E+00
         -1   -1    0    0    0  501 -0.00000000000E+00  0.00000000000E+00  0.40947480260E+03  0.40947480260E+03  0.00000000000E+00 0.  1.
          1   -1    0    0  501    0  0.00000000000E+00 -0.00000000000E+00 -0.30547792486E+02  0.30547792486E+02  0.00000000000E+00 0. -1.
          5    1    1    2  502    0  0.28654690014E+02  0.42303562340E+02  0.36948930940E+02  0.63193184317E+02  0.41800000000E+01 0.  1.
         -5    1    1    2    0  502 -0.32729839513E+02 -0.23619914479E+02  0.21451340538E+03  0.21831769567E+03  0.41800000000E+01 0.  1.
        -11    1    1    2    0    0 -0.21635425015E+02  0.28140639229E+02  0.26537508941E+02  0.44319595808E+02  0.00000000000E+00 0.  1.
         11    1    1    2    0    0  0.25710574513E+02 -0.46824287091E+02  0.10092716485E+03  0.11419211929E+03  0.00000000000E+00 0. -1.
</event>
<event>
 6    1  0.5317355E-006  0.1522406E+03  0.7561462E-02  0.1197746E+00
         -1   -1    0    0    0  501 -0.00000000000E+00  0.00000000000E+00  0.12110581943E+03  0.12110581943E+03  0.00000000000E+00 0.  1.
          1   -1    0    0  501    0  0.00000000000E+00 -0.00000000000E+00 -0.22452993370E+03  0.22452993370E+03  0.00000000000E+00 0. -1.
          5    1    1    2  502    0 -0.10253483771E+03 -0.90481747128E+02  0.10678291894E+02  0.13722914350E+03  0.41800000000E+01 0. -1.
         -5    1    1    2    0  502  0.20512416141E+02  0.19159177931E+02 -0.37988036106E+01  0.28631043009E+02  0.41800000000E+01 0. -1.
        -11    1    1    2    0    0 -0.70345811349E+01  0.46235107233E+02 -0.54131162295E+02  0.71535677839E+02  0.00000000000E+00 0. -1.
         11    1    1    2    0    0  0.89057002709E+02  0.25087461965E+02 -0.56172440262E+02  0.10823988879E+03  0.00000000000E+00 0.  1.
</event>
<event>
 6    1  0.5317355E-006  0.1198822E+03  0.7561462E-02  0.1243292E+00
          1   -1    0    0  501    0  0.00000000000E+00  0.00000000000E+00  0.50551313382E+03  0.50551313382E+03  0.00000000000E+00 0. -1.
         -1   -1    0    0    0  501 -0.00000000000E+00 -0.00000000000E+00 -0.33541863736E+02  0.33541863736E+02  0.00000000000E+00 0.  1.
          5    1    1    2  502    0  0.13410652341E+01  0.91191549783E+02  0.11877202855E+03  0.14980642300E+03  0.41800000000E+01 0.  1.
         -5    1    1    2    0  502  0.26585152395E+01 -0.41950273732E+02  0.38761552005E+02  0.57330824897E+02  0.41800000000E+01 0.  1.
        -11    1    1    2    0    0 -0.49048404131E+02 -0.26909574033E+02  0.17152526866E+03  0.18041837188E+03  0.00000000000E+00 0. -1.
         11    1    1    2    0    0  0.45048823657E+02 -0.22331702018E+02  0.14291242087E+03  0.15149937777E+03  0.00000000000E+00 0.  1.
</event>
<event>
 6    1  0.5317355E-006  0.1390558E+03  0.7561462E-02  0.1214605E+00
          1   -1    0    0  501    0  0.00000000000E+00  0.00000000000E+00  0.58316752291E+03  0.58316752291E+03  0.00000000000E+00 0. -1.
         -1   -1    0    0    0  501 -0.00000000000E+00 -0.00000000000E+00 -0.39330927451E+02  0.39330927451E+02  0.00000000000E+00 0.  1.
          5    1    1    2  502    0  0.22990561291E+02  0.20846118535E+02  0.17338897714E+02  0.35794361852E+02  0.41800000000E+01 0. -1.
         -5    1    1    2    0  502 -0.11870380806E+03 -0.18093032999E+02  0.18594068718E+03  0.22138058506E+03  0.41800000000E+01 0. -1.
        -11    1    1    2    0    0  0.69374398016E+02  0.37258886762E+02  0.15731234440E+03  0.17592102047E+03  0.00000000000E+00 0.  1.
         11    1    1    2    0    0  0.26338848758E+02 -0.40011972297E+02  0.18324466617E+03  0.18940248299E+03  0.00000000000E+00 0. -1.
</event>
<event>
 6    1  0.5317355E-006  0.1507887E+03  0.7561462E-02  0.1199507E+00
         -2   -1    0    0    0  501 -0.00000000000E+00  0.00000000000E+00  0.19584927408E+03  0.19584927408E+03  0.00000000000E+00 0.  1.
          2   -1    0    0  501    0  0.00000000000E+00 -0.00000000000E+00 -0.13462498487E+03  0.13462498487E+03  0.00000000000E+00 0. -1.
          5    1    1    2  502    0  0.91248410079E+02 -0.95173129617E+02  0.67852209029E+02  0.14834281787E+03  0.41800000000E+01 0. -1.
         -5    1    1    2    0  502 -0.56296168822E+01  0.31549284073E+02  0.20777166432E+02  0.38421516845E+02  0.41800000000E+01 0. -1.
        -11    1    1    2    0    0 -0.95759527011E+02  0.27220071386E+02 -0.34299947992E+02  0.10529627596E+03  0.00000000000E+00 0. -1.
         11    1    1    2    0    0  0.10140733815E+02  0.36403774158E+02  0.68948617443E+01  0.38413648274E+02  0.00000000000E+00 0.  1.
</event>
<event>
 6    1  0.5317355E-006  0.7132057E+02  0.7561462E-02  0.1355659E+00
         -1   -1    0    0    0  501 -0.00000000000E+00  0.00000000000E+00  0.51094967271E+03  0.51094967271E+03  0.00000000000E+00 0.  1.
          1   -1    0    0  501    0  0.00000000000E+00 -0.00000000000E+00 -0.29154200612E+02  0.29154200612E+02  0.00000000000E+00 0. -1.
          5    1    1    2  502    0  0.31581200137E+02  0.18984482532E+02  0.36021525133E+03  0.36211915507E+03  0.41800000000E+01 0. -1.
         -5    1    1    2    0  502 -0.71363264332E+00  0.16311924885E+02 -0.48413255426E+01  0.17535649346E+02  0.41800000000E+01 0. -1.
        -11    1    1    2    0    0 -0.22753948735E+02 -0.59219828670E+02  0.52553474271E+02  0.82380810561E+02  0.00000000000E+00 0.  1.
         11    1    1    2    0    0 -0.81136187587E+01  0.23923421253E+02  0.73868072038E+02  0.78068258342E+02  0.00000000000E+00 0. -1.
</event>
<event>
 6    1  0.5317355E-006  0.1245272E+03  0.7561462E-02  0.1235810E+00
         -4   -1    0    0    0  501 -0.00000000000E+00  0.00000000000E+00  0.90061890546E+02  0.90061890546E+02  0.00000000000E+00 0.  1.
          4   -1    0    0  501    0  0.00000000000E+00 -0.00000000000E+00 -0.19354576156E+03  0.19354576156E+03  0.00000000000E+00 0. -1.
          5    1    1    2  502    0 -0.24558174064E+02  0.30458873360E+02 -0.27883022958E+02  0.48226364667E+02  0.41800000000E+01 0.  1.
         -5    1    1    2    0  502  0.90468551946E+02 -0.36618311353E+02 -0.94732252924E+01  0.98146186961E+02  0.41800000000E+01 0.  1.
        -11    1    1    2    0    0 -0.69087337594E+02 -0.30286091775E+02 -0.19397791631E+02  0.77888265426E+02  0.00000000000E+00 0.  1.
         11    1    1    2    0    0  0.31769597120E+01  0.36445529768E+02 -0.46729831136E+02  0.59346835055E+02  0.00000000000E+00 0. -1.
</event>
<event>
 6    1  0.5317355E-006  0.9676988E+02  0.7561462E-02  0.1287239E+00
         -1   -1    0    0    0  501 -0.00000000000E+00  0.00000000000E+00  0.17528298746E+03  0.17528298746E+03  0.00000000000E+00 0.  1.
          1   -1    0    0  501    0  0.00000000000E+00 -0.00000000000E+00 -0.11149905806E+03  0.11149905806E+03  0.00000000000E+00 0. -1.
          5    1    1    2  502    0 -0.33044433222E+02 -0.50724504498E+02  0.10432760014E+03  0.12069229666E+03  0.41800000000E+01 0.  1.
         -5    1    1    2    0  502  0.51518243988E+02  0.14665147353E+02  0.12413956276E+02  0.55143220081E+02  0.41800000000E+01 0.  1.
        -11    1    1    2    0    0 -0.39538705024E+02  0.41554784443E+02 -0.41565399538E+01  0.57509878538E+02  0.00000000000E+00 0.  1.
         11    1    1    2    0    0  0.21064894258E+02 -0.54954272970E+01 -0.48801087060E+02  0.53436650246E+02  0.00000000000E+00 0. -1.
</event>
<event>
 6    1  0.5317355E-006  0.1338135E+03  0.7561462E-02  0.1221904E+00
         -4   -1    0    0    0  501 -0.00000000000E+00  0.00000000000E+00  0.17362437835E+03  0.17362437835E+03  0.00000000000E+00 0.  1.
          4   -1    0    0  501    0  0.00000000000E+00 -0.00000000000E+00 -0.21093101365E+03  0.21093101365E+03  0.00000000000E+00 0. -1.
          5    1    1    2  502    0  0.23064248664E+02 -0.94940521401E+02  0.55357423690E+02  0.11237250076E+03  0.41800000000E+01 0.  1.
         -5    1    1    2    0  502  0.42629046797E+02  0.33220137444E+02  0.55104766019E+02  0.77296965015E+02  0.41800000000E+01 0.  1.
        -11    1    1    2    0    0 -0.61212982096E+02  0.77767622876E+02 -0.86663615199E+02  0.13155004578E+03  0.00000000000E+00 0.  1.
         11    1    1    2    0    0 -0.44803133650E+01 -0.16047238918E+02 -0.61105209812E+02  0.63335880438E+02  0.00000000000E+00 0. -1.
</event>
<event>
 6    1  0.5317355E-006  0.1127853E+03  0.7561462E-02  0.1255497E+00
         -1   -1    0    0    0  501 -0.00000000000E+00  0.00000000000E+00  0.48332528777E+02  0.48332528777E+02  0.00000000000E+00 0.  1.
          1   -1    0    0  501    0  0.00000000000E+00 -0.00000000000E+00 -0.35187773645E+03  0.35187773645E+03  0.00000000000E+00 0. -1.
          5    1    1    2  502    0  0.10164257590E+02 -0.65908457299E+02 -0.64553845123E+02  0.92908063138E+02  0.41800000000E+01 0.  1.
         -5    1    1    2    0  502 -0.48937108158E+02  0.38199780410E+02 -0.19712830234E+02  0.65269685568E+02  0.41800000000E+01 0.  1.
        -11    1    1    2    0    0  0.45107910419E+02 -0.19324222105E+02 -0.15181249270E+03  0.15954680217E+03  0.00000000000E+00 0. -1.
         11    1    1    2    0    0 -0.63350598520E+01  0.47032898994E+02 -0.67466039614E+02  0.82485714353E+02  0.00000000000E+00 0.  1.
</event>
<event>
 6    1  0.5317355E-006  0.8634355E+02  0.7561462E-02  0.1311956E+00
          2   -1    0    0  501    0  0.00000000000E+00  0.00000000000E+00  0.15683992660E+03  0.15683992660E+03  0.00000000000E+00 0. -1.
         -2   -1    0    0    0  501 -0.00000000000E+00 -0.00000000000E+00 -0.83143664711E+02  0.83143664711E+02  0.00000000000E+00 0.  1.
          5    1    1    2  502    0 -0.39537820330E+02  0.42382354145E+02  0.30831534338E+02  0.65784185706E+02  0.41800000000E+01 0.  1.
         -5    1    1    2    0  502  0.35884758250E+02 -0.40747657277E+02 -0.24103315933E+02  0.59552747100E+02  0.41800000000E+01 0.  1.
        -11    1    1    2    0    0 -0.18019509414E+02 -0.23312654571E+02 -0.10543039602E+02  0.31294380753E+02  0.00000000000E+00 0.  1.
         11    1    1    2    0    0  0.21672571494E+02  0.21677957703E+02  0.77511083090E+02  0.83352277756E+02  0.00000000000E+00 0. -1.
</event>
<event>
 6    1  0.5317355E-006  0.1278611E+03  0.7561462E-02  0.1230664E+00
          2   -1    0    0  501    0  0.00000000000E+00  0.00000000000E+00  0.12060071588E+03  0.12060071588E+03  0.00000000000E+00 0. -1.
         -2   -1    0    0    0  501 -0.00000000000E+00 -0.00000000000E+00 -0.14075192653E+03  0.14075192653E+03  0.00000000000E+00 0.  1.
          5    1    1    2  502    0  0.89569281620E+00  0.51009346789E+02  0.15231478117E+02  0.53406236069E+02  0.41800000000E+01 0.  1.
         -5    1    1    2    0  502  0.70705203317E+02 -0.54780490266E+02 -0.14912707612E+02  0.90774385915E+02  0.41800000000E+01 0.  1.
        -11    1    1    2    0    0 -0.14483895933E+02 -0.40316874559E+02 -0.12220840832E+02  0.44548653922E+02  0.00000000000E+00 0. -1.
         11    1    1    2    0    0 -0.57117000200E+02  0.44088018036E+02 -0.82491403234E+01  0.72623366503E+02  0.00000000000E+00 0.  1.
</event>
<event>
 6    1  0.5317355E-006  0.1064546E+03  0.7561462E-02  0.1267280E+00
         -2   -1    0    0    0  501 -0.00000000000E+00  0.00000000000E+00  0.40355884963E+02  0.40355884963E+02  0.00000000000E+00 0.  1.
          2   -1    0    0  501    0  0.00000000000E+00 -0.00000000000E+00 -0.30736001997E+03  0.30736001997E+03  0.00000000000E+00 0. -1.
          5    1    1    2  502    0 -0.21505170176E+02 -0.52096879767E+02 -0.37240040948E+02  0.67681978957E+02  0.41800000000E+01 0. -1.
         -5    1    1    2    0  502  0.16654011855E+02  0.65296305611E+02 -0.75711414950E+02  0.10144286269E+03  0.41800000000E+01 0. -1.
        -11    1    1    2    0    0 -0.41514645614E+02 -0.69462626511E+01 -0.57071791052E+02  0.70914777720E+02  0.00000000000E+00 0.  1.
         11    1    1    2    0    0  0.46365803935E+02 -0.62531631930E+01 -0.96980888054E+02  0.10767628556E+03  0.00000000000E+00 0. -1.
</event>
<event>
 6    1  0.5317355E-006  0.8792897E+02  0.7561462E-02  0.1307946E+00
         -1   -1    0    0    0  501 -0.00000000000E+00  0.00000000000E+00  0.19298072789E+03  0.19298072789E+03  0.00000000000E+00 0.  1.
          1   -1    0    0  501    0  0.00000000000E+00 -0.00000000000E+00 -0.83961640805E+02  0.83961640805E+02  0.00000000000E+00 0. -1.
          5    1    1    2  502    0  0.72819793726E+02 -0.30559630567E+02  0.12133987231E+03  0.14483594302E+03  0.41800000000E+01 0.  1.
         -5    1    1    2    0  502 -0.23011631434E+02  0.41534591459E+01 -0.15570460864E+02  0.28402430453E+02  0.41800000000E+01 0.  1.
        -11    1    1    2    0    0 -0.29696112307E+02  0.39204754090E+02  0.37588623479E+02  0.61901344448E+02  0.00000000000E+00 0.  1.
         11    1    1    2    0    0 -0.20112049986E+02 -0.12798582669E+02 -0.34338947840E+02  0.41802650774E+02  0.00000000000E+00 0. -1.
</event>
<event>
 6    1  0.5317355E-006  0.1082437E+03  0.7561462E-02  0.1263857E+00
         -1   -1    0    0    0  501 -0.00000000000E+00  0.00000000000E+00  0.16679660388E+03  0.16679660388E+03  0.00000000000E+00 0.  1.
          1   -1    0    0  501    0  0.00000000000E+00 -0.00000000000E+00 -0.89958827997E+02  0.89958827997E+02  0.00000000000E+00 0. -1.
          5    1    1    2  502    0 -0.65176631242E+02  0.55946713097E+02  0.15488138483E+02  0.87380677499E+02  0.41800000000E+01 0.  1.
         -5    1    1    2    0  502  0.44777572615E+02 -0.17092555941E+01  0.43394707042E+02  0.62518201856E+02  0.41800000000E+01 0.  1.
        -11    1    1    2    0    0 -0.28010745400E+01 -0.61199292984E+02  0.40763526742E+02  0.73585763520E+02  0.00000000000E+00 0.  1.
         11    1    1    2    0    0  0.23200133167E+02  0.69618354808E+01 -0.22808596381E+02  0.33270789006E+02  0.00000000000E+00 0. -1.
</event>
<event>
 6    1  0.5317355E-006  0.1229753E+03  0.7561462E-02  0.1238268E+00
         -3   -1    0    0    0  501 -0.00000000000E+00  0.00000000000E+00  0.47433136380E+02  0.47433136380E+02  0.00000000000E+00 0.  1.
          3   -1    0    0  501    0  0.00000000000E+00 -0.00000000000E+00 -0.44686047675E+03  0.44686047675E+03  0.00000000000E+00 0. -1.
          5    1    1    2  502    0  0.38543843718E+02  0.63409784865E+02 -0.18240185291E+03  0.19696278088E+03  0.41800000000E+01 0. -1.
         -5    1    1    2    0  502  0.54193402897E+02 -0.36871849626E+02 -0.43845658236E+02  0.78970705699E+02  0.41800000000E+01 0. -1.
        -11    1    1    2    0    0 -0.62307871020E+02 -0.38509078747E+02 -0.44756537691E+02  0.85839196193E+02  0.00000000000E+00 0.  1.
         11    1    1    2    0    0 -0.30429375595E+02  0.11971143508E+02 -0.12842329153E+03  0.13252093036E+03  0.00000000000E+00 0. -1.
</event>
<event>
 6    1  0.5317355E-006  0.3793716E+03  0.7561462E-02  0.1051166E+00
         -2   -1    0    0    0  501 -0.00000000000E+00  0.00000000000E+00  0.15757406624E+03  0.15757406624E+03  0.00000000000E+00 0.  1.
          2   -1    0    0  501    0  0.00000000000E+00 -0.00000000000E+00 -0.12732407516E+04  0.12732407516E+04  0.00000000000E+00 0. -1.
          5    1    1    2  502    0 -0.49311558939E+02  0.45453899972E+02 -0.68589542324E+02  0.96019188623E+02  0.41800000000E+01 0.  1.
         -5    1    1    2    0  502 -0.31445395437E+03  0.12730175831E+02 -0.12657533360E+03  0.33923757792E+03  0.41800000000E+01 0.  1.
        -11    1    1    2    0    0  0.25711508946E+03 -0.77246780974E+02 -0.60249045515E+03  0.65959834972E+03  0.00000000000E+00 0.  1.
         11    1    1    2    0    0  0.10665042385E+03  0.19062705172E+02 -0.31801135432E+03  0.33595970162E+03  0.00000000000E+00 0. -1.
</event>
<event>
 6    1  0.5317355E-006  0.1023978E+03  0.7561462E-02  0.1275333E+00
          1   -1    0    0  501    0  0.00000000000E+00  0.00000000000E+00  0.13225981696E+03  0.13225981696E+03  0.00000000000E+00 0. -1.
         -1   -1    0    0    0  501 -0.00000000000E+00 -0.00000000000E+00 -0.11075595029E+03  0.11075595029E+03  0.00000000000E+00 0.  1.
          5    1    1    2  502    0  0.26774444215E+02 -0.17295149726E+02 -0.39473560530E+02  0.50908029308E+02  0.41800000000E+01 0. -1.
         -5    1    1    2    0  502 -0.72233230791E+02 -0.11874138590E+02  0.43818871867E+02  0.85417801010E+02  0.41800000000E+01 0. -1.
        -11    1    1    2    0    0 -0.20424609200E+02  0.26407923740E+02 -0.10768753934E+02  0.35078613977E+02  0.00000000000E+00 0.  1.
         11    1    1    2    0    0  0.65883395776E+02  0.27613645769E+01  0.27927309264E+02  0.71611322960E+02  0.00000000000E+00 0. -1.
</event>
<event>
 6    1  0.5317355E-006  0.1420069E+03  0.7561462E-02  0.1210654E+00
          1   -1    0    0  501    0  0.00000000000E+00  0.00000000000E+00  0.76605698715E+02  0.76605698715E+02  0.00000000000E+00 0. -1.
         -1   -1    0    0    0  501 -0.00000000000E+00 -0.00000000000E+00 -0.34629341915E+03  0.34629341915E+03  0.00000000000E+00 0.  1.
          5    1    1    2  502    0  0.95654234262E+02  0.57791481224E+02 -0.16786770114E+03  0.20170925938E+03  0.41800000000E+01 0. -1.
         -5    1    1    2    0  502 -0.23403523593E+02  0.36170417933E+02 -0.70826785901E+01  0.43859557522E+02  0.41800000000E+01 0. -1.
        -11    1    1    2    0    0 -0.19806914841E+02 -0.67119322352E+02 -0.52324184959E+01  0.70176174817E+02  0.00000000000E+00 0. -1.
         11    1    1    2    0    0 -0.52443795828E+02 -0.26842576804E+02 -0.89504922212E+02  0.10715412615E+03  0.00000000000E+00 0.  1.
</event>
<event>
 6    1  0.5317355E-006  0.1462109E+03  0.7561462E-02  0.1205208E+00
          1   -1    0    0  501    0  0.00000000000E+00  0.00000000000E+00  0.42668045138E+03  0.42668045138E+03  0.00000000000E+00 0. -1.
         -1   -1    0    0    0  501 -0.00000000000E+00 -0.00000000000E+00 -0.56042611896E+02  0.56042611896E+02  0.00000000000E+00 0.  1.
          5    1    1    2  502    0 -0.11341658441E+03  0.67731578727E+02  0.11358512528E+03  0.17426973765E+03  0.41800000000E+01 0. -1.
         -5    1    1    2    0  502  0.16688164535E+02 -0.25061767471E+02  0.40146434944E+02  0.50356684393E+02  0.41800000000E+01 0. -1.
        -11    1    1    2    0    0  0.34947671854E+02 -0.56603518663E+02  0.15870359009E+03  0.17208174685E+03  0.00000000000E+00 0.  1.
         11    1    1    2    0    0  0.61780748021E+02  0.13933707407E+02  0.58202689174E+02  0.86014894380E+02  0.00000000000E+00 0. -1.
</event>
<event>
 6    1  0.5317355E-006  0.9316254E+02  0.7561462E-02  0.1295369E+00
         -4   -1    0    0    0  501 -0.00000000000E+00  0.00000000000E+00  0.22414678575E+02  0.22414678575E+02  0.00000000000E+00 0. -1.
          4   -1    0    0  501    0  0.00000000000E+00 -0.00000000000E+00 -0.61956125766E+03  0.61956125766E+03  0.00000000000E+00 0.  1.
          5    1    1    2  502    0  0.39522980825E+02  0.15901046334E+01 -0.20988592456E+02  0.44973190451E+02  0.41800000000E+01 0. -1.
         -5    1    1    2    0  502 -0.50796739592E+02  0.51689993014E+01 -0.23162443031E+03  0.23722220896E+03  0.41800000000E+01 0. -1.
        -11    1    1    2    0    0  0.49402392695E+01 -0.50692385352E+02 -0.25270676812E+03  0.25778835224E+03  0.00000000000E+00 0.  1.
         11    1    1    2    0    0  0.63335194973E+01  0.43933281417E+02 -0.91826788199E+02  0.10199218458E+03  0.00000000000E+00 0. -1.
</event>
<event>
 6    1  0.5317355E-006  0.8962622E+02  0.7561462E-02  0.1303759E+00
          4   -1    0    0  501    0  0.00000000000E+00  0.00000000000E+00  0.33018897506E+02  0.33018897506E+02  0.00000000000E+00 0. -1.
         -4   -1    0    0    0  501 -0.00000000000E+00 -0.00000000000E+00 -0.43705317909E+03  0.43705317909E+03  0.00000000000E+00 0.  1.
          5    1    1    2  502    0 -0.38536245553E+02 -0.29044197584E+02 -0.29284840685E+02  0.56601077097E+02  0.41800000000E+01 0.  1.
         -5    1    1    2    0  502  0.48198469067E+02 -0.23639678506E+02 -0.23001868523E+03  0.23623715790E+03  0.41800000000E+01 0.  1.
        -11    1    1    2    0    0 -0.97945387238E+01 -0.10167931446E+02  0.48955375414E+01  0.14942761007E+02  0.00000000000E+00 0. -1.
         11    1    1    2    0    0  0.13231521002E+00  0.62851807536E+02 -0.14962629322E+03  0.16229108059E+03  0.00000000000E+00 0.  1.
</event>
<event>
 6    1  0.5317355E-006  0.1249953E+03  0.7561462E-02  0.1235077E+00
         -2   -1    0    0    0  501 -0.00000000000E+00  0.00000000000E+00  0.24627075848E+03  0.24627075848E+03  0.00000000000E+00 0.  1.
          2   -1    0    0  501    0  0.00000000000E+00 -0.00000000000E+00 -0.93749982262E+02  0.93749982262E+02  0.00000000000E+00 0. -1.
          5    1    1    2  502    0 -0.93065563553E+01  0.67631631272E+02 -0.18974139376E+02  0.70979855627E+02  0.41800000000E+01 0. -1.
         -5    1    1    2    0  502  0.27017414606E+02  0.37033738518E+02  0.10417391856E+03  0.11389080818E+03  0.41800000000E+01 0. -1.
        -11    1    1    2    0    0 -0.49223783784E+02 -0.85562637619E+02  0.65073717304E+02  0.11823085270E+03  0.00000000000E+00 0.  1.
         11    1    1    2    0    0  0.31512925534E+02 -0.19102732172E+02  0.22472797341E+01  0.36919224238E+02  0.00000000000E+00 0. -1.
</event>
<event>
 6    1  0.5317355E-006  0.6896499E+02  0.7561462E-02  0.1363648E+00
         -2   -1    0    0    0  501 -0.00000000000E+00  0.00000000000E+00  0.15291863321E+03  0.15291863321E+03  0.00000000000E+00 0.  1.
          2   -1    0    0  501    0  0.00000000000E+00 -0.00000000000E+00 -0.98651334521E+02  0.98651334521E+02  0.00000000000E+00 0. -1.
          5    1    1    2  502    0 -0.13850421698E+02 -0.28993599199E+02  0.11685252142E+03  0.12126189483E+03  0.41800000000E+01 0. -1.
         -5    1    1    2    0  502 -0.77004573405E+01  0.12685095327E+02 -0.29777963292E+02  0.33532196237E+02  0.41800000000E+01 0. -1.
        -11    1    1    2    0    0  0.22446011248E+02  0.50836208557E+02 -0.13424310206E+02  0.57169534071E+02  0.00000000000E+00 0.  1.
         11    1    1    2    0    0 -0.89513220900E+00 -0.34527704685E+02 -0.19382949233E+02  0.39606342591E+02  0.00000000000E+00 0. -1.
</event>
<event>
 6    1  0.5317355E-006  0.1294555E+03  0.7561462E-02  0.1228266E+00
         -1   -1    0    0    0  501 -0.00000000000E+00  0.00000000000E+00  0.68278191833E+03  0.68278191833E+03  0.00000000000E+00 0.  1.
          1   -1    0    0  501    0  0.00000000000E+00 -0.00000000000E+00 -0.16153796631E+03  0.16153796631E+03  0.00000000000E+00 0. -1.
          5    1    1    2  502    0 -0.93875993637E+02 -0.51962940558E+02  0.65522584503E+01  0.10757905867E+03  0.41800000000E+01 0. -1.
         -5    1    1    2    0  502  0.46848570957E+02 -0.29050470277E+02  0.58832448969E+03  0.59091614972E+03  0.41800000000E+01 0.  1.
        -11    1    1    2    0    0  0.40817338826E+02  0.49639253173E+02 -0.89451305791E+02  0.11014375476E+03  0.00000000000E+00 0. -1.
         11    1    1    2    0    0  0.62100838537E+01  0.31374157662E+02  0.15818509668E+02  0.35680921494E+02  0.00000000000E+00 0.  1.
</event>
<event>
 6    1  0.5317355E-006  0.1314974E+03  0.7561462E-02  0.1225251E+00
          1   -1    0    0  501    0  0.00000000000E+00  0.00000000000E+00  0.28563416147E+03  0.28563416147E+03  0.00000000000E+00 0. -1.
         -1   -1    0    0    0  501 -0.00000000000E+00 -0.00000000000E+00 -0.72624584744E+02  0.72624584744E+02  0.00000000000E+00 0.  1.
          5    1    1    2  502    0 -0.86171170759E+02  0.40500346012E+01  0.21241397021E+02  0.88941232270E+02  0.41800000000E+01 0. -1.
         -5    1    1    2    0  502  0.33245658019E+02  0.48523408275E+02  0.22660125030E+02  0.63172372079E+02  0.41800000000E+01 0. -1.
        -11    1    1    2    0    0  0.19901889952E+02 -0.75094549404E+02  0.10542789049E+03  0.13095921758E+03  0.00000000000E+00 0.  1.
         11    1    1    2    0    0  0.33023622787E+02  0.22521106528E+02  0.63680164180E+02  0.75185924290E+02  0.00000000000E+00 0. -1.
</event>
<event>
 6    1  0.5317355E-006  0.1413351E+03  0.7561462E-02  0.1211544E+00
          2   -1    0    0  501    0  0.00000000000E+00  0.00000000000E+00  0.42895999495E+02  0.42895999495E+02  0.00000000000E+00 0.  1.
         -2   -1    0    0    0  501 -0.00000000000E+00 -0.00000000000E+00 -0.61792466536E+03  0.61792466536E+03  0.00000000000E+00 0. -1.
          5    1    1    2  502    0 -0.48489998636E+01  0.36691283127E+02 -0.15330497049E+02  0.40277283883E+02  0.41800000000E+01 0.  1.
         -5    1    1    2    0  502 -0.93107486944E+02  0.28157806488E+02 -0.35102101289E+03  0.36427337273E+03  0.41800000000E+01 0.  1.
        -11    1    1    2    0    0  0.10637525465E+03 -0.27632351174E+02 -0.14360967266E+03  0.18083965195E+03  0.00000000000E+00 0.  1.
         11    1    1    2    0    0 -0.84187678465E+01 -0.37216738440E+02 -0.65067483260E+02  0.75430356290E+02  0.00000000000E+00 0. -1.
</event>
<event>
 6    1  0.5317355E-006  0.1547201E+03  0.7561462E-02  0.1194790E+00
         -1   -1    0    0    0  501 -0.00000000000E+00  0.00000000000E+00  0.64601811314E+02  0.64601811314E+02  0.00000000000E+00 0.  1.
          1   -1    0    0  501    0  0.00000000000E+00 -0.00000000000E+00 -0.56156239796E+03  0.56156239796E+03  0.00000000000E+00 0. -1.
          5    1    1    2  502    0  0.31331213945E+02  0.24794711910E+02  0.25951033546E+01  0.40257044941E+02  0.41800000000E+01 0. -1.
         -5    1    1    2    0  502  0.32604563635E+02 -0.13320104651E+03 -0.14910952057E+03  0.20262452439E+03  0.41800000000E+01 0.  1.
        -11    1    1    2    0    0 -0.45044570532E+02  0.37259011074E+02 -0.60460053535E+02  0.84099139795E+02  0.00000000000E+00 0.  1.
         11    1    1    2    0    0 -0.18891207047E+02  0.71147323523E+02 -0.28998611590E+03  0.29918350015E+03  0.00000000000E+00 0. -1.
</event>
<event>
 6    1  0.5317355E-006  0.1421640E+03  0.7561462E-02  0.1210446E+00
          3   -1    0    0  501    0  0.00000000000E+00  0.00000000000E+00  0.69652618849E+02  0.69652618849E+02  0.00000000000E+00 0. -1.
         -3   -1    0    0    0  501 -0.00000000000E+00 -0.00000000000E+00 -0.30936042740E+03  0.30936042740E+03  0.00000000000E+00 0.  1.
          5    1    1    2  502    0  0.28985354506E+01 -0.30363476652E+02 -0.28070706370E+02  0.41662683282E+02  0.41800000000E+01 0.  1.
         -5    1    1    2    0  502 -0.32235508528E+02  0.12379739963E+03 -0.10296436830E+03  0.16426824923E+03  0.41800000000E+01 0.  1.
        -11    1    1    2    0    0 -0.26794202847E+02 -0.39305854655E+02 -0.12339637445E+02  0.49144136666E+02  0.00000000000E+00 0.  1.
         11    1    1    2    0    0  0.56131175924E+02 -0.54128068327E+02 -0.96333096443E+02  0.12393797708E+03  0.00000000000E+00 0. -1.
</event>
<event>
 6    1  0.5317355E-006  0.1241685E+03  0.7561462E-02  0.1236375E+00
          2   -1    0    0  501    0  0.00000000000E+00  0.00000000000E+00  0.58520725754E+03  0.58520725754E+03  0.00000000000E+00 0. -1.
         -2   -1    0    0    0  501 -0.00000000000E+00 -0.00000000000E+00 -0.42962801710E+02  0.42962801710E+02  0.00000000000E+00 0.  1.
          5    1    1    2  502    0  0.51493296301E+02 -0.22236829384E+02  0.22404466559E+03  0.23099679808E+03  0.41800000000E+01 0. -1.
         -5    1    1    2    0  502  0.15040521533E+02 -0.69592238640E+02  0.38213477734E+02  0.80913776624E+02  0.41800000000E+01 0. -1.
        -11    1    1    2    0    0 -0.29514570999E+02  0.74025374544E+02  0.25724596910E+03  0.26930717517E+03  0.00000000000E+00 0. -1.
         11    1    1    2    0    0 -0.37019246835E+02  0.17803693480E+02  0.22740343405E+02  0.46952309378E+02  0.00000000000E+00 0.  1.
</event>
<event>
 6    1  0.5317355E-006  0.1060691E+03  0.7561462E-02  0.1268027E+00
          1   -1    0    0  501    0  0.00000000000E+00  0.00000000000E+00  0.13265964943E+03  0.13265964943E+03  0.00000000000E+00 0. -1.
         -1   -1    0    0    0  501 -0.00000000000E+00 -0.00000000000E+00 -0.10181272552E+03  0.10181272552E+03  0.00000000000E+00 0.  1.
          5    1    1    2  502    0 -0.74544027371E+02 -0.17022457723E+02  0.45980915997E+02  0.89321291524E+02  0.41800000000E+01 0. -1.
         -5    1    1    2    0  502  0.32660251246E+02  0.13108392862E+02 -0.26269683572E+02  0.44114517449E+02  0.41800000000E+01 0. -1.
        -11    1    1    2    0    0  0.13453798685E+02  0.46784442732E+02  0.93156710380E+01  0.49563802393E+02  0.00000000000E+00 0.  1.
         11    1    1    2    0    0  0.28429977441E+02 -0.42870377870E+02  0.18200204445E+01  0.51472763579E+02  0.00000000000E+00 0. -1.
</event>
<event>
 6    1  0.5317355E-006  0.1132726E+03  0.7561462E-02  0.1254627E+00
          1   -1    0    0  501    0  0.00000000000E+00  0.00000000000E+00  0.87923125238E+02  0.87923125238E+02  0.00000000000E+00 0. -1.
         -1   -1    0    0    0  501 -0.00000000000E+00 -0.00000000000E+00 -0.16411813032E+03  0.16411813032E+03  0.00000000000E+00 0.  1.
          5    1    1    2  502    0 -0.35679093704E+02 -0.65532256886E+02 -0.29234690074E+02  0.80247205084E+02  0.41800000000E+01 0.  1.
         -5    1    1    2    0  502  0.55994783202E+02  0.18170536787E+02 -0.45562285036E+01  0.59193038198E+02  0.41800000000E+01 0.  1.
        -11    1    1    2    0    0  0.13841009876E+02  0.55899659046E+02 -0.13271268647E+00  0.57587872408E+02  0.00000000000E+00 0. -1.
         11    1    1    2    0    0 -0.34156699374E+02 -0.85379389468E+01 -0.42271373817E+02  0.55013139866E+02  0.00000000000E+00 0.  1.
</event>
<event>
 6    1  0.5317355E-006  0.1996494E+03  0.7561462E-02  0.1150035E+00
         -1   -1    0    0    0  501 -0.00000000000E+00  0.00000000000E+00  0.78398643345E+03  0.78398643345E+03  0.00000000000E+00 0.  1.
          1   -1    0    0  501    0  0.00000000000E+00 -0.00000000000E+00 -0.64739350567E+02  0.64739350567E+02  0.00000000000E+00 0. -1.
          5    1    1    2  502    0  0.51784297379E+02  0.61311226648E+02  0.69652271031E+02  0.10634656190E+03  0.41800000000E+01 0. -1.
         -5    1    1    2    0  502  0.11309803645E+03  0.37596622152E+02  0.38222598979E+03  0.40039836602E+03  0.41800000000E+01 0. -1.
        -11    1    1    2    0    0 -0.96300364722E+02 -0.26352633056E+02  0.19365828624E+03  0.21788013527E+03  0.00000000000E+00 0.  1.
         11    1    1    2    0    0 -0.68581969106E+02 -0.72555215744E+02  0.73710535826E+02  0.12410072083E+03  0.00000000000E+00 0. -1.
</event>
<event>
 6    1  0.5317355E-006  0.1029269E+03  0.7561462E-02  0.1274259E+00
         -1   -1    0    0    0  501 -0.00000000000E+00  0.00000000000E+00  0.97713979280E+02  0.97713979280E+02  0.00000000000E+00 0.  1.
          1   -1    0    0  501    0  0.00000000000E+00 -0.00000000000E+00 -0.18854489612E+03  0.18854489612E+03  0.00000000000E+00 0. -1.
          5    1    1    2  502    0  0.39712925756E+02  0.46620865123E+02 -0.25160853563E+02  0.66341257818E+02  0.41800000000E+01 0.  1.
         -5    1    1    2    0  502 -0.56341800891E+02  0.23572895446E+01  0.41235317732E+02  0.69984135131E+02  0.41800000000E+01 0.  1.
        -11    1    1    2    0    0  0.39379680153E+02 -0.51722436819E+02 -0.33696231617E+02  0.73221620473E+02  0.00000000000E+00 0.  1.
         11    1    1    2    0    0 -0.22750805018E+02  0.27442821517E+01 -0.73209149388E+02  0.76711861974E+02  0.00000000000E+00 0. -1.
</event>
<event>
 6    1  0.5317355E-006  0.1145029E+03  0.7561462E-02  0.1252451E+00
         -4   -1    0    0    0  501 -0.00000000000E+00  0.00000000000E+00  0.91201997114E+02  0.91201997114E+02  0.00000000000E+00 0.  1.
          4   -1    0    0  501    0  0.00000000000E+00 -0.00000000000E+00 -0.19520160637E+03  0.19520160637E+03  0.00000000000E+00 0. -1.
          5    1    1    2  502    0 -0.50308849509E+01  0.52773288616E+02  0.12338910418E+02  0.54589842508E+02  0.41800000000E+01 0.  1.
         -5    1    1    2    0  502 -0.32117353824E+02 -0.70682185881E+02  0.54883477363E+00  0.77751330774E+02  0.41800000000E+01 0.  1.
        -11    1    1    2    0    0 -0.21038142532E+02  0.31920366475E+02 -0.62092989878E+02  0.72918122776E+02  0.00000000000E+00 0. -1.
         11    1    1    2    0    0  0.58186381307E+02 -0.14011469210E+02 -0.54794364567E+02  0.81144307424E+02  0.00000000000E+00 0.  1.
</event>
<event>
 6    1  0.5317355E-006  0.1030760E+03  0.7561462E-02  0.1273957E+00
          1   -1    0    0  501    0  0.00000000000E+00  0.00000000000E+00  0.48133612935E+02  0.48133612935E+02  0.00000000000E+00 0. -1.
         -1   -1    0    0    0  501 -0.00000000000E+00 -0.00000000000E+00 -0.31104557384E+03  0.31104557384E+03  0.00000000000E+00 0.  1.
          5    1    1    2  502    0 -0.82700072336E+02 -0.23143162223E+02 -0.98524122732E+02  0.13076460944E+03  0.41800000000E+01 0.  1.
         -5    1    1    2    0  502  0.39130175317E+02  0.15196955445E+02 -0.94344765186E+02  0.10334662642E+03  0.41800000000E+01 0.  1.
        -11    1    1    2    0    0  0.14429986054E+02 -0.28128701423E+02 -0.72018715687E+02  0.78652042252E+02  0.00000000000E+00 0.  1.
         11    1    1    2    0    0  0.29139910965E+02  0.36074908200E+02  0.19756426974E+01  0.46415908661E+02  0.00000000000E+00 0. -1.
</event>
<event>
 6    1  0.5317355E-006  0.1161676E+03  0.7561462E-02  0.1249557E+00
          2   -1    0    0  501    0  0.00000000000E+00  0.00000000000E+00  0.95685179591E+03  0.95685179591E+03  0.00000000000E+00 0. -1.
         -2   -1    0    0    0  501 -0.00000000000E+00 -0.00000000000E+00 -0.17616264018E+02  0.17616264018E+02  0.00000000000E+00 0.  1.
          5    1    1    2  502    0 -0.90453712342E+02  0.21623589295E+02  0.20127472181E+03  0.22176212420E+03  0.41800000000E+01 0. -1.
         -5    1    1    2    0  502  0.20537648623E+02 -0.15013061694E+02  0.26074180677E+03  0.26201326155E+03  0.41800000000E+01 0. -1.
        -11    1    1    2    0    0  0.77323113704E+02 -0.34449751096E+02  0.33019579368E+03  0.34087374705E+03  0.00000000000E+00 0.  1.
         11    1    1    2    0    0 -0.74070499847E+01  0.27839223495E+02  0.14702320963E+03  0.14981892712E+03  0.00000000000E+00 0. -1.
</event>
<event>
 6    1  0.5317355E-006  0.1247059E+03  0.7561462E-02  0.1235530E+00
          2   -1    0    0  501    0  0.00000000000E+00  0.00000000000E+00  0.41037920821E+02  0.41037920821E+02  0.00000000000E+00 0. -1.
         -2   -1    0    0    0  501 -0.00000000000E+00 -0.00000000000E+00 -0.39932675462E+03  0.39932675462E+03  0.00000000000E+00 0.  1.
          5    1    1    2  502    0 -0.24008660442E+02 -0.75366157208E+02 -0.89760840952E+02  0.11971196430E+03  0.41800000000E+01 0. -1.
         -5    1    1    2    0  502 -0.38778364105E+02  0.46371646498E+02 -0.11518489609E+03  0.13015038920E+03  0.41800000000E+01 0. -1.
        -11    1    1    2    0    0  0.42431180725E+02 -0.26821811310E+02 -0.47416850274E+02  0.69051953988E+02  0.00000000000E+00 0. -1.
         11    1    1    2    0    0  0.20355843822E+02  0.55816322021E+02 -0.10592624648E+03  0.12145036795E+03  0.00000000000E+00 0.  1.
</event>
<event>
 6    1  0.5317355E-006  0.6761341E+02  0.7561462E-02  0.1368402E+00
          3   -1    0    0  501    0  0.00000000000E+00  0.00000000000E+00  0.84089578467E+02  0.84089578467E+02  0.00000000000E+00 0. -1.
         -3   -1    0    0    0  501 -0.00000000000E+00 -0.00000000000E+00 -0.28486023887E+03  0.28486023887E+03  0.00000000000E+00 0.  1.
          5    1    1    2  502    0  0.49283812434E+01  0.44452990865E+00 -0.22028209795E+03  0.22037731650E+03  0.41800000000E+01 0.  1.
         -5    1    1    2    0  502 -0.75914392368E+01  0.42261685941E+02 -0.86688900394E+01  0.44003432852E+02  0.41800000000E+01 0.  1.
        -11    1    1    2    0    0 -0.23251653719E+01 -0.63845749689E+02 -0.58956041419E+01  0.64159522251E+02  0.00000000000E+00 0.  1.
         11    1    1    2    0    0  0.49882233654E+01  0.21139533839E+02  0.34075931731E+02  0.40409545736E+02  0.00000000000E+00 0. -1.
</event>
<event>
 6    1  0.5317355E-006  0.1069811E+03  0.7561462E-02  0.1266265E+00
          1   -1    0    0  501    0  0.00000000000E+00  0.00000000000E+00  0.44439774148E+03  0.44439774148E+03  0.00000000000E+00 0. -1.
         -1   -1    0    0    0  501 -0.00000000000E+00 -0.00000000000E+00 -0.55810518058E+02  0.55810518058E+02  0.00000000000E+00 0.  1.
          5    1    1    2  502    0  0.10863212154E+02  0.17552052514E+02  0.89731824846E+02  0.92170259390E+02  0.41800000000E+01 0.  1.
         -5    1    1    2    0  502  0.19827244268E+02 -0.53343802889E+02 -0.17626977542E+02  0.59723225459E+02  0.41800000000E+01 0.  1.
        -11    1    1    2    0    0  0.49037322448E+02  0.26023488502E+02  0.19445058740E+03  0.20221995917E+03  0.00000000000E+00 0.  1.
         11    1    1    2    0    0 -0.79727778871E+02  0.97682618725E+01  0.12203178872E+03  0.14609481552E+03  0.00000000000E+00 0. -1.
</event>
<event>
 6    1  0.5317355E-006  0.1287328E+03  0.7561462E-02  0.1229348E+00
          4   -1    0    0  501    0  0.00000000000E+00  0.00000000000E+00  0.57213345453E+03  0.57213345453E+03  0.00000000000E+00 0. -1.
         -4   -1    0    0    0  501 -0.00000000000E+00 -0.00000000000E+00 -0.38288591888E+02  0.38288591888E+02  0.00000000000E+00 0.  1.
          5    1    1    2  502    0  0.77415770189E+02  0.73703724630E+02  0.12168020200E+03  0.16201538340E+03  0.41800000000E+01 0. -1.
         -5    1    1    2    0  502 -0.24146750352E+02 -0.25433104532E+02  0.22044751482E+02  0.41633542086E+02  0.41800000000E+01 0. -1.
        -11    1    1    2    0    0 -0.71453729506E+02 -0.91526200134E+01  0.24795019768E+03  0.25820283973E+03  0.00000000000E+00 0.  1.
         11    1    1    2    0    0  0.18184709669E+02 -0.39118000084E+02  0.14216971148E+03  0.14857028121E+03  0.00000000000E+00 0. -1.
</event>
<event>
 6    1  0.5317355E-006  0.1255097E+03  0.7561462E-02  0.1234275E+00
          3   -1    0    0  501    0  0.00000000000E+00  0.00000000000E+00  0.23021355740E+03  0.23021355740E+03  0.00000000000E+00 0. -1.
         -3   -1    0    0    0  501 -0.00000000000E+00 -0.00000000000E+00 -0.99637894212E+02  0.99637894212E+02  0.00000000000E+00 0.  1.
          5    1    1    2  502    0  0.62285829817E+02  0.20744091739E+01  0.84621179090E+01  0.63031005140E+02  0.41800000000E+01 0. -1.
         -5    1    1    2    0  502 -0.53917272258E+02  0.74188593244E+02 -0.64907068388E+01  0.92035978240E+02  0.41800000000E+01 0.  1.
        -11    1    1    2    0    0  0.25486659785E+02 -0.36686470093E+02  0.11125713906E+03  0.11989002422E+03  0.00000000000E+00 0. -1.
         11    1    1    2    0    0 -0.33855217344E+02 -0.39576532325E+02  0.17347113059E+02  0.54894444016E+02  0.00000000000E+00 0.  1.
</event>
<event>
 6    1  0.5317355E-006  0.1017956E+03  0.7561462E-02  0.1276565E+00
         -2   -1    0    0    0  501 -0.00000000000E+00  0.00000000000E+00  0.25402900558E+02  0.25402900558E+02  0.00000000000E+00 0.  1.
          2   -1    0    0  501    0  0.00000000000E+00 -0.00000000000E+00 -0.56321702761E+03  0.56321702761E+03  0.00000000000E+00 0. -1.
          5    1    1    2  502    0  0.32830826089E+02 -0.85935522108E+01 -0.18069665661E+02  0.38674248518E+02  0.41800000000E+01 0. -1.
         -5    1    1    2    0  502 -0.31747853087E+02  0.60251414625E+02 -0.28823713496E+03  0.29620310179E+03  0.41800000000E+01 0. -1.
        -11    1    1    2    0    0  0.25152285290E+02 -0.66447606525E+02 -0.13372769879E+03  0.15142991544E+03  0.00000000000E+00 0.  1.
         11    1    1    2    0    0 -0.26235258293E+02  0.14789744111E+02 -0.97779627646E+02  0.10231266242E+03  0.00000000000E+00 0. -1.
</event>
<event>
 6    1  0.5317355E-006  0.9050692E+02  0.7561462E-02  0.1301629E+00
         -4   -1    0    0    0  501 -0.00000000000E+00  0.00000000000E+00  0.50640038259E+02  0.50640038259E+02  0.00000000000E+00 0.  1.
          4   -1    0    0  501    0  0.00000000000E+00 -0.00000000000E+00 -0.27165412137E+03  0.27165412137E+03  0.00000000000E+00 0. -1.
          5    1    1    2  502    0 -0.39861520815E+02 -0.26336921236E+02 -0.62094202730E+02  0.78458502882E+02  0.41800000000E+01 0. -1.
         -5    1    1    2    0  502  0.64217132595E+01  0.70177826928E+02 -0.29229566072E+02  0.76406843452E+02  0.41800000000E+01 0.  1.
        -11    1    1    2    0    0  0.30931549878E+02 -0.16600788985E+02 -0.13506323972E+03  0.13955079970E+03  0.00000000000E+00 0.  1.
         11    1    1    2    0    0  0.25082576773E+01 -0.27240116707E+02  0.53729254075E+01  0.27878013599E+02  0.00000000000E+00 0. -1.
</event>
<event>
 6    1  0.5317355E-006  0.6365970E+02  0.7561462E-02  0.1383085E+00
         -1   -1    0    0    0  501 -0.00000000000E+00  0.00000000000E+00  0.52967210215E+02  0.52967210215E+02  0.00000000000E+00 0.  1.
          1   -1    0    0  501    0  0.00000000000E+00 -0.00000000000E+00 -0.26846047830E+03  0.26846047830E+03  0.00000000000E+00 0. -1.
          5    1    1    2  502    0  0.22127534219E+02 -0.26878462263E+01  0.18309514260E+02  0.29147264029E+02  0.41800000000E+01 0. -1.
         -5    1    1    2    0  502  0.93677434777E+01 -0.34518151140E+02 -0.16851655411E+03  0.17232109211E+03  0.41800000000E+01 0. -1.
        -11    1    1    2    0    0 -0.12294318816E+02 -0.11152832382E+02 -0.65865374939E+02  0.67924837587E+02  0.00000000000E+00 0. -1.
         11    1    1    2    0    0 -0.19200958880E+02  0.48358829748E+02  0.57914671121E+00  0.52034494784E+02  0.00000000000E+00 0.  1.
</event>
<event>
 6    1  0.5317355E-006  0.1099595E+03  0.7561462E-02  0.1260645E+00
         -1   -1    0    0    0  501 -0.00000000000E+00  0.00000000000E+00  0.25929784094E+02  0.25929784094E+02  0.00000000000E+00 0.  1.
          1   -1    0    0  501    0  0.00000000000E+00 -0.00000000000E+00 -0.50369827500E+03  0.50369827500E+03  0.00000000000E+00 0. -1.
          5    1    1    2  502    0 -0.23980245131E+02 -0.44279463493E+02 -0.72946528700E+02  0.88737768133E+02  0.41800000000E+01 0. -1.
         -5    1    1    2    0  502  0.40435409282E+02  0.61461797769E+02 -0.17846229429E+03  0.19307728450E+03  0.41800000000E+01 0. -1.
        -11    1    1    2    0    0  0.20993369364E+02  0.29278318123E+02 -0.12602919791E+03  0.13107745876E+03  0.00000000000E+00 0. -1.
         11    1    1    2    0    0 -0.37448533515E+02 -0.46460652398E+02 -0.10033047000E+03  0.11673554769E+03  0.00000000000E+00 0.  1.
</event>
<event>
 6    1  0.5317355E-006  0.1560293E+03  0.7561462E-02  0.1193254E+00
         -1   -1    0    0    0  501 -0.00000000000E+00  0.00000000000E+00  0.52361919617E+02  0.52361919617E+02  0.00000000000E+00 0.  1.
          1   -1    0    0  501    0  0.00000000000E+00 -0.00000000000E+00 -0.53208459809E+03  0.53208459809E+03  0.00000000000E+00 0. -1.
          5    1    1    2  502    0  0.15902012490E+02 -0.35208223092E+02 -0.65831354580E+02  0.76444310582E+02  0.41800000000E+01 0.  1.
         -5    1    1    2    0  502  0.82504238401E+02  0.97334779947E+02 -0.10691214975E+03  0.16651933493E+03  0.41800000000E+01 0.  1.
        -11    1    1    2    0    0 -0.58902503634E+02 -0.82277511554E+02 -0.17375651152E+03  0.20107316861E+03  0.00000000000E+00 0.  1.
         11    1    1    2    0    0 -0.39503747256E+02  0.20150954698E+02 -0.13322266262E+03  0.14040970358E+03  0.00000000000E+00 0. -1.
</event>
<event>
 6    1  0.5317355E-006  0.1192741E+03  0.7561462E-02  0.1244299E+00
         -3   -1    0    0    0  501 -0.00000000000E+00  0.00000000000E+00  0.63292226330E+02  0.63292226330E+02  0.00000000000E+00 0.  1.
          3   -1    0    0  501    0  0.00000000000E+00 -0.00000000000E+00 -0.28120784673E+03  0.28120784673E+03  0.00000000000E+00 0. -1.
          5    1    1    2  502    0 -0.23356900283E+02  0.90037421972E+02 -0.64920642263E+02  0.11350966628E+03  0.41800000000E+01 0.  1.
         -5    1    1    2    0  502  0.20686733867E+02 -0.29503500004E+02  0.72147973284E+01  0.36985445395E+02  0.41800000000E+01 0.  1.
        -11    1    1    2    0    0 -0.31201777324E+02 -0.67696343607E+02 -0.11535663774E+03  0.13734445645E+03  0.00000000000E+00 0. -1.
         11    1    1    2    0    0  0.33871943740E+02  0.71624216388E+01 -0.44853137722E+02  0.56660504939E+02  0.00000000000E+00 0.  1.
</event>
<event>
 6    1  0.5317355E-006  0.1279030E+03  0.7561462E-02  0.1230601E+00
         -2   -1    0    0    0  501 -0.00000000000E+00  0.00000000000E+00  0.22854916582E+02  0.22854916582E+02  0.00000000000E+00 0.  1.
          2   -1    0    0  501    0  0.00000000000E+00 -0.00000000000E+00 -0.95454405934E+03  0.95454405934E+03  0.00000000000E+00 0. -1.
          5    1    1    2  502    0 -0.66601652254E+02  0.56264960248E+02 -0.43079966333E+03  0.43955357826E+03  0.41800000000E+01 0.  1.
         -5    1    1    2    0  502  0.42835428462E+02  0.40511189644E+02 -0.11651131586E+03  0.13064604679E+03  0.41800000000E+01 0.  1.
        -11    1    1    2    0    0  0.34222331230E+02 -0.44691256667E+02 -0.77658281848E+02  0.95912903808E+02  0.00000000000E+00 0.  1.
         11    1    1    2    0    0 -0.10456107438E+02 -0.52084893224E+02 -0.30671988172E+03  0.31128644707E+03  0.00000000000E+00 0. -1.
</event>
<event>
 6    1  0.5317355E-006  0.8990787E+02  0.7561462E-02  0.1303075E+00
         -1   -1    0    0    0  501 -0.00000000000E+00  0.00000000000E+00  0.31860016067E+02  0.31860016067E+02  0.00000000000E+00 0.  1.
          1   -1    0    0  501    0  0.00000000000E+00 -0.00000000000E+00 -0.42547543607E+03  0.42547543607E+03  0.00000000000E+00 0. -1.
          5    1    1    2  502    0 -0.55527127483E+02  0.20574998551E+00 -0.13419542168E+03  0.14529001280E+03  0.41800000000E+01 0.  1.
         -5    1    1    2    0  502  0.43246571945E+02  0.11072731293E+02 -0.92702155763E+01  0.45785157640E+02  0.41800000000E+01 0.  1.
        -11    1    1    2    0    0 -0.17640110617E+02 -0.36255169500E+02 -0.60888825657E+02  0.73027802295E+02  0.00000000000E+00 0.  1.
         11    1    1    2    0    0  0.29920666156E+02  0.24976688222E+02 -0.18926095709E+03  0.19323247940E+03  0.00000000000E+00 0. -1.
</event>
<event>
 6    1  0.5317355E-006  0.1798982E+03  0.7561462E-02  0.1167902E+00
         -1   -1    0    0    0  501 -0.00000000000E+00  0.00000000000E+00  0.46255928688E+03  0.46255928688E+03  0.00000000000E+00 0.  1.
          1   -1    0    0  501    0  0.00000000000E+00 -0.00000000000E+00 -0.97748053625E+02  0.97748053625E+02  0.00000000000E+00 0. -1.
          5    1    1    2  502    0  0.74270098088E+02 -0.21625440096E+02  0.11714172154E+03  0.14043988911E+03  0.41800000000E+01 0.  1.
         -5    1    1    2    0  502 -0.12895944304E+02 -0.12124489237E+03  0.19845886228E+03  0.23295927052E+03  0.41800000000E+01 0.  1.
        -11    1    1    2    0    0  0.42879052104E+01  0.25337748484E+02 -0.22689349291E+02  0.34281105592E+02  0.00000000000E+00 0.  1.
         11    1    1    2    0    0 -0.65662058994E+02  0.11753258398E+03  0.71899998726E+02  0.15262707527E+03  0.00000000000E+00 0. -1.
</event>
<event>
 6    1  0.5317355E-006  0.1060326E+03  0.7561462E-02  0.1268098E+00
         -2   -1    0    0    0  501 -0.00000000000E+00  0.00000000000E+00  0.81417259582E+03  0.81417259582E+03  0.00000000000E+00 0. -1.
          2   -1    0    0  501    0  0.00000000000E+00 -0.00000000000E+00 -0.20934333663E+02  0.20934333663E+02  0.00000000000E+00 0.  1.
          5    1    1    2  502    0 -0.89915598688E+02  0.37585711831E+02  0.45593785519E+03  0.46625561746E+03  0.41800000000E+01 0. -1.
         -5    1    1    2    0  502  0.38158060837E+02  0.77896528081E+01  0.92267069127E+02  0.10023672352E+03  0.41800000000E+01 0. -1.
        -11    1    1    2    0    0  0.23909458596E+02 -0.40571325080E+02  0.23331792624E+03  0.23802300169E+03  0.00000000000E+00 0.  1.
         11    1    1    2    0    0  0.27848079255E+02 -0.48040395586E+01  0.11715411601E+02  0.30591586806E+02  0.00000000000E+00 0. -1.
</event>
<event>
 6    1  0.5317355E-006  0.1744358E+03  0.7561462E-02  0.1173299E+00
         -4   -1    0    0    0  501 -0.00000000000E+00  0.00000000000E+00  0.48518793226E+03  0.48518793226E+03  0.00000000000E+00 0.  1.
          4   -1    0    0  501    0  0.00000000000E+00 -0.00000000000E+00 -0.86129543911E+02  0.86129543911E+02  0.00000000000E+00 0. -1.
          5    1    1    2  502    0 -0.25066204741E+02  0.11086685443E+03  0.22528135181E+03  0.25236666560E+03  0.41800000000E+01 0.  1.
         -5    1    1    2    0  502 -0.78349799379E+02 -0.25184787952E+01  0.10250442764E+03  0.12911105253E+03  0.41800000000E+01 0.  1.
        -11    1    1    2    0    0  0.35612989463E+01 -0.28641276006E+02 -0.17963998328E+02  0.33995746460E+02  0.00000000000E+00 0. -1.
         11    1    1    2    0    0  0.99854705174E+02 -0.79707099633E+02  0.89236607216E+02  0.15584401158E+03  0.00000000000E+00 0.  1.
</event>
<event>
 6    1  0.5317355E-006  0.1031051E+03  0.7561462E-02  0.1273899E+00
          2   -1    0    0  501    0  0.00000000000E+00  0.00000000000E+00  0.37452017234E+03  0.37452017234E+03  0.00000000000E+00 0. -1.
         -2   -1    0    0    0  501 -0.00000000000E+00 -0.00000000000E+00 -0.60177671850E+02  0.60177671850E+02  0.00000000000E+00 0.  1.
          5    1    1    2  502    0 -0.52535247365E+02 -0.28812988872E+02  0.26485905296E+02  0.65643858226E+02  0.41800000000E+01 0.  1.
         -5    1    1    2    0  502  0.20733164300E+02  0.72047697623E+02  0.14162786222E+02  0.76411986941E+02  0.41800000000E+01 0.  1.
        -11    1    1    2    0    0  0.21586306758E+02  0.46626011266E+01  0.96598297271E+01  0.24104373028E+02  0.00000000000E+00 0.  1.
         11    1    1    2    0    0  0.10215776307E+02 -0.47897309878E+02  0.26403397924E+03  0.26853762599E+03  0.00000000000E+00 0. -1.
</event>
<event>
 6    1  0.5317355E-006  0.9520993E+02  0.7561462E-02  0.1290704E+00
         -1   -1    0    0    0  501 -0.00000000000E+00  0.00000000000E+00  0.18323066007E+02  0.18323066007E+02  0.00000000000E+00 0.  1.
          1   -1    0    0  501    0  0.00000000000E+00 -0.00000000000E+00 -0.82789467593E+03  0.82789467593E+03  0.00000000000E+00 0. -1.
          5    1    1    2  502    0  0.15257751031E+02 -0.71551783522E+02 -0.40946176476E+03  0.41596738561E+03  0.41800000000E+01 0.  1.
         -5    1    1    2    0  502 -0.13540911995E+02  0.15118164358E+02 -0.59965029813E+01  0.21571871482E+02  0.41800000000E+01 0.  1.
        -11    1    1    2    0    0 -0.38328837986E+02  0.15085604279E+02 -0.82526308277E+02  0.92234846103E+02  0.00000000000E+00 0.  1.
         11    1    1    2    0    0  0.36611998950E+02  0.41348014886E+02 -0.31158703391E+03  0.31644363874E+03  0.00000000000E+00 0. -1.
</event>
<event>
 6    1  0.5317355E-006  0.8062153E+02  0.7561462E-02  0.1327297E+00
         -2   -1    0    0    0  501 -0.00000000000E+00  0.00000000000E+00  0.42557129929E+03  0.42557129929E+03  0.00000000000E+00 0.  1.
          2   -1    0    0  501    0  0.00000000000E+00 -0.00000000000E+00 -0.35167829726E+02  0.35167829726E+02  0.00000000000E+00 0. -1.
          5    1    1    2  502    0 -0.10163794835E+02 -0.36395759770E+02  0.73382402768E+01  0.38720488440E+02  0.41800000000E+01 0.  1.
         -5    1    1    2    0  502  0.63427925934E+02  0.15133226064E+02  0.19769403130E+03  0.20821267668E+03  0.41800000000E+01 0.  1.
        -11    1    1    2    0    0 -0.18565772115E+02  0.11491102888E+02 -0.29796284387E+01  0.22036595142E+02  0.00000000000E+00 0. -1.
         11    1    1    2    0    0 -0.34698358983E+02  0.97714308171E+01  0.18835082642E+03  0.19176936875E+03  0.00000000000E+00 0.  1.
</event>
<event>
 6    1  0.5317355E-006  0.1148758E+03  0.7561462E-02  0.1251798E+00
         -1   -1    0    0    0  501 -0.00000000000E+00  0.00000000000E+00  0.44533367685E+02  0.44533367685E+02  0.00000000000E+00 0.  1.
          1   -1    0    0  501    0  0.00000000000E+00 -0.00000000000E+00 -0.43522041962E+03  0.43522041962E+03  0.00000000000E+00 0. -1.
          5    1    1    2  502    0  0.36562234099E+01  0.11207395197E+03 -0.17508306355E+03  0.20795550058E+03  0.41800000000E+01 0.  1.
         -5    1    1    2    0  502 -0.15675317543E+02 -0.27257443834E+02 -0.14727147225E+02  0.34972061561E+02  0.41800000000E+01 0.  1.
        -11    1    1    2    0    0  0.57397189287E+01 -0.23841147007E+02  0.22753297065E+01  0.24627663089E+02  0.00000000000E+00 0.  1.
         11    1    1    2    0    0  0.62793752045E+01 -0.60975361130E+02 -0.20315217087E+03  0.21219856208E+03  0.00000000000E+00 0. -1.
</event>
<event>
 6    1  0.5317355E-006  0.1878002E+03  0.7561462E-02  0.1160460E+00
         -2   -1    0    0    0  501 -0.00000000000E+00  0.00000000000E+00  0.78604851179E+02  0.78604851179E+02  0.00000000000E+00 0.  1.
          2   -1    0    0  501    0  0.00000000000E+00 -0.00000000000E+00 -0.55765714371E+03  0.55765714371E+03  0.00000000000E+00 0. -1.
          5    1    1    2  502    0  0.45359549894E+02  0.10246463135E+03 -0.18426878362E+03  0.21570569409E+03  0.41800000000E+01 0.  1.
         -5    1    1    2    0  502  0.72292254518E+02  0.27133737692E+02 -0.17579036662E+02  0.79302614802E+02  0.41800000000E+01 0.  1.
        -11    1    1    2    0    0 -0.51533883711E+02 -0.14727737169E+02 -0.31735398026E+02  0.62287903322E+02  0.00000000000E+00 0.  1.
         11    1    1    2    0    0 -0.66117920701E+02 -0.11487063187E+03 -0.24546907422E+03  0.27896578268E+03  0.00000000000E+00 0. -1.
</event>
<event>
 6    1  0.5317355E-006  0.1613368E+03  0.7561462E-02  0.1187196E+00
         -3   -1    0    0    0  501 -0.00000000000E+00  0.00000000000E+00  0.93403654979E+03  0.93403654979E+03  0.00000000000E+00 0. -1.
          3   -1    0    0  501    0  0.00000000000E+00 -0.00000000000E+00 -0.38485710182E+02  0.38485710182E+02  0.00000000000E+00 0.  1.
          5    1    1    2  502    0 -0.44223324500E+02  0.72448165650E+02  0.11651992091E+03  0.14421790286E+03  0.41800000000E+01 0. -1.
         -5    1    1    2    0  502 -0.75310324779E+02  0.23104640341E+02  0.42468773123E+03  0.43195209327E+03  0.41800000000E+01 0. -1.
        -11    1    1    2    0    0  0.79554267982E+01 -0.26315436259E+02  0.15649839870E+03  0.15889474440E+03  0.00000000000E+00 0.  1.
         11    1    1    2    0    0  0.11157822248E+03 -0.69237369732E+02  0.19784478877E+03  0.23745751945E+03  0.00000000000E+00 0. -1.
</event>
<event>
 6    1  0.5317355E-006  0.8675656E+02  0.7561462E-02  0.1310902E+00
         -3   -1    0    0    0  501 -0.00000000000E+00  0.00000000000E+00  0.28865874663E+03  0.28865874663E+03  0.00000000000E+00 0.  1.
          3   -1    0    0  501    0  0.00000000000E+00 -0.00000000000E+00 -0.12973152136E+03  0.12973152136E+03  0.00000000000E+00 0. -1.
          5    1    1    2  502    0  0.86480003586E+01 -0.61152883492E+02  0.23902216572E+03  0.24690794069E+03  0.41800000000E+01 0.  1.
         -5    1    1    2    0  502  0.12859582485E+02  0.30946712473E+02  0.11737712169E+02  0.35753519569E+02  0.41800000000E+01 0.  1.
        -11    1    1    2    0    0 -0.53613247270E+01 -0.22284692938E+02  0.58602654124E+01  0.23657853936E+02  0.00000000000E+00 0.  1.
         11    1    1    2    0    0 -0.16146258117E+02  0.52490863957E+02 -0.97692918030E+02  0.11207095379E+03  0.00000000000E+00 0. -1.
</event>
<event>
 6    1  0.5317355E-006  0.9243397E+02  0.7561462E-02  0.1297062E+00
          1   -1    0    0  501    0  0.00000000000E+00  0.00000000000E+00  0.16321734222E+03  0.16321734222E+03  0.00000000000E+00 0. -1.
         -1   -1    0    0    0  501 -0.00000000000E+00 -0.00000000000E+00 -0.84289822646E+02  0.84289822646E+02  0.00000000000E+00 0.  1.
          5    1    1    2  502    0  0.23357384091E+02 -0.21993450330E+02  0.46441259762E+02  0.56599843261E+02  0.41800000000E+01 0.  1.
         -5    1    1    2    0  502 -0.37208072900E+02  0.62805410273E+02 -0.25320549363E+02  0.77379343940E+02  0.41800000000E+01 0.  1.
        -11    1    1    2    0    0  0.34895234804E+02 -0.16468103207E+01 -0.63145903689E+01  0.35500189405E+02  0.00000000000E+00 0.  1.
         11    1    1    2    0    0 -0.21044545995E+02 -0.39165149623E+02  0.64121399544E+02  0.78027788259E+02  0.00000000000E+00 0. -1.
</event>
<event>
 6    1  0.5317355E-006  0.1329972E+03  0.7561462E-02  0.1223075E+00
          3   -1    0    0  501    0  0.00000000000E+00  0.00000000000E+00  0.99607030675E+02  0.99607030675E+02  0.00000000000E+00 0. -1.
         -3   -1    0    0    0  501 -0.00000000000E+00 -0.00000000000E+00 -0.19397993146E+03  0.19397993146E+03  0.00000000000E+00 0.  1.
          5    1    1    2  502    0 -0.54329100332E+02  0.39546698889E+01 -0.22760953121E+02  0.59184659700E+02  0.41800000000E+01 0. -1.
         -5    1    1    2    0  502  0.51212475133E+02  0.82927509083E+02 -0.50488250115E+02  0.10984637077E+03  0.41800000000E+01 0. -1.
        -11    1    1    2    0    0  0.33348084821E+02 -0.16503190601E+02 -0.29525107663E+02  0.47499284666E+02  0.00000000000E+00 0.  1.
         11    1    1    2    0    0 -0.30231459622E+02 -0.70378988370E+02  0.84014101131E+01  0.77056646999E+02  0.00000000000E+00 0. -1.
</event>
<event>
 6    1  0.5317355E-006  0.2551040E+03  0.7561462E-02  0.1110121E+00
          1   -1    0    0  501    0  0.00000000000E+00  0.00000000000E+00  0.16851505330E+03  0.16851505330E+03  0.00000000000E+00 0. -1.
         -1   -1    0    0    0  501 -0.00000000000E+00 -0.00000000000E+00 -0.41723914054E+03  0.41723914054E+03  0.00000000000E+00 0.  1.
          5    1    1    2  502    0  0.21935417005E+03 -0.10979151760E+03 -0.14350920379E+03  0.28422313985E+03  0.41800000000E+01 0.  1.
         -5    1    1    2    0  502 -0.15558283790E+02 -0.18132658923E+02 -0.43221480009E+01  0.24637509563E+02  0.41800000000E+01 0.  1.
        -11    1    1    2    0    0 -0.41195260690E+02  0.25442852397E+02 -0.65511753557E+02  0.81462740535E+02  0.00000000000E+00 0.  1.
         11    1    1    2    0    0 -0.16260062557E+03  0.10248132412E+03 -0.35380981897E+02  0.19543080389E+03  0.00000000000E+00 0. -1.
</event>
<event>
 6    1  0.5317355E-006  0.8744965E+02  0.7561462E-02  0.1309148E+00
         -2   -1    0    0    0  501 -0.00000000000E+00  0.00000000000E+00  0.64018329529E+02  0.64018329529E+02  0.00000000000E+00 0.  1.
          2   -1    0    0  501    0  0.00000000000E+00 -0.00000000000E+00 -0.35750118109E+03  0.35750118109E+03  0.00000000000E+00 0. -1.
          5    1    1    2  502    0  0.17090926575E+02  0.32426898943E+02 -0.55765758977E+02  0.66864757687E+02  0.41800000000E+01 0. -1.
         -5    1    1    2    0  502 -0.40291651660E+02 -0.24360713729E+02  0.39561589463E+02  0.61639705773E+02  0.41800000000E+01 0. -1.
        -11    1    1    2    0    0 -0.16003178553E+02 -0.38117869606E+02 -0.16929305622E+03  0.17426764643E+03  0.00000000000E+00 0.  1.
         11    1    1    2    0    0  0.39203903639E+02  0.30051684392E+02 -0.10798562583E+03  0.11874740073E+03  0.00000000000E+00 0. -1.
</event>
<event>
 6    1  0.5317355E-006  0.1190318E+03  0.7561462E-02  0.1244703E+00
         -1   -1    0    0    0  501 -0.00000000000E+00  0.00000000000E+00  0.12988065416E+03  0.12988065416E+03  0.00000000000E+00 0.  1.
          1   -1    0    0  501    0  0.00000000000E+00 -0.00000000000E+00 -0.12911467911E+03  0.12911467911E+03  0.00000000000E+00 0. -1.
          5    1    1    2  502    0  0.63613762514E+02  0.66932640328E+02  0.34225755873E+01  0.92497975903E+02  0.41800000000E+01 0.  1.
         -5    1    1    2    0  502 -0.42448120278E+02 -0.70305285391E+01  0.27262927341E+02  0.51107835543E+02  0.41800000000E+01 0.  1.
        -11    1    1    2    0    0 -0.51245371020E+02 -0.47466445328E+02 -0.41013803339E+02  0.81001750274E+02  0.00000000000E+00 0.  1.
         11    1    1    2    0    0  0.30079728784E+02 -0.12435666460E+02  0.11094275457E+02  0.34387771547E+02  0.00000000000E+00 0. -1.
</event>
<event>
 6    1  0.5317355E-006  0.1347343E+03  0.7561462E-02  0.1220595E+00
          3   -1    0    0  501    0  0.00000000000E+00  0.00000000000E+00  0.11346562798E+03  0.11346562798E+03  0.00000000000E+00 0. -1.
         -3   -1    0    0    0  501 -0.00000000000E+00 -0.00000000000E+00 -0.21269847529E+03  0.21269847529E+03  0.00000000000E+00 0.  1.
          5    1    1    2  502    0 -0.39440865831E+02 -0.83713826879E+02 -0.92030030582E+02  0.13057789107E+03  0.41800000000E+01 0.  1.
         -5    1    1    2    0  502  0.41666512287E+02 -0.25225859767E+02  0.16641862052E+02  0.51641710077E+02  0.41800000000E+01 0.  1.
        -11    1    1    2    0    0  0.29468900822E+02  0.26523687095E+02 -0.37526117873E+02  0.54590581747E+02  0.00000000000E+00 0.  1.
         11    1    1    2    0    0 -0.31694547278E+02  0.82415999550E+02  0.13681439092E+02  0.89353920365E+02  0.00000000000E+00 0. -1.
</event>
<event>
 6    1  0.5317355E-006  0.1068056E+03  0.7561462E-02  0.1266602E+00
         -1   -1    0    0    0  501 -0.00000000000E+00  0.00000000000E+00  0.12246787110E+03  0.12246787110E+03  0.00000000000E+00 0.  1.
          1   -1    0    0  501    0  0.00000000000E+00 -0.00000000000E+00 -0.14000601358E+03  0.14000601358E+03  0.00000000000E+00 0. -1.
          5    1    1    2  502    0  0.76711587648E+02 -0.70728363784E+02 -0.30388036536E+02  0.10875695053E+03  0.41800000000E+01 0.  1.
         -5    1    1    2    0  502 -0.15047304850E+02  0.33601472670E+02  0.62183909367E+01  0.37571546876E+02  0.41800000000E+01 0.  1.
        -11    1    1    2    0    0 -0.37351079694E+02  0.25151859801E+02  0.48556696857E+02  0.66222896459E+02  0.00000000000E+00 0.  1.
         11    1    1    2    0    0 -0.24313203104E+02  0.11975031313E+02 -0.41925193731E+02  0.49922490819E+02  0.00000000000E+00 0. -1.
</event>
<event>
 6    1  0.5317355E-006  0.1019370E+03  0.7561462E-02  0.1276275E+00
         -1   -1    0    0    0  501 -0.00000000000E+00  0.00000000000E+00  0.21861131047E+03  0.21861131047E+03  0.00000000000E+00 0.  1.
          1   -1    0    0  501    0  0.00000000000E+00 -0.00000000000E+00 -0.82716119328E+02  0.82716119328E+02  0.00000000000E+00 0. -1.
          5    1    1    2  502    0 -0.15918947976E+02 -0.73761377678E+02  0.76844506490E+02  0.10778081610E+03  0.41800000000E+01 0. -1.
         -5    1    1    2    0  502  0.57217010729E+02  0.27700171331E+02  0.53962959765E+02  0.83489875045E+02  0.41800000000E+01 0. -1.
        -11    1    1    2    0    0 -0.36167463608E+02  0.27781853277E+02 -0.40298469854E+02  0.60859538841E+02  0.00000000000E+00 0. -1.
         11    1    1    2    0    0 -0.51305991445E+01  0.18279353069E+02  0.45386194738E+02  0.49197199808E+02  0.00000000000E+00 0.  1.
</event>
<event>
 6    1  0.5317355E-006  0.1800004E+03  0.7561462E-02  0.1167803E+00
          2   -1    0    0  501    0  0.00000000000E+00  0.00000000000E+00  0.11335919954E+03  0.11335919954E+03  0.00000000000E+00 0. -1.
         -2   -1    0    0    0  501 -0.00000000000E+00 -0.00000000000E+00 -0.30422750508E+03  0.30422750508E+03  0.00000000000E+00 0.  1.
          5    1    1    2  502    0 -0.15372835919E+03 -0.62616913961E+02 -0.71357511322E+02  0.18072811944E+03  0.41800000000E+01 0.  1.
         -5    1    1    2    0  502  0.24436928435E+02 -0.99592723664E+01 -0.24615019345E+01  0.26830616265E+02  0.41800000000E+01 0.  1.
        -11    1    1    2    0    0  0.28684217730E+02 -0.16304676769E+02 -0.17078558173E+01  0.33038516958E+02  0.00000000000E+00 0. -1.
         11    1    1    2    0    0  0.10060721303E+03  0.88880863096E+02 -0.11534143646E+03  0.17698945196E+03  0.00000000000E+00 0.  1.
</event>
<event>
 6    1  0.5317355E-006  0.1331183E+03  0.7561462E-02  0.1222901E+00
          2   -1    0    0  501    0  0.00000000000E+00  0.00000000000E+00  0.13806868283E+03  0.13806868283E+03  0.00000000000E+00 0. -1.
         -2   -1    0    0    0  501 -0.00000000000E+00 -0.00000000000E+00 -0.17680661752E+03  0.17680661752E+03  0.00000000000E+00 0.  1.
          5    1    1    2  502    0  0.10893553663E+03 -0.35141477675E+02 -0.89723025092E+02  0.14549765712E+03  0.41800000000E+01 0.  1.
         -5    1    1    2    0  502 -0.17236056733E+02 -0.93704195425E+01  0.21758659241E+02  0.29593885620E+02  0.41800000000E+01 0.  1.
        -11    1    1    2    0    0 -0.52961917967E+02 -0.19815287799E+02  0.31363547518E+02  0.64662837072E+02  0.00000000000E+00 0. -1.
         11    1    1    2    0    0 -0.38737561935E+02  0.64327185016E+02 -0.21371163545E+01  0.75120920542E+02  0.00000000000E+00 0.  1.
</event>
<event>
 6    1  0.5317355E-006  0.1069884E+03  0.7561462E-02  0.1266251E+00
          1   -1    0    0  501    0  0.00000000000E+00  0.00000000000E+00  0.86101689771E+02  0.86101689771E+02  0.00000000000E+00 0. -1.
         -1   -1    0    0    0  501 -0.00000000000E+00 -0.00000000000E+00 -0.17480427199E+03  0.17480427199E+03  0.00000000000E+00 0.  1.
          5    1    1    2  502    0 -0.11071778318E+02 -0.75741779832E+02  0.28095271586E+01  0.76712237160E+02  0.41800000000E+01 0.  1.
         -5    1    1    2    0  502  0.20647820627E+02  0.21857824138E+02 -0.68246692036E+02  0.74693911040E+02  0.41800000000E+01 0.  1.
        -11    1    1    2    0    0 -0.15476266794E+02 -0.24160088154E+02 -0.49017747895E+01  0.29107595050E+02  0.00000000000E+00 0. -1.
         11    1    1    2    0    0  0.59002244855E+01  0.78044043847E+02 -0.18363642550E+02  0.80392218508E+02  0.00000000000E+00 0.  1.
</event>
<event>
 6    1  0.5317355E-006  0.2131755E+03  0.7561462E-02  0.1139076E+00
         -2   -1    0    0    0  501 -0.00000000000E+00  0.00000000000E+00  0.50897492625E+02  0.50897492625E+02  0.00000000000E+00 0.  1.
          2   -1    0    0  501    0  0.00000000000E+00 -0.00000000000E+00 -0.98725456978E+03  0.98725456978E+03  0.00000000000E+00 0. -1.
          5    1    1    2  502    0  0.18102829629E+02  0.14490591361E+02 -0.26617335503E+02  0.35547779507E+02  0.41800000000E+01 0.  1.
         -5    1    1    2    0  502 -0.19247649903E+03  0.70516785487E+02 -0.40263811609E+03  0.45183486435E+03  0.41800000000E+01 0.  1.
        -11    1    1    2    0    0  0.54022588638E+02 -0.73301915178E+01 -0.59007251439E+02  0.80336962310E+02  0.00000000000E+00 0.  1.
         11    1    1    2    0    0  0.12035108076E+03 -0.77677185330E+02 -0.44809437412E+03  0.47043245624E+03  0.00000000000E+00 0. -1.
</event>
<event>
 6    1  0.5317355E-006  0.2749216E+03  0.7561462E-02  0.1098495E+00
          1   -1    0    0  501    0  0.00000000000E+00  0.00000000000E+00  0.11554351498E+04  0.11554351498E+04  0.00000000000E+00 0. -1.
         -1   -1    0    0    0  501 -0.00000000000E+00 -0.00000000000E+00 -0.75215518971E+02  0.75215518971E+02  0.00000000000E+00 0.  1.
          5    1    1    2  502    0 -0.13736182395E+03  0.44589208739E+02  0.11831340862E+03  0.18674047037E+03  0.41800000000E+01 0. -1.
         -5    1    1    2    0  502 -0.94343956210E+02  0.82942998594E+02  0.28529766168E+03  0.31175719919E+03  0.41800000000E+01 0. -1.
        -11    1    1    2    0    0  0.13881941173E+03 -0.24517736732E+02  0.33382605478E+03  0.36236967773E+03  0.00000000000E+00 0. -1.
         11    1    1    2    0    0  0.92886368435E+02 -0.10301447060E+03  0.34278250573E+03  0.36978332146E+03  0.00000000000E+00 0.  1.
</event>
<event>
 6    1  0.5317355E-006  0.1862008E+03  0.7561462E-02  0.1161933E+00
         -2   -1    0    0    0  501 -0.00000000000E+00  0.00000000000E+00  0.14261037176E+03  0.14261037176E+03  0.00000000000E+00 0. -1.
          2   -1    0    0  501    0  0.00000000000E+00 -0.00000000000E+00 -0.27014141559E+03  0.27014141559E+03  0.00000000000E+00 0.  1.
          5    1    1    2  502    0  0.15650728727E+02 -0.48283011902E+02 -0.26097440792E+02  0.57225373427E+02  0.41800000000E+01 0. -1.
         -5    1    1    2    0  502 -0.13787137021E+03 -0.58680382719E+02 -0.37927110260E+01  0.14994585388E+03  0.41800000000E+01 0. -1.
        -11    1    1    2    0    0  0.30890204764E+02  0.63106102927E+02 -0.72985557385E+02  0.10130881780E+03  0.00000000000E+00 0.  1.
         11    1    1    2    0    0  0.91330436717E+02  0.43857291694E+02 -0.24655334619E+02  0.10427174224E+03  0.00000000000E+00 0. -1.
</event>
<event>
 6    1  0.5317355E-006  0.4505866E+03  0.7561462E-02  0.1027547E+00
          1   -1    0    0  501    0  0.00000000000E+00  0.00000000000E+00  0.74455806282E+03  0.74455806282E+03  0.00000000000E+00 0. -1.
         -1   -1    0    0    0  501 -0.00000000000E+00 -0.00000000000E+00 -0.33253473810E+03  0.33253473810E+03  0.00000000000E+00 0.  1.
          5    1    1    2  502    0 -0.10527954782E+03 -0.59367785356E+02 -0.45069313618E+02  0.12906212674E+03  0.41800000000E+01 0. -1.
         -5    1    1    2    0  502 -0.20549296168E+03 -0.25817475604E+03  0.41041705857E+02  0.33254090873E+03  0.41800000000E+01 0. -1.
        -11    1    1    2    0    0  0.14357566911E+03  0.96121149025E+02  0.12411881942E+03  0.21274099131E+03  0.00000000000E+00 0.  1.
         11    1    1    2    0    0  0.16719684040E+03  0.22142139237E+03  0.29193211306E+03  0.40274877415E+03  0.00000000000E+00 0. -1.
</event>
<event>
 6    1  0.5317355E-006  0.1298532E+03  0.7561462E-02  0.1227674E+00
          1   -1    0    0  501    0  0.00000000000E+00  0.00000000000E+00  0.34570371509E+03  0.34570371509E+03  0.00000000000E+00 0. -1.
         -1   -1    0    0    0  501 -0.00000000000E+00 -0.00000000000E+00 -0.70642147254E+02  0.70642147254E+02  0.00000000000E+00 0.  1.
          5    1    1    2  502    0  0.80326995038E+02  0.32267453825E+02  0.15608266337E+03  0.17852978719E+03  0.41800000000E+01 0.  1.
         -5    1    1    2    0  502  0.30641441617E+02 -0.16687400588E+02 -0.17452693725E+02  0.39235649619E+02  0.41800000000E+01 0.  1.
        -11    1    1    2    0    0 -0.10469689818E+03 -0.40458875924E+02  0.83953840729E+02  0.14016636010E+03  0.00000000000E+00 0.  1.
         11    1    1    2    0    0 -0.62715384742E+01  0.24878822687E+02  0.52477757462E+02  0.58414065441E+02  0.00000000000E+00 0. -1.
</event>
<event>
 6    1  0.5317355E-006  0.1823993E+03  0.7561462E-02  0.1165501E+00
         -1   -1    0    0    0  501 -0.00000000000E+00  0.00000000000E+00  0.15602501641E+03  0.15602501641E+03  0.00000000000E+00 0.  1.
          1   -1    0    0  501    0  0.00000000000E+00 -0.00000000000E+00 -0.29613257395E+03  0.29613257395E+03  0.00000000000E+00 0. -1.
          5    1    1    2  502    0  0.14161234459E+03 -0.28556766133E+02  0.30969377218E+02  0.14780432929E+03  0.41800000000E+01 0.  1.
         -5    1    1    2    0  502  0.35011882041E+02 -0.14967312759E+02 -0.65173505412E+02  0.75597027342E+02  0.41800000000E+01 0.  1.
        -11    1    1    2    0    0 -0.10289557031E+03  0.27760456068E+02 -0.11011573626E+03  0.15324365136E+03  0.00000000000E+00 0. -1.
         11    1    1    2    0    0 -0.73728656320E+02  0.15763622825E+02  0.42123069125E+01  0.75512582374E+02  0.00000000000E+00 0.  1.
</event>
<event>
 6    1  0.5317355E-006  0.9776821E+02  0.7561462E-02  0.1285060E+00
          1   -1    0    0  501    0  0.00000000000E+00  0.00000000000E+00  0.13582615484E+03  0.13582615484E+03  0.00000000000E+00 0. -1.
         -1   -1    0    0    0  501 -0.00000000000E+00 -0.00000000000E+00 -0.14867525997E+03  0.14867525997E+03  0.00000000000E+00 0.  1.
          5    1    1    2  502    0  0.19007567068E+01 -0.40069571976E+02 -0.69238898171E+02  0.80129151339E+02  0.41800000000E+01 0.  1.
         -5    1    1    2    0  502 -0.22426234129E+02  0.72769919008E+02 -0.21789970890E+02  0.79313758712E+02  0.41800000000E+01 0.  1.
        -11    1    1    2    0    0  0.45452659763E+02 -0.13308462890E+02  0.79086825071E+01  0.48016733781E+02  0.00000000000E+00 0.  1.
         11    1    1    2    0    0 -0.24927182340E+02 -0.19391884141E+02  0.70271081431E+02  0.77041770978E+02  0.00000000000E+00 0. -1.
</event>
<event>
 6    1  0.5317355E-006  0.8658288E+02  0.7561462E-02  0.1311344E+00
          2   -1    0    0  501    0  0.00000000000E+00  0.00000000000E+00  0.72278938944E+03  0.72278938944E+03  0.00000000000E+00 0. -1.
         -2   -1    0    0    0  501 -0.00000000000E+00 -0.00000000000E+00 -0.26501235692E+02  0.26501235692E+02  0.00000000000E+00 0.  1.
          5    1    1    2  502    0  0.15549912822E+02 -0.36531670834E+02  0.17255023275E+03  0.17710849213E+03  0.41800000000E+01 0.  1.
         -5    1    1    2    0  502  0.31005853132E+01  0.29510244038E+02 -0.75465895087E+01  0.30901319482E+02  0.41800000000E+01 0.  1.
        -11    1    1    2    0    0 -0.48527404008E+02  0.36946066220E+02  0.33265631422E+03  0.33820133669E+03  0.00000000000E+00 0.  1.
         11    1    1    2    0    0  0.29876905873E+02 -0.29924639424E+02  0.19862819629E+03  0.20307947683E+03  0.00000000000E+00 0. -1.
</event>
<event>
 6    1  0.5317355E-006  0.1183396E+03  0.7561462E-02  0.1245862E+00
         -2   -1    0    0    0  501 -0.00000000000E+00  0.00000000000E+00  0.18878967069E+03  0.18878967069E+03  0.00000000000E+00 0.  1.
          2   -1    0    0  501    0  0.00000000000E+00 -0.00000000000E+00 -0.10077432843E+03  0.10077432843E+03  0.00000000000E+00 0. -1.
          5    1    1    2  502    0  0.76383886687E+02 -0.52886091898E+02  0.83557207470E+01  0.93374125596E+02  0.41800000000E+01 0.  1.
         -5    1    1    2    0  502 -0.21513641992E+02 -0.35875903147E+01  0.71001265289E+02  0.74393277039E+02  0.41800000000E+01 0.  1.
        -11    1    1    2    0    0 -0.71315546065E+02  0.97998450578E+01  0.61146704123E+01  0.72244953235E+02  0.00000000000E+00 0.  1.
         11    1    1    2    0    0  0.16445301370E+02  0.46673837155E+02  0.25436858097E+01  0.49551643256E+02  0.00000000000E+00 0. -1.
</event>
<event>
 6    1  0.5317355E-006  0.8312909E+02  0.7561462E-02  0.1320399E+00
          2   -1    0    0  501    0  0.00000000000E+00  0.00000000000E+00  0.53351517198E+02  0.53351517198E+02  0.00000000000E+00 0. -1.
         -2   -1    0    0    0  501 -0.00000000000E+00 -0.00000000000E+00 -0.39942695365E+03  0.39942695365E+03  0.00000000000E+00 0.  1.
          5    1    1    2  502    0 -0.34245889450E+02  0.62711721490E+02 -0.22636536441E+03  0.23741165002E+03  0.41800000000E+01 0.  1.
         -5    1    1    2    0  502  0.25183396035E+02 -0.46051455541E+02 -0.10979062829E+03  0.12176368282E+03  0.41800000000E+01 0.  1.
        -11    1    1    2    0    0  0.10353808674E+02 -0.28394943783E+02 -0.46335465696E+02  0.55321330134E+02  0.00000000000E+00 0.  1.
         11    1    1    2    0    0 -0.12913152595E+01  0.11734677833E+02  0.36416021956E+02  0.38281807874E+02  0.00000000000E+00 0. -1.
</event>
<event>
 6    1  0.5317355E-006  0.1068133E+03  0.7561462E-02  0.1266588E+00
          1   -1    0    0  501    0  0.00000000000E+00  0.00000000000E+00  0.30583534645E+03  0.30583534645E+03  0.00000000000E+00 0. -1.
         -1   -1    0    0    0  501 -0.00000000000E+00 -0.00000000000E+00 -0.63582381201E+02  0.63582381201E+02  0.00000000000E+00 0.  1.
          5    1    1    2  502    0  0.28688683322E+02 -0.83724097019E+00 -0.16860511573E+02  0.33548334887E+02  0.41800000000E+01 0.  1.
         -5    1    1    2    0  502 -0.86087694673E+02  0.37048860960E+02  0.75305905408E+02  0.12030029535E+03  0.41800000000E+01 0.  1.
        -11    1    1    2    0    0 -0.30148221746E+01 -0.29915813799E+02  0.10374204387E+02  0.31806747471E+02  0.00000000000E+00 0.  1.
         11    1    1    2    0    0  0.60413833526E+02 -0.62958061904E+01  0.17343336703E+03  0.18376234994E+03  0.00000000000E+00 0. -1.
</event>
<event>
 6    1  0.5317355E-006  0.1109041E+03  0.7561462E-02  0.1258905E+00
         -2   -1    0    0    0  501 -0.00000000000E+00  0.00000000000E+00  0.52449162426E+02  0.52449162426E+02  0.00000000000E+00 0.  1.
          2   -1    0    0  501    0  0.00000000000E+00 -0.00000000000E+00 -0.23748850445E+03  0.23748850445E+03  0.00000000000E+00 0. -1.
          5    1    1    2  502    0  0.10611655865E+02 -0.73850714654E+02 -0.62529874055E+02  0.97437122517E+02  0.41800000000E+01 0.  1.
         -5    1    1    2    0  502 -0.23740185788E+02  0.47762894368E+02 -0.36601649786E+02  0.64823172298E+02  0.41800000000E+01 0.  1.
        -11    1    1    2    0    0 -0.10641125585E+02  0.55075356475E+02 -0.42852447001E+02  0.70589380636E+02  0.00000000000E+00 0.  1.
         11    1    1    2    0    0  0.23769655508E+02 -0.28987536190E+02 -0.43055371177E+02  0.57087991421E+02  0.00000000000E+00 0. -1.
</event>
<event>
 6    1  0.5317355E-006  0.8307394E+02  0.7561462E-02  0.1320548E+00
         -2   -1    0    0    0  501 -0.00000000000E+00  0.00000000000E+00  0.44915072885E+02  0.44915072885E+02  0.00000000000E+00 0.  1.
          2   -1    0    0  501    0  0.00000000000E+00 -0.00000000000E+00 -0.30085065710E+03  0.30085065710E+03  0.00000000000E+00 0. -1.
          5    1    1    2  502    0 -0.49864442605E+02  0.24867537453E+02 -0.97074846758E+02  0.11200828241E+03  0.41800000000E+01 0.  1.
         -5    1    1    2    0  502  0.39497577365E+02 -0.62286544479E+01  0.10540276312E+02  0.41562297563E+02  0.41800000000E+01 0.  1.
        -11    1    1    2    0    0 -0.19176940506E+02 -0.32263442265E+02 -0.14931560409E+03  0.15396049616E+03  0.00000000000E+00 0. -1.
         11    1    1    2    0    0  0.29543805746E+02  0.13624559259E+02 -0.20085409675E+02  0.38234653847E+02  0.00000000000E+00 0.  1.
</event>
<event>
 6    1  0.5317355E-006  0.6693663E+02  0.7561462E-02  0.1370831E+00
          2   -1    0    0  501    0  0.00000000000E+00  0.00000000000E+00  0.10614410947E+03  0.10614410947E+03  0.00000000000E+00 0. -1.
         -2   -1    0    0    0  501 -0.00000000000E+00 -0.00000000000E+00 -0.14194884004E+03  0.14194884004E+03  0.00000000000E+00 0.  1.
          5    1    1    2  502    0 -0.52547887534E+02  0.17121132257E+02 -0.75922069665E+02  0.94000248491E+02  0.41800000000E+01 0.  1.
         -5    1    1    2    0  502  0.52584359349E+02 -0.48148247753E+01 -0.81539063447E+00  0.52975793034E+02  0.41800000000E+01 0.  1.
        -11    1    1    2    0    0  0.11092007703E+02 -0.50023232149E+01  0.68993857511E+02  0.70058605801E+02  0.00000000000E+00 0. -1.
         11    1    1    2    0    0 -0.11128479518E+02 -0.73039842669E+01 -0.28061127781E+02  0.31058302190E+02  0.00000000000E+00 0.  1.
</event>
<event>
 6    1  0.5317355E-006  0.1737378E+03  0.7561462E-02  0.1174005E+00
          1   -1    0    0  501    0  0.00000000000E+00  0.00000000000E+00  0.68525523401E+03  0.68525523401E+03  0.00000000000E+00 0. -1.
         -1   -1    0    0    0  501 -0.00000000000E+00 -0.00000000000E+00 -0.59583440301E+02  0.59583440301E+02  0.00000000000E+00 0.  1.
          5    1    1    2  502    0 -0.96920509139E+02 -0.10540328332E+03  0.28356196759E+03  0.31769214515E+03  0.41800000000E+01 0.  1.
         -5    1    1    2    0  502 -0.79253021685E+01 -0.25747254278E+02 -0.80876894587E+01  0.28436150199E+02  0.41800000000E+01 0.  1.
        -11    1    1    2    0    0  0.10372414432E+03  0.94568886217E+02  0.20146094819E+03  0.24553713773E+03  0.00000000000E+00 0.  1.
         11    1    1    2    0    0  0.11216669845E+01  0.36581651376E+02  0.14873656739E+03  0.15317324124E+03  0.00000000000E+00 0. -1.
</event>
<event>
 6    1  0.5317355E-006  0.9999946E+02  0.7561462E-02  0.1280297E+00
          3   -1    0    0  501    0  0.00000000000E+00  0.00000000000E+00  0.52485981643E+02  0.52485981643E+02  0.00000000000E+00 0. -1.
         -3   -1    0    0    0  501 -0.00000000000E+00 -0.00000000000E+00 -0.32774010747E+03  0.32774010747E+03  0.00000000000E+00 0.  1.
          5    1    1    2  502    0  0.29402781658E+02 -0.27138403156E+02  0.34211112605E+01  0.40375647330E+02  0.41800000000E+01 0.  1.
         -5    1    1    2    0  502 -0.21039317994E+02 -0.42712962198E+02 -0.18493180167E+03  0.19100862208E+03  0.41800000000E+01 0.  1.
        -11    1    1    2    0    0  0.29188028211E+02 -0.36678940795E+01 -0.95528705146E+01  0.30929787792E+02  0.00000000000E+00 0. -1.
         11    1    1    2    0    0 -0.37551491875E+02  0.73519259434E+02 -0.84190564905E+02  0.11791203191E+03  0.00000000000E+00 0.  1.
</event>
<event>
 6    1  0.5317355E-006  0.1292943E+03  0.7561462E-02  0.1228507E+00
          2   -1    0    0  501    0  0.00000000000E+00  0.00000000000E+00  0.57436814343E+03  0.57436814343E+03  0.00000000000E+00 0. -1.
         -2   -1    0    0    0  501 -0.00000000000E+00 -0.00000000000E+00 -0.30673843542E+02  0.30673843542E+02  0.00000000000E+00 0.  1.
          5    1    1    2  502    0  0.90413596664E+02 -0.53292883061E+02  0.19826099885E+03  0.22436498370E+03  0.41800000000E+01 0. -1.
         -5    1    1    2    0  502 -0.42262614539E+02  0.35644215912E+02  0.11916652253E+03  0.13143352391E+03  0.41800000000E+01 0.  1.
        -11    1    1    2    0    0 -0.69300191230E+02 -0.18764593109E+01  0.19394469418E+03  0.20596257428E+03  0.00000000000E+00 0. -1.
         11    1    1    2    0    0  0.21149209105E+02  0.19525126459E+02  0.32322084325E+02  0.43280905075E+02  0.00000000000E+00 0.  1.
</event>
<event>
 6    1  0.5317355E-006  0.9207362E+02  0.7561462E-02  0.1297906E+00
          1   -1    0    0  501    0  0.00000000000E+00  0.00000000000E+00  0.55852826251E+03  0.55852826251E+03  0.00000000000E+00 0. -1.
         -1   -1    0    0    0  501 -0.00000000000E+00 -0.00000000000E+00 -0.26683034266E+02  0.26683034266E+02  0.00000000000E+00 0.  1.
          5    1    1    2  502    0  0.42765354621E+02 -0.15384908219E+02  0.16885716433E+03  0.17491650952E+03  0.41800000000E+01 0. -1.
         -5    1    1    2    0  502 -0.43442070378E+02 -0.93178571768E+01  0.11718995377E+02  0.46139388745E+02  0.41800000000E+01 0. -1.
        -11    1    1    2    0    0  0.45237341943E+02  0.18567325713E+02  0.14448195332E+03  0.15253261135E+03  0.00000000000E+00 0. -1.
         11    1    1    2    0    0 -0.44560626185E+02  0.61354396830E+01  0.20678711521E+03  0.21162278716E+03  0.00000000000E+00 0.  1.
</event>
<event>
 6    1  0.5317355E-006  0.1309540E+03  0.7561462E-02  0.1226047E+00
         -2   -1    0    0    0  501 -0.00000000000E+00  0.00000000000E+00  0.10898363153E+03  0.10898363153E+03  0.00000000000E+00 0.  1.
          2   -1    0    0  501    0  0.00000000000E+00 -0.00000000000E+00 -0.33370228550E+03  0.33370228550E+03  0.00000000000E+00 0. -1.
          5    1    1    2  502    0  0.81107600664E+02  0.35974033885E+01 -0.74709621625E+02  0.11041007273E+03  0.41800000000E+01 0. -1.
         -5    1    1    2    0  502 -0.73192923451E+02 -0.41483092725E+02  0.58433699743E+02  0.10251839196E+03  0.41800000000E+01 0.  1.
        -11    1    1    2    0    0  0.30276912164E+02  0.48107697171E+02 -0.11445158767E+03  0.12778970169E+03  0.00000000000E+00 0.  1.
         11    1    1    2    0    0 -0.38191589377E+02 -0.10222007835E+02 -0.93991144421E+02  0.10196775065E+03  0.00000000000E+00 0. -1.
</event>
<event>
 6    1  0.5317355E-006  0.1299274E+03  0.7561462E-02  0.1227563E+00
         -1   -1    0    0    0  501 -0.00000000000E+00  0.00000000000E+00  0.24784478024E+02  0.24784478024E+02  0.00000000000E+00 0.  1.
          1   -1    0    0  501    0  0.00000000000E+00 -0.00000000000E+00 -0.74329261295E+03  0.74329261295E+03  0.00000000000E+00 0. -1.
          5    1    1    2  502    0  0.33856580617E+02 -0.10044935631E+03 -0.32097906313E+03  0.33805528039E+03  0.41800000000E+01 0.  1.
         -5    1    1    2    0  502 -0.64210531941E+00  0.30479552562E+02 -0.32183866780E+02  0.44527397235E+02  0.41800000000E+01 0.  1.
        -11    1    1    2    0    0 -0.75804828574E+01 -0.24222620237E+02 -0.75373672209E+02  0.79532317417E+02  0.00000000000E+00 0.  1.
         11    1    1    2    0    0 -0.25633992440E+02  0.94192423989E+02 -0.28997153281E+03  0.30596209593E+03  0.00000000000E+00 0. -1.
</event>
<event>
 6    1  0.5317355E-006  0.1062483E+03  0.7561462E-02  0.1267679E+00
          1   -1    0    0  501    0  0.00000000000E+00  0.00000000000E+00  0.14117541898E+03  0.14117541898E+03  0.00000000000E+00 0. -1.
         -1   -1    0    0    0  501 -0.00000000000E+00 -0.00000000000E+00 -0.10340900137E+03  0.10340900137E+03  0.00000000000E+00 0.  1.
          5    1    1    2  502    0  0.40542244657E+02  0.27790589797E+02 -0.20444775739E+01  0.49372490029E+02  0.41800000000E+01 0. -1.
         -5    1    1    2    0  502 -0.66845437607E+02 -0.94985906870E+01 -0.32649489012E+02  0.75113229772E+02  0.41800000000E+01 0.  1.
        -11    1    1    2    0    0  0.30717479886E+02 -0.52609174836E+02  0.50382744092E+02  0.79055105779E+02  0.00000000000E+00 0. -1.
         11    1    1    2    0    0 -0.44142869358E+01  0.34317175726E+02  0.22077640106E+02  0.41043594769E+02  0.00000000000E+00 0.  1.
</event>
<event>
 6    1  0.5317355E-006  0.1426205E+03  0.7561462E-02  0.1209846E+00
         -1   -1    0    0    0  501 -0.00000000000E+00  0.00000000000E+00  0.25703099331E+02  0.25703099331E+02  0.00000000000E+00 0.  1.
          1   -1    0    0  501    0  0.00000000000E+00 -0.00000000000E+00 -0.91380012942E+03  0.91380012942E+03  0.00000000000E+00 0. -1.
          5    1    1    2  502    0 -0.32612782523E+02  0.15171752894E+02 -0.54345861232E+02  0.65304829092E+02  0.41800000000E+01 0. -1.
         -5    1    1    2    0  502  0.65886958592E+02 -0.10337557005E+03 -0.27667613085E+03  0.30264625155E+03  0.41800000000E+01 0.  1.
        -11    1    1    2    0    0 -0.11367025621E+02  0.10057312651E+03 -0.40784009618E+03  0.42021150281E+03  0.00000000000E+00 0. -1.
         11    1    1    2    0    0 -0.21907150448E+02 -0.12369309353E+02 -0.14923494183E+03  0.15134064529E+03  0.00000000000E+00 0.  1.
</event>
<event>
 6    1  0.5317355E-006  0.1226959E+03  0.7561462E-02  0.1238715E+00
         -2   -1    0    0    0  501 -0.00000000000E+00  0.00000000000E+00  0.42019614668E+03  0.42019614668E+03  0.00000000000E+00 0.  1.
          2   -1    0    0  501    0  0.00000000000E+00 -0.00000000000E+00 -0.39906066809E+02  0.39906066809E+02  0.00000000000E+00 0. -1.
          5    1    1    2  502    0 -0.46183582982E+02  0.28395856531E+02  0.90074078438E+02  0.10521435269E+03  0.41800000000E+01 0.  1.
         -5    1    1    2    0  502  0.91369306218E+01 -0.86940724608E+02  0.10600220271E+03  0.13746313133E+03  0.41800000000E+01 0.  1.
        -11    1    1    2    0    0  0.96265346009E+01  0.72217782623E+02  0.77369184304E+02  0.10627355727E+03  0.00000000000E+00 0. -1.
         11    1    1    2    0    0  0.27420117759E+02 -0.13672914547E+02  0.10684461442E+03  0.11115117220E+03  0.00000000000E+00 0.  1.
</event>
<event>
 6    1  0.5317355E-006  0.9799982E+02  0.7561462E-02  0.1284559E+00
          3   -1    0    0  501    0  0.00000000000E+00  0.00000000000E+00  0.10572259918E+03  0.10572259918E+03  0.00000000000E+00 0. -1.
         -3   -1    0    0    0  501 -0.00000000000E+00 -0.00000000000E+00 -0.15489766955E+03  0.15489766955E+03  0.00000000000E+00 0.  1.
          5    1    1    2  502    0  0.43576416265E+02  0.34495069754E+02 -0.51760812475E+01  0.55973905607E+02  0.41800000000E+01 0.  1.
         -5    1    1    2    0  502 -0.42008164453E+02 -0.22103095780E+02 -0.89520644414E+02  0.10141326787E+03  0.41800000000E+01 0.  1.
        -11    1    1    2    0    0 -0.46658311133E+02 -0.50697731502E+01  0.24600055663E+02  0.52989275672E+02  0.00000000000E+00 0.  1.
         11    1    1    2    0    0  0.45090059321E+02 -0.73222008230E+01  0.20921599632E+02  0.50243819576E+02  0.00000000000E+00 0. -1.
</event>
<event>
 6    1  0.5317355E-006  0.1429078E+03  0.7561462E-02  0.1209469E+00
         -2   -1    0    0    0  501 -0.00000000000E+00  0.00000000000E+00  0.39651914342E+02  0.39651914342E+02  0.00000000000E+00 0.  1.
          2   -1    0    0  501    0  0.00000000000E+00 -0.00000000000E+00 -0.67673164253E+03  0.67673164253E+03  0.00000000000E+00 0. -1.
          5    1    1    2  502    0  0.53519264531E+02  0.13166225425E+03 -0.25112611785E+03  0.28858458090E+03  0.41800000000E+01 0. -1.
         -5    1    1    2    0  502 -0.27715412785E+01 -0.25155787197E+02 -0.20256823644E+02  0.32684956398E+02  0.41800000000E+01 0. -1.
        -11    1    1    2    0    0 -0.27056710925E+02 -0.57225138216E+02 -0.69883124436E+02  0.94289093382E+02  0.00000000000E+00 0.  1.
         11    1    1    2    0    0 -0.23691012327E+02 -0.49281328834E+02 -0.29581366226E+03  0.30082492619E+03  0.00000000000E+00 0. -1.
</event>
<event>
 6    1  0.5317355E-006  0.1324805E+03  0.7561462E-02  0.1223821E+00
         -2   -1    0    0    0  501 -0.00000000000E+00  0.00000000000E+00  0.12009362432E+03  0.12009362432E+03  0.00000000000E+00 0.  1.
          2   -1    0    0  501    0  0.00000000000E+00 -0.00000000000E+00 -0.21937279111E+03  0.21937279111E+03  0.00000000000E+00 0. -1.
          5    1    1    2  502    0  0.24448890008E+02 -0.21963976157E+02  0.37389311938E+02  0.49955955785E+02  0.41800000000E+01 0. -1.
         -5    1    1    2    0  502 -0.25630788921E+01  0.10522631805E+03 -0.44335338670E+01  0.10543375174E+03  0.41800000000E+01 0. -1.
        -11    1    1    2    0    0  0.36584340966E+02 -0.35721058831E+02 -0.67848914734E+02  0.84958126618E+02  0.00000000000E+00 0.  1.
         11    1    1    2    0    0 -0.58470152081E+02 -0.47541283063E+02 -0.64386030127E+02  0.99118581281E+02  0.00000000000E+00 0. -1.
</event>
<event>
 6    1  0.5317355E-006  0.1182820E+03  0.7561462E-02  0.1245958E+00
         -3   -1    0    0    0  501 -0.00000000000E+00  0.00000000000E+00  0.56079285824E+02  0.56079285824E+02  0.00000000000E+00 0.  1.
          3   -1    0    0  501    0  0.00000000000E+00 -0.00000000000E+00 -0.28249993350E+03  0.28249993350E+03  0.00000000000E+00 0. -1.
          5    1    1    2  502    0 -0.74907217920E+02 -0.57662463945E+02 -0.49575977980E+02  0.10682369137E+03  0.41800000000E+01 0.  1.
         -5    1    1    2    0  502  0.31028075282E+02  0.15030373235E+02 -0.64241969670E+02  0.73028464604E+02  0.41800000000E+01 0.  1.
        -11    1    1    2    0    0  0.45384731941E+01 -0.26922323021E+02 -0.50929637410E+02  0.57786133133E+02  0.00000000000E+00 0. -1.
         11    1    1    2    0    0  0.39340669444E+02  0.69554413731E+02 -0.61673062620E+02  0.10094093022E+03  0.00000000000E+00 0.  1.
</event>
<event>
 6    1  0.5317355E-006  0.8926570E+02  0.7561462E-02  0.1304640E+00
         -1   -1    0    0    0  501 -0.00000000000E+00  0.00000000000E+00  0.79285553375E+02  0.79285553375E+02  0.00000000000E+00 0.  1.
          1   -1    0    0  501    0  0.00000000000E+00 -0.00000000000E+00 -0.22138473673E+03  0.22138473673E+03  0.00000000000E+00 0. -1.
          5    1    1    2  502    0  0.59819589408E+01 -0.60540414934E+02  0.19518635351E+02  0.64026363313E+02  0.41800000000E+01 0.  1.
         -5    1    1    2    0  502 -0.39105015904E+02 -0.59655866586E+01 -0.88423011524E+02  0.96958196457E+02  0.41800000000E+01 0.  1.
        -11    1    1    2    0    0  0.13541076578E+02  0.51087165853E+02 -0.93589295784E+02  0.10748123350E+03  0.00000000000E+00 0. -1.
         11    1    1    2    0    0  0.19581980386E+02  0.15418835740E+02  0.20394488598E+02  0.32204496838E+02  0.00000000000E+00 0.  1.
</event>
<event>
 6    1  0.5317355E-006  0.9763937E+02  0.7561462E-02  0.1285340E+00
          2   -1    0    0  501    0  0.00000000000E+00  0.00000000000E+00  0.24368195479E+03  0.24368195479E+03  0.00000000000E+00 0. -1.
         -2   -1    0    0    0  501 -0.00000000000E+00 -0.00000000000E+00 -0.53570859200E+02  0.53570859200E+02  0.00000000000E+00 0.  1.
          5    1    1    2  502    0 -0.66802693689E+01  0.45973918737E+02  0.57067400601E+02  0.73704734002E+02  0.41800000000E+01 0. -1.
         -5    1    1    2    0  502  0.40972216179E+01 -0.77507382288E+02  0.37704765744E+02  0.86390412048E+02  0.41800000000E+01 0. -1.
        -11    1    1    2    0    0  0.27667522958E+02 -0.34255583314E+01  0.89493021851E+02  0.93734877375E+02  0.00000000000E+00 0. -1.
         11    1    1    2    0    0 -0.25084475207E+02  0.34959021882E+02  0.58459073969E+01  0.43422790568E+02  0.00000000000E+00 0.  1.
</event>
<event>
 6    1  0.5317355E-006  0.6561210E+02  0.7561462E-02  0.1375684E+00
          1   -1    0    0  501    0  0.00000000000E+00  0.00000000000E+00  0.27079831690E+03  0.27079831690E+03  0.00000000000E+00 0. -1.
         -1   -1    0    0    0  501 -0.00000000000E+00 -0.00000000000E+00 -0.45727292726E+02  0.45727292726E+02  0.00000000000E+00 0.  1.
          5    1    1    2  502    0 -0.28164638261E+02  0.51098273803E+01 -0.20967589535E+02  0.35727711866E+02  0.41800000000E+01 0.  1.
         -5    1    1    2    0  502  0.57024588054E+01  0.95638260371E+01  0.13538333104E+03  0.13590475904E+03  0.41800000000E+01 0.  1.
        -11    1    1    2    0    0  0.30532786390E+02  0.31300114935E+02  0.35048793207E+02  0.56038969877E+02  0.00000000000E+00 0. -1.
         11    1    1    2    0    0 -0.80706069343E+01 -0.45973768352E+02  0.75606489463E+02  0.88854168848E+02  0.00000000000E+00 0.  1.
</event>
<event>
 6    1  0.5317355E-006  0.7171593E+02  0.7561462E-02  0.1354353E+00
          1   -1    0    0  501    0  0.00000000000E+00  0.00000000000E+00  0.20089468776E+03  0.20089468776E+03  0.00000000000E+00 0. -1.
         -1   -1    0    0    0  501 -0.00000000000E+00 -0.00000000000E+00 -0.70252476064E+02  0.70252476064E+02  0.00000000000E+00 0.  1.
          5    1    1    2  502    0  0.13119033791E+01  0.36745328385E+02 -0.32060653428E+02  0.48962211417E+02  0.41800000000E+01 0.  1.
         -5    1    1    2    0  502  0.37476272615E+02 -0.31923347741E+02  0.73395964799E+02  0.88476048674E+02  0.41800000000E+01 0.  1.
        -11    1    1    2    0    0 -0.33461007024E+02  0.14872336551E+02 -0.52359593797E+01  0.36989737174E+02  0.00000000000E+00 0.  1.
         11    1    1    2    0    0 -0.53271689701E+01 -0.19694317195E+02  0.94542859702E+02  0.96719166558E+02  0.00000000000E+00 0. -1.
</event>
<event>
 6    1  0.5317355E-006  0.1129816E+03  0.7561462E-02  0.1255146E+00
         -1   -1    0    0    0  501 -0.00000000000E+00  0.00000000000E+00  0.30789135622E+02  0.30789135622E+02  0.00000000000E+00 0.  1.
          1   -1    0    0  501    0  0.00000000000E+00 -0.00000000000E+00 -0.41599678757E+03  0.41599678757E+03  0.00000000000E+00 0. -1.
          5    1    1    2  502    0 -0.47118348600E+02  0.49059591323E+02 -0.11006702062E+03  0.12945734318E+03  0.41800000000E+01 0.  1.
         -5    1    1    2    0  502  0.59212577213E+02 -0.16625276291E+02 -0.99830700913E+02  0.11732932437E+03  0.41800000000E+01 0.  1.
        -11    1    1    2    0    0  0.29876300900E+01  0.30909869933E+02 -0.60755500562E+02  0.68231787617E+02  0.00000000000E+00 0.  1.
         11    1    1    2    0    0 -0.15081858703E+02 -0.63344184965E+02 -0.11455442986E+03  0.13176746803E+03  0.00000000000E+00 0. -1.
</event>
<event>
 6    1  0.5317355E-006  0.9486829E+02  0.7561462E-02  0.1291473E+00
          1   -1    0    0  501    0  0.00000000000E+00  0.00000000000E+00  0.28863059917E+03  0.28863059917E+03  0.00000000000E+00 0. -1.
         -1   -1    0    0    0  501 -0.00000000000E+00 -0.00000000000E+00 -0.73808180448E+02  0.73808180448E+02  0.00000000000E+00 0.  1.
          5    1    1    2  502    0  0.62577510667E+02  0.13733611306E+02  0.12324729491E+02  0.65375287975E+02  0.41800000000E+01 0.  1.
         -5    1    1    2    0  502 -0.60002357788E+02  0.33898057636E+02 -0.25120786997E+00  0.69042716901E+02  0.41800000000E+01 0.  1.
        -11    1    1    2    0    0  0.12467844848E+02 -0.10060970093E+02 -0.46722927953E+01  0.16688337075E+02  0.00000000000E+00 0.  1.
         11    1    1    2    0    0 -0.15042997726E+02 -0.37570698849E+02  0.20742118989E+03  0.21133243767E+03  0.00000000000E+00 0. -1.
</event>
<event>
 6    1  0.5317355E-006  0.1134244E+03  0.7561462E-02  0.1254357E+00
          1   -1    0    0  501    0  0.00000000000E+00  0.00000000000E+00  0.99505250441E+02  0.99505250441E+02  0.00000000000E+00 0. -1.
         -1   -1    0    0    0  501 -0.00000000000E+00 -0.00000000000E+00 -0.16277930535E+03  0.16277930535E+03  0.00000000000E+00 0.  1.
          5    1    1    2  502    0 -0.38434424429E+02 -0.25419672881E+02 -0.35797123476E+02  0.58500181194E+02  0.41800000000E+01 0.  1.
         -5    1    1    2    0  502  0.60708901841E+02  0.59532827730E+02 -0.54954872968E+02  0.10132738427E+03  0.41800000000E+01 0.  1.
        -11    1    1    2    0    0  0.22552007401E+02 -0.44092669568E+02  0.27261256824E+02  0.56532580616E+02  0.00000000000E+00 0. -1.
         11    1    1    2    0    0 -0.44826484813E+02  0.99795147193E+01  0.21668471312E+00  0.45924409707E+02  0.00000000000E+00 0.  1.
</event>
<event>
 6    1  0.6179116E-006  0.1431169E+03  0.7561462E-02  0.1209195E+00
          1   -1    0    0  501    0  0.00000000000E+00  0.00000000000E+00  0.15779422278E+03  0.15779422278E+03  0.00000000000E+00 0. -1.
         -1   -1    0    0    0  501 -0.00000000000E+00 -0.00000000000E+00 -0.23633400916E+03  0.23633400916E+03  0.00000000000E+00 0.  1.
          5    1    1    2  502    0 -0.45461655603E+02  0.14052007640E+02 -0.11600202733E+03  0.12545183854E+03  0.41800000000E+01 0.  1.
         -5    1    1    2    0  502 -0.83789158369E+02  0.46266739460E+02  0.20999515660E+01  0.95828578394E+02  0.41800000000E+01 0.  1.
        -11    1    1    2    0    0  0.74147012697E+02 -0.33048728552E+02  0.65563402985E+02  0.10434825232E+03  0.00000000000E+00 0. -1.
         11    1    1    2    0    0  0.55103801275E+02 -0.27270018548E+02 -0.30201113599E+02  0.68499562693E+02  0.00000000000E+00 0.  1.
</event>
<event>
 6    1  0.5317355E-006  0.2103129E+03  0.7561462E-02  0.1141318E+00
          2   -1    0    0  501    0  0.00000000000E+00  0.00000000000E+00  0.19168919592E+03  0.19168919592E+03  0.00000000000E+00 0. -1.
         -2   -1    0    0    0  501 -0.00000000000E+00 -0.00000000000E+00 -0.30021545377E+03  0.30021545377E+03  0.00000000000E+00 0.  1.
          5    1    1    2  502    0  0.46087469237E+02  0.29091663750E+02  0.65294883248E+01  0.55049853208E+02  0.41800000000E+01 0. -1.
         -5    1    1    2    0  502  0.10552761574E+02  0.16330073032E+03 -0.13995445242E+03  0.21536761700E+03  0.41800000000E+01 0. -1.
        -11    1    1    2    0    0 -0.55479375640E+02 -0.15113583799E+03  0.55296355352E+02  0.17022834535E+03  0.00000000000E+00 0. -1.
         11    1    1    2    0    0 -0.11608551708E+01 -0.41256556079E+02 -0.30397649107E+02  0.51258834122E+02  0.00000000000E+00 0.  1.
</event>
<event>
 6    1  0.5317355E-006  0.1111984E+03  0.7561462E-02  0.1258367E+00
          1   -1    0    0  501    0  0.00000000000E+00  0.00000000000E+00  0.20979843224E+02  0.20979843224E+02  0.00000000000E+00 0. -1.
         -1   -1    0    0    0  501 -0.00000000000E+00 -0.00000000000E+00 -0.14368294120E+04  0.14368294120E+04  0.00000000000E+00 0.  1.
          5    1    1    2  502    0  0.50504754863E+01  0.64491172112E+01 -0.45286792100E+01  0.10250841469E+02  0.41800000000E+01 0. -1.
         -5    1    1    2    0  502  0.75497926474E+02 -0.59157697399E+02 -0.11652146853E+04  0.11691630790E+04  0.41800000000E+01 0.  1.
        -11    1    1    2    0    0 -0.23920123144E+02 -0.15530482876E+02 -0.18165646194E+02  0.33813590333E+02  0.00000000000E+00 0.  1.
         11    1    1    2    0    0 -0.56628278817E+02  0.68239063064E+02 -0.22794055809E+03  0.24458174443E+03  0.00000000000E+00 0. -1.
</event>
<event>
 6    1  0.5317355E-006  0.1181410E+03  0.7561462E-02  0.1246196E+00
         -2   -1    0    0    0  501 -0.00000000000E+00  0.00000000000E+00  0.13596535549E+03  0.13596535549E+03  0.00000000000E+00 0.  1.
          2   -1    0    0  501    0  0.00000000000E+00 -0.00000000000E+00 -0.12781998014E+03  0.12781998014E+03  0.00000000000E+00 0. -1.
          5    1    1    2  502    0 -0.69443655818E+02  0.31914775871E+02  0.23376889753E+01  0.76576180644E+02  0.41800000000E+01 0. -1.
         -5    1    1    2    0  502  0.80280898136E+01 -0.62351968035E+02 -0.25976927446E+02  0.68150504792E+02  0.41800000000E+01 0. -1.
        -11    1    1    2    0    0  0.71778555161E+02  0.82538132566E+01  0.50576052074E+02  0.88194237101E+02  0.00000000000E+00 0.  1.
         11    1    1    2    0    0 -0.10362989157E+02  0.22183378908E+02 -0.18791438259E+02  0.30864413097E+02  0.00000000000E+00 0. -1.
</event>
<event>
 6    1  0.5317355E-006  0.7821269E+02  0.7561462E-02  0.1334201E+00
         -3   -1    0    0    0  501 -0.00000000000E+00  0.00000000000E+00  0.12221598857E+03  0.12221598857E+03  0.00000000000E+00 0.  1.
          3   -1    0    0  501    0  0.00000000000E+00 -0.00000000000E+00 -0.11577073899E+03  0.11577073899E+03  0.00000000000E+00 0. -1.
          5    1    1    2  502    0  0.98035922499E+01  0.56800119927E+02  0.72851696186E+02  0.92990354779E+02  0.41800000000E+01 0. -1.
         -5    1    1    2    0  502 -0.29751298128E+01 -0.36069365438E+02 -0.17132924743E+02  0.40259905995E+02  0.41800000000E+01 0.  1.
        -11    1    1    2    0    0 -0.25326024662E+02 -0.31793998084E+02  0.98349182369E+01  0.41820945184E+02  0.00000000000E+00 0.  1.
         11    1    1    2    0    0  0.18497562225E+02  0.11063243595E+02 -0.59108440103E+02  0.62915521603E+02  0.00000000000E+00 0. -1.
</event>
<event>
 6    1  0.5317355E-006  0.1020531E+03  0.7561462E-02  0.1276037E+00
         -2   -1    0    0    0  501 -0.00000000000E+00  0.00000000000E+00  0.57806464634E+02  0.57806464634E+02  0.00000000000E+00 0.  1.
          2   -1    0    0  501    0  0.00000000000E+00 -0.00000000000E+00 -0.23712398781E+03  0.23712398781E+03  0.00000000000E+00 0. -1.
          5    1    1    2  502    0  0.39642255517E+02  0.44412804274E+02 -0.31887650410E+02  0.67663138079E+02  0.41800000000E+01 0. -1.
         -5    1    1    2    0  502 -0.63447487726E+02 -0.26079517604E+02 -0.27343111551E+02  0.73965147782E+02  0.41800000000E+01 0. -1.
        -11    1    1    2    0    0  0.28885110076E+02  0.21209000554E+02 -0.10453889919E+03  0.11051041911E+03  0.00000000000E+00 0. -1.
         11    1    1    2    0    0 -0.50798778670E+01 -0.39542287224E+02 -0.15547862027E+02  0.42791747471E+02  0.00000000000E+00 0.  1.
</event>
<event>
 6    1  0.5317355E-006  0.1078010E+03  0.7561462E-02  0.1264697E+00
         -1   -1    0    0    0  501 -0.00000000000E+00  0.00000000000E+00  0.79349215529E+03  0.79349215529E+03  0.00000000000E+00 0.  1.
          1   -1    0    0  501    0  0.00000000000E+00 -0.00000000000E+00 -0.19164412745E+02  0.19164412745E+02  0.00000000000E+00 0. -1.
          5    1    1    2  502    0 -0.92266220952E+01  0.47659927296E+02  0.35073868029E+03  0.35410689555E+03  0.41800000000E+01 0.  1.
         -5    1    1    2    0  502  0.48250382800E+02 -0.54107838944E+02  0.22663288256E+03  0.23798254880E+03  0.41800000000E+01 0.  1.
        -11    1    1    2    0    0 -0.20680138778E+02 -0.39610284202E+02  0.12847760907E+03  0.13602624301E+03  0.00000000000E+00 0.  1.
         11    1    1    2    0    0 -0.18343621927E+02  0.46058195850E+02  0.68478570612E+02  0.84540880664E+02  0.00000000000E+00 0. -1.
</event>
<event>
 6    1  0.5317355E-006  0.1208252E+03  0.7561462E-02  0.1241742E+00
          4   -1    0    0  501    0  0.00000000000E+00  0.00000000000E+00  0.51628000954E+03  0.51628000954E+03  0.00000000000E+00 0. -1.
         -4   -1    0    0    0  501 -0.00000000000E+00 -0.00000000000E+00 -0.31203909669E+02  0.31203909669E+02  0.00000000000E+00 0.  1.
          5    1    1    2  502    0 -0.35207171375E+02 -0.87259837438E+02  0.18248391066E+03  0.20535743034E+03  0.41800000000E+01 0.  1.
         -5    1    1    2    0  502 -0.14272073019E+02  0.44435078103E+02  0.81904457937E+02  0.94360907500E+02  0.41800000000E+01 0.  1.
        -11    1    1    2    0    0 -0.17371690326E+02  0.26672066202E+02  0.25403644856E+02  0.40724929861E+02  0.00000000000E+00 0.  1.
         11    1    1    2    0    0  0.66850934720E+02  0.16152693133E+02  0.19528408642E+03  0.20704065151E+03  0.00000000000E+00 0. -1.
</event>
<event>
 6    1  0.5317355E-006  0.1242550E+03  0.7561462E-02  0.1236238E+00
         -1   -1    0    0    0  501 -0.00000000000E+00  0.00000000000E+00  0.21901932094E+02  0.21901932094E+02  0.00000000000E+00 0.  1.
          1   -1    0    0  501    0  0.00000000000E+00 -0.00000000000E+00 -0.83814968270E+03  0.83814968270E+03  0.00000000000E+00 0. -1.
          5    1    1    2  502    0  0.47522006334E+02  0.13389531133E+02 -0.34206353178E+03  0.34563355278E+03  0.41800000000E+01 0.  1.
         -5    1    1    2    0  502 -0.44524108397E+02  0.64767133179E+02 -0.17044073464E+03  0.18773570303E+03  0.41800000000E+01 0.  1.
        -11    1    1    2    0    0  0.43787421947E+02 -0.45844188641E+02 -0.16001330656E+03  0.17211416626E+03  0.00000000000E+00 0.  1.
         11    1    1    2    0    0 -0.46785319885E+02 -0.32312475671E+02 -0.14373017762E+03  0.15456819272E+03  0.00000000000E+00 0. -1.
</event>
<event>
 6    1  0.5317355E-006  0.1311068E+03  0.7561462E-02  0.1225823E+00
         -1   -1    0    0    0  501 -0.00000000000E+00  0.00000000000E+00  0.65446538540E+02  0.65446538540E+02  0.00000000000E+00 0.  1.
          1   -1    0    0  501    0  0.00000000000E+00 -0.00000000000E+00 -0.34596500741E+03  0.34596500741E+03  0.00000000000E+00 0. -1.
          5    1    1    2  502    0 -0.12085378609E+02 -0.69206382428E+02 -0.10320405591E+03  0.12491648931E+03  0.41800000000E+01 0. -1.
         -5    1    1    2    0  502  0.86630505500E+02 -0.36348517867E+01 -0.59346404740E+02  0.10515476588E+03  0.41800000000E+01 0. -1.
        -11    1    1    2    0    0 -0.50111067544E+02  0.40132724104E+02 -0.88169453474E+01  0.64803496508E+02  0.00000000000E+00 0.  1.
         11    1    1    2    0    0 -0.24434059347E+02  0.32708510111E+02 -0.10915106287E+03  0.11653679426E+03  0.00000000000E+00 0. -1.
</event>
<event>
 6    1  0.5317355E-006  0.6306689E+02  0.7561462E-02  0.1385394E+00
         -2   -1    0    0    0  501 -0.00000000000E+00  0.00000000000E+00  0.29664168596E+03  0.29664168596E+03  0.00000000000E+00 0.  1.
          2   -1    0    0  501    0  0.00000000000E+00 -0.00000000000E+00 -0.31471394064E+02  0.31471394064E+02  0.00000000000E+00 0. -1.
          5    1    1    2  502    0 -0.33378700176E+02 -0.25798009549E+01  0.62264083473E+01  0.34307922690E+02  0.41800000000E+01 0. -1.
         -5    1    1    2    0  502  0.47011615928E+02  0.14574120266E+02  0.24252258850E+03  0.24750186938E+03  0.41800000000E+01 0.  1.
        -11    1    1    2    0    0 -0.26569612752E+02 -0.19867007829E+01  0.12765160870E+02  0.29543876418E+02  0.00000000000E+00 0. -1.
         11    1    1    2    0    0  0.12936697000E+02 -0.10007618528E+02  0.36561341778E+01  0.16759411535E+02  0.00000000000E+00 0.  1.
</event>
<event>
 6    1  0.5317355E-006  0.1639172E+03  0.7561462E-02  0.1184344E+00
          1   -1    0    0  501    0  0.00000000000E+00  0.00000000000E+00  0.13808673428E+03  0.13808673428E+03  0.00000000000E+00 0. -1.
         -1   -1    0    0    0  501 -0.00000000000E+00 -0.00000000000E+00 -0.25763167436E+03  0.25763167436E+03  0.00000000000E+00 0.  1.
          5    1    1    2  502    0  0.20453561943E+02  0.78988516379E+02 -0.97009334091E+02  0.12682987510E+03  0.41800000000E+01 0. -1.
         -5    1    1    2    0  502 -0.88048545707E+02  0.33254845344E+02 -0.51181851718E+02  0.10721700185E+03  0.41800000000E+01 0. -1.
        -11    1    1    2    0    0  0.78379058589E+02 -0.60354118441E+02  0.41275751033E+02  0.10718947738E+03  0.00000000000E+00 0. -1.
         11    1    1    2    0    0 -0.10784074825E+02 -0.51889243282E+02 -0.12629505304E+02  0.54482054315E+02  0.00000000000E+00 0.  1.
</event>
<event>
 6    1  0.5317355E-006  0.1161780E+03  0.7561462E-02  0.1249539E+00
          2   -1    0    0  501    0  0.00000000000E+00  0.00000000000E+00  0.47662941759E+03  0.47662941759E+03  0.00000000000E+00 0. -1.
         -2   -1    0    0    0  501 -0.00000000000E+00 -0.00000000000E+00 -0.53706526937E+02  0.53706526937E+02  0.00000000000E+00 0.  1.
          5    1    1    2  502    0  0.36546897752E+02 -0.96613336369E+01  0.69668729755E+02  0.79373934063E+02  0.41800000000E+01 0. -1.
         -5    1    1    2    0  502 -0.74736830185E+02 -0.26850433105E+02  0.14029081773E+02  0.80751638247E+02  0.41800000000E+01 0.  1.
        -11    1    1    2    0    0 -0.34994092654E+02  0.59765389379E+01  0.18905211225E+02  0.40220797479E+02  0.00000000000E+00 0.  1.
         11    1    1    2    0    0  0.73184025087E+02  0.30535227804E+02  0.32031986790E+03  0.32998957474E+03  0.00000000000E+00 0. -1.
</event>
<event>
 6    1  0.5317355E-006  0.2146341E+03  0.7561462E-02  0.1137948E+00
          1   -1    0    0  501    0  0.00000000000E+00  0.00000000000E+00  0.51596909946E+03  0.51596909946E+03  0.00000000000E+00 0. -1.
         -1   -1    0    0    0  501 -0.00000000000E+00 -0.00000000000E+00 -0.11730275191E+03  0.11730275191E+03  0.00000000000E+00 0.  1.
          5    1    1    2  502    0  0.66695002450E+02 -0.17020822615E+03  0.15443213634E+03  0.23934456488E+03  0.41800000000E+01 0.  1.
         -5    1    1    2    0  502  0.24202274154E+02 -0.21868967922E+02 -0.22952290412E+02  0.40103389724E+02  0.41800000000E+01 0.  1.
        -11    1    1    2    0    0 -0.25629317382E+02  0.34595654001E+02  0.12378418298E+03  0.13105817464E+03  0.00000000000E+00 0. -1.
         11    1    1    2    0    0 -0.65267959222E+02  0.15748154007E+03  0.14340231865E+03  0.22276572213E+03  0.00000000000E+00 0.  1.
</event>
<event>
 6    1  0.5317355E-006  0.1450628E+03  0.7561462E-02  0.1206674E+00
         -2   -1    0    0    0  501 -0.00000000000E+00  0.00000000000E+00  0.63627708798E+02  0.63627708798E+02  0.00000000000E+00 0.  1.
          2   -1    0    0  501    0  0.00000000000E+00 -0.00000000000E+00 -0.70844559197E+03  0.70844559197E+03  0.00000000000E+00 0. -1.
          5    1    1    2  502    0  0.92022989605E+02 -0.79333886841E+02 -0.56646486480E+02  0.13412081512E+03  0.41800000000E+01 0.  1.
         -5    1    1    2    0  502 -0.34490040601E+02 -0.28769312250E+00 -0.80404569909E-01  0.34743697743E+02  0.41800000000E+01 0.  1.
        -11    1    1    2    0    0 -0.20119019953E+02  0.92176451068E+02 -0.39298338293E+03  0.40414998744E+03  0.00000000000E+00 0.  1.
         11    1    1    2    0    0 -0.37413929052E+02 -0.12554871104E+02 -0.19510760920E+03  0.19905880046E+03  0.00000000000E+00 0. -1.
</event>
<event>
 6    1  0.5317355E-006  0.8061062E+02  0.7561462E-02  0.1327327E+00
          4   -1    0    0  501    0  0.00000000000E+00  0.00000000000E+00  0.78932676481E+02  0.78932676481E+02  0.00000000000E+00 0. -1.
         -4   -1    0    0    0  501 -0.00000000000E+00 -0.00000000000E+00 -0.42873184350E+03  0.42873184350E+03  0.00000000000E+00 0.  1.
          5    1    1    2  502    0  0.12567602524E+00  0.11277596084E+02 -0.31451060645E+03  0.31474051843E+03  0.41800000000E+01 0.  1.
         -5    1    1    2    0  502  0.51167052234E+02  0.27843843625E+02 -0.53259803774E+02  0.79040660170E+02  0.41800000000E+01 0.  1.
        -11    1    1    2    0    0 -0.45576758599E+02 -0.56445218721E+02  0.41911578774E+02  0.83784748470E+02  0.00000000000E+00 0. -1.
         11    1    1    2    0    0 -0.57159696601E+01  0.17323779012E+02 -0.23940335567E+02  0.30098592915E+02  0.00000000000E+00 0.  1.
</event>
<event>
 6    1  0.5317355E-006  0.9467920E+02  0.7561462E-02  0.1291900E+00
          2   -1    0    0  501    0  0.00000000000E+00  0.00000000000E+00  0.16801964529E+03  0.16801964529E+03  0.00000000000E+00 0. -1.
         -2   -1    0    0    0  501 -0.00000000000E+00 -0.00000000000E+00 -0.10274775348E+03  0.10274775348E+03  0.00000000000E+00 0.  1.
          5    1    1    2  502    0 -0.52349417721E+02 -0.15272692133E+02 -0.48233079795E+02  0.72922006605E+02  0.41800000000E+01 0. -1.
         -5    1    1    2    0  502  0.23322409718E+01 -0.42498382048E+02  0.60610738294E+02  0.74180090464E+02  0.41800000000E+01 0. -1.
        -11    1    1    2    0    0  0.21464451007E+02 -0.57798776735E+01 -0.14654629179E+02  0.26624946936E+02  0.00000000000E+00 0.  1.
         11    1    1    2    0    0  0.28552725743E+02  0.63550951854E+02  0.67548862496E+02  0.97040354767E+02  0.00000000000E+00 0. -1.
</event>
<event>
 6    1  0.5317355E-006  0.1096280E+03  0.7561462E-02  0.1261260E+00
          2   -1    0    0  501    0  0.00000000000E+00  0.00000000000E+00  0.47498118042E+03  0.47498118042E+03  0.00000000000E+00 0. -1.
         -2   -1    0    0    0  501 -0.00000000000E+00 -0.00000000000E+00 -0.41596320804E+02  0.41596320804E+02  0.00000000000E+00 0.  1.
          5    1    1    2  502    0  0.88261345190E+02  0.23317973462E+02  0.87759749083E+02  0.12670058761E+03  0.41800000000E+01 0. -1.
         -5    1    1    2    0  502 -0.18162815408E+01 -0.19240833105E+02  0.18132852454E+03  0.18240343952E+03  0.41800000000E+01 0. -1.
        -11    1    1    2    0    0 -0.75069180169E+02  0.23176136388E+02  0.15916417894E+03  0.17749859427E+03  0.00000000000E+00 0. -1.
         11    1    1    2    0    0 -0.11375883480E+02 -0.27253276745E+02  0.51324070473E+01  0.29974879823E+02  0.00000000000E+00 0.  1.
</event>
<event>
 6    1  0.5317355E-006  0.1154322E+03  0.7561462E-02  0.1250829E+00
         -2   -1    0    0    0  501 -0.00000000000E+00  0.00000000000E+00  0.25199520902E+02  0.25199520902E+02  0.00000000000E+00 0. -1.
          2   -1    0    0  501    0  0.00000000000E+00 -0.00000000000E+00 -0.64969550605E+03  0.64969550605E+03  0.00000000000E+00 0.  1.
          5    1    1    2  502    0 -0.50991761396E+02 -0.56224471548E+02 -0.18446311057E+03  0.19951306346E+03  0.41800000000E+01 0.  1.
         -5    1    1    2    0  502 -0.78848084845E+01  0.56480510819E+02 -0.73079693600E+02  0.92791876390E+02  0.41800000000E+01 0.  1.
        -11    1    1    2    0    0 -0.13628794862E+02 -0.18424711693E+02 -0.31768230951E+02  0.39171859136E+02  0.00000000000E+00 0.  1.
         11    1    1    2    0    0  0.72505364743E+02  0.18168672422E+02 -0.33518495002E+03  0.34341822796E+03  0.00000000000E+00 0. -1.
</event>
<event>
 6    1  0.5317355E-006  0.1221042E+03  0.7561462E-02  0.1239666E+00
         -1   -1    0    0    0  501 -0.00000000000E+00  0.00000000000E+00  0.16694987057E+03  0.16694987057E+03  0.00000000000E+00 0.  1.
          1   -1    0    0  501    0  0.00000000000E+00 -0.00000000000E+00 -0.14608515139E+03  0.14608515139E+03  0.00000000000E+00 0. -1.
          5    1    1    2  502    0 -0.66621503915E+02 -0.78686046016E+02  0.51008437868E+02  0.11510539412E+03  0.41800000000E+01 0. -1.
         -5    1    1    2    0  502  0.31886317867E+02  0.16334920891E+02  0.46375545316E+02  0.58751429863E+02  0.41800000000E+01 0. -1.
        -11    1    1    2    0    0  0.21214915957E+02  0.79974283637E+02 -0.30687903648E+02  0.88247980898E+02  0.00000000000E+00 0.  1.
         11    1    1    2    0    0  0.13520270090E+02 -0.17623158512E+02 -0.45831360354E+02  0.50930217074E+02  0.00000000000E+00 0. -1.
</event>
<event>
 6    1  0.5317355E-006  0.1615044E+03  0.7561462E-02  0.1187009E+00
         -1   -1    0    0    0  501 -0.00000000000E+00  0.00000000000E+00  0.10075043976E+03  0.10075043976E+03  0.00000000000E+00 0.  1.
          1   -1    0    0  501    0  0.00000000000E+00 -0.00000000000E+00 -0.30679297469E+03  0.30679297469E+03  0.00000000000E+00 0. -1.
          5    1    1    2  502    0 -0.78503011015E+01 -0.22238054488E+02 -0.25537516884E+02  0.35011361918E+02  0.41800000000E+01 0.  1.
         -5    1    1    2    0  502  0.90597451830E+02  0.13234953647E+03 -0.88828081061E+02  0.18339083529E+03  0.41800000000E+01 0.  1.
        -11    1    1    2    0    0 -0.35710365176E+02 -0.60484823988E+02  0.53485431499E+01  0.70443246857E+02  0.00000000000E+00 0.  1.
         11    1    1    2    0    0 -0.47036785553E+02 -0.49626657993E+02 -0.97025480134E+02  0.11869797039E+03  0.00000000000E+00 0. -1.
</event>
<event>
 6    1  0.5317355E-006  0.9635641E+02  0.7561462E-02  0.1288150E+00
         -1   -1    0    0    0  501 -0.00000000000E+00  0.00000000000E+00  0.80125514212E+02  0.80125514212E+02  0.00000000000E+00 0.  1.
          1   -1    0    0  501    0  0.00000000000E+00 -0.00000000000E+00 -0.25962933172E+03  0.25962933172E+03  0.00000000000E+00 0. -1.
          5    1    1    2  502    0  0.37521309306E+02  0.10345618935E+02 -0.86562484928E+02  0.95002193028E+02  0.41800000000E+01 0.  1.
         -5    1    1    2    0  502  0.45983860941E+02 -0.28973245667E+02  0.35323648200E+02  0.64955345844E+02  0.41800000000E+01 0.  1.
        -11    1    1    2    0    0 -0.18997985757E+02  0.28036468044E+02  0.22144355938E+01  0.33939221090E+02  0.00000000000E+00 0.  1.
         11    1    1    2    0    0 -0.64507184490E+02 -0.94088413119E+01 -0.13047941637E+03  0.14585808597E+03  0.00000000000E+00 0. -1.
</event>
<event>
 6    1  0.5317355E-006  0.1529642E+03  0.7561462E-02  0.1196877E+00
          2   -1    0    0  501    0  0.00000000000E+00  0.00000000000E+00  0.47332582573E+03  0.47332582573E+03  0.00000000000E+00 0. -1.
         -2   -1    0    0    0  501 -0.00000000000E+00 -0.00000000000E+00 -0.10153847184E+03  0.10153847184E+03  0.00000000000E+00 0.  1.
          5    1    1    2  502    0 -0.13439247687E+03 -0.43049664951E+02  0.72023802247E+02  0.15849136248E+03  0.41800000000E+01 0. -1.
         -5    1    1    2    0  502 -0.25203232641E+01 -0.12663713088E+02 -0.35998159196E+02  0.38471567735E+02  0.41800000000E+01 0. -1.
        -11    1    1    2    0    0  0.48189970878E+02  0.36355567483E+02  0.23332864456E+03  0.24101090629E+03  0.00000000000E+00 0. -1.
         11    1    1    2    0    0  0.88722829255E+02  0.19357810555E+02  0.10243306628E+03  0.13689046106E+03  0.00000000000E+00 0.  1.
</event>
<event>
 6    1  0.5317355E-006  0.9807479E+02  0.7561462E-02  0.1284397E+00
          2   -1    0    0  501    0  0.00000000000E+00  0.00000000000E+00  0.11840500117E+03  0.11840500117E+03  0.00000000000E+00 0. -1.
         -2   -1    0    0    0  501 -0.00000000000E+00 -0.00000000000E+00 -0.10997724676E+03  0.10997724676E+03  0.00000000000E+00 0.  1.
          5    1    1    2  502    0  0.49186642435E+02  0.59896055757E+02  0.20532932782E+02  0.80286593015E+02  0.41800000000E+01 0.  1.
         -5    1    1    2    0  502 -0.16318376499E+02 -0.46897080218E+02 -0.73420815443E+01  0.50368681797E+02  0.41800000000E+01 0.  1.
        -11    1    1    2    0    0 -0.12307701637E+02 -0.35884993127E+02 -0.37121540150E+02  0.53077499889E+02  0.00000000000E+00 0.  1.
         11    1    1    2    0    0 -0.20560564299E+02  0.22886017587E+02  0.32358443325E+02  0.44649473230E+02  0.00000000000E+00 0. -1.
</event>
<event>
 6    1  0.5317355E-006  0.1205732E+03  0.7561462E-02  0.1242154E+00
         -2   -1    0    0    0  501 -0.00000000000E+00  0.00000000000E+00  0.15734920223E+03  0.15734920223E+03  0.00000000000E+00 0.  1.
          2   -1    0    0  501    0  0.00000000000E+00 -0.00000000000E+00 -0.14863751595E+03  0.14863751595E+03  0.00000000000E+00 0. -1.
          5    1    1    2  502    0  0.57140691346E+02 -0.90758767422E+02  0.85425386331E+02  0.13717573219E+03  0.41800000000E+01 0. -1.
         -5    1    1    2    0  502 -0.15551050818E+02  0.10547052502E+02 -0.22375879847E+02  0.29516569871E+02  0.41800000000E+01 0. -1.
        -11    1    1    2    0    0 -0.45680331217E+02  0.13365070772E+02  0.74488485261E+01  0.48174714542E+02  0.00000000000E+00 0. -1.
         11    1    1    2    0    0  0.40906906896E+01  0.66846644147E+02 -0.61786668725E+02  0.91119701581E+02  0.00000000000E+00 0.  1.
</event>
<event>
 6    1  0.5317355E-006  0.9786240E+02  0.7561462E-02  0.1284856E+00
         -2   -1    0    0    0  501 -0.00000000000E+00  0.00000000000E+00  0.26181743644E+02  0.26181743644E+02  0.00000000000E+00 0. -1.
          2   -1    0    0  501    0  0.00000000000E+00 -0.00000000000E+00 -0.57978572441E+03  0.57978572441E+03  0.00000000000E+00 0.  1.
          5    1    1    2  502    0  0.19701558100E+02 -0.29961448982E+02 -0.88170123052E+01  0.37162506948E+02  0.41800000000E+01 0.  1.
         -5    1    1    2    0  502  0.29368831246E+02  0.49169698058E+02 -0.23473645744E+03  0.24165856969E+03  0.41800000000E+01 0.  1.
        -11    1    1    2    0    0 -0.43732048258E+02 -0.52587072617E+02 -0.17400438785E+03  0.18696368429E+03  0.00000000000E+00 0. -1.
         11    1    1    2    0    0 -0.53383410882E+01  0.33378823542E+02 -0.13604612317E+03  0.14018270712E+03  0.00000000000E+00 0.  1.
</event>
<event>
 6    1  0.5317355E-006  0.1136004E+03  0.7561462E-02  0.1254044E+00
          3   -1    0    0  501    0  0.00000000000E+00  0.00000000000E+00  0.15460796467E+02  0.15460796467E+02  0.00000000000E+00 0. -1.
         -3   -1    0    0    0  501 -0.00000000000E+00 -0.00000000000E+00 -0.92078447051E+03  0.92078447051E+03  0.00000000000E+00 0.  1.
          5    1    1    2  502    0  0.18470683756E+02 -0.36058085782E+02 -0.81112043164E+02  0.90763360752E+02  0.41800000000E+01 0.  1.
         -5    1    1    2    0  502 -0.24361608096E+01  0.81908622421E+02 -0.42418286334E+03  0.43204575135E+03  0.41800000000E+01 0.  1.
        -11    1    1    2    0    0 -0.53905969262E+02 -0.16093115648E+02 -0.21223802066E+03  0.21956734572E+03  0.00000000000E+00 0.  1.
         11    1    1    2    0    0  0.37871446317E+02 -0.29757420991E+02 -0.18779074688E+03  0.19386880915E+03  0.00000000000E+00 0. -1.
</event>
<event>
 6    1  0.5317355E-006  0.9697661E+02  0.7561462E-02  0.1286785E+00
         -2   -1    0    0    0  501 -0.00000000000E+00  0.00000000000E+00  0.15790491478E+03  0.15790491478E+03  0.00000000000E+00 0.  1.
          2   -1    0    0  501    0  0.00000000000E+00 -0.00000000000E+00 -0.86755273183E+02  0.86755273183E+02  0.00000000000E+00 0. -1.
          5    1    1    2  502    0  0.11835635488E+01 -0.62639881624E+02  0.84370996675E+02  0.10517173134E+03  0.41800000000E+01 0. -1.
         -5    1    1    2    0  502 -0.28784710574E+01  0.45518624587E+02 -0.15837653074E+01  0.45828064464E+02  0.41800000000E+01 0. -1.
        -11    1    1    2    0    0  0.31269261189E+02 -0.20588474318E+02  0.13181537192E+02  0.39691370508E+02  0.00000000000E+00 0.  1.
         11    1    1    2    0    0 -0.29574353681E+02  0.37709731355E+02 -0.24819126966E+02  0.53969021650E+02  0.00000000000E+00 0. -1.
</event>
<event>
 6    1  0.5317355E-006  0.1707079E+03  0.7561462E-02  0.1177112E+00
          1   -1    0    0  501    0  0.00000000000E+00  0.00000000000E+00  0.43958761310E+03  0.43958761310E+03  0.00000000000E+00 0. -1.
         -1   -1    0    0    0  501 -0.00000000000E+00 -0.00000000000E+00 -0.77628797761E+02  0.77628797761E+02  0.00000000000E+00 0.  1.
          5    1    1    2  502    0  0.13368810761E+03  0.47824772949E+02  0.12948308985E+03  0.19220578030E+03  0.41800000000E+01 0.  1.
         -5    1    1    2    0  502  0.98597894127E+01 -0.30637761039E+02  0.10741576471E+03  0.11221188331E+03  0.41800000000E+01 0.  1.
        -11    1    1    2    0    0 -0.95524703117E+02  0.29460532654E+02  0.99765250110E+02  0.14123029781E+03  0.00000000000E+00 0. -1.
         11    1    1    2    0    0 -0.48023193907E+02 -0.46647544564E+02  0.25294710671E+02  0.71568449437E+02  0.00000000000E+00 0.  1.
</event>
<event>
 6    1  0.5317355E-006  0.1790389E+03  0.7561462E-02  0.1168736E+00
          2   -1    0    0  501    0  0.00000000000E+00  0.00000000000E+00  0.14588662868E+03  0.14588662868E+03  0.00000000000E+00 0. -1.
         -2   -1    0    0    0  501 -0.00000000000E+00 -0.00000000000E+00 -0.37673284037E+03  0.37673284037E+03  0.00000000000E+00 0.  1.
          5    1    1    2  502    0  0.36508544776E+02 -0.82735389771E+02 -0.94726094921E+02  0.13102871449E+03  0.41800000000E+01 0. -1.
         -5    1    1    2    0  502 -0.71669978363E+02 -0.45424253889E+02 -0.17655868614E+03  0.19593465924E+03  0.41800000000E+01 0. -1.
        -11    1    1    2    0    0  0.58714838322E+02  0.69593503613E+01 -0.13935210161E+02  0.60745821904E+02  0.00000000000E+00 0.  1.
         11    1    1    2    0    0 -0.23553404735E+02  0.12120029330E+03  0.54373779535E+02  0.13491027341E+03  0.00000000000E+00 0. -1.
</event>
<event>
 6    1  0.5317355E-006  0.1206888E+03  0.7561462E-02  0.1241965E+00
          2   -1    0    0  501    0  0.00000000000E+00  0.00000000000E+00  0.14565200233E+03  0.14565200233E+03  0.00000000000E+00 0.  1.
         -2   -1    0    0    0  501 -0.00000000000E+00 -0.00000000000E+00 -0.11343159046E+03  0.11343159046E+03  0.00000000000E+00 0. -1.
          5    1    1    2  502    0 -0.92534630819E+02 -0.45006413276E+01  0.32647376188E+01  0.92795714260E+02  0.41800000000E+01 0.  1.
         -5    1    1    2    0  502  0.36503087178E+02  0.16452188721E+02 -0.22532782978E+02  0.46134028612E+02  0.41800000000E+01 0.  1.
        -11    1    1    2    0    0  0.21201809145E+02 -0.51493910416E+02  0.29914096298E+02  0.63213864605E+02  0.00000000000E+00 0. -1.
         11    1    1    2    0    0  0.34829734496E+02  0.39542363023E+02  0.21574360930E+02  0.56939985318E+02  0.00000000000E+00 0.  1.
</event>
<event>
 6    1  0.5317355E-006  0.1115656E+03  0.7561462E-02  0.1257698E+00
         -1   -1    0    0    0  501 -0.00000000000E+00  0.00000000000E+00  0.26047903609E+03  0.26047903609E+03  0.00000000000E+00 0.  1.
          1   -1    0    0  501    0  0.00000000000E+00 -0.00000000000E+00 -0.89216358524E+02  0.89216358524E+02  0.00000000000E+00 0. -1.
          5    1    1    2  502    0 -0.58949216174E+02  0.84002266243E+01  0.12551483915E+03  0.13898568682E+03  0.41800000000E+01 0.  1.
         -5    1    1    2    0  502  0.55756313063E+02  0.43010391022E+02  0.75552893119E+02  0.10336523710E+03  0.41800000000E+01 0.  1.
        -11    1    1    2    0    0  0.14390767925E+02  0.17742131322E+02 -0.29473368312E+02  0.37290171158E+02  0.00000000000E+00 0. -1.
         11    1    1    2    0    0 -0.11197864814E+02 -0.69152748969E+02 -0.33168639736E+00  0.70054299527E+02  0.00000000000E+00 0.  1.
</event>
<event>
 6    1  0.5317355E-006  0.2114959E+03  0.7561462E-02  0.1140387E+00
          1   -1    0    0  501    0  0.00000000000E+00  0.00000000000E+00  0.13211400269E+03  0.13211400269E+03  0.00000000000E+00 0. -1.
         -1   -1    0    0    0  501 -0.00000000000E+00 -0.00000000000E+00 -0.39290211769E+03  0.39290211769E+03  0.00000000000E+00 0.  1.
          5    1    1    2  502    0 -0.85038487612E+02  0.22127786873E+02 -0.66449043565E+02  0.11024577596E+03  0.41800000000E+01 0.  1.
         -5    1    1    2    0  502 -0.18167286729E+02  0.13595639067E+03 -0.14391017835E+03  0.19885120644E+03  0.41800000000E+01 0.  1.
        -11    1    1    2    0    0  0.90563602031E+02 -0.86957414408E+02  0.37664506583E+01  0.12560869430E+03  0.00000000000E+00 0. -1.
         11    1    1    2    0    0  0.12642172310E+02 -0.71126763130E+02 -0.54195343735E+02  0.90310443675E+02  0.00000000000E+00 0.  1.
</event>
<event>
 6    1  0.5317355E-006  0.1770949E+03  0.7561462E-02  0.1170645E+00
          2   -1    0    0  501    0  0.00000000000E+00  0.00000000000E+00  0.32143151744E+03  0.32143151744E+03  0.00000000000E+00 0. -1.
         -2   -1    0    0    0  501 -0.00000000000E+00 -0.00000000000E+00 -0.11162996131E+03  0.11162996131E+03  0.00000000000E+00 0.  1.
          5    1    1    2  502    0 -0.44074732556E+02  0.59682229255E+01  0.16825778562E+01  0.44704644088E+02  0.41800000000E+01 0. -1.
         -5    1    1    2    0  502  0.46946160346E+02  0.13593090346E+03  0.33645432978E+02  0.14775195446E+03  0.41800000000E+01 0. -1.
        -11    1    1    2    0    0 -0.33765113714E+02 -0.18626943215E+02  0.42659650977E+02  0.57505580069E+02  0.00000000000E+00 0.  1.
         11    1    1    2    0    0  0.30893685924E+02 -0.12327218317E+03  0.13181389432E+03  0.18309930014E+03  0.00000000000E+00 0. -1.
</event>
<event>
 6    1  0.5317355E-006  0.1180527E+03  0.7561462E-02  0.1246344E+00
          2   -1    0    0  501    0  0.00000000000E+00  0.00000000000E+00  0.49482154349E+03  0.49482154349E+03  0.00000000000E+00 0. -1.
         -2   -1    0    0    0  501 -0.00000000000E+00 -0.00000000000E+00 -0.35054758195E+02  0.35054758195E+02  0.00000000000E+00 0.  1.
          5    1    1    2  502    0 -0.57563013221E+02 -0.39663953317E+02  0.20193463281E+03  0.21373300637E+03  0.41800000000E+01 0. -1.
         -5    1    1    2    0  502  0.39195479931E+02 -0.31399451472E+02  0.26723943213E+02  0.57042552017E+02  0.41800000000E+01 0. -1.
        -11    1    1    2    0    0 -0.35156676239E+02  0.42007292926E+02  0.89214647016E+02  0.10468933941E+03  0.00000000000E+00 0.  1.
         11    1    1    2    0    0  0.53524209530E+02  0.29056111863E+02  0.14189356225E+03  0.15441140389E+03  0.00000000000E+00 0. -1.
</event>
<event>
 6    1  0.5317355E-006  0.1975293E+03  0.7561462E-02  0.1151840E+00
         -1   -1    0    0    0  501 -0.00000000000E+00  0.00000000000E+00  0.12626417428E+03  0.12626417428E+03  0.00000000000E+00 0.  1.
          1   -1    0    0  501    0  0.00000000000E+00 -0.00000000000E+00 -0.37007049922E+03  0.37007049922E+03  0.00000000000E+00 0. -1.
          5    1    1    2  502    0  0.21426200833E+02 -0.21137148887E+02  0.21729931931E+02  0.37356706050E+02  0.41800000000E+01 0. -1.
         -5    1    1    2    0  502  0.57733771599E+02 -0.14580905508E+03 -0.16572376740E+03  0.22820014988E+03  0.41800000000E+01 0. -1.
        -11    1    1    2    0    0 -0.93976599144E+02  0.92413820677E+02 -0.69071717889E+02  0.14880462913E+03  0.00000000000E+00 0.  1.
         11    1    1    2    0    0  0.14816626712E+02  0.74532383290E+02 -0.30740771585E+02  0.81973188444E+02  0.00000000000E+00 0. -1.
</event>
<event>
 6    1  0.5317355E-006  0.1153942E+03  0.7561462E-02  0.1250895E+00
          1   -1    0    0  501    0  0.00000000000E+00  0.00000000000E+00  0.13899068062E+02  0.13899068062E+02  0.00000000000E+00 0. -1.
         -1   -1    0    0    0  501 -0.00000000000E+00 -0.00000000000E+00 -0.13613901001E+04  0.13613901001E+04  0.00000000000E+00 0.  1.
          5    1    1    2  502    0  0.22309694042E+02 -0.13761606116E+02 -0.52443819321E+03  0.52510950776E+03  0.41800000000E+01 0.  1.
         -5    1    1    2    0  502 -0.67753848497E+02  0.66138281759E+02 -0.45874591005E+03  0.46843370789E+03  0.41800000000E+01 0.  1.
        -11    1    1    2    0    0  0.50065821716E+02  0.64339000990E+01 -0.22257830475E+03  0.22823032953E+03  0.00000000000E+00 0.  1.
         11    1    1    2    0    0 -0.46216672601E+01 -0.58810575742E+02 -0.14172862407E+03  0.15351562301E+03  0.00000000000E+00 0. -1.
</event>
<event>
 6    1  0.5317355E-006  0.1350597E+03  0.7561462E-02  0.1220135E+00
          3   -1    0    0  501    0  0.00000000000E+00  0.00000000000E+00  0.30711351510E+03  0.30711351510E+03  0.00000000000E+00 0. -1.
         -3   -1    0    0    0  501 -0.00000000000E+00 -0.00000000000E+00 -0.17550066714E+03  0.17550066714E+03  0.00000000000E+00 0.  1.
          5    1    1    2  502    0 -0.11208020125E+03 -0.12115277814E+01 -0.36096731435E+02  0.11782990169E+03  0.41800000000E+01 0. -1.
         -5    1    1    2    0  502  0.62922495044E+01  0.34744577087E+02 -0.74803412805E+02  0.82823915677E+02  0.41800000000E+01 0. -1.
        -11    1    1    2    0    0  0.60298657741E+02 -0.45291774029E+02  0.69062826212E+02  0.10225921418E+03  0.00000000000E+00 0.  1.
         11    1    1    2    0    0  0.45489294006E+02  0.11758724723E+02  0.17345016599E+03  0.17970115069E+03  0.00000000000E+00 0. -1.
</event>
<event>
 6    1  0.5317355E-006  0.1394015E+03  0.7561462E-02  0.1214137E+00
          2   -1    0    0  501    0  0.00000000000E+00  0.00000000000E+00  0.46794011564E+03  0.46794011564E+03  0.00000000000E+00 0. -1.
         -2   -1    0    0    0  501 -0.00000000000E+00 -0.00000000000E+00 -0.61600966965E+02  0.61600966965E+02  0.00000000000E+00 0.  1.
          5    1    1    2  502    0  0.59689164050E+02 -0.49326523367E+02  0.78804171453E+01  0.77945337172E+02  0.41800000000E+01 0. -1.
         -5    1    1    2    0  502  0.34190715549E+02 -0.34301944803E+02  0.15648594664E+03  0.16386260203E+03  0.41800000000E+01 0. -1.
        -11    1    1    2    0    0 -0.10156581965E+03  0.41328003205E+02  0.19736222500E+03  0.22577747325E+03  0.00000000000E+00 0.  1.
         11    1    1    2    0    0  0.76859400513E+01  0.42300464965E+02  0.44610559888E+02  0.61955670154E+02  0.00000000000E+00 0. -1.
</event>
<event>
 6    1  0.5317355E-006  0.1113081E+03  0.7561462E-02  0.1258166E+00
          2   -1    0    0  501    0  0.00000000000E+00  0.00000000000E+00  0.61530325399E+03  0.61530325399E+03  0.00000000000E+00 0. -1.
         -2   -1    0    0    0  501 -0.00000000000E+00 -0.00000000000E+00 -0.39041311728E+02  0.39041311728E+02  0.00000000000E+00 0.  1.
          5    1    1    2  502    0  0.74706774382E+02  0.39832504903E+02  0.30495062436E+03  0.31651237935E+03  0.41800000000E+01 0.  1.
         -5    1    1    2    0  502  0.22505772745E+02  0.12794670319E+02 -0.50638611331E+01  0.26708210067E+02  0.41800000000E+01 0.  1.
        -11    1    1    2    0    0 -0.37113132090E+02 -0.28798689736E+02  0.28475608752E+02  0.54932771620E+02  0.00000000000E+00 0.  1.
         11    1    1    2    0    0 -0.60099415037E+02 -0.23828485485E+02  0.24789957028E+03  0.25619120468E+03  0.00000000000E+00 0. -1.
</event>
<event>
 6    1  0.5317355E-006  0.1896308E+03  0.7561462E-02  0.1158795E+00
         -1   -1    0    0    0  501 -0.00000000000E+00  0.00000000000E+00  0.41022386306E+03  0.41022386306E+03  0.00000000000E+00 0.  1.
          1   -1    0    0  501    0  0.00000000000E+00 -0.00000000000E+00 -0.10961200968E+03  0.10961200968E+03  0.00000000000E+00 0. -1.
          5    1    1    2  502    0  0.69514856060E+02  0.98001873191E+02  0.18959328884E+03  0.22449893081E+03  0.41800000000E+01 0.  1.
         -5    1    1    2    0  502  0.78591456205E+02 -0.13326677505E+02  0.45975116794E+02  0.92116236821E+02  0.41800000000E+01 0.  1.
        -11    1    1    2    0    0 -0.90036695091E+02 -0.19881017554E+02  0.70458931852E+02  0.11604448457E+03  0.00000000000E+00 0.  1.
         11    1    1    2    0    0 -0.58069617174E+02 -0.64794178132E+02 -0.54154841065E+01  0.87176220534E+02  0.00000000000E+00 0. -1.
</event>
<event>
 6    1  0.5317355E-006  0.1374862E+03  0.7561462E-02  0.1216752E+00
         -1   -1    0    0    0  501 -0.00000000000E+00  0.00000000000E+00  0.18540424454E+03  0.18540424454E+03  0.00000000000E+00 0.  1.
          1   -1    0    0  501    0  0.00000000000E+00 -0.00000000000E+00 -0.12581832570E+03  0.12581832570E+03  0.00000000000E+00 0. -1.
          5    1    1    2  502    0  0.11085501880E+03 -0.74203768497E+01  0.40826687556E+02  0.11844065182E+03  0.41800000000E+01 0. -1.
         -5    1    1    2    0  502 -0.19219409702E+02 -0.47449765753E+02  0.14321118810E+01  0.51384718776E+02  0.41800000000E+01 0. -1.
        -11    1    1    2    0    0 -0.68157236818E+02  0.21199867891E+02 -0.31147205234E+02  0.77878056750E+02  0.00000000000E+00 0. -1.
         11    1    1    2    0    0 -0.23478372282E+02  0.33670274712E+02  0.48474324637E+02  0.63519142888E+02  0.00000000000E+00 0.  1.
</event>
<event>
 6    1  0.5317355E-006  0.1210361E+03  0.7561462E-02  0.1241398E+00
          1   -1    0    0  501    0  0.00000000000E+00  0.00000000000E+00  0.32282808218E+03  0.32282808218E+03  0.00000000000E+00 0. -1.
         -1   -1    0    0    0  501 -0.00000000000E+00 -0.00000000000E+00 -0.72846616123E+02  0.72846616123E+02  0.00000000000E+00 0.  1.
          5    1    1    2  502    0  0.35339430536E+02 -0.21412063228E+02 -0.15976569888E+02  0.44498033526E+02  0.41800000000E+01 0.  1.
         -5    1    1    2    0  502 -0.86730271462E+02 -0.14899183848E+02  0.43308843490E+02  0.98169516611E+02  0.41800000000E+01 0.  1.
        -11    1    1    2    0    0 -0.14002191452E+02  0.44394665053E+02  0.50515329002E+02  0.68693130041E+02  0.00000000000E+00 0.  1.
         11    1    1    2    0    0  0.65393032378E+02 -0.80834179777E+01  0.17213386346E+03  0.18431401813E+03  0.00000000000E+00 0. -1.
</event>
<event>
 6    1  0.5317355E-006  0.1076266E+03  0.7561462E-02  0.1265029E+00
          2   -1    0    0  501    0  0.00000000000E+00  0.00000000000E+00  0.65032496777E+03  0.65032496777E+03  0.00000000000E+00 0. -1.
         -2   -1    0    0    0  501 -0.00000000000E+00 -0.00000000000E+00 -0.33851930053E+02  0.33851930053E+02  0.00000000000E+00 0.  1.
          5    1    1    2  502    0 -0.50107155777E+01  0.17462705011E+02  0.16686598094E+03  0.16790408372E+03  0.41800000000E+01 0.  1.
         -5    1    1    2    0  502  0.88615086977E+02  0.22444953886E+02  0.68617427717E+02  0.11437759126E+03  0.41800000000E+01 0.  1.
        -11    1    1    2    0    0 -0.28450684677E+02  0.10556021849E+02  0.28723083510E+02  0.41783807655E+02  0.00000000000E+00 0.  1.
         11    1    1    2    0    0 -0.55153686722E+02 -0.50463680746E+02  0.35226654555E+03  0.36011141518E+03  0.00000000000E+00 0. -1.
</event>
<event>
 6    1  0.5317355E-006  0.1262434E+03  0.7561462E-02  0.1233139E+00
          1   -1    0    0  501    0  0.00000000000E+00  0.00000000000E+00  0.10820790734E+04  0.10820790734E+04  0.00000000000E+00 0. -1.
         -1   -1    0    0    0  501 -0.00000000000E+00 -0.00000000000E+00 -0.15873868301E+02  0.15873868301E+02  0.00000000000E+00 0.  1.
          5    1    1    2  502    0  0.10480706903E+02 -0.46784715953E+02  0.30005184073E+03  0.30388687762E+03  0.41800000000E+01 0. -1.
         -5    1    1    2    0  502 -0.83738362744E+02  0.36804642137E+02  0.31060729176E+03  0.32382257052E+03  0.41800000000E+01 0. -1.
        -11    1    1    2    0    0  0.76735412818E+02 -0.22628299090E+02  0.26211303707E+03  0.27405037439E+03  0.00000000000E+00 0.  1.
         11    1    1    2    0    0 -0.34777569761E+01  0.32608372906E+02  0.19343303555E+03  0.19619311920E+03  0.00000000000E+00 0. -1.
</event>
<event>
 6    1  0.5317355E-006  0.1740119E+03  0.7561462E-02  0.1173727E+00
          2   -1    0    0  501    0  0.00000000000E+00  0.00000000000E+00  0.22884273344E+03  0.22884273344E+03  0.00000000000E+00 0.  1.
         -2   -1    0    0    0  501 -0.00000000000E+00 -0.00000000000E+00 -0.17744141563E+03  0.17744141563E+03  0.00000000000E+00 0. -1.
          5    1    1    2  502    0 -0.31763721072E+02 -0.76541217636E+02 -0.62923927202E+02  0.10413637687E+03  0.41800000000E+01 0.  1.
         -5    1    1    2    0  502 -0.60443881719E+02  0.12224251693E+03  0.24296047674E+02  0.13858017938E+03  0.41800000000E+01 0. -1.
        -11    1    1    2    0    0  0.59086166783E+02 -0.66925659431E+02  0.34929060715E+02  0.95865834778E+02  0.00000000000E+00 0. -1.
         11    1    1    2    0    0  0.33121436007E+02  0.21224360132E+02  0.55100136622E+02  0.67701758042E+02  0.00000000000E+00 0.  1.
</event>
<event>
 6    1  0.5317355E-006  0.1569193E+03  0.7561462E-02  0.1192219E+00
          2   -1    0    0  501    0  0.00000000000E+00  0.00000000000E+00  0.45926848837E+02  0.45926848837E+02  0.00000000000E+00 0. -1.
         -2   -1    0    0    0  501 -0.00000000000E+00 -0.00000000000E+00 -0.60232520412E+03  0.60232520412E+03  0.00000000000E+00 0.  1.
          5    1    1    2  502    0  0.76921275554E+02  0.20066802893E+02 -0.81602828567E+02  0.11400023351E+03  0.41800000000E+01 0. -1.
         -5    1    1    2    0  502  0.37602253958E+02 -0.71995927821E+02 -0.23810786793E+03  0.25161512732E+03  0.41800000000E+01 0. -1.
        -11    1    1    2    0    0 -0.32746023594E+02 -0.24556007797E+02 -0.46609824914E+02  0.62030438969E+02  0.00000000000E+00 0.  1.
         11    1    1    2    0    0 -0.81777505918E+02  0.76485132724E+02 -0.19007783387E+03  0.22060625316E+03  0.00000000000E+00 0. -1.
</event>
<event>
 6    1  0.5317355E-006  0.5408091E+02  0.7561462E-02  0.1424496E+00
          1   -1    0    0  501    0  0.00000000000E+00  0.00000000000E+00  0.18186434531E+03  0.18186434531E+03  0.00000000000E+00 0. -1.
         -1   -1    0    0    0  501 -0.00000000000E+00 -0.00000000000E+00 -0.71656683818E+02  0.71656683818E+02  0.00000000000E+00 0.  1.
          5    1    1    2  502    0  0.29668568618E+02  0.12893975197E+02  0.94890507342E+02  0.10034021798E+03  0.41800000000E+01 0.  1.
         -5    1    1    2    0  502  0.31688597366E+01 -0.74596586012E+00 -0.40238786857E+02  0.40586087577E+02  0.41800000000E+01 0.  1.
        -11    1    1    2    0    0 -0.36859773683E+02  0.17162984792E+02  0.69007004766E+02  0.80094804262E+02  0.00000000000E+00 0. -1.
         11    1    1    2    0    0  0.40223453287E+01 -0.29310994128E+02 -0.13451063762E+02  0.32499919308E+02  0.00000000000E+00 0.  1.
</event>
<event>
 6    1  0.5317355E-006  0.9628952E+02  0.7561462E-02  0.1288298E+00
         -1   -1    0    0    0  501 -0.00000000000E+00  0.00000000000E+00  0.25681557903E+02  0.25681557903E+02  0.00000000000E+00 0.  1.
          1   -1    0    0  501    0  0.00000000000E+00 -0.00000000000E+00 -0.52426757473E+03  0.52426757473E+03  0.00000000000E+00 0. -1.
          5    1    1    2  502    0 -0.76270238567E+01  0.42309903146E+02 -0.15284606000E+03  0.15883226956E+03  0.41800000000E+01 0. -1.
         -5    1    1    2    0  502  0.96991559481E+01 -0.57644599724E+02 -0.37882482476E+02  0.69782006148E+02  0.41800000000E+01 0. -1.
        -11    1    1    2    0    0  0.35736229871E+02 -0.18324076524E+02 -0.10990506460E+03  0.11701270500E+03  0.00000000000E+00 0. -1.
         11    1    1    2    0    0 -0.37808361963E+02  0.33658773102E+02 -0.19795240976E+03  0.20432215193E+03  0.00000000000E+00 0.  1.
</event>
<event>
 6    1  0.5317355E-006  0.8637022E+02  0.7561462E-02  0.1311888E+00
         -2   -1    0    0    0  501 -0.00000000000E+00  0.00000000000E+00  0.10981697106E+03  0.10981697106E+03  0.00000000000E+00 0.  1.
          2   -1    0    0  501    0  0.00000000000E+00 -0.00000000000E+00 -0.13738876736E+03  0.13738876736E+03  0.00000000000E+00 0. -1.
          5    1    1    2  502    0 -0.14007456578E+02 -0.36609510062E+02  0.41396030247E+02  0.57162652029E+02  0.41800000000E+01 0.  1.
         -5    1    1    2    0  502  0.63102394484E+02  0.40090396234E+02 -0.23427034136E+02  0.78456678417E+02  0.41800000000E+01 0.  1.
        -11    1    1    2    0    0 -0.38125155664E+02 -0.16393104017E+02 -0.70270109644E+02  0.81609740001E+02  0.00000000000E+00 0. -1.
         11    1    1    2    0    0 -0.10969782243E+02  0.12912217845E+02  0.24729317237E+02  0.29976667979E+02  0.00000000000E+00 0.  1.
</event>
<event>
 6    1  0.5317355E-006  0.2067715E+03  0.7561462E-02  0.1144148E+00
          1   -1    0    0  501    0  0.00000000000E+00  0.00000000000E+00  0.59982614921E+03  0.59982614921E+03  0.00000000000E+00 0. -1.
         -1   -1    0    0    0  501 -0.00000000000E+00 -0.00000000000E+00 -0.90410173849E+02  0.90410173849E+02  0.00000000000E+00 0.  1.
          5    1    1    2  502    0  0.44355950562E+02  0.18282208379E+03  0.17678233170E+03  0.25818758660E+03  0.41800000000E+01 0. -1.
         -5    1    1    2    0  502  0.15942366299E+02  0.10507987935E+02  0.12329073255E+03  0.12483050103E+03  0.41800000000E+01 0. -1.
        -11    1    1    2    0    0 -0.20838752220E+02 -0.12657569195E+03  0.66042267106E+02  0.14428180908E+03  0.00000000000E+00 0.  1.
         11    1    1    2    0    0 -0.39459564640E+02 -0.66754379782E+02  0.14330064400E+03  0.16293642636E+03  0.00000000000E+00 0. -1.
</event>
<event>
 6    1  0.5317355E-006  0.1685643E+03  0.7561462E-02  0.1179353E+00
          4   -1    0    0  501    0  0.00000000000E+00  0.00000000000E+00  0.25294631938E+03  0.25294631938E+03  0.00000000000E+00 0. -1.
         -4   -1    0    0    0  501 -0.00000000000E+00 -0.00000000000E+00 -0.14502860853E+03  0.14502860853E+03  0.00000000000E+00 0.  1.
          5    1    1    2  502    0  0.38619662687E+02  0.11638720781E+02  0.43099709577E+02  0.59177660761E+02  0.41800000000E+01 0.  1.
         -5    1    1    2    0  502  0.54683575331E+01  0.13260385325E+03 -0.33725430905E+02  0.13699840116E+03  0.41800000000E+01 0.  1.
        -11    1    1    2    0    0  0.16698103764E+02 -0.35002659622E+02 -0.54799282238E+01  0.39166854141E+02  0.00000000000E+00 0.  1.
         11    1    1    2    0    0 -0.60786123984E+02 -0.10923991441E+03  0.10402336040E+03  0.16263201185E+03  0.00000000000E+00 0. -1.
</event>
<event>
 6    1  0.5317355E-006  0.9187233E+02  0.7561462E-02  0.1298380E+00
         -2   -1    0    0    0  501 -0.00000000000E+00  0.00000000000E+00  0.16029454119E+03  0.16029454119E+03  0.00000000000E+00 0.  1.
          2   -1    0    0  501    0  0.00000000000E+00 -0.00000000000E+00 -0.92853777844E+02  0.92853777844E+02  0.00000000000E+00 0. -1.
          5    1    1    2  502    0  0.45870424706E+02  0.30314309718E+02  0.29434411539E+02  0.62505281529E+02  0.41800000000E+01 0. -1.
         -5    1    1    2    0  502 -0.27652405431E+02 -0.73146470913E+02  0.38770774140E+02  0.87382532926E+02  0.41800000000E+01 0. -1.
        -11    1    1    2    0    0 -0.86007901626E+01  0.39005715563E+02 -0.43636245754E+02  0.59156921670E+02  0.00000000000E+00 0. -1.
         11    1    1    2    0    0 -0.96172291121E+01  0.38264456321E+01  0.42871823425E+02  0.44103582913E+02  0.00000000000E+00 0.  1.
</event>
<event>
 6    1  0.5317355E-006  0.4327568E+03  0.7561462E-02  0.1032993E+00
          2   -1    0    0  501    0  0.00000000000E+00  0.00000000000E+00  0.28076444087E+03  0.28076444087E+03  0.00000000000E+00 0.  1.
         -2   -1    0    0    0  501 -0.00000000000E+00 -0.00000000000E+00 -0.91071759762E+03  0.91071759762E+03  0.00000000000E+00 0. -1.
          5    1    1    2  502    0  0.27474627261E+03 -0.26134119476E+03 -0.54827784416E+03  0.66664143375E+03  0.41800000000E+01 0.  1.
         -5    1    1    2    0  502  0.61572791389E+02  0.25299099604E+01 -0.66197912262E+02  0.90538638557E+02  0.41800000000E+01 0.  1.
        -11    1    1    2    0    0 -0.14321268043E+03  0.11750300889E+03 -0.51609304099E+02  0.19230275402E+03  0.00000000000E+00 0.  1.
         11    1    1    2    0    0 -0.19310638357E+03  0.14130827591E+03  0.36131903766E+02  0.24199921216E+03  0.00000000000E+00 0. -1.
</event>
<event>
 6    1  0.5317355E-006  0.1005156E+03  0.7561462E-02  0.1279215E+00
         -2   -1    0    0    0  501 -0.00000000000E+00  0.00000000000E+00  0.46147581306E+02  0.46147581306E+02  0.00000000000E+00 0. -1.
          2   -1    0    0  501    0  0.00000000000E+00 -0.00000000000E+00 -0.32268896081E+03  0.32268896081E+03  0.00000000000E+00 0.  1.
          5    1    1    2  502    0 -0.13531456756E+02  0.58144179686E+02 -0.28746298605E+01  0.59913119183E+02  0.41800000000E+01 0. -1.
         -5    1    1    2    0  502 -0.59962217109E+01 -0.47441653385E+02 -0.75193338071E+02  0.89208607438E+02  0.41800000000E+01 0. -1.
        -11    1    1    2    0    0  0.55090299216E+02 -0.15675448207E+02 -0.13751014799E+03  0.14896208089E+03  0.00000000000E+00 0.  1.
         11    1    1    2    0    0 -0.35562620749E+02  0.49729219052E+01 -0.60963263580E+02  0.70752734598E+02  0.00000000000E+00 0. -1.
</event>
<event>
 6    1  0.5317355E-006  0.2659746E+03  0.7561462E-02  0.1103606E+00
         -1   -1    0    0    0  501 -0.00000000000E+00  0.00000000000E+00  0.31658897786E+03  0.31658897786E+03  0.00000000000E+00 0.  1.
          1   -1    0    0  501    0  0.00000000000E+00 -0.00000000000E+00 -0.24967572813E+03  0.24967572813E+03  0.00000000000E+00 0. -1.
          5    1    1    2  502    0  0.12271073246E+03 -0.23063751692E+03 -0.32038280541E+02  0.26324040703E+03  0.41800000000E+01 0.  1.
         -5    1    1    2    0  502  0.45985237780E+01  0.15692271738E+02 -0.90507723668E+01  0.19151571572E+02  0.41800000000E+01 0.  1.
        -11    1    1    2    0    0 -0.82854362919E+02  0.96020217309E+02  0.17661209323E+02  0.12804938852E+03  0.00000000000E+00 0.  1.
         11    1    1    2    0    0 -0.44454893319E+02  0.11892502787E+03  0.90341093313E+02  0.15582333887E+03  0.00000000000E+00 0. -1.
</event>
<event>
 6    1  0.5317355E-006  0.1834138E+03  0.7561462E-02  0.1164539E+00
         -2   -1    0    0    0  501 -0.00000000000E+00  0.00000000000E+00  0.24389941086E+03  0.24389941086E+03  0.00000000000E+00 0. -1.
          2   -1    0    0  501    0  0.00000000000E+00 -0.00000000000E+00 -0.17339470941E+03  0.17339470941E+03  0.00000000000E+00 0.  1.
          5    1    1    2  502    0  0.18226476994E+02 -0.95894364351E+02 -0.32736719735E+02  0.10303930705E+03  0.41800000000E+01 0.  1.
         -5    1    1    2    0  502 -0.24264534405E+02 -0.77563897512E+02  0.84011853919E+02  0.11696319860E+03  0.41800000000E+01 0.  1.
        -11    1    1    2    0    0  0.36567277617E+02  0.60089116572E+02  0.35449202036E+02  0.78768735217E+02  0.00000000000E+00 0. -1.
         11    1    1    2    0    0 -0.30529220205E+02  0.11336914529E+03 -0.16219634774E+02  0.11852287941E+03  0.00000000000E+00 0.  1.
</event>
<event>
 6    1  0.5317355E-006  0.2294460E+03  0.7561462E-02  0.1127030E+00
          2   -1    0    0  501    0  0.00000000000E+00  0.00000000000E+00  0.16099562034E+03  0.16099562034E+03  0.00000000000E+00 0. -1.
         -2   -1    0    0    0  501 -0.00000000000E+00 -0.00000000000E+00 -0.45157687990E+03  0.45157687990E+03  0.00000000000E+00 0.  1.
          5    1    1    2  502    0  0.13658244698E+03  0.12835445051E+03 -0.57520312274E+02  0.19610122007E+03  0.41800000000E+01 0. -1.
         -5    1    1    2    0  502 -0.12024185056E+03  0.20168002163E+02 -0.20646548907E+03  0.23981309705E+03  0.41800000000E+01 0.  1.
        -11    1    1    2    0    0 -0.14077679501E+02 -0.12398022070E+03  0.17642404473E+02  0.12601797737E+03  0.00000000000E+00 0. -1.
         11    1    1    2    0    0 -0.22629169143E+01 -0.24542231976E+02 -0.44237862695E+02  0.50640205757E+02  0.00000000000E+00 0.  1.
</event>
<event>
 6    1  0.5317355E-006  0.1224171E+03  0.7561462E-02  0.1239162E+00
          1   -1    0    0  501    0  0.00000000000E+00  0.00000000000E+00  0.28567373063E+03  0.28567373063E+03  0.00000000000E+00 0. -1.
         -1   -1    0    0    0  501 -0.00000000000E+00 -0.00000000000E+00 -0.12526966727E+03  0.12526966727E+03  0.00000000000E+00 0.  1.
          5    1    1    2  502    0 -0.25891725155E+02 -0.89927006038E+02  0.19554861441E+02  0.95692804601E+02  0.41800000000E+01 0. -1.
         -5    1    1    2    0  502 -0.37056911735E+02  0.84057386185E+01 -0.60285623381E+02  0.71384171463E+02  0.41800000000E+01 0. -1.
        -11    1    1    2    0    0  0.35255224732E+02  0.10627188752E+02  0.10031258299E+02  0.38164042694E+02  0.00000000000E+00 0.  1.
         11    1    1    2    0    0  0.27693412158E+02  0.70894078667E+02  0.19110356700E+03  0.20570237915E+03  0.00000000000E+00 0. -1.
</event>
<event>
 6    1  0.5317355E-006  0.1587976E+03  0.7561462E-02  0.1190061E+00
          1   -1    0    0  501    0  0.00000000000E+00  0.00000000000E+00  0.21891394272E+03  0.21891394272E+03  0.00000000000E+00 0. -1.
         -1   -1    0    0    0  501 -0.00000000000E+00 -0.00000000000E+00 -0.20444890027E+03  0.20444890027E+03  0.00000000000E+00 0.  1.
          5    1    1    2  502    0 -0.13545749943E+03  0.70356455379E+02 -0.11774248475E+03  0.19281994213E+03  0.41800000000E+01 0. -1.
         -5    1    1    2    0  502  0.81206461618E+00 -0.15161326685E+02  0.17611493435E+02  0.23625460351E+02  0.41800000000E+01 0. -1.
        -11    1    1    2    0    0  0.12047964896E+03 -0.36882813014E+02  0.12845507806E+03  0.17993441802E+03  0.00000000000E+00 0. -1.
         11    1    1    2    0    0  0.14165785862E+02 -0.18312315679E+02 -0.13859044292E+02  0.26983022501E+02  0.00000000000E+00 0.  1.
</event>
<event>
 6    1  0.5317355E-006  0.1964407E+03  0.7561462E-02  0.1152777E+00
          2   -1    0    0  501    0  0.00000000000E+00  0.00000000000E+00  0.10969560717E+03  0.10969560717E+03  0.00000000000E+00 0. -1.
         -2   -1    0    0    0  501 -0.00000000000E+00 -0.00000000000E+00 -0.38307575346E+03  0.38307575346E+03  0.00000000000E+00 0.  1.
          5    1    1    2  502    0  0.51517811115E+02 -0.11850778050E+03 -0.10727440920E+03  0.16799836359E+03  0.41800000000E+01 0. -1.
         -5    1    1    2    0  502 -0.63047616359E+02 -0.54875245508E+02 -0.94047742471E+02  0.12589179783E+03  0.41800000000E+01 0. -1.
        -11    1    1    2    0    0  0.21186620256E+02  0.33171278747E+02 -0.37023307967E+02  0.54036394628E+02  0.00000000000E+00 0. -1.
         11    1    1    2    0    0 -0.96568150114E+01  0.14021174726E+03 -0.35034686657E+02  0.14484480458E+03  0.00000000000E+00 0.  1.
</event>
<event>
 6    1  0.5317355E-006  0.1527921E+03  0.7561462E-02  0.1197083E+00
          1   -1    0    0  501    0  0.00000000000E+00  0.00000000000E+00  0.61643430637E+02  0.61643430637E+02  0.00000000000E+00 0. -1.
         -1   -1    0    0    0  501 -0.00000000000E+00 -0.00000000000E+00 -0.73519950566E+03  0.73519950566E+03  0.00000000000E+00 0.  1.
          5    1    1    2  502    0  0.18806292834E+02 -0.47985542131E+01 -0.30033891853E+03  0.30099442047E+03  0.41800000000E+01 0.  1.
         -5    1    1    2    0  502  0.12983453308E+03 -0.23645466506E+02 -0.24019749014E+03  0.27409564158E+03  0.41800000000E+01 0.  1.
        -11    1    1    2    0    0 -0.86202098459E+02  0.29538486940E+01 -0.17533785942E+02  0.88016820269E+02  0.00000000000E+00 0. -1.
         11    1    1    2    0    0 -0.62438727460E+02  0.25490172025E+02 -0.11548588041E+03  0.13373605397E+03  0.00000000000E+00 0.  1.
</event>
<event>
 6    1  0.5317355E-006  0.1393163E+03  0.7561462E-02  0.1214252E+00
          2   -1    0    0  501    0  0.00000000000E+00  0.00000000000E+00  0.48558410948E+03  0.48558410948E+03  0.00000000000E+00 0.  1.
         -2   -1    0    0    0  501 -0.00000000000E+00 -0.00000000000E+00 -0.63037753433E+02  0.63037753433E+02  0.00000000000E+00 0. -1.
          5    1    1    2  502    0 -0.97241087124E+02 -0.65004212809E+02  0.45448497143E+02  0.12555642158E+03  0.41800000000E+01 0. -1.
         -5    1    1    2    0  502 -0.37166806939E+01  0.42115690471E+02  0.37998896284E+02  0.56999417699E+02  0.41800000000E+01 0. -1.
        -11    1    1    2    0    0  0.10244389370E+03  0.65006285406E+01  0.33308950409E+03  0.34854788374E+03  0.00000000000E+00 0.  1.
         11    1    1    2    0    0 -0.14861258855E+01  0.16387893797E+02  0.60094585304E+01  0.17518139886E+02  0.00000000000E+00 0. -1.
</event>
<event>
 6    1  0.5317355E-006  0.2008055E+03  0.7561462E-02  0.1149061E+00
         -1   -1    0    0    0  501 -0.00000000000E+00  0.00000000000E+00  0.15968380881E+03  0.15968380881E+03  0.00000000000E+00 0.  1.
          1   -1    0    0  501    0  0.00000000000E+00 -0.00000000000E+00 -0.31892195701E+03  0.31892195701E+03  0.00000000000E+00 0. -1.
          5    1    1    2  502    0 -0.65475589277E+02 -0.32766044864E+02  0.36383142500E+02  0.81864961647E+02  0.41800000000E+01 0.  1.
         -5    1    1    2    0  502 -0.10190081544E+03 -0.70702063567E+02 -0.10127709434E+03  0.16017827636E+03  0.41800000000E+01 0.  1.
        -11    1    1    2    0    0  0.60627693245E+02  0.69338882686E+02 -0.32921332387E+01  0.92165264507E+02  0.00000000000E+00 0.  1.
         11    1    1    2    0    0  0.10674871147E+03  0.34129225745E+02 -0.91052063116E+02  0.14439726330E+03  0.00000000000E+00 0. -1.
</event>
<event>
 6    1  0.5317355E-006  0.1360734E+03  0.7561462E-02  0.1218712E+00
         -1   -1    0    0    0  501 -0.00000000000E+00  0.00000000000E+00  0.21030763232E+03  0.21030763232E+03  0.00000000000E+00 0.  1.
          1   -1    0    0  501    0  0.00000000000E+00 -0.00000000000E+00 -0.11025996374E+03  0.11025996374E+03  0.00000000000E+00 0. -1.
          5    1    1    2  502    0  0.92459496063E+01  0.61290731282E+02  0.30953085309E+02  0.69408985119E+02  0.41800000000E+01 0.  1.
         -5    1    1    2    0  502 -0.10189947538E+03 -0.64688584032E+01  0.29657083472E+02  0.10640659853E+03  0.41800000000E+01 0.  1.
        -11    1    1    2    0    0  0.18095022584E+02 -0.79537328923E+01 -0.27688934805E+02  0.34020123749E+02  0.00000000000E+00 0. -1.
         11    1    1    2    0    0  0.74558503186E+02 -0.46868139986E+02  0.67126434609E+02  0.11073188866E+03  0.00000000000E+00 0.  1.
</event>
<event>
 6    1  0.5317355E-006  0.1280319E+03  0.7561462E-02  0.1230406E+00
          2   -1    0    0  501    0  0.00000000000E+00  0.00000000000E+00  0.99261317389E+03  0.99261317389E+03  0.00000000000E+00 0.  1.
         -2   -1    0    0    0  501 -0.00000000000E+00 -0.00000000000E+00 -0.17073724614E+02  0.17073724614E+02  0.00000000000E+00 0. -1.
          5    1    1    2  502    0  0.68427198457E+02 -0.65069877663E+02  0.28017798523E+03  0.29569164053E+03  0.41800000000E+01 0. -1.
         -5    1    1    2    0  502 -0.47520254589E+02 -0.38453513320E+01  0.20426964305E+03  0.20980114584E+03  0.41800000000E+01 0. -1.
        -11    1    1    2    0    0 -0.51368758383E+02  0.65191079779E+02  0.33639199309E+03  0.34647972413E+03  0.00000000000E+00 0. -1.
         11    1    1    2    0    0  0.30461814515E+02  0.37241492164E+01  0.15469982791E+03  0.15771438801E+03  0.00000000000E+00 0.  1.
</event>
<event>
 6    1  0.5317355E-006  0.8555396E+02  0.7561462E-02  0.1313990E+00
         -1   -1    0    0    0  501 -0.00000000000E+00  0.00000000000E+00  0.16199343852E+03  0.16199343852E+03  0.00000000000E+00 0.  1.
          1   -1    0    0  501    0  0.00000000000E+00 -0.00000000000E+00 -0.98256801629E+02  0.98256801629E+02  0.00000000000E+00 0. -1.
          5    1    1    2  502    0 -0.38139623654E+02  0.16240626214E+02  0.66143815227E+02  0.78172025208E+02  0.41800000000E+01 0. -1.
         -5    1    1    2    0  502  0.45038034127E+02  0.47337630574E+02 -0.22039327594E+02  0.69083139384E+02  0.41800000000E+01 0. -1.
        -11    1    1    2    0    0 -0.50455178501E+01 -0.52149506672E+02  0.54892270827E+02  0.75882736463E+02  0.00000000000E+00 0.  1.
         11    1    1    2    0    0 -0.18528926229E+01 -0.11428750116E+02 -0.35260121567E+02  0.37112339097E+02  0.00000000000E+00 0. -1.
</event>
<event>
 6    1  0.5317355E-006  0.1204066E+03  0.7561462E-02  0.1242428E+00
         -1   -1    0    0    0  501 -0.00000000000E+00  0.00000000000E+00  0.72164583564E+02  0.72164583564E+02  0.00000000000E+00 0.  1.
          1   -1    0    0  501    0  0.00000000000E+00 -0.00000000000E+00 -0.44962418224E+03  0.44962418224E+03  0.00000000000E+00 0. -1.
          5    1    1    2  502    0  0.25018815322E+02 -0.11278123003E+02  0.36918119420E+02  0.46190444034E+02  0.41800000000E+01 0. -1.
         -5    1    1    2    0  502  0.78469171698E+02 -0.30193653635E+02 -0.10523961163E+03  0.13476615258E+03  0.41800000000E+01 0. -1.
        -11    1    1    2    0    0 -0.74427010501E+02 -0.44135355953E+01 -0.99872492957E+02  0.12463295727E+03  0.00000000000E+00 0.  1.
         11    1    1    2    0    0 -0.29060976519E+02  0.45885312233E+02 -0.20926561351E+03  0.21619921192E+03  0.00000000000E+00 0. -1.
</event>
<event>
 6    1  0.5317355E-006  0.8741915E+02  0.7561462E-02  0.1309225E+00
          2   -1    0    0  501    0  0.00000000000E+00  0.00000000000E+00  0.69238363294E+03  0.69238363294E+03  0.00000000000E+00 0. -1.
         -2   -1    0    0    0  501 -0.00000000000E+00 -0.00000000000E+00 -0.29345110696E+02  0.29345110696E+02  0.00000000000E+00 0.  1.
          5    1    1    2  502    0  0.20632443211E+02 -0.11074339930E+01  0.40095230948E+03  0.40150610331E+03  0.41800000000E+01 0. -1.
         -5    1    1    2    0  502 -0.69000288582E+02 -0.22088107740E+02  0.41784637079E+02  0.83739791162E+02  0.41800000000E+01 0.  1.
        -11    1    1    2    0    0  0.31830402739E+01  0.34470672104E+02  0.13420924782E+03  0.13860188015E+03  0.00000000000E+00 0. -1.
         11    1    1    2    0    0  0.45184805097E+02 -0.11275130371E+02  0.86092327865E+02  0.97880969007E+02  0.00000000000E+00 0.  1.
</event>
<event>
 6    1  0.5317355E-006  0.1020157E+03  0.7561462E-02  0.1276114E+00
          2   -1    0    0  501    0  0.00000000000E+00  0.00000000000E+00  0.29528127779E+03  0.29528127779E+03  0.00000000000E+00 0.  1.
         -2   -1    0    0    0  501 -0.00000000000E+00 -0.00000000000E+00 -0.56711667628E+02  0.56711667628E+02  0.00000000000E+00 0. -1.
          5    1    1    2  502    0  0.27025728948E+02 -0.39926141279E+02 -0.12503592536E+02  0.49982987195E+02  0.41800000000E+01 0.  1.
         -5    1    1    2    0  502  0.32069969977E+02  0.49781461682E+02  0.93145726941E+02  0.11045485842E+03  0.41800000000E+01 0.  1.
        -11    1    1    2    0    0  0.17960736705E+02  0.28206790899E+01  0.76905797359E+02  0.79025603198E+02  0.00000000000E+00 0.  1.
         11    1    1    2    0    0 -0.77056435630E+02 -0.12675999493E+02  0.81021678398E+02  0.11252949660E+03  0.00000000000E+00 0. -1.
</event>
<event>
 6    1  0.5317355E-006  0.7633161E+02  0.7561462E-02  0.1339796E+00
         -2   -1    0    0    0  501 -0.00000000000E+00  0.00000000000E+00  0.48362722588E+03  0.48362722588E+03  0.00000000000E+00 0.  1.
          2   -1    0    0  501    0  0.00000000000E+00 -0.00000000000E+00 -0.36278981041E+02  0.36278981041E+02  0.00000000000E+00 0. -1.
          5    1    1    2  502    0 -0.58583583944E+01 -0.31467271273E+02  0.19168830149E+02  0.37542322434E+02  0.41800000000E+01 0. -1.
         -5    1    1    2    0  502 -0.29040714519E+02  0.98030499007E+01  0.35976962812E+03  0.36109710689E+03  0.41800000000E+01 0.  1.
        -11    1    1    2    0    0  0.58996903604E+02  0.26818232334E+02  0.71420923283E+02  0.96440657935E+02  0.00000000000E+00 0. -1.
         11    1    1    2    0    0 -0.24097830690E+02 -0.51540109614E+01 -0.30111367156E+01  0.24826119658E+02  0.00000000000E+00 0.  1.
</event>
<event>
 6    1  0.5317355E-006  0.1283349E+03  0.7561462E-02  0.1229948E+00
         -4   -1    0    0    0  501 -0.00000000000E+00  0.00000000000E+00  0.88418723728E+02  0.88418723728E+02  0.00000000000E+00 0.  1.
          4   -1    0    0  501    0  0.00000000000E+00 -0.00000000000E+00 -0.22668070182E+03  0.22668070182E+03  0.00000000000E+00 0. -1.
          5    1    1    2  502    0  0.33422599514E+02 -0.97437293692E+02 -0.19843639797E+02  0.10498732686E+03  0.41800000000E+01 0.  1.
         -5    1    1    2    0  502 -0.43564419804E+02  0.15722763842E+02 -0.13746722702E+02  0.48492357756E+02  0.41800000000E+01 0.  1.
        -11    1    1    2    0    0  0.31332192722E+02  0.10930690583E+02 -0.74969761722E+02  0.81985678444E+02  0.00000000000E+00 0.  1.
         11    1    1    2    0    0 -0.21190372431E+02  0.70783839268E+02 -0.29701853870E+02  0.79634062489E+02  0.00000000000E+00 0. -1.
</event>
<event>
 6    1  0.5317355E-006  0.9390556E+02  0.7561462E-02  0.1293660E+00
          3   -1    0    0  501    0  0.00000000000E+00  0.00000000000E+00  0.11114409347E+03  0.11114409347E+03  0.00000000000E+00 0. -1.
         -3   -1    0    0    0  501 -0.00000000000E+00 -0.00000000000E+00 -0.21572297387E+03  0.21572297387E+03  0.00000000000E+00 0.  1.
          5    1    1    2  502    0 -0.10996695310E+02 -0.38764998803E+02  0.11338448885E+01  0.40526663373E+02  0.41800000000E+01 0. -1.
         -5    1    1    2    0  502  0.16657841308E+02  0.64994031709E+02 -0.16276864029E+03  0.17610454422E+03  0.41800000000E+01 0.  1.
        -11    1    1    2    0    0 -0.39619351730E+02 -0.23367088608E+02  0.26944353823E+01  0.46075740293E+02  0.00000000000E+00 0.  1.
         11    1    1    2    0    0  0.33958205732E+02 -0.28619442980E+01  0.54361479621E+02  0.64160119453E+02  0.00000000000E+00 0. -1.
</event>
<event>
 6    1  0.5317355E-006  0.1122608E+03  0.7561462E-02  0.1256440E+00
         -1   -1    0    0    0  501 -0.00000000000E+00  0.00000000000E+00  0.28270396966E+02  0.28270396966E+02  0.00000000000E+00 0. -1.
          1   -1    0    0  501    0  0.00000000000E+00 -0.00000000000E+00 -0.53258616041E+03  0.53258616041E+03  0.00000000000E+00 0.  1.
          5    1    1    2  502    0  0.38950263970E+02  0.76999407350E+02 -0.22252083677E+03  0.23870280055E+03  0.41800000000E+01 0. -1.
         -5    1    1    2    0  502  0.50622504556E+01 -0.43281308292E+02 -0.51586502646E+02  0.67657502780E+02  0.41800000000E+01 0. -1.
        -11    1    1    2    0    0 -0.60214970473E+02 -0.38059813969E+01 -0.20033327385E+03  0.20922176936E+03  0.00000000000E+00 0.  1.
         11    1    1    2    0    0  0.16202456048E+02 -0.29912117661E+02 -0.29875150180E+02  0.45274484682E+02  0.00000000000E+00 0. -1.
</event>
<event>
 6    1  0.5317355E-006  0.1367897E+03  0.7561462E-02  0.1217715E+00
          1   -1    0    0  501    0  0.00000000000E+00  0.00000000000E+00  0.26575108614E+03  0.26575108614E+03  0.00000000000E+00 0. -1.
         -1   -1    0    0    0  501 -0.00000000000E+00 -0.00000000000E+00 -0.10183099046E+03  0.10183099046E+03  0.00000000000E+00 0.  1.
          5    1    1    2  502    0 -0.82877410084E+02 -0.54395968920E+02 -0.18044824739E+02  0.10084976270E+03  0.41800000000E+01 0. -1.
         -5    1    1    2    0  502  0.45276035544E+00  0.49259244406E+02  0.45575906166E+01  0.49647982675E+02  0.41800000000E+01 0. -1.
        -11    1    1    2    0    0  0.83037177772E+02  0.38515194672E+02  0.12457318449E+03  0.15458677630E+03  0.00000000000E+00 0.  1.
         11    1    1    2    0    0 -0.61252804313E+00 -0.33378470158E+02  0.52834145313E+02  0.62497554925E+02  0.00000000000E+00 0. -1.
</event>
<event>
 6    1  0.5317355E-006  0.2107018E+03  0.7561462E-02  0.1141011E+00
          2   -1    0    0  501    0  0.00000000000E+00  0.00000000000E+00  0.12276440666E+04  0.12276440666E+04  0.00000000000E+00 0. -1.
         -2   -1    0    0    0  501 -0.00000000000E+00 -0.00000000000E+00 -0.37714335834E+02  0.37714335834E+02  0.00000000000E+00 0.  1.
          5    1    1    2  502    0 -0.13070798150E+02  0.70478410967E+02  0.24048565828E+03  0.25097584827E+03  0.41800000000E+01 0.  1.
         -5    1    1    2    0  502 -0.14522081076E+03  0.26222582088E+02  0.31521065274E+03  0.34806886630E+03  0.41800000000E+01 0.  1.
        -11    1    1    2    0    0  0.98116234363E+01  0.13767923448E+02  0.30749858582E+02  0.35090988492E+02  0.00000000000E+00 0.  1.
         11    1    1    2    0    0  0.14847998547E+03 -0.11046891650E+03  0.60348356112E+03  0.63122269933E+03  0.00000000000E+00 0. -1.
</event>
<event>
 6    1  0.5317355E-006  0.1090221E+03  0.7561462E-02  0.1262392E+00
         -2   -1    0    0    0  501 -0.00000000000E+00  0.00000000000E+00  0.11809464245E+02  0.11809464245E+02  0.00000000000E+00 0. -1.
          2   -1    0    0  501    0  0.00000000000E+00 -0.00000000000E+00 -0.11972350912E+04  0.11972350912E+04  0.00000000000E+00 0.  1.
          5    1    1    2  502    0  0.29860453689E+02  0.65031121632E+02 -0.55177679945E+03  0.55641333763E+03  0.41800000000E+01 0.  1.
         -5    1    1    2    0  502  0.12610145866E+02 -0.41024036414E+02 -0.97633742598E+02  0.10673241043E+03  0.41800000000E+01 0.  1.
        -11    1    1    2    0    0  0.28139076487E+02 -0.15488512324E+02 -0.15273640590E+03  0.15607726076E+03  0.00000000000E+00 0. -1.
         11    1    1    2    0    0 -0.70609676043E+02 -0.85185728933E+01 -0.38327867905E+03  0.38982154667E+03  0.00000000000E+00 0.  1.
</event>
<event>
 6    1  0.5317355E-006  0.1182902E+03  0.7561462E-02  0.1245945E+00
          2   -1    0    0  501    0  0.00000000000E+00  0.00000000000E+00  0.39246772910E+03  0.39246772910E+03  0.00000000000E+00 0. -1.
         -2   -1    0    0    0  501 -0.00000000000E+00 -0.00000000000E+00 -0.37384941971E+02  0.37384941971E+02  0.00000000000E+00 0.  1.
          5    1    1    2  502    0 -0.62548992298E+02 -0.31665819516E+02  0.73370527138E+02  0.10156676236E+03  0.41800000000E+01 0.  1.
         -5    1    1    2    0  502  0.33572005817E+02  0.48066432512E+02  0.76304998052E+02  0.96319191424E+02  0.41800000000E+01 0.  1.
        -11    1    1    2    0    0  0.33450242244E+02  0.39346262631E+02  0.10586082021E+03  0.11778607874E+03  0.00000000000E+00 0.  1.
         11    1    1    2    0    0 -0.44732557621E+01 -0.55746875626E+02  0.99546441735E+02  0.11418063856E+03  0.00000000000E+00 0. -1.
</event>
<event>
 6    1  0.5317355E-006  0.1220698E+03  0.7561462E-02  0.1239721E+00
          2   -1    0    0  501    0  0.00000000000E+00  0.00000000000E+00  0.33765493460E+02  0.33765493460E+02  0.00000000000E+00 0.  1.
         -2   -1    0    0    0  501 -0.00000000000E+00 -0.00000000000E+00 -0.54236750089E+03  0.54236750089E+03  0.00000000000E+00 0. -1.
          5    1    1    2  502    0 -0.10604282633E+02 -0.99236680647E+02 -0.18765769749E+03  0.21258704905E+03  0.41800000000E+01 0. -1.
         -5    1    1    2    0  502 -0.22459655791E+00  0.29726934804E+02 -0.17283847178E+03  0.17542619765E+03  0.41800000000E+01 0. -1.
        -11    1    1    2    0    0  0.29095549477E+02  0.85274362462E+02 -0.10210788827E+03  0.13617741641E+03  0.00000000000E+00 0.  1.
         11    1    1    2    0    0 -0.18266670286E+02 -0.15764616619E+02 -0.45997949895E+02  0.51942331243E+02  0.00000000000E+00 0. -1.
</event>
<event>
 6    1  0.5317355E-006  0.1219477E+03  0.7561462E-02  0.1239918E+00
          2   -1    0    0  501    0  0.00000000000E+00  0.00000000000E+00  0.26081140650E+03  0.26081140650E+03  0.00000000000E+00 0. -1.
         -2   -1    0    0    0  501 -0.00000000000E+00 -0.00000000000E+00 -0.10184170007E+03  0.10184170007E+03  0.00000000000E+00 0.  1.
          5    1    1    2  502    0 -0.47865011579E+02 -0.67169131129E+02  0.92016200855E+01  0.83095690155E+02  0.41800000000E+01 0.  1.
         -5    1    1    2    0  502 -0.42457495730E+02  0.55558651679E+02 -0.15534160398E+02  0.71750855461E+02  0.41800000000E+01 0.  1.
        -11    1    1    2    0    0  0.41819505211E+02  0.23719204120E+01  0.76193982162E+01  0.42574079576E+02  0.00000000000E+00 0.  1.
         11    1    1    2    0    0  0.48503002098E+02  0.92385590386E+01  0.15768284852E+03  0.16523248138E+03  0.00000000000E+00 0. -1.
</event>
<event>
 6    1  0.5317355E-006  0.9598713E+02  0.7561462E-02  0.1288968E+00
          1   -1    0    0  501    0  0.00000000000E+00  0.00000000000E+00  0.22156139604E+03  0.22156139604E+03  0.00000000000E+00 0. -1.
         -1   -1    0    0    0  501 -0.00000000000E+00 -0.00000000000E+00 -0.80184552351E+02  0.80184552351E+02  0.00000000000E+00 0.  1.
          5    1    1    2  502    0  0.23536421873E+01 -0.57371408283E+01  0.86836588446E+02  0.87158016897E+02  0.41800000000E+01 0. -1.
         -5    1    1    2    0  502  0.42072329089E+02 -0.52733793153E+02 -0.22891285533E+02  0.71361174098E+02  0.41800000000E+01 0. -1.
        -11    1    1    2    0    0 -0.43194146113E+01 -0.24432147154E+02  0.32125366236E+02  0.40590963440E+02  0.00000000000E+00 0. -1.
         11    1    1    2    0    0 -0.40106556665E+02  0.82903081135E+02  0.45306174535E+02  0.10263579395E+03  0.00000000000E+00 0.  1.
</event>
<event>
 6    1  0.5317355E-006  0.1246640E+03  0.7561462E-02  0.1235595E+00
         -2   -1    0    0    0  501 -0.00000000000E+00  0.00000000000E+00  0.36576669067E+03  0.36576669067E+03  0.00000000000E+00 0. -1.
          2   -1    0    0  501    0  0.00000000000E+00 -0.00000000000E+00 -0.58557502802E+02  0.58557502802E+02  0.00000000000E+00 0.  1.
          5    1    1    2  502    0 -0.21453191028E+02  0.32600717566E+02  0.52366869947E+02  0.65443163578E+02  0.41800000000E+01 0.  1.
         -5    1    1    2    0  502 -0.19017221968E+02 -0.11341621178E+03  0.15211739070E+03  0.19074083144E+03  0.41800000000E+01 0.  1.
        -11    1    1    2    0    0  0.43541481534E+02  0.60969147191E+02  0.12012133510E+03  0.14157059253E+03  0.00000000000E+00 0. -1.
         11    1    1    2    0    0 -0.30710685379E+01  0.19846347018E+02 -0.17396407878E+02  0.26569605925E+02  0.00000000000E+00 0.  1.
</event>
<event>
 6    1  0.5317355E-006  0.8306481E+02  0.7561462E-02  0.1320572E+00
          2   -1    0    0  501    0  0.00000000000E+00  0.00000000000E+00  0.55862314710E+03  0.55862314710E+03  0.00000000000E+00 0. -1.
         -2   -1    0    0    0  501 -0.00000000000E+00 -0.00000000000E+00 -0.22123671310E+02  0.22123671310E+02  0.00000000000E+00 0.  1.
          5    1    1    2  502    0  0.10948078022E+02  0.33534453361E+02  0.22348493188E+03  0.22629053704E+03  0.41800000000E+01 0. -1.
         -5    1    1    2    0  502  0.83849272970E+00 -0.40959568377E+02  0.15856417182E+02  0.44128082640E+02  0.41800000000E+01 0. -1.
        -11    1    1    2    0    0 -0.67536613406E+01 -0.40589723662E+02  0.14006073992E+03  0.14597995916E+03  0.00000000000E+00 0.  1.
         11    1    1    2    0    0 -0.50329094111E+01  0.48014838678E+02  0.15709738681E+03  0.16434823958E+03  0.00000000000E+00 0. -1.
</event>
<event>
 6    1  0.5317355E-006  0.9319631E+02  0.7561462E-02  0.1295291E+00
         -1   -1    0    0    0  501 -0.00000000000E+00  0.00000000000E+00  0.13291373389E+04  0.13291373389E+04  0.00000000000E+00 0.  1.
          1   -1    0    0  501    0  0.00000000000E+00 -0.00000000000E+00 -0.16643425036E+02  0.16643425036E+02  0.00000000000E+00 0. -1.
          5    1    1    2  502    0  0.23956105153E+02  0.52917576316E+01  0.74435640254E+03  0.74477233036E+03  0.41800000000E+01 0. -1.
         -5    1    1    2    0  502 -0.17694232856E+02 -0.73393983366E+02  0.30536438325E+03  0.31458646129E+03  0.41800000000E+01 0. -1.
        -11    1    1    2    0    0  0.20901408701E+02  0.47192353578E+02  0.23947687859E+03  0.24497584065E+03  0.00000000000E+00 0.  1.
         11    1    1    2    0    0 -0.27163280998E+02  0.20909872157E+02  0.23296249509E+02  0.41446131658E+02  0.00000000000E+00 0. -1.
</event>
<event>
 6    1  0.5317355E-006  0.1657387E+03  0.7561462E-02  0.1182366E+00
         -2   -1    0    0    0  501 -0.00000000000E+00  0.00000000000E+00  0.11294300695E+03  0.11294300695E+03  0.00000000000E+00 0.  1.
          2   -1    0    0  501    0  0.00000000000E+00 -0.00000000000E+00 -0.50701845465E+03  0.50701845465E+03  0.00000000000E+00 0. -1.
          5    1    1    2  502    0 -0.12670678794E+03 -0.15213596948E+02  0.22693500202E+02  0.12968627913E+03  0.41800000000E+01 0. -1.
         -5    1    1    2    0  502  0.10842491958E+03  0.14153998274E+02 -0.67722765422E+02  0.12868622385E+03  0.41800000000E+01 0.  1.
        -11    1    1    2    0    0  0.42017799834E+01 -0.45516222031E+02 -0.16361144468E+03  0.16987667954E+03  0.00000000000E+00 0. -1.
         11    1    1    2    0    0  0.14080088375E+02  0.46575820706E+02 -0.18543473781E+03  0.19171227907E+03  0.00000000000E+00 0.  1.
</event>
<event>
 6    1  0.5317355E-006  0.1642343E+03  0.7561462E-02  0.1183997E+00
          2   -1    0    0  501    0  0.00000000000E+00  0.00000000000E+00  0.42426630296E+03  0.42426630296E+03  0.00000000000E+00 0. -1.
         -2   -1    0    0    0  501 -0.00000000000E+00 -0.00000000000E+00 -0.76414971018E+02  0.76414971018E+02  0.00000000000E+00 0.  1.
          5    1    1    2  502    0  0.13235529559E+03  0.29017834419E+02  0.24161077845E+03  0.27704367823E+03  0.41800000000E+01 0. -1.
         -5    1    1    2    0  502 -0.54356288415E+01 -0.37306525828E+02  0.32212058934E+02  0.49763561680E+02  0.41800000000E+01 0. -1.
        -11    1    1    2    0    0 -0.13972880840E+03  0.22154782275E-01  0.75024776079E+02  0.15859652397E+03  0.00000000000E+00 0. -1.
         11    1    1    2    0    0  0.12809141656E+02  0.82665366277E+01 -0.99628152673E+00  0.15277510094E+02  0.00000000000E+00 0.  1.
</event>
<event>
 6    1  0.5317355E-006  0.9289025E+02  0.7561462E-02  0.1296000E+00
          1   -1    0    0  501    0  0.00000000000E+00  0.00000000000E+00  0.19707988225E+02  0.19707988225E+02  0.00000000000E+00 0. -1.
         -1   -1    0    0    0  501 -0.00000000000E+00 -0.00000000000E+00 -0.11011463545E+04  0.11011463545E+04  0.00000000000E+00 0.  1.
          5    1    1    2  502    0  0.17885816091E+02 -0.44613586845E+02 -0.19933239584E+03  0.20508815417E+03  0.41800000000E+01 0.  1.
         -5    1    1    2    0  502 -0.18862014183E+02  0.58030507119E+02 -0.76027575169E+03  0.76273193610E+03  0.41800000000E+01 0.  1.
        -11    1    1    2    0    0 -0.25331624908E+01 -0.44760620331E+02 -0.11095875302E+03  0.11967361830E+03  0.00000000000E+00 0.  1.
         11    1    1    2    0    0  0.35093605826E+01  0.31343700057E+02 -0.10871465731E+02  0.33360634168E+02  0.00000000000E+00 0. -1.
</event>
<event>
 6    1  0.5317355E-006  0.1240761E+03  0.7561462E-02  0.1236520E+00
          1   -1    0    0  501    0  0.00000000000E+00  0.00000000000E+00  0.68674851027E+03  0.68674851027E+03  0.00000000000E+00 0. -1.
         -1   -1    0    0    0  501 -0.00000000000E+00 -0.00000000000E+00 -0.29404263663E+02  0.29404263663E+02  0.00000000000E+00 0.  1.
          5    1    1    2  502    0  0.66747458933E+02 -0.69502711563E+02  0.27797189405E+03  0.29423068580E+03  0.41800000000E+01 0. -1.
         -5    1    1    2    0  502  0.23882386493E+02  0.45372710852E+02  0.75434764762E+02  0.91306776361E+02  0.41800000000E+01 0.  1.
        -11    1    1    2    0    0 -0.43412634560E+02  0.29860106960E+02  0.51298492173E+02  0.73537868656E+02  0.00000000000E+00 0.  1.
         11    1    1    2    0    0 -0.47217210866E+02 -0.57301062493E+01  0.25263909562E+03  0.25707744311E+03  0.00000000000E+00 0. -1.
</event>
<event>
 6    1  0.5317355E-006  0.2865365E+03  0.7561462E-02  0.1092171E+00
          2   -1    0    0  501    0  0.00000000000E+00  0.00000000000E+00  0.18784598912E+04  0.18784598912E+04  0.00000000000E+00 0. -1.
         -2   -1    0    0    0  501 -0.00000000000E+00 -0.00000000000E+00 -0.45882818959E+02  0.45882818959E+02  0.00000000000E+00 0.  1.
          5    1    1    2  502    0 -0.14558087992E+03 -0.33521198815E+02  0.41983494357E+03  0.44564146532E+03  0.41800000000E+01 0. -1.
         -5    1    1    2    0  502 -0.70871626734E+02 -0.13123254242E+03  0.48643630472E+03  0.50880499076E+03  0.41800000000E+01 0. -1.
        -11    1    1    2    0    0  0.11069584247E+03  0.61580393085E+02  0.28651829697E+03  0.31327056812E+03  0.00000000000E+00 0.  1.
         11    1    1    2    0    0  0.10575666419E+03  0.10317334815E+03  0.63978752700E+03  0.65662568599E+03  0.00000000000E+00 0. -1.
</event>
<event>
 6    1  0.5317355E-006  0.2638639E+03  0.7561462E-02  0.1104844E+00
          1   -1    0    0  501    0  0.00000000000E+00  0.00000000000E+00  0.39716871163E+03  0.39716871163E+03  0.00000000000E+00 0. -1.
         -1   -1    0    0    0  501 -0.00000000000E+00 -0.00000000000E+00 -0.32284115953E+03  0.32284115953E+03  0.00000000000E+00 0.  1.
          5    1    1    2  502    0  0.52280500849E+02  0.15582207387E+03 -0.83821175969E+02  0.18454601436E+03  0.41800000000E+01 0.  1.
         -5    1    1    2    0  502 -0.55725634769E+02  0.93509549824E+02 -0.11236428500E+03  0.15650107739E+03  0.41800000000E+01 0.  1.
        -11    1    1    2    0    0 -0.11478263835E+02 -0.22832262774E+03  0.19950244409E+03  0.30342082670E+03  0.00000000000E+00 0.  1.
         11    1    1    2    0    0  0.14923397756E+02 -0.21008995955E+02  0.71010568992E+02  0.75541952716E+02  0.00000000000E+00 0. -1.
</event>
<event>
 6    1  0.5317355E-006  0.1179216E+03  0.7561462E-02  0.1246566E+00
         -2   -1    0    0    0  501 -0.00000000000E+00  0.00000000000E+00  0.44906587413E+02  0.44906587413E+02  0.00000000000E+00 0.  1.
          2   -1    0    0  501    0  0.00000000000E+00 -0.00000000000E+00 -0.38483364186E+03  0.38483364186E+03  0.00000000000E+00 0. -1.
          5    1    1    2  502    0  0.48419346569E+02  0.61001274979E+02 -0.33883724643E+02  0.85036273830E+02  0.41800000000E+01 0. -1.
         -5    1    1    2    0  502 -0.48166142703E+02 -0.17507567922E+01 -0.83267282799E+02  0.96301377129E+02  0.41800000000E+01 0. -1.
        -11    1    1    2    0    0 -0.26227220701E+02  0.15410919086E+02 -0.71943285083E+02  0.78110177322E+02  0.00000000000E+00 0. -1.
         11    1    1    2    0    0  0.25974016835E+02 -0.74661437273E+02 -0.15083276193E+03  0.17029240100E+03  0.00000000000E+00 0.  1.
</event>
<event>
 6    1  0.5317355E-006  0.1264803E+03  0.7561462E-02  0.1232774E+00
          2   -1    0    0  501    0  0.00000000000E+00  0.00000000000E+00  0.41091967263E+03  0.41091967263E+03  0.00000000000E+00 0. -1.
         -2   -1    0    0    0  501 -0.00000000000E+00 -0.00000000000E+00 -0.55125238822E+02  0.55125238822E+02  0.00000000000E+00 0.  1.
          5    1    1    2  502    0 -0.49810996014E+02 -0.67991129431E+02  0.16481489443E+03  0.18516303851E+03  0.41800000000E+01 0. -1.
         -5    1    1    2    0  502 -0.49174540685E+02  0.38511020435E+02  0.33343628797E+02  0.70926046893E+02  0.41800000000E+01 0. -1.
        -11    1    1    2    0    0  0.55690082729E+02  0.28744965981E+02  0.20178715645E+02  0.65839493837E+02  0.00000000000E+00 0.  1.
         11    1    1    2    0    0  0.43295453970E+02  0.73514301507E+00  0.13745719494E+03  0.14411633222E+03  0.00000000000E+00 0. -1.
</event>
<event>
 6    1  0.5317355E-006  0.1279117E+03  0.7561462E-02  0.1230588E+00
         -1   -1    0    0    0  501 -0.00000000000E+00  0.00000000000E+00  0.20530292156E+02  0.20530292156E+02  0.00000000000E+00 0.  1.
          1   -1    0    0  501    0  0.00000000000E+00 -0.00000000000E+00 -0.86526248375E+03  0.86526248375E+03  0.00000000000E+00 0. -1.
          5    1    1    2  502    0 -0.45259584120E+01  0.69592519249E+02 -0.14567818131E+03  0.16156487225E+03  0.41800000000E+01 0.  1.
         -5    1    1    2    0  502  0.63410089913E+02 -0.31486792618E+02 -0.22396798280E+03  0.23492847280E+03  0.41800000000E+01 0.  1.
        -11    1    1    2    0    0  0.16339990864E+02  0.15614841003E+02 -0.61826843952E+02  0.65828392006E+02  0.00000000000E+00 0. -1.
         11    1    1    2    0    0 -0.75224122364E+02 -0.53720567634E+02 -0.41325918354E+03  0.42347103886E+03  0.00000000000E+00 0.  1.
</event>
<event>
 6    1  0.5317355E-006  0.1584815E+03  0.7561462E-02  0.1190422E+00
         -1   -1    0    0    0  501 -0.00000000000E+00  0.00000000000E+00  0.10235283347E+03  0.10235283347E+03  0.00000000000E+00 0.  1.
          1   -1    0    0  501    0  0.00000000000E+00 -0.00000000000E+00 -0.39623965940E+03  0.39623965940E+03  0.00000000000E+00 0. -1.
          5    1    1    2  502    0  0.10560749815E+02 -0.41134726129E+02  0.29704813897E+02  0.51994648754E+02  0.41800000000E+01 0. -1.
         -5    1    1    2    0  502  0.11802879761E+03  0.20379652403E+02 -0.49543560806E+02  0.12968486463E+03  0.41800000000E+01 0. -1.
        -11    1    1    2    0    0 -0.12446552895E+03  0.43101414168E+02 -0.25598420462E+03  0.28788420036E+03  0.00000000000E+00 0. -1.
         11    1    1    2    0    0 -0.41240184717E+01 -0.22346340441E+02 -0.18063874401E+02  0.29028779131E+02  0.00000000000E+00 0.  1.
</event>
<event>
 6    1  0.5317355E-006  0.1119956E+03  0.7561462E-02  0.1256918E+00
         -1   -1    0    0    0  501 -0.00000000000E+00  0.00000000000E+00  0.45606454459E+03  0.45606454459E+03  0.00000000000E+00 0.  1.
          1   -1    0    0  501    0  0.00000000000E+00 -0.00000000000E+00 -0.62021883994E+02  0.62021883994E+02  0.00000000000E+00 0. -1.
          5    1    1    2  502    0 -0.30392201362E+02  0.62649672536E+02  0.23885876766E+03  0.24883659429E+03  0.41800000000E+01 0.  1.
         -5    1    1    2    0  502  0.27127511229E+01 -0.57678277635E+02  0.16262507945E+03  0.17262251184E+03  0.41800000000E+01 0.  1.
        -11    1    1    2    0    0  0.61434723708E+02 -0.98996716484E+01 -0.48114421635E+01  0.62412969417E+02  0.00000000000E+00 0.  1.
         11    1    1    2    0    0 -0.33755273468E+02  0.49282767473E+01 -0.26297443371E+01  0.34214353039E+02  0.00000000000E+00 0. -1.
</event>
<event>
 6    1  0.5317355E-006  0.1003743E+03  0.7561462E-02  0.1279511E+00
          1   -1    0    0  501    0  0.00000000000E+00  0.00000000000E+00  0.14878327422E+03  0.14878327422E+03  0.00000000000E+00 0. -1.
         -1   -1    0    0    0  501 -0.00000000000E+00 -0.00000000000E+00 -0.10690018989E+03  0.10690018989E+03  0.00000000000E+00 0.  1.
          5    1    1    2  502    0  0.64296348247E+02 -0.52201002759E+02 -0.28710289714E+02  0.87753736230E+02  0.41800000000E+01 0. -1.
         -5    1    1    2    0  502 -0.12119591727E+02  0.40808687273E+02  0.22630439587E+02  0.48392588859E+02  0.41800000000E+01 0. -1.
        -11    1    1    2    0    0  0.74417985020E+01 -0.93279487823E+01  0.54769753362E+02  0.56054588364E+02  0.00000000000E+00 0. -1.
         11    1    1    2    0    0 -0.59618555022E+02  0.20720264268E+02 -0.68068188988E+01  0.63482550655E+02  0.00000000000E+00 0.  1.
</event>
<event>
 6    1  0.5317355E-006  0.1305162E+03  0.7561462E-02  0.1226692E+00
         -4   -1    0    0    0  501 -0.00000000000E+00  0.00000000000E+00  0.13672087869E+04  0.13672087869E+04  0.00000000000E+00 0.  1.
          4   -1    0    0  501    0  0.00000000000E+00 -0.00000000000E+00 -0.20076184589E+02  0.20076184589E+02  0.00000000000E+00 0. -1.
          5    1    1    2  502    0 -0.42959978518E+02  0.10620903618E+03  0.88195609790E+03  0.88937615784E+03  0.41800000000E+01 0.  1.
         -5    1    1    2    0  502  0.16720946358E+02 -0.29673647896E+02  0.27296678210E+03  0.27511534300E+03  0.41800000000E+01 0.  1.
        -11    1    1    2    0    0  0.54029447147E+02 -0.52350337252E+02  0.13937439226E+03  0.15838232283E+03  0.00000000000E+00 0.  1.
         11    1    1    2    0    0 -0.27790414988E+02 -0.24185051033E+02  0.52835330014E+02  0.64411147765E+02  0.00000000000E+00 0. -1.
</event>
<event>
 6    1  0.5317355E-006  0.1180171E+03  0.7561462E-02  0.1246405E+00
         -2   -1    0    0    0  501 -0.00000000000E+00  0.00000000000E+00  0.18051951597E+02  0.18051951597E+02  0.00000000000E+00 0.  1.
          2   -1    0    0  501    0  0.00000000000E+00 -0.00000000000E+00 -0.81190068729E+03  0.81190068729E+03  0.00000000000E+00 0. -1.
          5    1    1    2  502    0 -0.34244951995E+02 -0.21817103987E+02 -0.19140483400E+03  0.19570893092E+03  0.41800000000E+01 0. -1.
         -5    1    1    2    0  502  0.55420631990E+02  0.72499447687E+02 -0.23896869063E+03  0.25583417259E+03  0.41800000000E+01 0. -1.
        -11    1    1    2    0    0 -0.21089295279E+02 -0.75834140315E+02 -0.24655209073E+03  0.25881172434E+03  0.00000000000E+00 0.  1.
         11    1    1    2    0    0 -0.86384716518E-01  0.25151796614E+02 -0.11692312034E+03  0.11959781104E+03  0.00000000000E+00 0. -1.
</event>
<event>
 6    1  0.5317355E-006  0.2010685E+03  0.7561462E-02  0.1148841E+00
          1   -1    0    0  501    0  0.00000000000E+00  0.00000000000E+00  0.13091036017E+04  0.13091036017E+04  0.00000000000E+00 0. -1.
         -1   -1    0    0    0  501 -0.00000000000E+00 -0.00000000000E+00 -0.47226754532E+02  0.47226754532E+02  0.00000000000E+00 0.  1.
          5    1    1    2  502    0 -0.47155146539E+02  0.92107078911E+02  0.18765839200E+03  0.21433727235E+03  0.41800000000E+01 0. -1.
         -5    1    1    2    0  502 -0.10229464794E+03 -0.19048978012E+00  0.84165883893E+02  0.13253527717E+03  0.41800000000E+01 0. -1.
        -11    1    1    2    0    0  0.13457685469E+03 -0.10926242802E+03  0.90075021754E+03  0.91727867215E+03  0.00000000000E+00 0.  1.
         11    1    1    2    0    0  0.14872939788E+02  0.17345838884E+02  0.89302353700E+02  0.92179134520E+02  0.00000000000E+00 0. -1.
</event>
<event>
 6    1  0.5317355E-006  0.6406728E+02  0.7561462E-02  0.1381515E+00
          2   -1    0    0  501    0  0.00000000000E+00  0.00000000000E+00  0.41416198111E+02  0.41416198111E+02  0.00000000000E+00 0. -1.
         -2   -1    0    0    0  501 -0.00000000000E+00 -0.00000000000E+00 -0.32829433155E+03  0.32829433155E+03  0.00000000000E+00 0.  1.
          5    1    1    2  502    0  0.14412578645E+02 -0.16707900688E+02  0.68868115472E+01  0.23489932777E+02  0.41800000000E+01 0.  1.
         -5    1    1    2    0  502 -0.14451126646E+02  0.22493098473E+02 -0.23656437534E+03  0.23810701506E+03  0.41800000000E+01 0.  1.
        -11    1    1    2    0    0 -0.10222279914E+02 -0.40835462771E+02 -0.57900466793E+02  0.71585571739E+02  0.00000000000E+00 0. -1.
         11    1    1    2    0    0  0.10260827914E+02  0.35050264985E+02  0.69989714419E+00  0.36528010088E+02  0.00000000000E+00 0.  1.
</event>
<event>
 6    1  0.5317355E-006  0.1529833E+03  0.7561462E-02  0.1196854E+00
          1   -1    0    0  501    0  0.00000000000E+00  0.00000000000E+00  0.25586025014E+02  0.25586025014E+02  0.00000000000E+00 0. -1.
         -1   -1    0    0    0  501 -0.00000000000E+00 -0.00000000000E+00 -0.11151002718E+04  0.11151002718E+04  0.00000000000E+00 0.  1.
          5    1    1    2  502    0 -0.43296643655E+02  0.84827889053E+02 -0.43867201814E+03  0.44891088427E+03  0.41800000000E+01 0.  1.
         -5    1    1    2    0  502 -0.71456574679E+02 -0.34674142467E+02 -0.26462028870E+03  0.27631450887E+03  0.41800000000E+01 0.  1.
        -11    1    1    2    0    0  0.10191138340E+03 -0.56768835831E+02 -0.38338408641E+03  0.40073930241E+03  0.00000000000E+00 0.  1.
         11    1    1    2    0    0  0.12841834931E+02  0.66150892445E+01 -0.28378534993E+01  0.14721601224E+02  0.00000000000E+00 0. -1.
</event>
<event>
 6    1  0.5317355E-006  0.9433060E+02  0.7561462E-02  0.1292691E+00
         -1   -1    0    0    0  501 -0.00000000000E+00  0.00000000000E+00  0.24322184822E+02  0.24322184822E+02  0.00000000000E+00 0.  1.
          1   -1    0    0  501    0  0.00000000000E+00 -0.00000000000E+00 -0.52791903824E+03  0.52791903824E+03  0.00000000000E+00 0. -1.
          5    1    1    2  502    0 -0.24567334774E+02  0.48648048738E+02 -0.64558864887E+02  0.84590224136E+02  0.41800000000E+01 0. -1.
         -5    1    1    2    0  502 -0.73305120547E+01 -0.56913326339E+02 -0.23063592936E+03  0.23770415948E+03  0.41800000000E+01 0. -1.
        -11    1    1    2    0    0  0.73994344164E+01 -0.30072480034E+02 -0.21785743691E+02  0.37864552199E+02  0.00000000000E+00 0.  1.
         11    1    1    2    0    0  0.24498412412E+02  0.38337757635E+02 -0.18661631548E+03  0.19208228725E+03  0.00000000000E+00 0. -1.
</event>
<event>
 6    1  0.5317355E-006  0.1165738E+03  0.7561462E-02  0.1248859E+00
         -2   -1    0    0    0  501 -0.00000000000E+00  0.00000000000E+00  0.41141427843E+03  0.41141427843E+03  0.00000000000E+00 0.  1.
          2   -1    0    0  501    0  0.00000000000E+00 -0.00000000000E+00 -0.50272325297E+02  0.50272325297E+02  0.00000000000E+00 0. -1.
          5    1    1    2  502    0  0.24807741638E+02  0.95372141897E+02  0.18886904252E+03  0.21307336089E+03  0.41800000000E+01 0.  1.
         -5    1    1    2    0  502  0.98779025621E+00 -0.39694937367E+02  0.98742107893E+02  0.10650887312E+03  0.41800000000E+01 0.  1.
        -11    1    1    2    0    0 -0.51076876601E+02 -0.34881805028E+02  0.86967361136E+02  0.10671883408E+03  0.00000000000E+00 0.  1.
         11    1    1    2    0    0  0.25281344707E+02 -0.20795399502E+02 -0.13436558415E+02  0.35385535642E+02  0.00000000000E+00 0. -1.
</event>
<event>
 6    1  0.5317355E-006  0.6912876E+02  0.7561462E-02  0.1363081E+00
         -1   -1    0    0    0  501 -0.00000000000E+00  0.00000000000E+00  0.67560403289E+02  0.67560403289E+02  0.00000000000E+00 0.  1.
          1   -1    0    0  501    0  0.00000000000E+00 -0.00000000000E+00 -0.19820872775E+03  0.19820872775E+03  0.00000000000E+00 0. -1.
          5    1    1    2  502    0 -0.27357367008E+02 -0.17439878899E+02 -0.77861526535E+02  0.84453920099E+02  0.41800000000E+01 0. -1.
         -5    1    1    2    0  502  0.81641984663E+01  0.17290719116E+02  0.42634017241E+02  0.46912204492E+02  0.41800000000E+01 0. -1.
        -11    1    1    2    0    0  0.71563859945E+01  0.41907727321E+02 -0.75387513755E+02  0.86549111491E+02  0.00000000000E+00 0. -1.
         11    1    1    2    0    0  0.12036782547E+02 -0.41758567538E+02 -0.20033301408E+02  0.47853894954E+02  0.00000000000E+00 0.  1.
</event>
<event>
 6    1  0.5317355E-006  0.1453513E+03  0.7561462E-02  0.1206305E+00
          1   -1    0    0  501    0  0.00000000000E+00  0.00000000000E+00  0.73296702822E+03  0.73296702822E+03  0.00000000000E+00 0. -1.
         -1   -1    0    0    0  501 -0.00000000000E+00 -0.00000000000E+00 -0.31687705623E+02  0.31687705623E+02  0.00000000000E+00 0.  1.
          5    1    1    2  502    0 -0.35217723385E+02 -0.11898634214E+03  0.25079177652E+03  0.27984285810E+03  0.41800000000E+01 0. -1.
         -5    1    1    2    0  502 -0.17799890079E+02  0.30357422854E+02  0.42664025319E+02  0.55462606012E+02  0.41800000000E+01 0. -1.
        -11    1    1    2    0    0  0.51439118057E+02  0.99283763055E+01  0.11961544216E+03  0.13058487480E+03  0.00000000000E+00 0.  1.
         11    1    1    2    0    0  0.15784954070E+01  0.78700542984E+02  0.28820807859E+03  0.29876439493E+03  0.00000000000E+00 0. -1.
</event>
<event>
 6    1  0.5317355E-006  0.1147318E+03  0.7561462E-02  0.1252050E+00
          2   -1    0    0  501    0  0.00000000000E+00  0.00000000000E+00  0.21700500240E+03  0.21700500240E+03  0.00000000000E+00 0. -1.
         -2   -1    0    0    0  501 -0.00000000000E+00 -0.00000000000E+00 -0.90409952533E+02  0.90409952533E+02  0.00000000000E+00 0.  1.
          5    1    1    2  502    0 -0.31259132645E+02  0.16583410105E+01  0.37641577559E+02  0.49134959344E+02  0.41800000000E+01 0. -1.
         -5    1    1    2    0  502  0.79756532695E+02 -0.71043345191E+02  0.15428539163E+01  0.10690235826E+03  0.41800000000E+01 0. -1.
        -11    1    1    2    0    0  0.39683415016E+01  0.14625796895E+02  0.72527914511E+02  0.74094264639E+02  0.00000000000E+00 0. -1.
         11    1    1    2    0    0 -0.52465741552E+02  0.54759207286E+02  0.14882703878E+02  0.77283372687E+02  0.00000000000E+00 0.  1.
</event>
<event>
 6    1  0.5317355E-006  0.1331046E+03  0.7561462E-02  0.1222920E+00
         -1   -1    0    0    0  501 -0.00000000000E+00  0.00000000000E+00  0.82848244144E+03  0.82848244144E+03  0.00000000000E+00 0.  1.
          1   -1    0    0  501    0  0.00000000000E+00 -0.00000000000E+00 -0.26013260336E+02  0.26013260336E+02  0.00000000000E+00 0. -1.
          5    1    1    2  502    0 -0.46317557158E+02  0.83851764334E+02  0.31289980609E+03  0.32726166218E+03  0.41800000000E+01 0. -1.
         -5    1    1    2    0  502  0.56857949426E+02  0.12708636915E+02  0.11434573401E+03  0.12840075993E+03  0.41800000000E+01 0. -1.
        -11    1    1    2    0    0 -0.32082148658E+02 -0.39281492412E+02  0.28709989052E+03  0.29154527444E+03  0.00000000000E+00 0.  1.
         11    1    1    2    0    0  0.21541756390E+02 -0.57278908837E+02  0.88123750484E+02  0.10728800523E+03  0.00000000000E+00 0. -1.
</event>
<event>
 6    1  0.5317355E-006  0.1135561E+03  0.7561462E-02  0.1254123E+00
          2   -1    0    0  501    0  0.00000000000E+00  0.00000000000E+00  0.64406035446E+02  0.64406035446E+02  0.00000000000E+00 0. -1.
         -2   -1    0    0    0  501 -0.00000000000E+00 -0.00000000000E+00 -0.25069142741E+03  0.25069142741E+03  0.00000000000E+00 0.  1.
          5    1    1    2  502    0 -0.14021506585E+02 -0.65274076479E+02 -0.90885255302E+02  0.11284905732E+03  0.41800000000E+01 0. -1.
         -5    1    1    2    0  502 -0.47652790529E+02  0.48342583857E+02 -0.38522221674E+02  0.78161549510E+02  0.41800000000E+01 0. -1.
        -11    1    1    2    0    0 -0.25470269235E+00 -0.20067715345E+02 -0.47214333550E+02  0.51302742277E+02  0.00000000000E+00 0.  1.
         11    1    1    2    0    0  0.61928999807E+02  0.36999207967E+02 -0.96635814361E+01  0.72784113743E+02  0.00000000000E+00 0. -1.
</event>
<event>
 6    1  0.5317355E-006  0.1162268E+03  0.7561462E-02  0.1249455E+00
         -2   -1    0    0    0  501 -0.00000000000E+00  0.00000000000E+00  0.29611783359E+03  0.29611783359E+03  0.00000000000E+00 0.  1.
          2   -1    0    0  501    0  0.00000000000E+00 -0.00000000000E+00 -0.51214614376E+02  0.51214614376E+02  0.00000000000E+00 0. -1.
          5    1    1    2  502    0 -0.72383556650E+02  0.33504527194E+02  0.83860109496E+02  0.11580985701E+03  0.41800000000E+01 0. -1.
         -5    1    1    2    0  502  0.24519981066E+02 -0.44030094525E+02  0.98176275049E+02  0.11043519402E+03  0.41800000000E+01 0. -1.
        -11    1    1    2    0    0 -0.33833953749E+01  0.41825877829E+02  0.36052065903E+02  0.55322715735E+02  0.00000000000E+00 0.  1.
         11    1    1    2    0    0  0.51246970959E+02 -0.31300310498E+02  0.26814768763E+02  0.65764681202E+02  0.00000000000E+00 0. -1.
</event>
<event>
 6    1  0.5317355E-006  0.1348004E+03  0.7561462E-02  0.1220502E+00
         -2   -1    0    0    0  501 -0.00000000000E+00  0.00000000000E+00  0.12657252737E+03  0.12657252737E+03  0.00000000000E+00 0.  1.
          2   -1    0    0  501    0  0.00000000000E+00 -0.00000000000E+00 -0.17175392627E+03  0.17175392627E+03  0.00000000000E+00 0. -1.
          5    1    1    2  502    0 -0.79192441234E+01 -0.21484264201E+02 -0.32248815186E+02  0.39771176959E+02  0.41800000000E+01 0.  1.
         -5    1    1    2    0  502  0.91256917165E+02  0.72174487984E+02  0.24993655258E+02  0.11907618086E+03  0.41800000000E+01 0.  1.
        -11    1    1    2    0    0 -0.89577819574E+02 -0.11610977625E+02 -0.42154567467E+02  0.99679527082E+02  0.00000000000E+00 0.  1.
         11    1    1    2    0    0  0.62401465327E+01 -0.39079246158E+02  0.42283284952E+01  0.39799568728E+02  0.00000000000E+00 0. -1.
</event>
<event>
 6    1  0.5317355E-006  0.1306616E+03  0.7561462E-02  0.1226477E+00
         -1   -1    0    0    0  501 -0.00000000000E+00  0.00000000000E+00  0.31201386508E+03  0.31201386508E+03  0.00000000000E+00 0.  1.
          1   -1    0    0  501    0  0.00000000000E+00 -0.00000000000E+00 -0.10873599759E+03  0.10873599759E+03  0.00000000000E+00 0. -1.
          5    1    1    2  502    0  0.11792193306E+03  0.30382028251E+02  0.15257119239E+03  0.19525391439E+03  0.41800000000E+01 0.  1.
         -5    1    1    2    0  502 -0.20486833866E+02 -0.23879886118E+02  0.82244983935E+02  0.88157070649E+02  0.41800000000E+01 0.  1.
        -11    1    1    2    0    0 -0.69172415922E+02  0.16713985648E+02 -0.58319060939E+02  0.92007028587E+02  0.00000000000E+00 0. -1.
         11    1    1    2    0    0 -0.28262683271E+02 -0.23216127781E+02  0.26780752110E+02  0.45331849051E+02  0.00000000000E+00 0.  1.
</event>
<event>
 6    1  0.5317355E-006  0.3756564E+02  0.7561462E-02  0.1526930E+00
         -1   -1    0    0    0  501 -0.00000000000E+00  0.00000000000E+00  0.84288829742E+02  0.84288829742E+02  0.00000000000E+00 0.  1.
          1   -1    0    0  501    0  0.00000000000E+00 -0.00000000000E+00 -0.15815094884E+03  0.15815094884E+03  0.00000000000E+00 0. -1.
          5    1    1    2  502    0 -0.14279672612E+02 -0.25074412756E+02  0.53022781962E+02  0.60510520011E+02  0.41800000000E+01 0.  1.
         -5    1    1    2    0  502 -0.43298441427E+01 -0.13698010125E+01 -0.69461015578E+02  0.69734704346E+02  0.41800000000E+01 0.  1.
        -11    1    1    2    0    0  0.21574788597E+02  0.11269583677E+02 -0.80677706747E+02  0.84269611279E+02  0.00000000000E+00 0. -1.
         11    1    1    2    0    0 -0.29652718417E+01  0.15174630092E+02  0.23253821261E+02  0.27924942950E+02  0.00000000000E+00 0.  1.
</event>
<event>
 6    1  0.5317355E-006  0.1059719E+03  0.7561462E-02  0.1268217E+00
          4   -1    0    0  501    0  0.00000000000E+00  0.00000000000E+00  0.26249163587E+02  0.26249163587E+02  0.00000000000E+00 0. -1.
         -4   -1    0    0    0  501 -0.00000000000E+00 -0.00000000000E+00 -0.44057783530E+03  0.44057783530E+03  0.00000000000E+00 0.  1.
          5    1    1    2  502    0  0.61310482132E+02  0.11408695520E+02 -0.14667015002E+03  0.15943255270E+03  0.41800000000E+01 0.  1.
         -5    1    1    2    0  502 -0.55922451860E+02 -0.25877777313E+02 -0.99052621227E+02  0.11672991970E+03  0.41800000000E+01 0.  1.
        -11    1    1    2    0    0 -0.89459351421E+01  0.50594551090E+02 -0.11462516866E+03  0.12561356474E+03  0.00000000000E+00 0. -1.
         11    1    1    2    0    0  0.35579048695E+01 -0.36125469297E+02 -0.53980731805E+02  0.65050961754E+02  0.00000000000E+00 0.  1.
</event>
<event>
 6    1  0.5317355E-006  0.2712492E+03  0.7561462E-02  0.1100567E+00
         -1   -1    0    0    0  501 -0.00000000000E+00  0.00000000000E+00  0.11292835420E+03  0.11292835420E+03  0.00000000000E+00 0.  1.
          1   -1    0    0  501    0  0.00000000000E+00 -0.00000000000E+00 -0.70689449736E+03  0.70689449736E+03  0.00000000000E+00 0. -1.
          5    1    1    2  502    0 -0.12576103222E+03  0.36160818857E+01 -0.18360290007E+03  0.22261269188E+03  0.41800000000E+01 0. -1.
         -5    1    1    2    0  502 -0.11473743243E+03  0.93178381919E+02 -0.82148498344E+02  0.16915300008E+03  0.41800000000E+01 0. -1.
        -11    1    1    2    0    0  0.34216285452E+02  0.11078126811E+02 -0.18009978794E+02  0.40222362188E+02  0.00000000000E+00 0.  1.
         11    1    1    2    0    0  0.20628217919E+03 -0.10787259062E+03 -0.31020476595E+03  0.38783479740E+03  0.00000000000E+00 0. -1.
</event>
<event>
 6    1  0.5317355E-006  0.1099703E+03  0.7561462E-02  0.1260625E+00
         -1   -1    0    0    0  501 -0.00000000000E+00  0.00000000000E+00  0.12796390699E+03  0.12796390699E+03  0.00000000000E+00 0.  1.
          1   -1    0    0  501    0  0.00000000000E+00 -0.00000000000E+00 -0.10786212001E+03  0.10786212001E+03  0.00000000000E+00 0. -1.
          5    1    1    2  502    0 -0.65570483860E+02 -0.23852719710E+02  0.12171745164E+02  0.70951140734E+02  0.41800000000E+01 0. -1.
         -5    1    1    2    0  502  0.49426934241E+02 -0.20590098837E+02  0.30470945874E+02  0.61748886152E+02  0.41800000000E+01 0.  1.
        -11    1    1    2    0    0  0.14664553155E+02 -0.23865010163E+02 -0.20608280904E+02  0.34774833877E+02  0.00000000000E+00 0. -1.
         11    1    1    2    0    0  0.14789964638E+01  0.68307828710E+02 -0.19326231453E+01  0.68351166236E+02  0.00000000000E+00 0.  1.
</event>
<event>
 6    1  0.5317355E-006  0.1769999E+03  0.7561462E-02  0.1170739E+00
          2   -1    0    0  501    0  0.00000000000E+00  0.00000000000E+00  0.14658139418E+03  0.14658139418E+03  0.00000000000E+00 0.  1.
         -2   -1    0    0    0  501 -0.00000000000E+00 -0.00000000000E+00 -0.27714947583E+03  0.27714947583E+03  0.00000000000E+00 0. -1.
          5    1    1    2  502    0 -0.15190605084E+02  0.14965862452E+02  0.10315080326E+02  0.24054205534E+02  0.41800000000E+01 0.  1.
         -5    1    1    2    0  502  0.14574133721E+03  0.72556984469E+02 -0.14262877958E+03  0.21648439789E+03  0.41800000000E+01 0.  1.
        -11    1    1    2    0    0 -0.95794508704E+02 -0.93825855989E+02  0.30653361944E+02  0.13754820155E+03  0.00000000000E+00 0.  1.
         11    1    1    2    0    0 -0.34756223420E+02  0.63030090685E+01 -0.28907744340E+02  0.45644065031E+02  0.00000000000E+00 0. -1.
</event>
<event>
 6    1  0.5317355E-006  0.1141343E+03  0.7561462E-02  0.1253100E+00
         -1   -1    0    0    0  501 -0.00000000000E+00  0.00000000000E+00  0.92786499891E+03  0.92786499891E+03  0.00000000000E+00 0.  1.
          1   -1    0    0  501    0  0.00000000000E+00 -0.00000000000E+00 -0.21833604077E+02  0.21833604077E+02  0.00000000000E+00 0. -1.
          5    1    1    2  502    0 -0.52521139932E+02 -0.32074270318E+02  0.16294326313E+03  0.17422746155E+03  0.41800000000E+01 0.  1.
         -5    1    1    2    0  502 -0.11831391155E+02  0.55884476284E+02  0.54122918763E+03  0.54425137799E+03  0.41800000000E+01 0.  1.
        -11    1    1    2    0    0  0.18521332899E+02  0.32073269701E+02  0.97324443261E+02  0.10413348000E+03  0.00000000000E+00 0.  1.
         11    1    1    2    0    0  0.45831198188E+02 -0.55883475667E+02  0.10453450080E+03  0.12708628344E+03  0.00000000000E+00 0. -1.
</event>
<event>
 6    1  0.5317355E-006  0.1005354E+03  0.7561462E-02  0.1279174E+00
         -1   -1    0    0    0  501 -0.00000000000E+00  0.00000000000E+00  0.14830067570E+04  0.14830067570E+04  0.00000000000E+00 0.  1.
          1   -1    0    0  501    0  0.00000000000E+00 -0.00000000000E+00 -0.15933060982E+02  0.15933060982E+02  0.00000000000E+00 0. -1.
          5    1    1    2  502    0  0.10073903642E+02 -0.29540677130E+02  0.60475748235E+02  0.68183015953E+02  0.41800000000E+01 0.  1.
         -5    1    1    2    0  502 -0.32689955163E+02 -0.40990503182E+02  0.11163050184E+04  0.11175433866E+04  0.41800000000E+01 0.  1.
        -11    1    1    2    0    0  0.57947792511E+02  0.41903131767E+02  0.16135612624E+03  0.17649254540E+03  0.00000000000E+00 0. -1.
         11    1    1    2    0    0 -0.35331740990E+02  0.28628048544E+02  0.12893680320E+03  0.13672087004E+03  0.00000000000E+00 0.  1.
</event>
<event>
 6    1  0.5317355E-006  0.8557307E+02  0.7561462E-02  0.1313941E+00
         -2   -1    0    0    0  501 -0.00000000000E+00  0.00000000000E+00  0.31347020100E+02  0.31347020100E+02  0.00000000000E+00 0.  1.
          2   -1    0    0  501    0  0.00000000000E+00 -0.00000000000E+00 -0.46311072196E+03  0.46311072196E+03  0.00000000000E+00 0. -1.
          5    1    1    2  502    0 -0.25684272684E+02  0.64541089771E+02 -0.70956220687E+02  0.99385571318E+02  0.41800000000E+01 0.  1.
         -5    1    1    2    0  502  0.36512516124E+02 -0.14733200509E+02 -0.19418320750E+03  0.19817876149E+03  0.41800000000E+01 0.  1.
        -11    1    1    2    0    0 -0.22376247933E+02 -0.43216011580E+02 -0.17468959941E+03  0.18134160105E+03  0.00000000000E+00 0. -1.
         11    1    1    2    0    0  0.11548004493E+02 -0.65918776816E+01  0.80653257373E+01  0.15551808203E+02  0.00000000000E+00 0.  1.
</event>
<event>
 6    1  0.8423992E-006  0.2847379E+03  0.7561462E-02  0.1093129E+00
          3   -1    0    0  501    0  0.00000000000E+00  0.00000000000E+00  0.25206848616E+03  0.25206848616E+03  0.00000000000E+00 0. -1.
         -3   -1    0    0    0  501 -0.00000000000E+00 -0.00000000000E+00 -0.34700624378E+03  0.34700624378E+03  0.00000000000E+00 0.  1.
          5    1    1    2  502    0 -0.26007440044E+02  0.12443604551E+02 -0.39865643022E+02  0.49375825314E+02  0.41800000000E+01 0.  1.
         -5    1    1    2    0  502 -0.22860288322E+03 -0.11503690106E+03 -0.81184789633E+01  0.25607840386E+03  0.41800000000E+01 0.  1.
        -11    1    1    2    0    0  0.11693475076E+03  0.87183023229E+02 -0.52381615028E+02  0.15497886652E+03  0.00000000000E+00 0. -1.
         11    1    1    2    0    0  0.13767557250E+03  0.15410273282E+02  0.54279793939E+01  0.13864163424E+03  0.00000000000E+00 0.  1.
</event>
<event>
 6    1  0.5317355E-006  0.3629253E+03  0.7561462E-02  0.1057432E+00
          1   -1    0    0  501    0  0.00000000000E+00  0.00000000000E+00  0.13623580668E+03  0.13623580668E+03  0.00000000000E+00 0. -1.
         -1   -1    0    0    0  501 -0.00000000000E+00 -0.00000000000E+00 -0.20771556511E+04  0.20771556511E+04  0.00000000000E+00 0.  1.
          5    1    1    2  502    0  0.12809350345E+03  0.14139152330E+03 -0.14974189933E+03  0.24256878880E+03  0.41800000000E+01 0. -1.
         -5    1    1    2    0  502 -0.30000838501E+03 -0.34862711088E+01 -0.16858587212E+04  0.17123534347E+04  0.41800000000E+01 0.  1.
        -11    1    1    2    0    0  0.63448944282E+02 -0.53360770826E+01 -0.17780232895E+02  0.66108841549E+02  0.00000000000E+00 0.  1.
         11    1    1    2    0    0  0.10846593728E+03 -0.13256917510E+03 -0.87538991009E+02  0.19236039271E+03  0.00000000000E+00 0. -1.
</event>
<event>
 6    1  0.5317355E-006  0.1012884E+03  0.7561462E-02  0.1277610E+00
          3   -1    0    0  501    0  0.00000000000E+00  0.00000000000E+00  0.82122878424E+02  0.82122878424E+02  0.00000000000E+00 0. -1.
         -3   -1    0    0    0  501 -0.00000000000E+00 -0.00000000000E+00 -0.17059930272E+03  0.17059930272E+03  0.00000000000E+00 0.  1.
          5    1    1    2  502    0 -0.22924094701E+02  0.37982406133E+02 -0.81161546042E+02  0.92589665997E+02  0.41800000000E+01 0.  1.
         -5    1    1    2    0  502  0.51482178469E+02 -0.38123122840E+02 -0.10392860209E+02  0.65032846611E+02  0.41800000000E+01 0.  1.
        -11    1    1    2    0    0 -0.22701724688E+02  0.44031582898E+02 -0.59920601966E+01  0.49900434685E+02  0.00000000000E+00 0.  1.
         11    1    1    2    0    0 -0.58563590796E+01 -0.43890866191E+02  0.90700421469E+01  0.45199233857E+02  0.00000000000E+00 0. -1.
</event>
<event>
 6    1  0.5317355E-006  0.1764892E+03  0.7561462E-02  0.1171245E+00
         -1   -1    0    0    0  501 -0.00000000000E+00  0.00000000000E+00  0.36902925235E+02  0.36902925235E+02  0.00000000000E+00 0.  1.
          1   -1    0    0  501    0  0.00000000000E+00 -0.00000000000E+00 -0.11043935032E+04  0.11043935032E+04  0.00000000000E+00 0. -1.
          5    1    1    2  502    0 -0.22893816766E+01  0.47919920552E+02 -0.35128945293E+02  0.59607677790E+02  0.41800000000E+01 0.  1.
         -5    1    1    2    0  502  0.76603503606E+02  0.10360194999E+03 -0.47249042025E+03  0.48976129945E+03  0.41800000000E+01 0.  1.
        -11    1    1    2    0    0  0.15858697039E+01 -0.45448422457E+02 -0.59806911984E+02  0.75132821108E+02  0.00000000000E+00 0.  1.
         11    1    1    2    0    0 -0.75899991633E+02 -0.10607344808E+03 -0.50006430042E+03  0.51679463007E+03  0.00000000000E+00 0. -1.
</event>
<event>
 6    1  0.5317355E-006  0.1114391E+03  0.7561462E-02  0.1257928E+00
         -1   -1    0    0    0  501 -0.00000000000E+00  0.00000000000E+00  0.86949492068E+02  0.86949492068E+02  0.00000000000E+00 0. -1.
          1   -1    0    0  501    0  0.00000000000E+00 -0.00000000000E+00 -0.28613515034E+03  0.28613515034E+03  0.00000000000E+00 0.  1.
          5    1    1    2  502    0 -0.11329845483E+02  0.16769136894E+02  0.47427476318E+02  0.51734004878E+02  0.41800000000E+01 0. -1.
         -5    1    1    2    0  502  0.29255251786E+02  0.70118497310E+02 -0.69778557465E+02  0.10324239877E+03  0.41800000000E+01 0. -1.
        -11    1    1    2    0    0 -0.35089928315E+02  0.24257581260E+01 -0.35008908332E+02  0.49626716940E+02  0.00000000000E+00 0. -1.
         11    1    1    2    0    0  0.17164522012E+02 -0.89313392330E+02 -0.14182566880E+03  0.16848152182E+03  0.00000000000E+00 0.  1.
</event>
<event>
 6    1  0.5317355E-006  0.7247819E+02  0.7561462E-02  0.1351863E+00
         -2   -1    0    0    0  501 -0.00000000000E+00  0.00000000000E+00  0.10267568559E+03  0.10267568559E+03  0.00000000000E+00 0.  1.
          2   -1    0    0  501    0  0.00000000000E+00 -0.00000000000E+00 -0.13369804896E+03  0.13369804896E+03  0.00000000000E+00 0. -1.
          5    1    1    2  502    0  0.90107818338E+01  0.49841053247E+02  0.44811505842E+02  0.67755946115E+02  0.41800000000E+01 0.  1.
         -5    1    1    2    0  502 -0.39075180063E+02 -0.39764047749E+02 -0.27751627808E+02  0.62415338150E+02  0.41800000000E+01 0.  1.
        -11    1    1    2    0    0  0.83556942213E+01  0.67666167553E+01  0.25491034529E+02  0.27665819518E+02  0.00000000000E+00 0.  1.
         11    1    1    2    0    0  0.21708704008E+02 -0.16843622253E+02 -0.73573275938E+02  0.78536630769E+02  0.00000000000E+00 0. -1.
</event>
<event>
 6    1  0.5317355E-006  0.9105509E+02  0.7561462E-02  0.1300317E+00
         -1   -1    0    0    0  501 -0.00000000000E+00  0.00000000000E+00  0.40307598656E+02  0.40307598656E+02  0.00000000000E+00 0.  1.
          1   -1    0    0  501    0  0.00000000000E+00 -0.00000000000E+00 -0.37676226877E+03  0.37676226877E+03  0.00000000000E+00 0. -1.
          5    1    1    2  502    0 -0.31450301633E+02 -0.46813942200E+02 -0.24933192531E+02  0.61804556037E+02  0.41800000000E+01 0. -1.
         -5    1    1    2    0  502 -0.24222308741E+02  0.55371690688E+02 -0.14121008973E+03  0.15365710596E+03  0.41800000000E+01 0. -1.
        -11    1    1    2    0    0  0.32495317979E+02  0.11352031891E+02 -0.65726624432E+01  0.35043033690E+02  0.00000000000E+00 0.  1.
         11    1    1    2    0    0  0.23177292395E+02 -0.19909780379E+02 -0.16373872541E+03  0.16656517174E+03  0.00000000000E+00 0. -1.
</event>
<event>
 6    1  0.5317355E-006  0.1108734E+03  0.7561462E-02  0.1258961E+00
          2   -1    0    0  501    0  0.00000000000E+00  0.00000000000E+00  0.39575782307E+03  0.39575782307E+03  0.00000000000E+00 0. -1.
         -2   -1    0    0    0  501 -0.00000000000E+00 -0.00000000000E+00 -0.39076893818E+02  0.39076893818E+02  0.00000000000E+00 0.  1.
          5    1    1    2  502    0 -0.51599360406E+02 -0.53272647545E+02  0.37847683834E+02  0.83368990292E+02  0.41800000000E+01 0.  1.
         -5    1    1    2    0  502  0.44003914924E+02  0.69842969311E+01  0.95119503129E+02  0.10512048900E+03  0.41800000000E+01 0.  1.
        -11    1    1    2    0    0 -0.11381748283E+02 -0.25784127850E+02  0.51792525124E+02  0.58964659770E+02  0.00000000000E+00 0. -1.
         11    1    1    2    0    0  0.18977193764E+02  0.72072478464E+02  0.17192121717E+03  0.18738057783E+03  0.00000000000E+00 0.  1.
</event>
<event>
 6    1  0.5317355E-006  0.6987054E+02  0.7561462E-02  0.1360534E+00
          4   -1    0    0  501    0  0.00000000000E+00  0.00000000000E+00  0.23657735460E+02  0.23657735460E+02  0.00000000000E+00 0. -1.
         -4   -1    0    0    0  501 -0.00000000000E+00 -0.00000000000E+00 -0.53865384980E+03  0.53865384980E+03  0.00000000000E+00 0.  1.
          5    1    1    2  502    0  0.78091318843E+01 -0.25722172175E+02 -0.55059148968E+01  0.27756083676E+02  0.41800000000E+01 0. -1.
         -5    1    1    2    0  502  0.19438808654E+02  0.23769355537E+02 -0.32839365635E+03  0.32985256628E+03  0.41800000000E+01 0. -1.
        -11    1    1    2    0    0 -0.53917400193E+02 -0.45114247916E+01 -0.16321507514E+03  0.17194941044E+03  0.00000000000E+00 0.  1.
         11    1    1    2    0    0  0.26669459654E+02  0.64642414302E+01 -0.17881467951E+02  0.32753524873E+02  0.00000000000E+00 0. -1.
</event>
<event>
 6    1  0.5317355E-006  0.9278214E+02  0.7561462E-02  0.1296251E+00
          2   -1    0    0  501    0  0.00000000000E+00  0.00000000000E+00  0.35496265586E+03  0.35496265586E+03  0.00000000000E+00 0. -1.
         -2   -1    0    0    0  501 -0.00000000000E+00 -0.00000000000E+00 -0.48039934196E+02  0.48039934196E+02  0.00000000000E+00 0.  1.
          5    1    1    2  502    0  0.60191510522E+02  0.31931670204E+02  0.13459883090E+03  0.15092040014E+03  0.41800000000E+01 0. -1.
         -5    1    1    2    0  502  0.75368231635E+01 -0.47032931320E+02  0.35519589577E+01  0.47947775177E+02  0.41800000000E+01 0. -1.
        -11    1    1    2    0    0 -0.28451672355E+02  0.81516741516E+01 -0.11253806549E+01  0.29617797570E+02  0.00000000000E+00 0.  1.
         11    1    1    2    0    0 -0.39276661330E+02  0.69495869645E+01  0.16989731247E+03  0.17451661717E+03  0.00000000000E+00 0. -1.
</event>
<event>
 6    1  0.5317355E-006  0.1295302E+03  0.7561462E-02  0.1228154E+00
          1   -1    0    0  501    0  0.00000000000E+00  0.00000000000E+00  0.27274910624E+02  0.27274910624E+02  0.00000000000E+00 0. -1.
         -1   -1    0    0    0  501 -0.00000000000E+00 -0.00000000000E+00 -0.84411622649E+03  0.84411622649E+03  0.00000000000E+00 0.  1.
          5    1    1    2  502    0  0.19889127296E+02 -0.90305179255E+02 -0.43695833375E+03  0.44665496820E+03  0.41800000000E+01 0. -1.
         -5    1    1    2    0  502 -0.22515093214E+02 -0.15111395381E+02 -0.98247971487E+01  0.29142455830E+02  0.41800000000E+01 0. -1.
        -11    1    1    2    0    0  0.44114539886E+02  0.31194860619E+02 -0.12407085451E+03  0.13532475346E+03  0.00000000000E+00 0.  1.
         11    1    1    2    0    0 -0.41488573968E+02  0.74221714018E+02 -0.24598733046E+03  0.26026895963E+03  0.00000000000E+00 0. -1.
</event>
<event>
 6    1  0.7168326E-006  0.1940743E+03  0.7561462E-02  0.1154837E+00
          2   -1    0    0  501    0  0.00000000000E+00  0.00000000000E+00  0.43632040403E+03  0.43632040403E+03  0.00000000000E+00 0. -1.
         -2   -1    0    0    0  501 -0.00000000000E+00 -0.00000000000E+00 -0.11144688699E+03  0.11144688699E+03  0.00000000000E+00 0.  1.
          5    1    1    2  502    0 -0.10423613601E+03 -0.61504053804E+02  0.36829042489E+02  0.12657713639E+03  0.41800000000E+01 0. -1.
         -5    1    1    2    0  502 -0.46213247794E+02 -0.55792075730E+02  0.15628275361E+03  0.17230841959E+03  0.41800000000E+01 0. -1.
        -11    1    1    2    0    0  0.79365136032E+02  0.38017352921E+02  0.12305359603E+02  0.88856996435E+02  0.00000000000E+00 0.  1.
         11    1    1    2    0    0  0.71084247775E+02  0.79278776613E+02  0.11945636133E+03  0.16002473861E+03  0.00000000000E+00 0. -1.
</event>
<event>
 6    1  0.5317355E-006  0.3400714E+03  0.7561462E-02  0.1066766E+00
          1   -1    0    0  501    0  0.00000000000E+00  0.00000000000E+00  0.35536662777E+03  0.35536662777E+03  0.00000000000E+00 0. -1.
         -1   -1    0    0    0  501 -0.00000000000E+00 -0.00000000000E+00 -0.33397319372E+03  0.33397319372E+03  0.00000000000E+00 0.  1.
          5    1    1    2  502    0 -0.12710345282E+03 -0.31283044113E+03  0.11071590012E+02  0.33787309026E+03  0.41800000000E+01 0.  1.
         -5    1    1    2    0  502  0.62339710114E+01  0.93879336980E+01  0.15773718902E+01  0.12122549062E+02  0.41800000000E+01 0.  1.
        -11    1    1    2    0    0  0.39930688467E+02  0.16771504889E+03 -0.33808424641E+02  0.17568667303E+03  0.00000000000E+00 0.  1.
         11    1    1    2    0    0  0.80938793340E+02  0.13572745855E+03  0.42552896789E+02  0.16365750913E+03  0.00000000000E+00 0. -1.
</event>
<event>
 6    1  0.5317355E-006  0.1015394E+03  0.7561462E-02  0.1277092E+00
         -3   -1    0    0    0  501 -0.00000000000E+00  0.00000000000E+00  0.74139290770E+02  0.74139290770E+02  0.00000000000E+00 0.  1.
          3   -1    0    0  501    0  0.00000000000E+00 -0.00000000000E+00 -0.24798733130E+03  0.24798733130E+03  0.00000000000E+00 0. -1.
          5    1    1    2  502    0  0.49124500665E+02 -0.35118291166E+02 -0.64719527215E+02  0.88614900231E+02  0.41800000000E+01 0. -1.
         -5    1    1    2    0  502  0.12414951126E+02  0.44255251692E+02  0.30372893726E+02  0.55250732005E+02  0.41800000000E+01 0. -1.
        -11    1    1    2    0    0 -0.57820864035E+02  0.24323123378E+02 -0.42989607931E+02  0.76045861417E+02  0.00000000000E+00 0.  1.
         11    1    1    2    0    0 -0.37185877556E+01 -0.33460083903E+02 -0.96511799114E+02  0.10221512842E+03  0.00000000000E+00 0. -1.
</event>
<event>
 6    1  0.5317355E-006  0.1035357E+03  0.7561462E-02  0.1273032E+00
          1   -1    0    0  501    0  0.00000000000E+00  0.00000000000E+00  0.10760541170E+03  0.10760541170E+03  0.00000000000E+00 0. -1.
         -1   -1    0    0    0  501 -0.00000000000E+00 -0.00000000000E+00 -0.24006915450E+03  0.24006915450E+03  0.00000000000E+00 0.  1.
          5    1    1    2  502    0  0.12166940450E+02 -0.77328752874E+02 -0.99462827653E+02  0.12664160827E+03  0.41800000000E+01 0. -1.
         -5    1    1    2    0  502  0.44291830698E+02  0.44090571370E+02 -0.71179482815E+02  0.94814217943E+02  0.41800000000E+01 0. -1.
        -11    1    1    2    0    0 -0.41226734024E+02  0.19813981430E+02  0.72861961570E+02  0.86029662920E+02  0.00000000000E+00 0. -1.
         11    1    1    2    0    0 -0.15232037125E+02  0.13424200075E+02 -0.34683393903E+02  0.40189077064E+02  0.00000000000E+00 0.  1.
</event>
<event>
 6    1  0.5317355E-006  0.8766041E+02  0.7561462E-02  0.1308618E+00
          3   -1    0    0  501    0  0.00000000000E+00  0.00000000000E+00  0.14421328224E+03  0.14421328224E+03  0.00000000000E+00 0. -1.
         -3   -1    0    0    0  501 -0.00000000000E+00 -0.00000000000E+00 -0.77640635830E+02  0.77640635830E+02  0.00000000000E+00 0.  1.
          5    1    1    2  502    0  0.38834373775E+02 -0.43840852880E+02  0.84868735142E+01  0.59326456069E+02  0.41800000000E+01 0. -1.
         -5    1    1    2    0  502 -0.41016914615E+02  0.43380986425E+02  0.18748370019E+02  0.62715795826E+02  0.41800000000E+01 0.  1.
        -11    1    1    2    0    0  0.28212627127E+02 -0.81048961427E+01  0.59125383876E+02  0.66011004306E+02  0.00000000000E+00 0. -1.
         11    1    1    2    0    0 -0.26030086287E+02  0.85647625974E+01 -0.19787981002E+02  0.33800661866E+02  0.00000000000E+00 0.  1.
</event>
<event>
 6    1  0.5317355E-006  0.7243301E+02  0.7561462E-02  0.1352010E+00
          2   -1    0    0  501    0  0.00000000000E+00  0.00000000000E+00  0.20207092666E+03  0.20207092666E+03  0.00000000000E+00 0. -1.
         -2   -1    0    0    0  501 -0.00000000000E+00 -0.00000000000E+00 -0.62872583006E+02  0.62872583006E+02  0.00000000000E+00 0.  1.
          5    1    1    2  502    0 -0.39243222952E+02 -0.48397980355E+02  0.10141357895E+03  0.11909904049E+03  0.41800000000E+01 0.  1.
         -5    1    1    2    0  502  0.19294257754E+02  0.19195171626E+02 -0.20230726282E+02  0.34168372539E+02  0.41800000000E+01 0.  1.
        -11    1    1    2    0    0  0.97876509673E+00  0.35024639665E+02  0.76760273968E+02  0.84379043751E+02  0.00000000000E+00 0. -1.
         11    1    1    2    0    0  0.18970200101E+02 -0.58218309355E+01 -0.18744782981E+02  0.27297052887E+02  0.00000000000E+00 0.  1.
</event>
<event>
 6    1  0.5317355E-006  0.1418827E+03  0.7561462E-02  0.1210818E+00
         -2   -1    0    0    0  501 -0.00000000000E+00  0.00000000000E+00  0.65866995561E+03  0.65866995561E+03  0.00000000000E+00 0.  1.
          2   -1    0    0  501    0  0.00000000000E+00 -0.00000000000E+00 -0.53462337600E+02  0.53462337600E+02  0.00000000000E+00 0. -1.
          5    1    1    2  502    0 -0.24774466971E+02 -0.12851229427E+02  0.15427165388E+03  0.15683157814E+03  0.41800000000E+01 0. -1.
         -5    1    1    2    0  502  0.11571119495E+03  0.54203122107E+02  0.38221014146E+03  0.40302496662E+03  0.41800000000E+01 0. -1.
        -11    1    1    2    0    0 -0.82532284852E+02  0.29716879966E+01  0.18250902235E+02  0.84578392068E+02  0.00000000000E+00 0. -1.
         11    1    1    2    0    0 -0.84044431285E+01 -0.44323580677E+02  0.50474920444E+02  0.67697356390E+02  0.00000000000E+00 0.  1.
</event>
<event>
 6    1  0.5317355E-006  0.1833690E+03  0.7561462E-02  0.1164582E+00
          1   -1    0    0  501    0  0.00000000000E+00  0.00000000000E+00  0.23238711159E+03  0.23238711159E+03  0.00000000000E+00 0. -1.
         -1   -1    0    0    0  501 -0.00000000000E+00 -0.00000000000E+00 -0.24728148295E+03  0.24728148295E+03  0.00000000000E+00 0.  1.
          5    1    1    2  502    0  0.32471744491E+02 -0.14184710405E+03 -0.12556422683E+03  0.19224687924E+03  0.41800000000E+01 0. -1.
         -5    1    1    2    0  502  0.52765317201E+02  0.10081247947E+02 -0.29984078073E+02  0.61663016447E+02  0.41800000000E+01 0. -1.
        -11    1    1    2    0    0 -0.43298644624E+02  0.19597339592E+02  0.10076767281E+02  0.48583634942E+02  0.00000000000E+00 0.  1.
         11    1    1    2    0    0 -0.41938417067E+02  0.11216851651E+03  0.13057716627E+03  0.17717506391E+03  0.00000000000E+00 0. -1.
</event>
<event>
 6    1  0.5317355E-006  0.1062721E+03  0.7561462E-02  0.1267633E+00
         -2   -1    0    0    0  501 -0.00000000000E+00  0.00000000000E+00  0.67919536101E+03  0.67919536101E+03  0.00000000000E+00 0.  1.
          2   -1    0    0  501    0  0.00000000000E+00 -0.00000000000E+00 -0.33167297264E+02  0.33167297264E+02  0.00000000000E+00 0. -1.
          5    1    1    2  502    0 -0.61381031748E+02  0.11669275762E+02  0.23918007314E+03  0.24724154757E+03  0.41800000000E+01 0. -1.
         -5    1    1    2    0  502  0.33582891752E+02 -0.52312184351E+02  0.32769422404E+03  0.33356461461E+03  0.41800000000E+01 0.  1.
        -11    1    1    2    0    0  0.57920413178E+01  0.58803191960E+02  0.14431856532E+02  0.60824679287E+02  0.00000000000E+00 0. -1.
         11    1    1    2    0    0  0.22006098678E+02 -0.18160283371E+02  0.64721910024E+02  0.70731816804E+02  0.00000000000E+00 0.  1.
</event>
<event>
 6    1  0.5317355E-006  0.1077461E+03  0.7561462E-02  0.1264802E+00
          1   -1    0    0  501    0  0.00000000000E+00  0.00000000000E+00  0.52815148236E+03  0.52815148236E+03  0.00000000000E+00 0. -1.
         -1   -1    0    0    0  501 -0.00000000000E+00 -0.00000000000E+00 -0.26109121374E+02  0.26109121374E+02  0.00000000000E+00 0.  1.
          5    1    1    2  502    0  0.29690202921E+01  0.56364940051E+02  0.99575216427E+02  0.11453609769E+03  0.41800000000E+01 0.  1.
         -5    1    1    2    0  502  0.62727105644E+01 -0.67576063469E+02  0.83778949895E+02  0.10789928683E+03  0.41800000000E+01 0.  1.
        -11    1    1    2    0    0  0.63425303406E+01  0.49320494392E+02  0.20391101169E+03  0.20988673028E+03  0.00000000000E+00 0. -1.
         11    1    1    2    0    0 -0.15584261197E+02 -0.38109370975E+02  0.11477718298E+03  0.12193848894E+03  0.00000000000E+00 0.  1.
</event>
<event>
 6    1  0.5317355E-006  0.1424785E+03  0.7561462E-02  0.1210032E+00
         -2   -1    0    0    0  501 -0.00000000000E+00  0.00000000000E+00  0.18112316735E+03  0.18112316735E+03  0.00000000000E+00 0.  1.
          2   -1    0    0  501    0  0.00000000000E+00 -0.00000000000E+00 -0.13890600467E+03  0.13890600467E+03  0.00000000000E+00 0. -1.
          5    1    1    2  502    0 -0.68803519791E+02  0.67059214496E+02  0.78252241334E+02  0.12398285469E+03  0.41800000000E+01 0.  1.
         -5    1    1    2    0  502 -0.36245820709E+02 -0.36968223770E+02 -0.14505627379E+02  0.53928607558E+02  0.41800000000E+01 0.  1.
        -11    1    1    2    0    0  0.21076524150E+02  0.27775828955E+02  0.83445070419E+01  0.35851741131E+02  0.00000000000E+00 0.  1.
         11    1    1    2    0    0  0.83972816349E+02 -0.57866819681E+02 -0.29873958320E+02  0.10626596864E+03  0.00000000000E+00 0. -1.
</event>
<event>
 6    1  0.5317355E-006  0.1722590E+03  0.7561462E-02  0.1175512E+00
         -2   -1    0    0    0  501 -0.00000000000E+00  0.00000000000E+00  0.25753593241E+03  0.25753593241E+03  0.00000000000E+00 0.  1.
          2   -1    0    0  501    0  0.00000000000E+00 -0.00000000000E+00 -0.25633417220E+03  0.25633417220E+03  0.00000000000E+00 0. -1.
          5    1    1    2  502    0  0.14738026246E+02  0.13798795805E+03 -0.26760600461E+02  0.14139125900E+03  0.41800000000E+01 0. -1.
         -5    1    1    2    0  502 -0.16483404556E+02 -0.67491142716E+02  0.15968265654E+03  0.17419179134E+03  0.41800000000E+01 0.  1.
        -11    1    1    2    0    0 -0.53513995922E+02 -0.10536544589E+02 -0.93473674365E+02  0.10822242989E+03  0.00000000000E+00 0.  1.
         11    1    1    2    0    0  0.55259374232E+02 -0.59960270743E+02 -0.38246621506E+02  0.90064624381E+02  0.00000000000E+00 0. -1.
</event>
<event>
 6    1  0.5317355E-006  0.2424103E+03  0.7561462E-02  0.1118198E+00
          2   -1    0    0  501    0  0.00000000000E+00  0.00000000000E+00  0.61012603117E+03  0.61012603117E+03  0.00000000000E+00 0. -1.
         -2   -1    0    0    0  501 -0.00000000000E+00 -0.00000000000E+00 -0.15432541202E+03  0.15432541202E+03  0.00000000000E+00 0.  1.
          5    1    1    2  502    0 -0.15253397090E+03 -0.17562632550E+03  0.15369338080E+02  0.23316283460E+03  0.41800000000E+01 0. -1.
         -5    1    1    2    0  502 -0.12324198352E+02  0.21355850190E+02 -0.33678569419E+01  0.25234362737E+02  0.41800000000E+01 0. -1.
        -11    1    1    2    0    0  0.14523725024E+03  0.12341929544E+03  0.42308190169E+03  0.46403068528E+03  0.00000000000E+00 0. -1.
         11    1    1    2    0    0  0.19620919013E+02  0.30851179870E+02  0.20717236324E+02  0.42023560572E+02  0.00000000000E+00 0.  1.
</event>
<event>
 6    1  0.5317355E-006  0.1485130E+03  0.7561462E-02  0.1202312E+00
         -1   -1    0    0    0  501 -0.00000000000E+00  0.00000000000E+00  0.53238180410E+02  0.53238180410E+02  0.00000000000E+00 0.  1.
          1   -1    0    0  501    0  0.00000000000E+00 -0.00000000000E+00 -0.63545037925E+03  0.63545037925E+03  0.00000000000E+00 0. -1.
          5    1    1    2  502    0  0.10154048220E+03  0.25542347309E+02 -0.82496222254E+02  0.13336408856E+03  0.41800000000E+01 0.  1.
         -5    1    1    2    0  502  0.37910976148E+02  0.22588669828E+02 -0.22935921571E+03  0.23360353668E+03  0.41800000000E+01 0.  1.
        -11    1    1    2    0    0 -0.38198081766E+02 -0.82010317959E+01 -0.11210005591E+02  0.40644982451E+02  0.00000000000E+00 0.  1.
         11    1    1    2    0    0 -0.10125337659E+03 -0.39929985342E+02 -0.25914675528E+03  0.28107595197E+03  0.00000000000E+00 0. -1.
</event>
<event>
 6    1  0.5317355E-006  0.9940895E+02  0.7561462E-02  0.1281544E+00
          2   -1    0    0  501    0  0.00000000000E+00  0.00000000000E+00  0.51742926397E+03  0.51742926397E+03  0.00000000000E+00 0. -1.
         -2   -1    0    0    0  501 -0.00000000000E+00 -0.00000000000E+00 -0.34831446157E+02  0.34831446157E+02  0.00000000000E+00 0.  1.
          5    1    1    2  502    0 -0.21079948294E+01  0.54406724192E+02  0.22791391868E+03  0.23436459206E+03  0.41800000000E+01 0. -1.
         -5    1    1    2    0  502  0.26550455354E+02  0.23578734117E+02 -0.27598822043E+01  0.35860461958E+02  0.41800000000E+01 0. -1.
        -11    1    1    2    0    0 -0.35038815529E+01 -0.85973954909E+02  0.15610687128E+03  0.17825025489E+03  0.00000000000E+00 0.  1.
         11    1    1    2    0    0 -0.20938578972E+02  0.79884965998E+01  0.10133691006E+03  0.10378540122E+03  0.00000000000E+00 0. -1.
</event>
<event>
 6    1  0.5317355E-006  0.1057644E+03  0.7561462E-02  0.1268621E+00
         -2   -1    0    0    0  501 -0.00000000000E+00  0.00000000000E+00  0.11908350730E+03  0.11908350730E+03  0.00000000000E+00 0.  1.
          2   -1    0    0  501    0  0.00000000000E+00 -0.00000000000E+00 -0.10717338647E+03  0.10717338647E+03  0.00000000000E+00 0. -1.
          5    1    1    2  502    0 -0.10267005432E+02 -0.54334845503E+02  0.37463692474E+02  0.66922996721E+02  0.41800000000E+01 0.  1.
         -5    1    1    2    0  502  0.57971001987E+01  0.63356807832E+02 -0.98188568517E+00  0.63766197698E+02  0.41800000000E+01 0.  1.
        -11    1    1    2    0    0 -0.43510888586E+02 -0.84948901390E+01 -0.13183638527E+02  0.46251150351E+02  0.00000000000E+00 0. -1.
         11    1    1    2    0    0  0.47980793819E+02 -0.52707218983E+00 -0.11388047440E+02  0.49316548998E+02  0.00000000000E+00 0.  1.
</event>
<event>
 6    1  0.5317355E-006  0.7878807E+02  0.7561462E-02  0.1332526E+00
         -4   -1    0    0    0  501 -0.00000000000E+00  0.00000000000E+00  0.22765408618E+02  0.22765408618E+02  0.00000000000E+00 0.  1.
          4   -1    0    0  501    0  0.00000000000E+00 -0.00000000000E+00 -0.53638287400E+03  0.53638287400E+03  0.00000000000E+00 0. -1.
          5    1    1    2  502    0 -0.43922252436E+02  0.77286970974E+01 -0.25360272317E+03  0.25752807734E+03  0.41800000000E+01 0.  1.
         -5    1    1    2    0  502  0.31833710960E+02  0.42087024148E+01 -0.86312979419E+01  0.33512237074E+02  0.41800000000E+01 0.  1.
        -11    1    1    2    0    0 -0.96527036416E+01 -0.42115716422E+02 -0.20036518282E+03  0.20497100952E+03  0.00000000000E+00 0. -1.
         11    1    1    2    0    0  0.21741245118E+02  0.30178316910E+02 -0.51018261452E+02  0.63136958688E+02  0.00000000000E+00 0.  1.
</event>
<event>
 6    1  0.5317355E-006  0.1662671E+03  0.7561462E-02  0.1181798E+00
          2   -1    0    0  501    0  0.00000000000E+00  0.00000000000E+00  0.41829791598E+03  0.41829791598E+03  0.00000000000E+00 0. -1.
         -2   -1    0    0    0  501 -0.00000000000E+00 -0.00000000000E+00 -0.67098120551E+02  0.67098120551E+02  0.00000000000E+00 0.  1.
          5    1    1    2  502    0 -0.30392316927E+02 -0.86785677382E+01  0.44273728109E+02  0.54558646124E+02  0.41800000000E+01 0. -1.
         -5    1    1    2    0  502  0.66020195443E+02  0.12948424822E+03  0.17085846614E+03  0.22435446194E+03  0.41800000000E+01 0. -1.
        -11    1    1    2    0    0 -0.41682119315E+02 -0.82017837394E+01  0.39833483781E+02  0.58235511135E+02  0.00000000000E+00 0.  1.
         11    1    1    2    0    0  0.60542407988E+01 -0.11260389674E+03  0.96234117402E+02  0.14824741733E+03  0.00000000000E+00 0. -1.
</event>
<event>
 6    1  0.5317355E-006  0.1469610E+03  0.7561462E-02  0.1204258E+00
         -2   -1    0    0    0  501 -0.00000000000E+00  0.00000000000E+00  0.11958331273E+03  0.11958331273E+03  0.00000000000E+00 0. -1.
          2   -1    0    0  501    0  0.00000000000E+00 -0.00000000000E+00 -0.29241672878E+03  0.29241672878E+03  0.00000000000E+00 0.  1.
          5    1    1    2  502    0  0.39907323543E+02  0.13194916742E+03  0.24774895895E+02  0.14012296429E+03  0.41800000000E+01 0. -1.
         -5    1    1    2    0  502  0.14913016614E+02 -0.26612503263E+02 -0.11488426534E+02  0.32864566613E+02  0.41800000000E+01 0. -1.
        -11    1    1    2    0    0 -0.41725102859E+02 -0.10399309113E+03 -0.19373451553E+03  0.22380484740E+03  0.00000000000E+00 0.  1.
         11    1    1    2    0    0 -0.13095237298E+02 -0.13435730240E+01  0.76146301213E+01  0.15207663208E+02  0.00000000000E+00 0. -1.
</event>
<event>
 6    1  0.5317355E-006  0.1056040E+03  0.7561462E-02  0.1268934E+00
          1   -1    0    0  501    0  0.00000000000E+00  0.00000000000E+00  0.96006514703E+02  0.96006514703E+02  0.00000000000E+00 0. -1.
         -1   -1    0    0    0  501 -0.00000000000E+00 -0.00000000000E+00 -0.24671561961E+03  0.24671561961E+03  0.00000000000E+00 0.  1.
          5    1    1    2  502    0  0.51020198781E+01  0.52425219639E+02 -0.69677831376E+02  0.87446594252E+02  0.41800000000E+01 0.  1.
         -5    1    1    2    0  502 -0.64734414963E+02 -0.56126914549E+02 -0.11585538712E+03  0.14415518770E+03  0.41800000000E+01 0.  1.
        -11    1    1    2    0    0  0.31993255285E+02  0.22544213475E+02  0.58324768951E+02  0.70239508954E+02  0.00000000000E+00 0. -1.
         11    1    1    2    0    0  0.27639139801E+02 -0.18842518564E+02 -0.23500655358E+02  0.40880843399E+02  0.00000000000E+00 0.  1.
</event>
<event>
 6    1  0.5317355E-006  0.1138214E+03  0.7561462E-02  0.1253653E+00
         -1   -1    0    0    0  501 -0.00000000000E+00  0.00000000000E+00  0.24119302861E+03  0.24119302861E+03  0.00000000000E+00 0.  1.
          1   -1    0    0  501    0  0.00000000000E+00 -0.00000000000E+00 -0.71882311787E+02  0.71882311787E+02  0.00000000000E+00 0. -1.
          5    1    1    2  502    0 -0.49052828891E+01  0.50688207503E+02  0.30558372266E+02  0.59536901965E+02  0.41800000000E+01 0.  1.
         -5    1    1    2    0  502  0.77604453090E+02 -0.49573587691E+02  0.89347624814E+02  0.12837625246E+03  0.41800000000E+01 0.  1.
        -11    1    1    2    0    0 -0.51513398856E+02 -0.20696439548E+02 -0.12464298755E+02  0.56897553682E+02  0.00000000000E+00 0. -1.
         11    1    1    2    0    0 -0.21185771345E+02  0.19581819735E+02  0.61869018497E+02  0.68264632288E+02  0.00000000000E+00 0.  1.
</event>
<event>
 6    1  0.5317355E-006  0.6476823E+02  0.7561462E-02  0.1378845E+00
          1   -1    0    0  501    0  0.00000000000E+00  0.00000000000E+00  0.18337436361E+02  0.18337436361E+02  0.00000000000E+00 0. -1.
         -1   -1    0    0    0  501 -0.00000000000E+00 -0.00000000000E+00 -0.70886769898E+03  0.70886769898E+03  0.00000000000E+00 0.  1.
          5    1    1    2  502    0 -0.17800296074E+01  0.15682574659E+02 -0.35140678676E+03  0.35178589203E+03  0.41800000000E+01 0.  1.
         -5    1    1    2    0  502 -0.11782301349E+02  0.12546636247E+02  0.45318512217E+01  0.18282526677E+02  0.41800000000E+01 0.  1.
        -11    1    1    2    0    0 -0.34794814753E+02  0.72228703274E+01 -0.16160948216E+03  0.16547046175E+03  0.00000000000E+00 0.  1.
         11    1    1    2    0    0  0.48357145710E+02 -0.35452081233E+02 -0.18204584493E+03  0.19166625488E+03  0.00000000000E+00 0. -1.
</event>
<event>
 6    1  0.5317355E-006  0.1637515E+03  0.7561462E-02  0.1184525E+00
          1   -1    0    0  501    0  0.00000000000E+00  0.00000000000E+00  0.42310231683E+03  0.42310231683E+03  0.00000000000E+00 0. -1.
         -1   -1    0    0    0  501 -0.00000000000E+00 -0.00000000000E+00 -0.79838391900E+02  0.79838391900E+02  0.00000000000E+00 0.  1.
          5    1    1    2  502    0  0.42249495416E+02  0.30922238470E+02  0.37462129537E+02  0.64514248382E+02  0.41800000000E+01 0.  1.
         -5    1    1    2    0  502  0.55693232900E+02 -0.10739936174E+03  0.34085254921E+02  0.12576023257E+03  0.41800000000E+01 0.  1.
        -11    1    1    2    0    0  0.17191585568E+02  0.17632923451E+02  0.32935053507E+02  0.41124060515E+02  0.00000000000E+00 0.  1.
         11    1    1    2    0    0 -0.11513431388E+03  0.58844199817E+02  0.23878148696E+03  0.27154216726E+03  0.00000000000E+00 0. -1.
</event>
<event>
 6    1  0.5317355E-006  0.1042139E+03  0.7561462E-02  0.1271676E+00
         -3   -1    0    0    0  501 -0.00000000000E+00  0.00000000000E+00  0.89227743563E+02  0.89227743563E+02  0.00000000000E+00 0.  1.
          3   -1    0    0  501    0  0.00000000000E+00 -0.00000000000E+00 -0.16632512767E+03  0.16632512767E+03  0.00000000000E+00 0. -1.
          5    1    1    2  502    0 -0.77720395401E+02  0.91028372752E+01  0.27066256902E+01  0.78409946629E+02  0.41800000000E+01 0. -1.
         -5    1    1    2    0  502  0.32537707967E+02 -0.41900132168E+02 -0.30848724870E+02  0.61509671935E+02  0.41800000000E+01 0. -1.
        -11    1    1    2    0    0  0.47600172267E+02  0.37994408364E+01  0.10988958069E+02  0.48999687244E+02  0.00000000000E+00 0.  1.
         11    1    1    2    0    0 -0.24174848327E+01  0.28997854057E+02 -0.59944242993E+02  0.66633565422E+02  0.00000000000E+00 0. -1.
</event>
<event>
 6    1  0.5317355E-006  0.1092961E+03  0.7561462E-02  0.1261879E+00
         -1   -1    0    0    0  501 -0.00000000000E+00  0.00000000000E+00  0.98250083206E+02  0.98250083206E+02  0.00000000000E+00 0.  1.
          1   -1    0    0  501    0  0.00000000000E+00 -0.00000000000E+00 -0.23405251633E+03  0.23405251633E+03  0.00000000000E+00 0. -1.
          5    1    1    2  502    0  0.50763497214E+02 -0.47812326704E+02 -0.67223693350E+02  0.96950753385E+02  0.41800000000E+01 0. -1.
         -5    1    1    2    0  502  0.78425967242E+01 -0.21186678282E+02  0.53346899361E+02  0.58083954165E+02  0.41800000000E+01 0. -1.
        -11    1    1    2    0    0  0.77300306943E+00 -0.19318558505E+02 -0.68161485965E+01  0.20500344342E+02  0.00000000000E+00 0.  1.
         11    1    1    2    0    0 -0.59379097008E+02  0.88317563491E+02 -0.11510949054E+03  0.15676754765E+03  0.00000000000E+00 0. -1.
</event>
<event>
 6    1  0.5317355E-006  0.1160617E+03  0.7561462E-02  0.1249739E+00
         -1   -1    0    0    0  501 -0.00000000000E+00  0.00000000000E+00  0.15874764002E+03  0.15874764002E+03  0.00000000000E+00 0.  1.
          1   -1    0    0  501    0  0.00000000000E+00 -0.00000000000E+00 -0.24846398368E+03  0.24846398368E+03  0.00000000000E+00 0. -1.
          5    1    1    2  502    0  0.69344847159E+02  0.21946060153E+01  0.19073164172E+02  0.72074836903E+02  0.41800000000E+01 0. -1.
         -5    1    1    2    0  502 -0.36117121661E+02 -0.56689995766E+02  0.87050472064E+02  0.11006116110E+03  0.41800000000E+01 0.  1.
        -11    1    1    2    0    0  0.21734924356E+02  0.24138367296E+02 -0.19488250482E+02  0.37879540907E+02  0.00000000000E+00 0.  1.
         11    1    1    2    0    0 -0.54962649854E+02  0.30357022454E+02 -0.17635172941E+03  0.18719608478E+03  0.00000000000E+00 0. -1.
</event>
<event>
 6    1  0.5317355E-006  0.1191810E+03  0.7561462E-02  0.1244454E+00
         -2   -1    0    0    0  501 -0.00000000000E+00  0.00000000000E+00  0.11924866480E+03  0.11924866480E+03  0.00000000000E+00 0.  1.
          2   -1    0    0  501    0  0.00000000000E+00 -0.00000000000E+00 -0.16524077489E+03  0.16524077489E+03  0.00000000000E+00 0. -1.
          5    1    1    2  502    0  0.24144940118E+02  0.53476506402E+02 -0.50569582170E+02  0.77572352750E+02  0.41800000000E+01 0. -1.
         -5    1    1    2    0  502 -0.68158709314E+02 -0.45124298571E+02  0.49904984085E+02  0.95863401846E+02  0.41800000000E+01 0.  1.
        -11    1    1    2    0    0 -0.21147768743E+02 -0.22639366680E+02 -0.28864180050E+02  0.42342767227E+02  0.00000000000E+00 0. -1.
         11    1    1    2    0    0  0.65161537939E+02  0.14287158848E+02 -0.16463331951E+02  0.68710917862E+02  0.00000000000E+00 0.  1.
</event>
<event>
 6    1  0.5317355E-006  0.1550357E+03  0.7561462E-02  0.1194418E+00
          1   -1    0    0  501    0  0.00000000000E+00  0.00000000000E+00  0.21541591787E+03  0.21541591787E+03  0.00000000000E+00 0. -1.
         -1   -1    0    0    0  501 -0.00000000000E+00 -0.00000000000E+00 -0.17078320190E+03  0.17078320190E+03  0.00000000000E+00 0.  1.
          5    1    1    2  502    0  0.80848958257E+02  0.11227567680E+03 -0.90363241478E+02  0.16530387008E+03  0.41800000000E+01 0. -1.
         -5    1    1    2    0  502 -0.80466035199E+01 -0.22354738983E+02  0.59463488063E+01  0.24845797377E+02  0.41800000000E+01 0. -1.
        -11    1    1    2    0    0 -0.79235803723E+02 -0.26158016232E+02  0.70276414817E+02  0.10909321191E+03  0.00000000000E+00 0. -1.
         11    1    1    2    0    0  0.64334489860E+01 -0.63762921582E+02  0.58773193820E+02  0.86956240411E+02  0.00000000000E+00 0.  1.
</event>
<event>
 6    1  0.5317355E-006  0.9514417E+02  0.7561462E-02  0.1290852E+00
         -1   -1    0    0    0  501 -0.00000000000E+00  0.00000000000E+00  0.20419061397E+03  0.20419061397E+03  0.00000000000E+00 0.  1.
          1   -1    0    0  501    0  0.00000000000E+00 -0.00000000000E+00 -0.68716747444E+02  0.68716747444E+02  0.00000000000E+00 0. -1.
          5    1    1    2  502    0  0.34749753140E+02 -0.33366648429E+02  0.78252702374E+02  0.91988240550E+02  0.41800000000E+01 0. -1.
         -5    1    1    2    0  502 -0.25716708772E+02  0.68648851821E+02  0.38282839673E+02  0.82807379984E+02  0.41800000000E+01 0. -1.
        -11    1    1    2    0    0 -0.12453943929E+02 -0.50959333164E+02  0.43922309460E+02  0.68418737377E+02  0.00000000000E+00 0.  1.
         11    1    1    2    0    0  0.34208995616E+01  0.15677129772E+02 -0.24983984979E+02  0.29693003505E+02  0.00000000000E+00 0. -1.
</event>
<event>
 6    1  0.5317355E-006  0.6666528E+02  0.7561462E-02  0.1371815E+00
          1   -1    0    0  501    0  0.00000000000E+00  0.00000000000E+00  0.44232040120E+02  0.44232040120E+02  0.00000000000E+00 0. -1.
         -1   -1    0    0    0  501 -0.00000000000E+00 -0.00000000000E+00 -0.29333153970E+03  0.29333153970E+03  0.00000000000E+00 0.  1.
          5    1    1    2  502    0 -0.22079475780E+02 -0.28013131053E+02  0.77988650723E+01  0.36749604875E+02  0.41800000000E+01 0. -1.
         -5    1    1    2    0  502  0.21898202760E+02  0.10547124673E+02 -0.20427195575E+03  0.20575538250E+03  0.41800000000E+01 0.  1.
        -11    1    1    2    0    0 -0.21395108334E+02 -0.20150377079E+02 -0.36072432363E+01  0.29610818306E+02  0.00000000000E+00 0.  1.
         11    1    1    2    0    0  0.21576381353E+02  0.37616383458E+02 -0.49019165668E+02  0.65447774138E+02  0.00000000000E+00 0. -1.
</event>
<event>
 6    1  0.5317355E-006  0.9443195E+02  0.7561462E-02  0.1292461E+00
         -2   -1    0    0    0  501 -0.00000000000E+00  0.00000000000E+00  0.21288443337E+03  0.21288443337E+03  0.00000000000E+00 0.  1.
          2   -1    0    0  501    0  0.00000000000E+00 -0.00000000000E+00 -0.57421267992E+02  0.57421267992E+02  0.00000000000E+00 0. -1.
          5    1    1    2  502    0 -0.30650743201E+02 -0.39790860254E+02  0.50191022701E+01  0.50650216250E+02  0.41800000000E+01 0.  1.
         -5    1    1    2    0  502  0.47878566704E+02  0.27900660882E+02  0.98366194022E+02  0.11297869071E+03  0.41800000000E+01 0.  1.
        -11    1    1    2    0    0 -0.14503265608E+02 -0.33976854547E+02 -0.37546594529E+00  0.36944719960E+02  0.00000000000E+00 0. -1.
         11    1    1    2    0    0 -0.27245578944E+01  0.45867053919E+02  0.52453335034E+02  0.69732074450E+02  0.00000000000E+00 0.  1.
</event>
<event>
 6    1  0.5317355E-006  0.1513269E+03  0.7561462E-02  0.1198852E+00
          2   -1    0    0  501    0  0.00000000000E+00  0.00000000000E+00  0.95220999005E+02  0.95220999005E+02  0.00000000000E+00 0.  1.
         -2   -1    0    0    0  501 -0.00000000000E+00 -0.00000000000E+00 -0.32331493179E+03  0.32331493179E+03  0.00000000000E+00 0. -1.
          5    1    1    2  502    0  0.46645850228E+02  0.16202835164E+02 -0.94417024802E+02  0.10663214423E+03  0.41800000000E+01 0.  1.
         -5    1    1    2    0  502  0.39340842054E+02 -0.11317946838E+03 -0.80236449788E+02  0.14426591486E+03  0.41800000000E+01 0.  1.
        -11    1    1    2    0    0 -0.24782641508E+01  0.18308073454E+02 -0.49508131431E+02  0.52842997876E+02  0.00000000000E+00 0. -1.
         11    1    1    2    0    0 -0.83508428131E+02  0.78668559760E+02 -0.39323267664E+01  0.11479487383E+03  0.00000000000E+00 0.  1.
</event>
<event>
 6    1  0.5317355E-006  0.1099595E+03  0.7561462E-02  0.1260645E+00
         -3   -1    0    0    0  501 -0.00000000000E+00  0.00000000000E+00  0.72161978276E+02  0.72161978276E+02  0.00000000000E+00 0.  1.
          3   -1    0    0  501    0  0.00000000000E+00 -0.00000000000E+00 -0.20033557089E+03  0.20033557089E+03  0.00000000000E+00 0. -1.
          5    1    1    2  502    0  0.30992076131E+02  0.20466477108E+02  0.10598945980E+02  0.38848365783E+02  0.41800000000E+01 0. -1.
         -5    1    1    2    0  502 -0.78078470931E+02 -0.18831324252E+02 -0.73209731460E+02  0.10875662544E+03  0.41800000000E+01 0. -1.
        -11    1    1    2    0    0  0.72956887237E+02  0.10205146936E+02 -0.30481709700E+02  0.79724444466E+02  0.00000000000E+00 0.  1.
         11    1    1    2    0    0 -0.25870492436E+02 -0.11840299792E+02 -0.35081097435E+02  0.45168113480E+02  0.00000000000E+00 0. -1.
</event>
<event>
 6    1  0.5317355E-006  0.9060754E+02  0.7561462E-02  0.1301387E+00
         -2   -1    0    0    0  501 -0.00000000000E+00  0.00000000000E+00  0.43708448394E+02  0.43708448394E+02  0.00000000000E+00 0. -1.
          2   -1    0    0  501    0  0.00000000000E+00 -0.00000000000E+00 -0.32859005987E+03  0.32859005987E+03  0.00000000000E+00 0.  1.
          5    1    1    2  502    0  0.64005462790E+01 -0.50035576544E+02  0.71753068842E+01  0.51122239208E+02  0.41800000000E+01 0. -1.
         -5    1    1    2    0  502 -0.22415727127E+02  0.33934734544E+02 -0.94925337067E+02  0.10335532424E+03  0.41800000000E+01 0. -1.
        -11    1    1    2    0    0  0.31109793530E+02  0.46399993195E+02 -0.94797018353E+02  0.11003296465E+03  0.00000000000E+00 0.  1.
         11    1    1    2    0    0 -0.15094612682E+02 -0.30299151196E+02 -0.10233456294E+03  0.10778798016E+03  0.00000000000E+00 0. -1.
</event>
<event>
 6    1  0.5317355E-006  0.9232871E+02  0.7561462E-02  0.1297308E+00
         -1   -1    0    0    0  501 -0.00000000000E+00  0.00000000000E+00  0.22495160764E+03  0.22495160764E+03  0.00000000000E+00 0.  1.
          1   -1    0    0  501    0  0.00000000000E+00 -0.00000000000E+00 -0.67255689129E+02  0.67255689129E+02  0.00000000000E+00 0. -1.
          5    1    1    2  502    0 -0.22631739615E+02  0.57498432798E+02  0.93919540061E+02  0.11250163473E+03  0.41800000000E+01 0.  1.
         -5    1    1    2    0  502  0.49759572025E+02 -0.70074768676E+01 -0.60152157103E+01  0.50781639991E+02  0.41800000000E+01 0.  1.
        -11    1    1    2    0    0 -0.39432970646E+02 -0.39105246969E+02  0.88072554176E+02  0.10411990354E+03  0.00000000000E+00 0.  1.
         11    1    1    2    0    0  0.12305138236E+02 -0.11385708961E+02 -0.18280960017E+02  0.24804118503E+02  0.00000000000E+00 0. -1.
</event>
<event>
 6    1  0.5317355E-006  0.1489494E+03  0.7561462E-02  0.1201770E+00
         -2   -1    0    0    0  501 -0.00000000000E+00  0.00000000000E+00  0.26263774314E+03  0.26263774314E+03  0.00000000000E+00 0.  1.
          2   -1    0    0  501    0  0.00000000000E+00 -0.00000000000E+00 -0.10144360180E+03  0.10144360180E+03  0.00000000000E+00 0. -1.
          5    1    1    2  502    0  0.95071905777E+02 -0.10581760272E+03  0.37182193575E+02  0.14709187684E+03  0.41800000000E+01 0. -1.
         -5    1    1    2    0  502 -0.19815028806E+02  0.12261737969E+02  0.31514976560E+02  0.39416389132E+02  0.41800000000E+01 0. -1.
        -11    1    1    2    0    0 -0.80912626562E+02  0.67869306508E+02  0.10458111164E+03  0.14862807546E+03  0.00000000000E+00 0.  1.
         11    1    1    2    0    0  0.56557495914E+01  0.25686558242E+02 -0.12084140435E+02  0.28945003504E+02  0.00000000000E+00 0. -1.
</event>
<event>
 6    1  0.5317355E-006  0.7319953E+02  0.7561462E-02  0.1349539E+00
         -2   -1    0    0    0  501 -0.00000000000E+00  0.00000000000E+00  0.34398447546E+03  0.34398447546E+03  0.00000000000E+00 0.  1.
          2   -1    0    0  501    0  0.00000000000E+00 -0.00000000000E+00 -0.38222394957E+02  0.38222394957E+02  0.00000000000E+00 0. -1.
          5    1    1    2  502    0  0.33433022938E+02  0.47852841613E+02  0.15275506642E+03  0.16358253021E+03  0.41800000000E+01 0.  1.
         -5    1    1    2    0  502 -0.22265287547E+02 -0.17020821201E+02 -0.90460560817E+01  0.29744830047E+02  0.41800000000E+01 0.  1.
        -11    1    1    2    0    0  0.14148955981E+02 -0.31157609584E+02  0.15984249250E+03  0.16346440591E+03  0.00000000000E+00 0.  1.
         11    1    1    2    0    0 -0.25316691373E+02  0.32558917142E+00  0.22105776633E+01  0.25415104249E+02  0.00000000000E+00 0. -1.
</event>
<event>
 6    1  0.5317355E-006  0.1124221E+03  0.7561462E-02  0.1256149E+00
         -2   -1    0    0    0  501 -0.00000000000E+00  0.00000000000E+00  0.38246307382E+03  0.38246307382E+03  0.00000000000E+00 0.  1.
          2   -1    0    0  501    0  0.00000000000E+00 -0.00000000000E+00 -0.55357478984E+02  0.55357478984E+02  0.00000000000E+00 0. -1.
          5    1    1    2  502    0  0.20184737077E+02  0.60988264019E+02  0.18163671988E+03  0.19270797173E+03  0.41800000000E+01 0.  1.
         -5    1    1    2    0  502  0.88807550732E+01  0.29423215566E+02 -0.16546341789E+02  0.35154619206E+02  0.41800000000E+01 0.  1.
        -11    1    1    2    0    0  0.31482372579E+02 -0.24053414277E+02  0.27586023725E+02  0.48277274432E+02  0.00000000000E+00 0. -1.
         11    1    1    2    0    0 -0.60547864729E+02 -0.66358065309E+02  0.13442919303E+03  0.16168068745E+03  0.00000000000E+00 0.  1.
</event>
<event>
 6    1  0.5317355E-006  0.9174204E+02  0.7561462E-02  0.1298687E+00
         -1   -1    0    0    0  501 -0.00000000000E+00  0.00000000000E+00  0.43761354787E+03  0.43761354787E+03  0.00000000000E+00 0.  1.
          1   -1    0    0  501    0  0.00000000000E+00 -0.00000000000E+00 -0.32886032769E+02  0.32886032769E+02  0.00000000000E+00 0. -1.
          5    1    1    2  502    0  0.32192566843E+02 -0.72447808386E+00  0.15510945976E+02  0.35985386944E+02  0.41800000000E+01 0.  1.
         -5    1    1    2    0  502 -0.77047636581E+02  0.30102909338E+02  0.23354761115E+03  0.24779927870E+03  0.41800000000E+01 0.  1.
        -11    1    1    2    0    0 -0.57900805292E+01 -0.14172226978E+02 -0.61324647619E+01  0.16491942703E+02  0.00000000000E+00 0. -1.
         11    1    1    2    0    0  0.50645150268E+02 -0.15206204275E+02  0.16180142274E+03  0.17022297228E+03  0.00000000000E+00 0.  1.
</event>
<event>
 6    1  0.5317355E-006  0.1413961E+03  0.7561462E-02  0.1211463E+00
          2   -1    0    0  501    0  0.00000000000E+00  0.00000000000E+00  0.67056872598E+03  0.67056872598E+03  0.00000000000E+00 0. -1.
         -2   -1    0    0    0  501 -0.00000000000E+00 -0.00000000000E+00 -0.45325241302E+02  0.45325241302E+02  0.00000000000E+00 0.  1.
          5    1    1    2  502    0  0.79727763548E+02 -0.55703789643E+02  0.54447775718E+02  0.11154129792E+03  0.41800000000E+01 0. -1.
         -5    1    1    2    0  502  0.34030976544E+02 -0.32379060952E+01  0.18105586691E+03  0.18430217237E+03  0.41800000000E+01 0. -1.
        -11    1    1    2    0    0 -0.38848472645E+02 -0.18700737465E+02  0.66253607454E+02  0.79047213166E+02  0.00000000000E+00 0.  1.
         11    1    1    2    0    0 -0.74910267447E+02  0.77642433204E+02  0.32348623460E+03  0.34100328382E+03  0.00000000000E+00 0. -1.
</event>
<event>
 6    1  0.5317355E-006  0.9357266E+02  0.7561462E-02  0.1294424E+00
          1   -1    0    0  501    0  0.00000000000E+00  0.00000000000E+00  0.13806424101E+03  0.13806424101E+03  0.00000000000E+00 0.  1.
         -1   -1    0    0    0  501 -0.00000000000E+00 -0.00000000000E+00 -0.99163130270E+02  0.99163130270E+02  0.00000000000E+00 0. -1.
          5    1    1    2  502    0  0.61150328696E+02  0.21079667898E+02 -0.33051252654E+02  0.72756943313E+02  0.41800000000E+01 0.  1.
         -5    1    1    2    0  502 -0.47438824263E+02  0.71336569664E+01  0.29110904163E+02  0.56269425538E+02  0.41800000000E+01 0.  1.
        -11    1    1    2    0    0 -0.39457133127E+02 -0.28079985957E+02  0.60116245501E+02  0.77196592795E+02  0.00000000000E+00 0.  1.
         11    1    1    2    0    0  0.25745628694E+02 -0.13333890726E+00 -0.17274786270E+02  0.31004409635E+02  0.00000000000E+00 0. -1.
</event>
<event>
 6    1  0.5317355E-006  0.1391194E+03  0.7561462E-02  0.1214519E+00
          1   -1    0    0  501    0  0.00000000000E+00  0.00000000000E+00  0.51266131347E+03  0.51266131347E+03  0.00000000000E+00 0. -1.
         -1   -1    0    0    0  501 -0.00000000000E+00 -0.00000000000E+00 -0.42834380456E+02  0.42834380456E+02  0.00000000000E+00 0.  1.
          5    1    1    2  502    0  0.39692391679E+02 -0.46332533326E+02  0.44058965227E+02  0.75371442990E+02  0.41800000000E+01 0. -1.
         -5    1    1    2    0  502 -0.86757234975E+02 -0.27070266994E+02  0.13395463713E+03  0.16192879418E+03  0.41800000000E+01 0.  1.
        -11    1    1    2    0    0  0.53038457135E+02  0.92209344163E+02  0.23233249038E+03  0.25552695977E+03  0.00000000000E+00 0. -1.
         11    1    1    2    0    0 -0.59736138390E+01 -0.18806543843E+02  0.59480840289E+02  0.62668496991E+02  0.00000000000E+00 0.  1.
</event>
<event>
 6    1  0.5317355E-006  0.1223026E+03  0.7561462E-02  0.1239346E+00
          2   -1    0    0  501    0  0.00000000000E+00  0.00000000000E+00  0.39390282137E+03  0.39390282137E+03  0.00000000000E+00 0.  1.
         -2   -1    0    0    0  501 -0.00000000000E+00 -0.00000000000E+00 -0.62486206127E+02  0.62486206127E+02  0.00000000000E+00 0. -1.
          5    1    1    2  502    0 -0.23256838757E+02  0.85251365458E+01 -0.20076809773E+02  0.32157568203E+02  0.41800000000E+01 0. -1.
         -5    1    1    2    0  502  0.89762971937E+02  0.42980426025E+02  0.89069944469E+02  0.13362498105E+03  0.41800000000E+01 0. -1.
        -11    1    1    2    0    0  0.69088475930E+01 -0.45712297034E+02  0.14314583543E+03  0.15042631577E+03  0.00000000000E+00 0.  1.
         11    1    1    2    0    0 -0.73414980772E+02 -0.57932655375E+01  0.11927764513E+03  0.14018016248E+03  0.00000000000E+00 0. -1.
</event>
<event>
 6    1  0.5317355E-006  0.8758103E+02  0.7561462E-02  0.1308818E+00
          4   -1    0    0  501    0  0.00000000000E+00  0.00000000000E+00  0.23180716037E+03  0.23180716037E+03  0.00000000000E+00 0.  1.
         -4   -1    0    0    0  501 -0.00000000000E+00 -0.00000000000E+00 -0.67385901068E+02  0.67385901068E+02  0.00000000000E+00 0. -1.
          5    1    1    2  502    0 -0.49221716756E+01  0.44457242335E+02 -0.33679727546E+02  0.56146866499E+02  0.41800000000E+01 0.  1.
         -5    1    1    2    0  502  0.24243918994E+02 -0.38564305137E+02  0.56340937521E+02  0.72572356167E+02  0.41800000000E+01 0.  1.
        -11    1    1    2    0    0 -0.44436326268E+02  0.19727162053E+02  0.41274050528E+02  0.63775349955E+02  0.00000000000E+00 0. -1.
         11    1    1    2    0    0  0.25114578949E+02 -0.25620099252E+02  0.10048599879E+03  0.10669848881E+03  0.00000000000E+00 0.  1.
</event>
<event>
 6    1  0.5317355E-006  0.1204681E+03  0.7561462E-02  0.1242327E+00
          2   -1    0    0  501    0  0.00000000000E+00  0.00000000000E+00  0.14595115040E+03  0.14595115040E+03  0.00000000000E+00 0. -1.
         -2   -1    0    0    0  501 -0.00000000000E+00 -0.00000000000E+00 -0.12361063441E+03  0.12361063441E+03  0.00000000000E+00 0.  1.
          5    1    1    2  502    0  0.83619276260E+02 -0.64659053988E+02 -0.19281930668E+02  0.10752786558E+03  0.41800000000E+01 0.  1.
         -5    1    1    2    0  502 -0.36178243143E+02  0.69731515985E+01  0.10161879527E+02  0.38447708848E+02  0.41800000000E+01 0.  1.
        -11    1    1    2    0    0 -0.21515631524E+02 -0.11351116092E+02 -0.21763651913E+02  0.32640875923E+02  0.00000000000E+00 0.  1.
         11    1    1    2    0    0 -0.25925401593E+02  0.69037018482E+02  0.53224219042E+02  0.90945334466E+02  0.00000000000E+00 0. -1.
</event>
<event>
 6    1  0.8624569E-006  0.2356480E+03  0.7561462E-02  0.1122726E+00
          2   -1    0    0  501    0  0.00000000000E+00  0.00000000000E+00  0.15096417901E+04  0.15096417901E+04  0.00000000000E+00 0. -1.
         -2   -1    0    0    0  501 -0.00000000000E+00 -0.00000000000E+00 -0.49963124767E+02  0.49963124767E+02  0.00000000000E+00 0.  1.
          5    1    1    2  502    0  0.74657272568E+02  0.20620555998E+03  0.43977047381E+03  0.49143665243E+03  0.41800000000E+01 0. -1.
         -5    1    1    2    0  502  0.15165880451E+02  0.19364317393E+01 -0.31703089943E+01  0.16164063749E+02  0.41800000000E+01 0. -1.
        -11    1    1    2    0    0 -0.75637198377E+01 -0.99719154614E+02  0.30000578736E+03  0.31623502669E+03  0.00000000000E+00 0.  1.
         11    1    1    2    0    0 -0.82259433182E+02 -0.10842283711E+03  0.72307271312E+03  0.73576917197E+03  0.00000000000E+00 0. -1.
</event>
<event>
 6    1  0.5317355E-006  0.1023711E+03  0.7561462E-02  0.1275387E+00
          1   -1    0    0  501    0  0.00000000000E+00  0.00000000000E+00  0.28401014714E+02  0.28401014714E+02  0.00000000000E+00 0. -1.
         -1   -1    0    0    0  501 -0.00000000000E+00 -0.00000000000E+00 -0.47823891889E+03  0.47823891889E+03  0.00000000000E+00 0.  1.
          5    1    1    2  502    0 -0.12655658373E+02  0.76406810266E+02 -0.22862443412E+03  0.24142239047E+03  0.41800000000E+01 0. -1.
         -5    1    1    2    0  502  0.16734362465E+02 -0.44178055779E+02 -0.77372797884E+02  0.90751097801E+02  0.41800000000E+01 0. -1.
        -11    1    1    2    0    0  0.28185416492E+02 -0.37658335310E+02 -0.29468062128E+02  0.55506167286E+02  0.00000000000E+00 0.  1.
         11    1    1    2    0    0 -0.32264120585E+02  0.54295808231E+01 -0.11437261004E+03  0.11896027804E+03  0.00000000000E+00 0. -1.
</event>
<event>
 6    1  0.5317355E-006  0.1224201E+03  0.7561462E-02  0.1239157E+00
          1   -1    0    0  501    0  0.00000000000E+00  0.00000000000E+00  0.27302925442E+02  0.27302925442E+02  0.00000000000E+00 0. -1.
         -1   -1    0    0    0  501 -0.00000000000E+00 -0.00000000000E+00 -0.60705770138E+03  0.60705770138E+03  0.00000000000E+00 0.  1.
          5    1    1    2  502    0 -0.64186109949E+02  0.79323903017E+02 -0.26634867356E+03  0.28525642256E+03  0.41800000000E+01 0.  1.
         -5    1    1    2    0  502  0.32594756878E+02 -0.20712510468E+02 -0.78987478469E+02  0.88022272299E+02  0.41800000000E+01 0.  1.
        -11    1    1    2    0    0 -0.25611242887E+02 -0.63454126903E+01 -0.12019406741E+03  0.12305614111E+03  0.00000000000E+00 0.  1.
         11    1    1    2    0    0  0.57202595959E+02 -0.52265979859E+02 -0.11422455649E+03  0.13802579085E+03  0.00000000000E+00 0. -1.
</event>
<event>
 6    1  0.5317355E-006  0.1288105E+03  0.7561462E-02  0.1229232E+00
          2   -1    0    0  501    0  0.00000000000E+00  0.00000000000E+00  0.51323010173E+02  0.51323010173E+02  0.00000000000E+00 0. -1.
         -2   -1    0    0    0  501 -0.00000000000E+00 -0.00000000000E+00 -0.47488564160E+03  0.47488564160E+03  0.00000000000E+00 0.  1.
          5    1    1    2  502    0  0.11204336540E+03  0.33417064418E+02 -0.23806958696E+03  0.26526405063E+03  0.41800000000E+01 0.  1.
         -5    1    1    2    0  502 -0.31772808314E+02 -0.15143113808E+01 -0.10932614771E+03  0.11393631318E+03  0.41800000000E+01 0.  1.
        -11    1    1    2    0    0 -0.15821529368E+02 -0.40540181359E+02 -0.69016505758E+02  0.81591085072E+02  0.00000000000E+00 0.  1.
         11    1    1    2    0    0 -0.64449027721E+02  0.86374283218E+01 -0.71503910010E+01  0.65417202888E+02  0.00000000000E+00 0. -1.
</event>
<event>
 6    1  0.5317355E-006  0.1498741E+03  0.7561462E-02  0.1200628E+00
          2   -1    0    0  501    0  0.00000000000E+00  0.00000000000E+00  0.16447554035E+04  0.16447554035E+04  0.00000000000E+00 0. -1.
         -2   -1    0    0    0  501 -0.00000000000E+00 -0.00000000000E+00 -0.17502008333E+02  0.17502008333E+02  0.00000000000E+00 0.  1.
          5    1    1    2  502    0 -0.59363854418E+02  0.10248443944E+03  0.76310623745E+03  0.77225366919E+03  0.41800000000E+01 0.  1.
         -5    1    1    2    0  502  0.14371730409E+02  0.17315068644E+02  0.18078578090E+02  0.29166172578E+02  0.41800000000E+01 0.  1.
        -11    1    1    2    0    0  0.68301444001E+02 -0.49678871752E+02  0.48244913413E+03  0.48978591709E+03  0.00000000000E+00 0.  1.
         11    1    1    2    0    0 -0.23309319992E+02 -0.70120636328E+02  0.36361944545E+03  0.37105165293E+03  0.00000000000E+00 0. -1.
</event>
<event>
 6    1  0.5317355E-006  0.9117179E+02  0.7561462E-02  0.1300039E+00
         -1   -1    0    0    0  501 -0.00000000000E+00  0.00000000000E+00  0.20829051865E+03  0.20829051865E+03  0.00000000000E+00 0.  1.
          1   -1    0    0  501    0  0.00000000000E+00 -0.00000000000E+00 -0.61103598187E+02  0.61103598187E+02  0.00000000000E+00 0. -1.
          5    1    1    2  502    0 -0.42119190117E+02 -0.35555563073E+02  0.63836473485E+02  0.84444016890E+02  0.41800000000E+01 0.  1.
         -5    1    1    2    0  502  0.65546094002E+02  0.21962563848E+02  0.37173310601E+02  0.78600076786E+02  0.41800000000E+01 0.  1.
        -11    1    1    2    0    0 -0.50901109121E+01  0.31661525684E+02 -0.18301046767E+02  0.36922753831E+02  0.00000000000E+00 0. -1.
         11    1    1    2    0    0 -0.18336792973E+02 -0.18068526459E+02  0.64478183143E+02  0.69427269328E+02  0.00000000000E+00 0.  1.
</event>
<event>
 6    1  0.5317355E-006  0.1486445E+03  0.7561462E-02  0.1202149E+00
         -2   -1    0    0    0  501 -0.00000000000E+00  0.00000000000E+00  0.32538810094E+02  0.32538810094E+02  0.00000000000E+00 0. -1.
          2   -1    0    0  501    0  0.00000000000E+00 -0.00000000000E+00 -0.98195807162E+03  0.98195807162E+03  0.00000000000E+00 0.  1.
          5    1    1    2  502    0  0.96176364413E+02  0.37149369903E+02 -0.18136475619E+03  0.20866388270E+03  0.41800000000E+01 0. -1.
         -5    1    1    2    0  502 -0.31361827051E+02  0.54661303962E+02 -0.76873962468E+02  0.99491209925E+02  0.41800000000E+01 0. -1.
        -11    1    1    2    0    0 -0.58161139950E+02 -0.10279185482E+03 -0.67694825222E+03  0.68717379156E+03  0.00000000000E+00 0.  1.
         11    1    1    2    0    0 -0.66533974123E+01  0.10981180956E+02 -0.14232290650E+02  0.19167997533E+02  0.00000000000E+00 0. -1.
</event>
<event>
 6    1  0.5317355E-006  0.1090706E+03  0.7561462E-02  0.1262301E+00
          1   -1    0    0  501    0  0.00000000000E+00  0.00000000000E+00  0.30712158390E+02  0.30712158390E+02  0.00000000000E+00 0. -1.
         -1   -1    0    0    0  501 -0.00000000000E+00 -0.00000000000E+00 -0.82016090815E+03  0.82016090815E+03  0.00000000000E+00 0.  1.
          5    1    1    2  502    0 -0.61349057288E+02  0.54238884149E+02 -0.14488181219E+03  0.16647454846E+03  0.41800000000E+01 0. -1.
         -5    1    1    2    0  502 -0.51227881069E+01  0.23212379550E+02 -0.42918206629E+03  0.42986018185E+03  0.41800000000E+01 0. -1.
        -11    1    1    2    0    0  0.21648934927E+02  0.98491047672E+00 -0.12457360391E+03  0.12644456976E+03  0.00000000000E+00 0.  1.
         11    1    1    2    0    0  0.44822910468E+02 -0.78436174176E+02 -0.90811267382E+02  0.12809376646E+03  0.00000000000E+00 0. -1.
</event>
<event>
 6    1  0.5317355E-006  0.1493291E+03  0.7561462E-02  0.1201300E+00
          2   -1    0    0  501    0  0.00000000000E+00  0.00000000000E+00  0.44162189736E+03  0.44162189736E+03  0.00000000000E+00 0. -1.
         -2   -1    0    0    0  501 -0.00000000000E+00 -0.00000000000E+00 -0.61107127915E+02  0.61107127915E+02  0.00000000000E+00 0.  1.
          5    1    1    2  502    0  0.13116249856E+03 -0.14383017962E+02  0.95158857940E+02  0.16273645221E+03  0.41800000000E+01 0. -1.
         -5    1    1    2    0  502 -0.23033451724E+02  0.24027023180E+02  0.21161459173E+02  0.39662545248E+02  0.41800000000E+01 0. -1.
        -11    1    1    2    0    0 -0.34371006878E+02  0.33209881430E+02  0.15233020833E+03  0.15965197997E+03  0.00000000000E+00 0. -1.
         11    1    1    2    0    0 -0.73758039957E+02 -0.42853886649E+02  0.11186424400E+03  0.14067804784E+03  0.00000000000E+00 0.  1.
</event>
<event>
 6    1  0.5317355E-006  0.1071536E+03  0.7561462E-02  0.1265934E+00
         -2   -1    0    0    0  501 -0.00000000000E+00  0.00000000000E+00  0.16028900548E+02  0.16028900548E+02  0.00000000000E+00 0.  1.
          2   -1    0    0  501    0  0.00000000000E+00 -0.00000000000E+00 -0.74131621156E+03  0.74131621156E+03  0.00000000000E+00 0. -1.
          5    1    1    2  502    0  0.61257717013E+01  0.69556270139E+02 -0.20013190887E+03  0.21200437057E+03  0.41800000000E+01 0. -1.
         -5    1    1    2    0  502 -0.21679812332E+02 -0.45885074253E+02 -0.16172807436E+03  0.16955499621E+03  0.41800000000E+01 0.  1.
        -11    1    1    2    0    0  0.45811889504E+02  0.11306744039E+02 -0.14388389574E+03  0.15142373372E+03  0.00000000000E+00 0.  1.
         11    1    1    2    0    0 -0.30257848874E+02 -0.34977939925E+02 -0.21954343205E+03  0.22436201161E+03  0.00000000000E+00 0. -1.
</event>
<event>
 6    1  0.5317355E-006  0.1081785E+03  0.7561462E-02  0.1263981E+00
         -2   -1    0    0    0  501 -0.00000000000E+00  0.00000000000E+00  0.17284589751E+03  0.17284589751E+03  0.00000000000E+00 0.  1.
          2   -1    0    0  501    0  0.00000000000E+00 -0.00000000000E+00 -0.14046309048E+03  0.14046309048E+03  0.00000000000E+00 0. -1.
          5    1    1    2  502    0 -0.66721668884E+02  0.29556958138E+02  0.90418733247E+02  0.11626871718E+03  0.41800000000E+01 0. -1.
         -5    1    1    2    0  502  0.43521638148E+02 -0.28034861968E+02  0.36800813222E+02  0.63654212166E+02  0.41800000000E+01 0. -1.
        -11    1    1    2    0    0  0.30585516068E+02  0.39322526501E+02 -0.66661820890E+02  0.83219788800E+02  0.00000000000E+00 0. -1.
         11    1    1    2    0    0 -0.73854853323E+01 -0.40844622670E+02 -0.28174918553E+02  0.50166269845E+02  0.00000000000E+00 0.  1.
</event>
<event>
 6    1  0.5317355E-006  0.1925858E+03  0.7561462E-02  0.1156150E+00
          2   -1    0    0  501    0  0.00000000000E+00  0.00000000000E+00  0.48108622112E+03  0.48108622112E+03  0.00000000000E+00 0. -1.
         -2   -1    0    0    0  501 -0.00000000000E+00 -0.00000000000E+00 -0.88574906968E+02  0.88574906968E+02  0.00000000000E+00 0.  1.
          5    1    1    2  502    0  0.53274089224E+02 -0.93330210090E+01  0.41584368947E+02  0.68351781283E+02  0.41800000000E+01 0. -1.
         -5    1    1    2    0  502 -0.14740780999E+02 -0.15402584589E+03  0.95792785912E+02  0.18203016800E+03  0.41800000000E+01 0. -1.
        -11    1    1    2    0    0 -0.51892636189E+02  0.11925622042E+03  0.12172057138E+03  0.17813138212E+03  0.00000000000E+00 0.  1.
         11    1    1    2    0    0  0.13359327964E+02  0.44102646484E+02  0.13341358791E+03  0.14114779668E+03  0.00000000000E+00 0. -1.
</event>
<event>
 6    1  0.5317355E-006  0.1294194E+03  0.7561462E-02  0.1228320E+00
          2   -1    0    0  501    0  0.00000000000E+00  0.00000000000E+00  0.19565973452E+03  0.19565973452E+03  0.00000000000E+00 0. -1.
         -2   -1    0    0    0  501 -0.00000000000E+00 -0.00000000000E+00 -0.38068988520E+03  0.38068988520E+03  0.00000000000E+00 0.  1.
          5    1    1    2  502    0  0.12756515051E+02 -0.76689205329E+02 -0.15673470015E+03  0.17500628995E+03  0.41800000000E+01 0. -1.
         -5    1    1    2    0  502  0.85236934683E+01  0.88489986995E+02 -0.18855345392E+03  0.20850181902E+03  0.41800000000E+01 0.  1.
        -11    1    1    2    0    0  0.16901664558E+02  0.30581254580E+02  0.17438379185E+02  0.39050947045E+02  0.00000000000E+00 0.  1.
         11    1    1    2    0    0 -0.38181873077E+02 -0.42382036246E+02  0.14281962421E+03  0.15379056371E+03  0.00000000000E+00 0. -1.
</event>
<event>
 6    1  0.5317355E-006  0.1165207E+03  0.7561462E-02  0.1248950E+00
          2   -1    0    0  501    0  0.00000000000E+00  0.00000000000E+00  0.94919382020E+03  0.94919382020E+03  0.00000000000E+00 0. -1.
         -2   -1    0    0    0  501 -0.00000000000E+00 -0.00000000000E+00 -0.14569885957E+02  0.14569885957E+02  0.00000000000E+00 0.  1.
          5    1    1    2  502    0 -0.83777257012E+01  0.48511484947E+02  0.17183418257E+03  0.17879599872E+03  0.41800000000E+01 0. -1.
         -5    1    1    2    0  502  0.32182729917E+02 -0.73511967222E+02  0.28304111691E+03  0.29422692550E+03  0.41800000000E+01 0. -1.
        -11    1    1    2    0    0 -0.57726280170E+02 -0.50682204063E+01  0.26637596651E+03  0.27260624684E+03  0.00000000000E+00 0.  1.
         11    1    1    2    0    0  0.33921275955E+02  0.30068702680E+02  0.21337266825E+03  0.21813453509E+03  0.00000000000E+00 0. -1.
</event>
<event>
 6    1  0.5317355E-006  0.8542698E+02  0.7561462E-02  0.1314320E+00
         -2   -1    0    0    0  501 -0.00000000000E+00  0.00000000000E+00  0.17309717378E+03  0.17309717378E+03  0.00000000000E+00 0.  1.
          2   -1    0    0  501    0  0.00000000000E+00 -0.00000000000E+00 -0.74343162141E+02  0.74343162141E+02  0.00000000000E+00 0. -1.
          5    1    1    2  502    0  0.30022282185E+02  0.53565935999E+02  0.73547746844E+02  0.95903025984E+02  0.41800000000E+01 0. -1.
         -5    1    1    2    0  502 -0.40909448428E+02 -0.22510112667E+02 -0.10425133553E+02  0.48025451092E+02  0.41800000000E+01 0. -1.
        -11    1    1    2    0    0 -0.88116072510E+01 -0.39879428686E+02 -0.18797326695E+02  0.44959456687E+02  0.00000000000E+00 0. -1.
         11    1    1    2    0    0  0.19698773494E+02  0.88236053545E+01  0.54428725048E+02  0.58552402163E+02  0.00000000000E+00 0.  1.
</event>
<event>
 6    1  0.5317355E-006  0.2012252E+03  0.7561462E-02  0.1148709E+00
         -4   -1    0    0    0  501 -0.00000000000E+00  0.00000000000E+00  0.22637015545E+03  0.22637015545E+03  0.00000000000E+00 0.  1.
          4   -1    0    0  501    0  0.00000000000E+00 -0.00000000000E+00 -0.22758898357E+03  0.22758898357E+03  0.00000000000E+00 0. -1.
          5    1    1    2  502    0  0.18182982373E+02  0.70635483115E+01  0.16903534107E+01  0.20021095309E+02  0.41800000000E+01 0. -1.
         -5    1    1    2    0  502 -0.19659668232E+03  0.32521281939E+02 -0.83116786989E+02  0.21594851691E+03  0.41800000000E+01 0. -1.
        -11    1    1    2    0    0  0.76509871183E+02 -0.23393526141E+02  0.82309240346E+02  0.11478601178E+03  0.00000000000E+00 0.  1.
         11    1    1    2    0    0  0.10190382876E+03 -0.16191304110E+02 -0.21016348862E+01  0.10320351503E+03  0.00000000000E+00 0. -1.
</event>
<event>
 6    1  0.5317355E-006  0.1884196E+03  0.7561462E-02  0.1159895E+00
          2   -1    0    0  501    0  0.00000000000E+00  0.00000000000E+00  0.15374755067E+03  0.15374755067E+03  0.00000000000E+00 0.  1.
         -2   -1    0    0    0  501 -0.00000000000E+00 -0.00000000000E+00 -0.25510245517E+03  0.25510245517E+03  0.00000000000E+00 0. -1.
          5    1    1    2  502    0  0.19514512635E+02  0.13861745526E+03 -0.61995907637E+02  0.15315541149E+03  0.41800000000E+01 0.  1.
         -5    1    1    2    0  502  0.55974284753E+02 -0.36092202308E+01 -0.49286882772E+02  0.74785133802E+02  0.41800000000E+01 0.  1.
        -11    1    1    2    0    0 -0.81940749697E+02 -0.51481895947E+02  0.24661247194E+01  0.96802654108E+02  0.00000000000E+00 0. -1.
         11    1    1    2    0    0  0.64519523083E+01 -0.83526339080E+02  0.74617611945E+01  0.84106806435E+02  0.00000000000E+00 0.  1.
</event>
<event>
 6    1  0.5317355E-006  0.1373383E+03  0.7561462E-02  0.1216956E+00
         -3   -1    0    0    0  501 -0.00000000000E+00  0.00000000000E+00  0.32331631125E+03  0.32331631125E+03  0.00000000000E+00 0.  1.
          3   -1    0    0  501    0  0.00000000000E+00 -0.00000000000E+00 -0.60208423686E+02  0.60208423686E+02  0.00000000000E+00 0. -1.
          5    1    1    2  502    0 -0.32620325280E+02  0.11143109345E+03  0.14271811440E+03  0.18402963562E+03  0.41800000000E+01 0. -1.
         -5    1    1    2    0  502  0.98876706400E+01 -0.30955335304E+02  0.24439077918E+02  0.40874683411E+02  0.41800000000E+01 0. -1.
        -11    1    1    2    0    0  0.47277845895E+02 -0.64190909774E+01  0.29154370692E+02  0.55914012304E+02  0.00000000000E+00 0.  1.
         11    1    1    2    0    0 -0.24545191256E+02 -0.74056667171E+02  0.66796324555E+02  0.10270640360E+03  0.00000000000E+00 0. -1.
</event>
<event>
 6    1  0.5317355E-006  0.7626862E+02  0.7561462E-02  0.1339987E+00
          4   -1    0    0  501    0  0.00000000000E+00  0.00000000000E+00  0.90291691593E+02  0.90291691593E+02  0.00000000000E+00 0. -1.
         -4   -1    0    0    0  501 -0.00000000000E+00 -0.00000000000E+00 -0.15940644110E+03  0.15940644110E+03  0.00000000000E+00 0.  1.
          5    1    1    2  502    0 -0.35211980208E+02 -0.32629276758E+02 -0.59834434723E+01  0.48557463358E+02  0.41800000000E+01 0. -1.
         -5    1    1    2    0  502  0.61802955018E+02  0.31191303060E+02 -0.78359267979E+02  0.10464296400E+03  0.41800000000E+01 0. -1.
        -11    1    1    2    0    0 -0.22172497255E+02 -0.87923398700E+01  0.52463124353E+02  0.57630758209E+02  0.00000000000E+00 0. -1.
         11    1    1    2    0    0 -0.44184775552E+01  0.10230313568E+02 -0.37235162404E+02  0.38866947126E+02  0.00000000000E+00 0.  1.
</event>
<event>
 6    1  0.5317355E-006  0.1422856E+03  0.7561462E-02  0.1210286E+00
          2   -1    0    0  501    0  0.00000000000E+00  0.00000000000E+00  0.74479636969E+03  0.74479636969E+03  0.00000000000E+00 0.  1.
         -2   -1    0    0    0  501 -0.00000000000E+00 -0.00000000000E+00 -0.70273362970E+02  0.70273362970E+02  0.00000000000E+00 0. -1.
          5    1    1    2  502    0 -0.50211815022E+02  0.11107187313E+03  0.39069810895E+02  0.12807072223E+03  0.41800000000E+01 0. -1.
         -5    1    1    2    0  502  0.29623068882E+02 -0.16031262274E+02 -0.40857398832E+01  0.34186155831E+02  0.41800000000E+01 0. -1.
        -11    1    1    2    0    0  0.47388225893E+02 -0.24801228844E+02  0.20753814260E+03  0.21431944742E+03  0.00000000000E+00 0. -1.
         11    1    1    2    0    0 -0.26799479753E+02 -0.70239382014E+02  0.43200079310E+03  0.43849340718E+03  0.00000000000E+00 0.  1.
</event>
<event>
 6    1  0.5317355E-006  0.7398252E+02  0.7561462E-02  0.1347051E+00
          1   -1    0    0  501    0  0.00000000000E+00  0.00000000000E+00  0.60457104830E+02  0.60457104830E+02  0.00000000000E+00 0. -1.
         -1   -1    0    0    0  501 -0.00000000000E+00 -0.00000000000E+00 -0.20807803360E+03  0.20807803360E+03  0.00000000000E+00 0.  1.
          5    1    1    2  502    0  0.41398654405E+01  0.75649102714E+01  0.31231861436E+02  0.32669066746E+02  0.41800000000E+01 0.  1.
         -5    1    1    2    0  502  0.53229163346E+01 -0.47216840311E+02 -0.11193559948E+03  0.12167503556E+03  0.41800000000E+01 0.  1.
        -11    1    1    2    0    0  0.28940039788E+02  0.43327846112E+02 -0.27022822545E+02  0.58694642770E+02  0.00000000000E+00 0.  1.
         11    1    1    2    0    0 -0.38402821563E+02 -0.36759160725E+01 -0.39894368182E+02  0.55496393356E+02  0.00000000000E+00 0. -1.
</event>
<event>
 6    1  0.5317355E-006  0.1068571E+03  0.7561462E-02  0.1266503E+00
         -2   -1    0    0    0  501 -0.00000000000E+00  0.00000000000E+00  0.95109726037E+02  0.95109726037E+02  0.00000000000E+00 0.  1.
          2   -1    0    0  501    0  0.00000000000E+00 -0.00000000000E+00 -0.13045616426E+03  0.13045616426E+03  0.00000000000E+00 0. -1.
          5    1    1    2  502    0 -0.25728332545E+02  0.61371725860E+02  0.16604881901E+02  0.68714120336E+02  0.41800000000E+01 0. -1.
         -5    1    1    2    0  502  0.31964101622E+02 -0.41801913830E+02 -0.24776355745E+02  0.58313326061E+02  0.41800000000E+01 0. -1.
        -11    1    1    2    0    0 -0.12168070907E+02 -0.56016199710E+02 -0.21278963441E+02  0.61144671597E+02  0.00000000000E+00 0.  1.
         11    1    1    2    0    0  0.59323018300E+01  0.36446387680E+02 -0.58960009362E+01  0.37393772302E+02  0.00000000000E+00 0. -1.
</event>
<event>
 6    1  0.5317355E-006  0.6140907E+02  0.7561462E-02  0.1392012E+00
         -1   -1    0    0    0  501 -0.00000000000E+00  0.00000000000E+00  0.60886967595E+02  0.60886967595E+02  0.00000000000E+00 0.  1.
          1   -1    0    0  501    0  0.00000000000E+00 -0.00000000000E+00 -0.32299561881E+03  0.32299561881E+03  0.00000000000E+00 0. -1.
          5    1    1    2  502    0 -0.12780232069E+02  0.37857651275E+01  0.48508853601E+02  0.50480170631E+02  0.41800000000E+01 0.  1.
         -5    1    1    2    0  502 -0.10693627479E+02 -0.13612324900E+02 -0.78712443273E+02  0.80701735940E+02  0.41800000000E+01 0.  1.
        -11    1    1    2    0    0  0.36378215995E+02  0.42481396473E+02 -0.85676905359E+02  0.10231605816E+03  0.00000000000E+00 0.  1.
         11    1    1    2    0    0 -0.12904356447E+02 -0.32654836701E+02 -0.14622815618E+03  0.15038462167E+03  0.00000000000E+00 0. -1.
</event>
<event>
 6    1  0.5317355E-006  0.8501282E+02  0.7561462E-02  0.1315399E+00
          1   -1    0    0  501    0  0.00000000000E+00  0.00000000000E+00  0.76693925122E+02  0.76693925122E+02  0.00000000000E+00 0. -1.
         -1   -1    0    0    0  501 -0.00000000000E+00 -0.00000000000E+00 -0.22919812939E+03  0.22919812939E+03  0.00000000000E+00 0.  1.
          5    1    1    2  502    0  0.12322214762E+02  0.22575230219E+02  0.19113303185E+02  0.32315147450E+02  0.41800000000E+01 0. -1.
         -5    1    1    2    0  502  0.35604822422E+02  0.93842470548E+01 -0.16180496396E+03  0.16599423554E+03  0.41800000000E+01 0. -1.
        -11    1    1    2    0    0 -0.36195525252E+02  0.28033773468E+02 -0.76343901761E+01  0.46414355715E+02  0.00000000000E+00 0. -1.
         11    1    1    2    0    0 -0.11731511933E+02 -0.59993250741E+02 -0.21781533232E+01  0.61168315806E+02  0.00000000000E+00 0.  1.
</event>
<event>
 6    1  0.5317355E-006  0.1018779E+03  0.7561462E-02  0.1276396E+00
          2   -1    0    0  501    0  0.00000000000E+00  0.00000000000E+00  0.71158620785E+02  0.71158620785E+02  0.00000000000E+00 0. -1.
         -2   -1    0    0    0  501 -0.00000000000E+00 -0.00000000000E+00 -0.17717344421E+03  0.17717344421E+03  0.00000000000E+00 0.  1.
          5    1    1    2  502    0  0.27701058387E+02 -0.34292809683E+02 -0.10690361673E+01  0.44294025218E+02  0.41800000000E+01 0. -1.
         -5    1    1    2    0  502 -0.63015273432E+02  0.78279656339E+01 -0.82600762997E+02  0.10427156937E+03  0.41800000000E+01 0.  1.
        -11    1    1    2    0    0  0.31830863019E+02  0.56902920826E+02 -0.22955020141E+02  0.69123651442E+02  0.00000000000E+00 0.  1.
         11    1    1    2    0    0  0.34833520261E+01 -0.30438076777E+02  0.60999587630E+00  0.30642818966E+02  0.00000000000E+00 0. -1.
</event>
<event>
 6    1  0.5317355E-006  0.1398323E+03  0.7561462E-02  0.1213555E+00
          1   -1    0    0  501    0  0.00000000000E+00  0.00000000000E+00  0.15462830082E+03  0.15462830082E+03  0.00000000000E+00 0. -1.
         -1   -1    0    0    0  501 -0.00000000000E+00 -0.00000000000E+00 -0.14697364543E+03  0.14697364543E+03  0.00000000000E+00 0.  1.
          5    1    1    2  502    0  0.36014482369E+02 -0.10866580894E+03  0.28274303893E+02  0.11799241346E+03  0.41800000000E+01 0.  1.
         -5    1    1    2    0  502 -0.28588574611E+02  0.48795428574E+01 -0.33905563364E+02  0.44812678606E+02  0.41800000000E+01 0.  1.
        -11    1    1    2    0    0  0.40082739297E+02  0.47612856860E+02 -0.65986225766E+01  0.62587154815E+02  0.00000000000E+00 0.  1.
         11    1    1    2    0    0 -0.47508647055E+02  0.56173409223E+02  0.19884537435E+02  0.76209699368E+02  0.00000000000E+00 0. -1.
</event>
<event>
 6    1  0.5317355E-006  0.1267041E+03  0.7561462E-02  0.1232430E+00
          1   -1    0    0  501    0  0.00000000000E+00  0.00000000000E+00  0.55872372478E+03  0.55872372478E+03  0.00000000000E+00 0. -1.
         -1   -1    0    0    0  501 -0.00000000000E+00 -0.00000000000E+00 -0.54831946022E+02  0.54831946022E+02  0.00000000000E+00 0.  1.
          5    1    1    2  502    0  0.93169506769E+02 -0.99596027097E+01  0.15094005388E+03  0.17770797096E+03  0.41800000000E+01 0.  1.
         -5    1    1    2    0  502  0.13116913379E+02 -0.11410314313E+02 -0.24682589391E+02  0.30478702537E+02  0.41800000000E+01 0.  1.
        -11    1    1    2    0    0 -0.54975978450E+02 -0.35263278822E+02  0.23046419831E+03  0.23954040107E+03  0.00000000000E+00 0.  1.
         11    1    1    2    0    0 -0.51310441698E+02  0.56633195845E+02  0.14717011596E+03  0.16582859624E+03  0.00000000000E+00 0. -1.
</event>
<event>
 6    1  0.5317355E-006  0.1640230E+03  0.7561462E-02  0.1184228E+00
          1   -1    0    0  501    0  0.00000000000E+00  0.00000000000E+00  0.18640839426E+03  0.18640839426E+03  0.00000000000E+00 0. -1.
         -1   -1    0    0    0  501 -0.00000000000E+00 -0.00000000000E+00 -0.35013268752E+03  0.35013268752E+03  0.00000000000E+00 0.  1.
          5    1    1    2  502    0 -0.18783832488E+01 -0.42744435281E+00 -0.10678038865E+03  0.10687953421E+03  0.41800000000E+01 0.  1.
         -5    1    1    2    0  502  0.12750428037E+03 -0.99993929898E+02 -0.14934889820E+03  0.22040574703E+03  0.41800000000E+01 0.  1.
        -11    1    1    2    0    0 -0.62852511722E+02  0.58525898540E+02  0.10181749638E+03  0.13320105705E+03  0.00000000000E+00 0. -1.
         11    1    1    2    0    0 -0.62773385399E+02  0.41895475711E+02 -0.94125027985E+01  0.76054743497E+02  0.00000000000E+00 0.  1.
</event>
<event>
 6    1  0.5317355E-006  0.1835236E+03  0.7561462E-02  0.1164436E+00
          2   -1    0    0  501    0  0.00000000000E+00  0.00000000000E+00  0.69136347618E+03  0.69136347618E+03  0.00000000000E+00 0.  1.
         -2   -1    0    0    0  501 -0.00000000000E+00 -0.00000000000E+00 -0.65520206461E+02  0.65520206461E+02  0.00000000000E+00 0. -1.
          5    1    1    2  502    0  0.52273981388E+02 -0.14474413026E+03  0.87718943074E+02  0.17718780361E+03  0.41800000000E+01 0.  1.
         -5    1    1    2    0  502  0.30363213654E+02  0.13655647574E+02  0.67238844168E+02  0.75146097830E+02  0.41800000000E+01 0.  1.
        -11    1    1    2    0    0 -0.61274190236E+02  0.14264862841E+03  0.42763889197E+03  0.45494854599E+03  0.00000000000E+00 0.  1.
         11    1    1    2    0    0 -0.21363004807E+02 -0.11560145725E+02  0.43246590505E+02  0.49601235205E+02  0.00000000000E+00 0. -1.
</event>
<event>
 6    1  0.5317355E-006  0.1094831E+03  0.7561462E-02  0.1261530E+00
          1   -1    0    0  501    0  0.00000000000E+00  0.00000000000E+00  0.30139863605E+02  0.30139863605E+02  0.00000000000E+00 0. -1.
         -1   -1    0    0    0  501 -0.00000000000E+00 -0.00000000000E+00 -0.46552781081E+03  0.46552781081E+03  0.00000000000E+00 0.  1.
          5    1    1    2  502    0  0.54084428701E+02 -0.46031781800E+02 -0.15537291428E+03  0.17088670298E+03  0.41800000000E+01 0.  1.
         -5    1    1    2    0  502 -0.54698821839E+02  0.14110306136E+02 -0.16865489703E+03  0.17791292404E+03  0.41800000000E+01 0.  1.
        -11    1    1    2    0    0  0.42075289655E+02  0.25563671434E+02 -0.82083288335E+02  0.95715711984E+02  0.00000000000E+00 0.  1.
         11    1    1    2    0    0 -0.41460896516E+02  0.63578042303E+01 -0.29276847560E+02  0.51152335407E+02  0.00000000000E+00 0. -1.
</event>
<event>
 6    1  0.5317355E-006  0.1180303E+03  0.7561462E-02  0.1246382E+00
         -2   -1    0    0    0  501 -0.00000000000E+00  0.00000000000E+00  0.81953210240E+02  0.81953210240E+02  0.00000000000E+00 0.  1.
          2   -1    0    0  501    0  0.00000000000E+00 -0.00000000000E+00 -0.20623988673E+03  0.20623988673E+03  0.00000000000E+00 0. -1.
          5    1    1    2  502    0 -0.28527435015E+01  0.32250189189E+02  0.13314549190E+02  0.35255672854E+02  0.41800000000E+01 0. -1.
         -5    1    1    2    0  502 -0.45196335753E+02 -0.87775689102E+02 -0.67080538379E+02  0.11943429739E+03  0.41800000000E+01 0. -1.
        -11    1    1    2    0    0  0.68243380769E+02  0.45777702686E+02 -0.74274086074E+02  0.11076730991E+03  0.00000000000E+00 0. -1.
         11    1    1    2    0    0 -0.20194301514E+02  0.97477972263E+01  0.37533987705E+01  0.22735816826E+02  0.00000000000E+00 0.  1.
</event>
<event>
 6    1  0.5317355E-006  0.9888587E+02  0.7561462E-02  0.1282656E+00
          2   -1    0    0  501    0  0.00000000000E+00  0.00000000000E+00  0.70252690899E+03  0.70252690899E+03  0.00000000000E+00 0. -1.
         -2   -1    0    0    0  501 -0.00000000000E+00 -0.00000000000E+00 -0.20774274891E+02  0.20774274891E+02  0.00000000000E+00 0.  1.
          5    1    1    2  502    0 -0.33404130619E+02  0.42372480451E+02  0.46821266987E+02  0.71560928475E+02  0.41800000000E+01 0.  1.
         -5    1    1    2    0  502 -0.91916909168E+01 -0.46160057972E+02  0.23532410017E+03  0.24002112960E+03  0.41800000000E+01 0.  1.
        -11    1    1    2    0    0  0.61898303056E+02 -0.20658242968E+02  0.22163019511E+03  0.23103702368E+03  0.00000000000E+00 0. -1.
         11    1    1    2    0    0 -0.19302481521E+02  0.24445820489E+02  0.17797707183E+03  0.18068210213E+03  0.00000000000E+00 0.  1.
</event>
<event>
 6    1  0.5317355E-006  0.1865159E+03  0.7561462E-02  0.1161642E+00
         -2   -1    0    0    0  501 -0.00000000000E+00  0.00000000000E+00  0.86707295020E+03  0.86707295020E+03  0.00000000000E+00 0.  1.
          2   -1    0    0  501    0  0.00000000000E+00 -0.00000000000E+00 -0.66625839021E+02  0.66625839021E+02  0.00000000000E+00 0. -1.
          5    1    1    2  502    0 -0.87394894524E+02  0.13374130146E+03  0.60400726367E+03  0.62479344608E+03  0.41800000000E+01 0. -1.
         -5    1    1    2    0  502  0.26430555130E+02  0.28970230148E+02  0.51970831144E+02  0.65240234281E+02  0.41800000000E+01 0. -1.
        -11    1    1    2    0    0  0.47491872095E+02 -0.12373704050E+03  0.15208225940E+03  0.20173087699E+03  0.00000000000E+00 0.  1.
         11    1    1    2    0    0  0.13472467299E+02 -0.38974491109E+02 -0.76132430364E+01  0.41934231862E+02  0.00000000000E+00 0. -1.
</event>
<event>
 6    1  0.5317355E-006  0.1052352E+03  0.7561462E-02  0.1269657E+00
          1   -1    0    0  501    0  0.00000000000E+00  0.00000000000E+00  0.52324662000E+03  0.52324662000E+03  0.00000000000E+00 0. -1.
         -1   -1    0    0    0  501 -0.00000000000E+00 -0.00000000000E+00 -0.38108339192E+02  0.38108339192E+02  0.00000000000E+00 0.  1.
          5    1    1    2  502    0  0.16557806488E+02 -0.72450940438E+01 -0.15175230738E+02  0.23966901580E+02  0.41800000000E+01 0.  1.
         -5    1    1    2    0  502 -0.72231306464E+02 -0.32987648974E+02  0.16381887015E+03  0.18209788916E+03  0.41800000000E+01 0.  1.
        -11    1    1    2    0    0  0.88885453648E+01 -0.28165126505E+02  0.64255109141E+02  0.70717746291E+02  0.00000000000E+00 0.  1.
         11    1    1    2    0    0  0.46784954612E+02  0.68397869523E+02  0.27223953225E+03  0.28457242216E+03  0.00000000000E+00 0. -1.
</event>
<event>
 6    1  0.5317355E-006  0.1121217E+03  0.7561462E-02  0.1256690E+00
         -2   -1    0    0    0  501 -0.00000000000E+00  0.00000000000E+00  0.28897993199E+03  0.28897993199E+03  0.00000000000E+00 0.  1.
          2   -1    0    0  501    0  0.00000000000E+00 -0.00000000000E+00 -0.81917581489E+02  0.81917581489E+02  0.00000000000E+00 0. -1.
          5    1    1    2  502    0 -0.71500939892E+02  0.61591449762E+02  0.90318983453E+01  0.94894355348E+02  0.41800000000E+01 0. -1.
         -5    1    1    2    0  502  0.91995416036E+02 -0.43727137926E+02  0.21860639144E+03  0.24120830405E+03  0.41800000000E+01 0.  1.
        -11    1    1    2    0    0 -0.90013994263E+01 -0.11797398678E+02 -0.13146292496E+02  0.19824954315E+02  0.00000000000E+00 0. -1.
         11    1    1    2    0    0 -0.11493076717E+02 -0.60669131579E+01 -0.74296467884E+01  0.14969899769E+02  0.00000000000E+00 0.  1.
</event>
<event>
 6    1  0.5317355E-006  0.1022892E+03  0.7561462E-02  0.1275554E+00
          3   -1    0    0  501    0  0.00000000000E+00  0.00000000000E+00  0.72048616256E+03  0.72048616256E+03  0.00000000000E+00 0. -1.
         -3   -1    0    0    0  501 -0.00000000000E+00 -0.00000000000E+00 -0.16915412159E+02  0.16915412159E+02  0.00000000000E+00 0.  1.
          5    1    1    2  502    0 -0.34366460616E+02  0.46681766930E+02  0.21241916074E+03  0.22022627733E+03  0.41800000000E+01 0. -1.
         -5    1    1    2    0  502  0.49213132247E+02 -0.40221279541E+02  0.13202538593E+03  0.14658737546E+03  0.41800000000E+01 0. -1.
        -11    1    1    2    0    0  0.33187058447E+02  0.45149589955E+01  0.73876963258E+02  0.81114557283E+02  0.00000000000E+00 0. -1.
         11    1    1    2    0    0 -0.48033730077E+02 -0.10975446384E+02  0.28524924047E+03  0.28947336465E+03  0.00000000000E+00 0.  1.
</event>
<event>
 6    1  0.5317355E-006  0.1026013E+03  0.7561462E-02  0.1274919E+00
         -2   -1    0    0    0  501 -0.00000000000E+00  0.00000000000E+00  0.72281174241E+02  0.72281174241E+02  0.00000000000E+00 0.  1.
          2   -1    0    0  501    0  0.00000000000E+00 -0.00000000000E+00 -0.24956869566E+03  0.24956869566E+03  0.00000000000E+00 0. -1.
          5    1    1    2  502    0  0.68589275918E+02 -0.25939348683E+02  0.15326834688E+01  0.73465366668E+02  0.41800000000E+01 0. -1.
         -5    1    1    2    0  502 -0.38620443578E+02  0.30367636879E+02 -0.40280041672E+01  0.49471499365E+02  0.41800000000E+01 0.  1.
        -11    1    1    2    0    0  0.14343135862E+02  0.25301889304E+02 -0.11567150594E+03  0.11927199350E+03  0.00000000000E+00 0. -1.
         11    1    1    2    0    0 -0.44311968202E+02 -0.29730177501E+02 -0.59120694780E+02  0.79641010362E+02  0.00000000000E+00 0.  1.
</event>
<event>
 6    1  0.5317355E-006  0.1016903E+03  0.7561462E-02  0.1276781E+00
          2   -1    0    0  501    0  0.00000000000E+00  0.00000000000E+00  0.15362999067E+03  0.15362999067E+03  0.00000000000E+00 0. -1.
         -2   -1    0    0    0  501 -0.00000000000E+00 -0.00000000000E+00 -0.12212832341E+03  0.12212832341E+03  0.00000000000E+00 0.  1.
          5    1    1    2  502    0  0.32267753560E+02  0.43099292404E+02  0.19160155055E+02  0.57300443867E+02  0.41800000000E+01 0. -1.
         -5    1    1    2    0  502  0.19445683648E+02 -0.64557665406E+02 -0.59783691266E+02  0.90207477055E+02  0.41800000000E+01 0.  1.
        -11    1    1    2    0    0 -0.11603182181E+02  0.37025592883E+02 -0.58039741222E+01  0.39232824021E+02  0.00000000000E+00 0. -1.
         11    1    1    2    0    0 -0.40110255026E+02 -0.15567219881E+02  0.77929177601E+02  0.89017569135E+02  0.00000000000E+00 0.  1.
</event>
<event>
 6    1  0.5317355E-006  0.1207801E+03  0.7561462E-02  0.1241816E+00
          1   -1    0    0  501    0  0.00000000000E+00  0.00000000000E+00  0.38295797598E+02  0.38295797598E+02  0.00000000000E+00 0. -1.
         -1   -1    0    0    0  501 -0.00000000000E+00 -0.00000000000E+00 -0.50311547252E+03  0.50311547252E+03  0.00000000000E+00 0.  1.
          5    1    1    2  502    0  0.78754289337E+02  0.18400991129E+02 -0.24660106395E+03  0.25955807001E+03  0.41800000000E+01 0. -1.
         -5    1    1    2    0  502 -0.31390126199E+02 -0.44853473753E+02 -0.13995621952E+03  0.15034091231E+03  0.41800000000E+01 0. -1.
        -11    1    1    2    0    0 -0.43789455176E+02 -0.27429201297E+02 -0.37006156961E+02  0.63555748138E+02  0.00000000000E+00 0.  1.
         11    1    1    2    0    0 -0.35747079611E+01  0.53881683921E+02 -0.41256234486E+02  0.67956539664E+02  0.00000000000E+00 0. -1.
</event>
<event>
 6    1  0.5317355E-006  0.8724924E+02  0.7561462E-02  0.1309653E+00
         -2   -1    0    0    0  501 -0.00000000000E+00  0.00000000000E+00  0.54600346783E+02  0.54600346783E+02  0.00000000000E+00 0.  1.
          2   -1    0    0  501    0  0.00000000000E+00 -0.00000000000E+00 -0.27107207776E+03  0.27107207776E+03  0.00000000000E+00 0. -1.
          5    1    1    2  502    0  0.17055429972E+01  0.35708417905E+02  0.81969538059E+01  0.36914257921E+02  0.41800000000E+01 0. -1.
         -5    1    1    2    0  502 -0.41855469958E+02 -0.64476321006E+02 -0.98822548502E+02  0.12526948882E+03  0.41800000000E+01 0. -1.
        -11    1    1    2    0    0  0.39573527213E+02  0.75392890571E+01 -0.47728443950E+01  0.40567043017E+02  0.00000000000E+00 0.  1.
         11    1    1    2    0    0  0.57639974768E+00  0.21228614044E+02 -0.12107329189E+03  0.12292163479E+03  0.00000000000E+00 0. -1.
</event>
<event>
 6    1  0.5317355E-006  0.1053814E+03  0.7561462E-02  0.1269370E+00
         -2   -1    0    0    0  501 -0.00000000000E+00  0.00000000000E+00  0.22803686534E+02  0.22803686534E+02  0.00000000000E+00 0.  1.
          2   -1    0    0  501    0  0.00000000000E+00 -0.00000000000E+00 -0.50404571804E+03  0.50404571804E+03  0.00000000000E+00 0. -1.
          5    1    1    2  502    0 -0.24190355941E+02  0.53371420667E+02 -0.95718297352E+02  0.11230826645E+03  0.41800000000E+01 0.  1.
         -5    1    1    2    0  502  0.38405628833E+02 -0.52674660289E+02 -0.15571326675E+03  0.16886001896E+03  0.41800000000E+01 0.  1.
        -11    1    1    2    0    0 -0.31417364254E+02  0.35021577116E+02 -0.13247599201E+03  0.14058253839E+03  0.00000000000E+00 0. -1.
         11    1    1    2    0    0  0.17202091362E+02 -0.35718337494E+02 -0.97334475393E+02  0.10509858077E+03  0.00000000000E+00 0.  1.
</event>
<event>
 6    1  0.5317355E-006  0.1287290E+03  0.7561462E-02  0.1229354E+00
          1   -1    0    0  501    0  0.00000000000E+00  0.00000000000E+00  0.14337052733E+03  0.14337052733E+03  0.00000000000E+00 0. -1.
         -1   -1    0    0    0  501 -0.00000000000E+00 -0.00000000000E+00 -0.15239704142E+03  0.15239704142E+03  0.00000000000E+00 0.  1.
          5    1    1    2  502    0 -0.38353834764E+02  0.10960319744E+01 -0.25786000637E+02  0.46417756905E+02  0.41800000000E+01 0.  1.
         -5    1    1    2    0  502  0.68465751018E+02 -0.83588890884E+02  0.26434483154E+01  0.10816247945E+03  0.41800000000E+01 0.  1.
        -11    1    1    2    0    0 -0.51906258401E+02  0.61415967420E+02 -0.31543741769E+02  0.86378170622E+02  0.00000000000E+00 0.  1.
         11    1    1    2    0    0  0.21794342148E+02  0.21076891490E+02  0.45659779999E+02  0.54809161772E+02  0.00000000000E+00 0. -1.
</event>
<event>
 6    1  0.5317355E-006  0.8334214E+02  0.7561462E-02  0.1319826E+00
          2   -1    0    0  501    0  0.00000000000E+00  0.00000000000E+00  0.31839857947E+03  0.31839857947E+03  0.00000000000E+00 0. -1.
         -2   -1    0    0    0  501 -0.00000000000E+00 -0.00000000000E+00 -0.75212761488E+02  0.75212761488E+02  0.00000000000E+00 0.  1.
          5    1    1    2  502    0  0.30815615875E+02  0.29084743042E+02  0.81458586031E+02  0.91915711920E+02  0.41800000000E+01 0. -1.
         -5    1    1    2    0  502  0.86757225703E+01  0.41833149211E+02 -0.44377658567E+02  0.61742445003E+02  0.41800000000E+01 0. -1.
        -11    1    1    2    0    0 -0.20896365315E+02 -0.36549131992E+02  0.19476642001E+03  0.19926478740E+03  0.00000000000E+00 0. -1.
         11    1    1    2    0    0 -0.18594973130E+02 -0.34368760261E+02  0.11338470509E+02  0.40688396640E+02  0.00000000000E+00 0.  1.
</event>
<event>
 6    1  0.5317355E-006  0.1149199E+03  0.7561462E-02  0.1251721E+00
          2   -1    0    0  501    0  0.00000000000E+00  0.00000000000E+00  0.13419565622E+04  0.13419565622E+04  0.00000000000E+00 0. -1.
         -2   -1    0    0    0  501 -0.00000000000E+00 -0.00000000000E+00 -0.10166508419E+02  0.10166508419E+02  0.00000000000E+00 0.  1.
          5    1    1    2  502    0 -0.51902020371E+02  0.54247022183E+02  0.47059880094E+03  0.47656821441E+03  0.41800000000E+01 0. -1.
         -5    1    1    2    0  502  0.50140894207E+02 -0.20425845793E+02  0.37215605688E+03  0.37609696558E+03  0.41800000000E+01 0. -1.
        -11    1    1    2    0    0 -0.43197236331E+02  0.14181469834E+01  0.17413597300E+03  0.17941947904E+03  0.00000000000E+00 0. -1.
         11    1    1    2    0    0  0.44958362496E+02 -0.35239323374E+02  0.31489922294E+03  0.32003841157E+03  0.00000000000E+00 0.  1.
</event>
<event>
 6    1  0.5317355E-006  0.8115277E+02  0.7561462E-02  0.1325812E+00
          2   -1    0    0  501    0  0.00000000000E+00  0.00000000000E+00  0.25967734466E+03  0.25967734466E+03  0.00000000000E+00 0. -1.
         -2   -1    0    0    0  501 -0.00000000000E+00 -0.00000000000E+00 -0.73030639654E+02  0.73030639654E+02  0.00000000000E+00 0.  1.
          5    1    1    2  502    0 -0.10654805721E+02  0.20306997456E+02 -0.41264847017E+02  0.47393660230E+02  0.41800000000E+01 0.  1.
         -5    1    1    2    0  502  0.41384406749E+02 -0.50106792301E+02  0.55529136765E+02  0.85582224712E+02  0.41800000000E+01 0.  1.
        -11    1    1    2    0    0  0.17152560332E+02  0.17354185980E+02  0.13638040429E+03  0.13854599515E+03  0.00000000000E+00 0. -1.
         11    1    1    2    0    0 -0.47882161360E+02  0.12445608866E+02  0.36002010966E+02  0.61186104224E+02  0.00000000000E+00 0.  1.
</event>
<event>
 6    1  0.5317355E-006  0.9087340E+02  0.7561462E-02  0.1300750E+00
          2   -1    0    0  501    0  0.00000000000E+00  0.00000000000E+00  0.80503307956E+02  0.80503307956E+02  0.00000000000E+00 0. -1.
         -2   -1    0    0    0  501 -0.00000000000E+00 -0.00000000000E+00 -0.16325442868E+03  0.16325442868E+03  0.00000000000E+00 0.  1.
          5    1    1    2  502    0  0.63721452615E+02 -0.20015121796E+02 -0.51175335697E+02  0.84246163162E+02  0.41800000000E+01 0.  1.
         -5    1    1    2    0  502 -0.47859036852E+02  0.35087860636E+02 -0.31900261389E+02  0.67503662486E+02  0.41800000000E+01 0.  1.
        -11    1    1    2    0    0 -0.11203775191E+02  0.18398215361E+02  0.36576100081E+02  0.42447968198E+02  0.00000000000E+00 0. -1.
         11    1    1    2    0    0 -0.46586405722E+01 -0.33470954201E+02 -0.36251623721E+02  0.49559942792E+02  0.00000000000E+00 0.  1.
</event>
<event>
 6    1  0.5317355E-006  0.1012985E+03  0.7561462E-02  0.1277589E+00
          1   -1    0    0  501    0  0.00000000000E+00  0.00000000000E+00  0.59448278938E+02  0.59448278938E+02  0.00000000000E+00 0. -1.
         -1   -1    0    0    0  501 -0.00000000000E+00 -0.00000000000E+00 -0.34865681911E+03  0.34865681911E+03  0.00000000000E+00 0.  1.
          5    1    1    2  502    0  0.77351625964E+02 -0.49401766431E+02 -0.21565175160E+03  0.23440767678E+03  0.41800000000E+01 0.  1.
         -5    1    1    2    0  502 -0.48464399316E+01 -0.38708150099E+01  0.16076368978E+02  0.17731137255E+02  0.41800000000E+01 0.  1.
        -11    1    1    2    0    0 -0.18259936392E+02  0.44747862942E+02 -0.88740679329E+02  0.10104803156E+03  0.00000000000E+00 0.  1.
         11    1    1    2    0    0 -0.54245249640E+02  0.85247184990E+01 -0.89247821494E+00  0.54918252443E+02  0.00000000000E+00 0. -1.
</event>
<event>
 6    1  0.5317355E-006  0.1145067E+03  0.7561462E-02  0.1252445E+00
         -1   -1    0    0    0  501 -0.00000000000E+00  0.00000000000E+00  0.28205962262E+02  0.28205962262E+02  0.00000000000E+00 0.  1.
          1   -1    0    0  501    0  0.00000000000E+00 -0.00000000000E+00 -0.53702300997E+03  0.53702300997E+03  0.00000000000E+00 0. -1.
          5    1    1    2  502    0  0.23480713622E+02 -0.60223585738E+02 -0.14177947700E+03  0.15587532418E+03  0.41800000000E+01 0. -1.
         -5    1    1    2    0  502 -0.55642710053E+02  0.27093110986E+02 -0.62358290812E+02  0.87955538075E+02  0.41800000000E+01 0. -1.
        -11    1    1    2    0    0 -0.16112741190E+02 -0.23059090974E+02 -0.77648811822E+02  0.82587408741E+02  0.00000000000E+00 0.  1.
         11    1    1    2    0    0  0.48274737621E+02  0.56189565725E+02 -0.22703046808E+03  0.23881070124E+03  0.00000000000E+00 0. -1.
</event>
<event>
 6    1  0.5317355E-006  0.1274371E+03  0.7561462E-02  0.1231309E+00
          2   -1    0    0  501    0  0.00000000000E+00  0.00000000000E+00  0.24480837215E+02  0.24480837215E+02  0.00000000000E+00 0.  1.
         -2   -1    0    0    0  501 -0.00000000000E+00 -0.00000000000E+00 -0.76098558560E+03  0.76098558560E+03  0.00000000000E+00 0. -1.
          5    1    1    2  502    0  0.11377572097E+03  0.15173375483E+02 -0.26975194418E+03  0.29318719241E+03  0.41800000000E+01 0.  1.
         -5    1    1    2    0  502 -0.30650723852E+02  0.10793380114E+02 -0.14578517519E+03  0.14942139617E+03  0.41800000000E+01 0.  1.
        -11    1    1    2    0    0  0.87471019162E+01 -0.11183306831E+02 -0.78876954351E+01  0.16241732755E+02  0.00000000000E+00 0.  1.
         11    1    1    2    0    0 -0.91872099031E+02 -0.14783448766E+02 -0.31307993358E+03  0.32661610148E+03  0.00000000000E+00 0. -1.
</event>
<event>
 6    1  0.5317355E-006  0.1099663E+03  0.7561462E-02  0.1260632E+00
          2   -1    0    0  501    0  0.00000000000E+00  0.00000000000E+00  0.61010954974E+03  0.61010954974E+03  0.00000000000E+00 0. -1.
         -2   -1    0    0    0  501 -0.00000000000E+00 -0.00000000000E+00 -0.26138894613E+02  0.26138894613E+02  0.00000000000E+00 0.  1.
          5    1    1    2  502    0 -0.75290077938E+01  0.61738786762E+02  0.17301591680E+03  0.18390308213E+03  0.41800000000E+01 0.  1.
         -5    1    1    2    0  502  0.55627890392E+02 -0.30586498394E+02  0.64556775255E+02  0.90636889315E+02  0.41800000000E+01 0.  1.
        -11    1    1    2    0    0 -0.62869472253E+02 -0.39141582901E+01  0.29535055833E+03  0.30199311827E+03  0.00000000000E+00 0. -1.
         11    1    1    2    0    0  0.14770589655E+02 -0.27238130079E+02  0.51047404734E+02  0.59715354634E+02  0.00000000000E+00 0.  1.
</event>
<event>
 6    1  0.5317355E-006  0.1054262E+03  0.7561462E-02  0.1269282E+00
          1   -1    0    0  501    0  0.00000000000E+00  0.00000000000E+00  0.40286945954E+03  0.40286945954E+03  0.00000000000E+00 0. -1.
         -1   -1    0    0    0  501 -0.00000000000E+00 -0.00000000000E+00 -0.12421315926E+03  0.12421315926E+03  0.00000000000E+00 0.  1.
          5    1    1    2  502    0 -0.35785607725E+02  0.35180506432E+02  0.28534138940E+02  0.57878728719E+02  0.41800000000E+01 0. -1.
         -5    1    1    2    0  502  0.11485550608E+02 -0.78296475726E+02 -0.86415957117E+02  0.11724950332E+03  0.41800000000E+01 0.  1.
        -11    1    1    2    0    0  0.44647228028E+02  0.41305896522E+02  0.31983540946E+03  0.32556756780E+03  0.00000000000E+00 0. -1.
         11    1    1    2    0    0 -0.20347170911E+02  0.18100727718E+01  0.16702708989E+02  0.26386818965E+02  0.00000000000E+00 0.  1.
</event>
<event>
 6    1  0.5317355E-006  0.1336462E+03  0.7561462E-02  0.1222144E+00
          2   -1    0    0  501    0  0.00000000000E+00  0.00000000000E+00  0.10696230100E+04  0.10696230100E+04  0.00000000000E+00 0. -1.
         -2   -1    0    0    0  501 -0.00000000000E+00 -0.00000000000E+00 -0.25902650294E+02  0.25902650294E+02  0.00000000000E+00 0.  1.
          5    1    1    2  502    0 -0.52824788488E+02 -0.22395543264E+02  0.40800969181E+02  0.70528080386E+02  0.41800000000E+01 0.  1.
         -5    1    1    2    0  502 -0.55146742819E+02 -0.39920439869E+02  0.37645864811E+03  0.38258775582E+03  0.41800000000E+01 0.  1.
        -11    1    1    2    0    0  0.86866683337E+02  0.12895774835E+02  0.35697470989E+03  0.36761809692E+03  0.00000000000E+00 0.  1.
         11    1    1    2    0    0  0.21104847970E+02  0.49420208298E+02  0.26948603254E+03  0.27479172719E+03  0.00000000000E+00 0. -1.
</event>
<event>
 6    1  0.5317355E-006  0.1789819E+03  0.7561462E-02  0.1168792E+00
          2   -1    0    0  501    0  0.00000000000E+00  0.00000000000E+00  0.25488433816E+03  0.25488433816E+03  0.00000000000E+00 0. -1.
         -2   -1    0    0    0  501 -0.00000000000E+00 -0.00000000000E+00 -0.19868080261E+03  0.19868080261E+03  0.00000000000E+00 0.  1.
          5    1    1    2  502    0  0.81855552625E+02 -0.70795310333E+02 -0.83941067108E+02  0.13702511670E+03  0.41800000000E+01 0. -1.
         -5    1    1    2    0  502 -0.24725864461E+02 -0.80389304312E+02 -0.78049990663E+00  0.84213361180E+02  0.41800000000E+01 0. -1.
        -11    1    1    2    0    0 -0.12827264278E+02  0.83997880647E+02  0.12362302228E+03  0.15000944736E+03  0.00000000000E+00 0. -1.
         11    1    1    2    0    0 -0.44302423886E+02  0.67186733998E+02  0.17302080291E+02  0.82317215513E+02  0.00000000000E+00 0.  1.
</event>
<event>
 6    1  0.5317355E-006  0.1548871E+03  0.7561462E-02  0.1194593E+00
          2   -1    0    0  501    0  0.00000000000E+00  0.00000000000E+00  0.25152372064E+03  0.25152372064E+03  0.00000000000E+00 0.  1.
         -2   -1    0    0    0  501 -0.00000000000E+00 -0.00000000000E+00 -0.10478839428E+03  0.10478839428E+03  0.00000000000E+00 0. -1.
          5    1    1    2  502    0 -0.21125747046E+02  0.36238970125E+02 -0.61889078220E-01  0.42154909254E+02  0.41800000000E+01 0. -1.
         -5    1    1    2    0  502 -0.74425949312E+02 -0.10112859097E+03  0.50648174944E+02  0.13545819971E+03  0.41800000000E+01 0. -1.
        -11    1    1    2    0    0  0.66353332855E+01  0.51667844569E+02  0.78280525740E+01  0.52677055891E+02  0.00000000000E+00 0. -1.
         11    1    1    2    0    0  0.88916363072E+02  0.13221776279E+02  0.88320987924E+02  0.12602195006E+03  0.00000000000E+00 0.  1.
</event>
<event>
 6    1  0.5317355E-006  0.1536588E+03  0.7561462E-02  0.1196048E+00
          1   -1    0    0  501    0  0.00000000000E+00  0.00000000000E+00  0.78758299691E+02  0.78758299691E+02  0.00000000000E+00 0. -1.
         -1   -1    0    0    0  501 -0.00000000000E+00 -0.00000000000E+00 -0.41585667158E+03  0.41585667158E+03  0.00000000000E+00 0.  1.
          5    1    1    2  502    0 -0.42719991321E+02 -0.68749881300E+02 -0.20562561365E+03  0.22102241793E+03  0.41800000000E+01 0. -1.
         -5    1    1    2    0  502 -0.72626134581E+02 -0.11036353350E+02 -0.27808230865E+02  0.78658290238E+02  0.41800000000E+01 0. -1.
        -11    1    1    2    0    0 -0.61601551036E+01  0.12160517081E+02  0.86840347967E+01  0.16162863203E+02  0.00000000000E+00 0. -1.
         11    1    1    2    0    0  0.12150628100E+03  0.67625717570E+02 -0.11234856217E+03  0.17877139990E+03  0.00000000000E+00 0.  1.
</event>
<event>
 6    1  0.5317355E-006  0.9242433E+02  0.7561462E-02  0.1297085E+00
          1   -1    0    0  501    0  0.00000000000E+00  0.00000000000E+00  0.95295118798E+02  0.95295118798E+02  0.00000000000E+00 0. -1.
         -1   -1    0    0    0  501 -0.00000000000E+00 -0.00000000000E+00 -0.16456401913E+03  0.16456401913E+03  0.00000000000E+00 0.  1.
          5    1    1    2  502    0 -0.23603934564E+02 -0.33317047196E+02 -0.10240015988E+03  0.11031970134E+03  0.41800000000E+01 0.  1.
         -5    1    1    2    0  502  0.23476869776E+02  0.45324152067E+02  0.88919019588E+00  0.51222116652E+02  0.41800000000E+01 0.  1.
        -11    1    1    2    0    0 -0.25293762071E+02 -0.44589467027E+02  0.13978510835E+02  0.53135616442E+02  0.00000000000E+00 0. -1.
         11    1    1    2    0    0  0.25420826859E+02  0.32582362156E+02  0.18263558510E+02  0.45181703501E+02  0.00000000000E+00 0.  1.
</event>
<event>
 6    1  0.5317355E-006  0.2302813E+03  0.7561462E-02  0.1126442E+00
         -2   -1    0    0    0  501 -0.00000000000E+00  0.00000000000E+00  0.27269632330E+02  0.27269632330E+02  0.00000000000E+00 0.  1.
          2   -1    0    0  501    0  0.00000000000E+00 -0.00000000000E+00 -0.19954977666E+04  0.19954977666E+04  0.00000000000E+00 0. -1.
          5    1    1    2  502    0  0.14353242367E+02  0.14776069666E+02 -0.46199499857E+02  0.50756418198E+02  0.41800000000E+01 0. -1.
         -5    1    1    2    0  502 -0.21266435492E+03  0.40855514757E+02 -0.88476320748E+03  0.91088896505E+03  0.41800000000E+01 0. -1.
        -11    1    1    2    0    0  0.12820330057E+03 -0.77133647819E+02 -0.65290555845E+03  0.66982934704E+03  0.00000000000E+00 0. -1.
         11    1    1    2    0    0  0.70107811979E+02  0.21502063397E+02 -0.38435986845E+03  0.39129266860E+03  0.00000000000E+00 0.  1.
</event>
<event>
 6    1  0.5317355E-006  0.1362892E+03  0.7561462E-02  0.1218411E+00
         -2   -1    0    0    0  501 -0.00000000000E+00  0.00000000000E+00  0.42565614121E+02  0.42565614121E+02  0.00000000000E+00 0.  1.
          2   -1    0    0  501    0  0.00000000000E+00 -0.00000000000E+00 -0.48123267662E+03  0.48123267662E+03  0.00000000000E+00 0. -1.
          5    1    1    2  502    0  0.21845358347E+02  0.25739420937E+02 -0.55306515062E+02  0.64930890028E+02  0.41800000000E+01 0. -1.
         -5    1    1    2    0  502 -0.10387571196E+03 -0.50834001548E+02 -0.11554171512E+03  0.16352865064E+03  0.41800000000E+01 0. -1.
        -11    1    1    2    0    0 -0.19065239874E+02  0.56965780106E+01 -0.63641582842E+02  0.66679722848E+02  0.00000000000E+00 0. -1.
         11    1    1    2    0    0  0.10109559348E+03  0.19398002600E+02 -0.20417724948E+03  0.22865902722E+03  0.00000000000E+00 0.  1.
</event>
<event>
 6    1  0.5317355E-006  0.1039787E+03  0.7561462E-02  0.1272145E+00
          1   -1    0    0  501    0  0.00000000000E+00  0.00000000000E+00  0.96839164075E+02  0.96839164075E+02  0.00000000000E+00 0. -1.
         -1   -1    0    0    0  501 -0.00000000000E+00 -0.00000000000E+00 -0.19234289282E+03  0.19234289282E+03  0.00000000000E+00 0.  1.
          5    1    1    2  502    0  0.24211568180E+02 -0.24739551377E+02  0.24440118206E+02  0.42579774706E+02  0.41800000000E+01 0.  1.
         -5    1    1    2    0  502  0.69878582190E+02  0.28192066185E+02 -0.11720822374E+03  0.13940247113E+03  0.41800000000E+01 0.  1.
        -11    1    1    2    0    0 -0.40466981805E+02 -0.14289538055E+02  0.20744555192E+02  0.47666592959E+02  0.00000000000E+00 0. -1.
         11    1    1    2    0    0 -0.53623168565E+02  0.10837023248E+02 -0.23480178405E+02  0.59533218103E+02  0.00000000000E+00 0.  1.
</event>
<event>
 6    1  0.5317355E-006  0.1663389E+03  0.7561462E-02  0.1181720E+00
          1   -1    0    0  501    0  0.00000000000E+00  0.00000000000E+00  0.18258084821E+03  0.18258084821E+03  0.00000000000E+00 0. -1.
         -1   -1    0    0    0  501 -0.00000000000E+00 -0.00000000000E+00 -0.28306261144E+03  0.28306261144E+03  0.00000000000E+00 0.  1.
          5    1    1    2  502    0  0.76893375823E+02 -0.34322364516E+02 -0.91207081024E+02  0.12420475023E+03  0.41800000000E+01 0. -1.
         -5    1    1    2    0  502 -0.13161478047E+03 -0.34782460260E+02 -0.11349167817E+03  0.17728537276E+03  0.41800000000E+01 0.  1.
        -11    1    1    2    0    0 -0.15540341250E+02  0.24283146401E+02 -0.22830901503E+01  0.28920337238E+02  0.00000000000E+00 0.  1.
         11    1    1    2    0    0  0.70261745898E+02  0.44821678374E+02  0.10650008611E+03  0.13523299942E+03  0.00000000000E+00 0. -1.
</event>
<event>
 6    1  0.5317355E-006  0.1168169E+03  0.7561462E-02  0.1248442E+00
         -2   -1    0    0    0  501 -0.00000000000E+00  0.00000000000E+00  0.37293176519E+02  0.37293176519E+02  0.00000000000E+00 0.  1.
          2   -1    0    0  501    0  0.00000000000E+00 -0.00000000000E+00 -0.49092929525E+03  0.49092929525E+03  0.00000000000E+00 0. -1.
          5    1    1    2  502    0  0.76173903460E+02  0.13083969229E+02 -0.12619205446E+03  0.14803905170E+03  0.41800000000E+01 0. -1.
         -5    1    1    2    0  502 -0.38523280087E+02  0.44125423655E+02 -0.40513135547E+02  0.71343413664E+02  0.41800000000E+01 0. -1.
        -11    1    1    2    0    0 -0.58213407662E+02 -0.45134988957E+02 -0.26927742966E+03  0.27917074020E+03  0.00000000000E+00 0. -1.
         11    1    1    2    0    0  0.20562784290E+02 -0.12074403927E+02 -0.17653499061E+02  0.29669266203E+02  0.00000000000E+00 0.  1.
</event>
<event>
 6    1  0.5317355E-006  0.7925456E+02  0.7561462E-02  0.1331180E+00
         -2   -1    0    0    0  501 -0.00000000000E+00  0.00000000000E+00  0.23802854316E+02  0.23802854316E+02  0.00000000000E+00 0.  1.
          2   -1    0    0  501    0  0.00000000000E+00 -0.00000000000E+00 -0.62771830647E+03  0.62771830647E+03  0.00000000000E+00 0. -1.
          5    1    1    2  502    0 -0.45709147950E+02 -0.13998422008E+02 -0.32856949993E+02  0.58157833418E+02  0.41800000000E+01 0. -1.
         -5    1    1    2    0  502 -0.63221184050E+01 -0.11576090145E+02 -0.32569427215E+03  0.32598804634E+03  0.41800000000E+01 0. -1.
        -11    1    1    2    0    0  0.25177195601E+02 -0.27450643795E+02 -0.45186779986E+02  0.58560004343E+02  0.00000000000E+00 0. -1.
         11    1    1    2    0    0  0.26854070755E+02  0.53025155948E+02 -0.20017745003E+03  0.20881527669E+03  0.00000000000E+00 0.  1.
</event>
<event>
 6    1  0.5317355E-006  0.2658813E+03  0.7561462E-02  0.1103660E+00
         -2   -1    0    0    0  501 -0.00000000000E+00  0.00000000000E+00  0.31934217519E+03  0.31934217519E+03  0.00000000000E+00 0.  1.
          2   -1    0    0  501    0  0.00000000000E+00 -0.00000000000E+00 -0.24508516972E+03  0.24508516972E+03  0.00000000000E+00 0. -1.
          5    1    1    2  502    0  0.22079243459E+03 -0.28567522603E+02  0.43906399040E+02  0.22695957084E+03  0.41800000000E+01 0.  1.
         -5    1    1    2    0  502  0.30301712679E+02  0.34988634754E+02  0.51609390213E+02  0.69450701302E+02  0.41800000000E+01 0.  1.
        -11    1    1    2    0    0 -0.13762120767E+03  0.34688924752E+02  0.13106277578E+02  0.14252962083E+03  0.00000000000E+00 0.  1.
         11    1    1    2    0    0 -0.11347293959E+03 -0.41110036903E+02 -0.34365061362E+02  0.12548745195E+03  0.00000000000E+00 0. -1.
</event>
<event>
 6    1  0.5317355E-006  0.1471842E+03  0.7561462E-02  0.1203976E+00
          1   -1    0    0  501    0  0.00000000000E+00  0.00000000000E+00  0.81049374086E+03  0.81049374086E+03  0.00000000000E+00 0. -1.
         -1   -1    0    0    0  501 -0.00000000000E+00 -0.00000000000E+00 -0.31174509183E+02  0.31174509183E+02  0.00000000000E+00 0.  1.
          5    1    1    2  502    0 -0.27282883420E+02 -0.87807400775E+02  0.17409644356E+03  0.19693029076E+03  0.41800000000E+01 0.  1.
         -5    1    1    2    0  502 -0.59057481361E+02  0.33797927924E+02  0.97872412543E+02  0.11927517585E+03  0.41800000000E+01 0.  1.
        -11    1    1    2    0    0  0.44058919828E+02 -0.20412666162E+02  0.13702829127E+03  0.14537750157E+03  0.00000000000E+00 0.  1.
         11    1    1    2    0    0  0.42281444952E+02  0.74422139013E+02  0.37032208430E+03  0.38008528186E+03  0.00000000000E+00 0. -1.
</event>
<event>
 6    1  0.5317355E-006  0.2002162E+03  0.7561462E-02  0.1149557E+00
         -1   -1    0    0    0  501 -0.00000000000E+00  0.00000000000E+00  0.28428691423E+03  0.28428691423E+03  0.00000000000E+00 0.  1.
          1   -1    0    0  501    0  0.00000000000E+00 -0.00000000000E+00 -0.17650687679E+03  0.17650687679E+03  0.00000000000E+00 0. -1.
          5    1    1    2  502    0 -0.77369157211E+01 -0.11762628313E+03 -0.14031055514E+02  0.11878613247E+03  0.41800000000E+01 0.  1.
         -5    1    1    2    0  502 -0.17465779078E+02 -0.73501721424E+02  0.10264172148E+03  0.12751608479E+03  0.41800000000E+01 0.  1.
        -11    1    1    2    0    0 -0.41260525709E+01  0.17144034827E+03 -0.52139794927E+01  0.17156923649E+03  0.00000000000E+00 0. -1.
         11    1    1    2    0    0  0.29328747370E+02  0.19687656284E+02  0.24383350965E+02  0.42922337268E+02  0.00000000000E+00 0.  1.
</event>
<event>
 6    1  0.5317355E-006  0.1096285E+03  0.7561462E-02  0.1261259E+00
          4   -1    0    0  501    0  0.00000000000E+00  0.00000000000E+00  0.43918144599E+03  0.43918144599E+03  0.00000000000E+00 0. -1.
         -4   -1    0    0    0  501 -0.00000000000E+00 -0.00000000000E+00 -0.44504024751E+02  0.44504024751E+02  0.00000000000E+00 0.  1.
          5    1    1    2  502    0 -0.34254894649E+02  0.57717049547E+00 -0.63348210405E+01  0.35090358944E+02  0.41800000000E+01 0.  1.
         -5    1    1    2    0  502  0.70236413780E+02 -0.43234890427E+02  0.10566878488E+03  0.13411105125E+03  0.41800000000E+01 0.  1.
        -11    1    1    2    0    0  0.21715525603E+02  0.38639831860E+02  0.79447319157E+02  0.90975145945E+02  0.00000000000E+00 0.  1.
         11    1    1    2    0    0 -0.57697044735E+02  0.40178880708E+01  0.21589613825E+03  0.22350891460E+03  0.00000000000E+00 0. -1.
</event>
<event>
 6    1  0.5317355E-006  0.5880277E+02  0.7561462E-02  0.1402926E+00
          1   -1    0    0  501    0  0.00000000000E+00  0.00000000000E+00  0.13224671355E+03  0.13224671355E+03  0.00000000000E+00 0. -1.
         -1   -1    0    0    0  501 -0.00000000000E+00 -0.00000000000E+00 -0.11633380611E+03  0.11633380611E+03  0.00000000000E+00 0.  1.
          5    1    1    2  502    0  0.12224070978E+02 -0.40194663252E+01 -0.77539214060E+02  0.78710775234E+02  0.41800000000E+01 0. -1.
         -5    1    1    2    0  502  0.27141428511E+02  0.25963315362E+02  0.44408490398E+02  0.58312411249E+02  0.41800000000E+01 0. -1.
        -11    1    1    2    0    0 -0.42849066927E+02 -0.33387997111E+02 -0.65285511200E+01  0.54712182075E+02  0.00000000000E+00 0.  1.
         11    1    1    2    0    0  0.34835674378E+01  0.11444148074E+02  0.55572182225E+02  0.56845151107E+02  0.00000000000E+00 0. -1.
</event>
<event>
 6    1  0.5317355E-006  0.1236976E+03  0.7561462E-02  0.1237119E+00
          3   -1    0    0  501    0  0.00000000000E+00  0.00000000000E+00  0.10647734749E+03  0.10647734749E+03  0.00000000000E+00 0. -1.
         -3   -1    0    0    0  501 -0.00000000000E+00 -0.00000000000E+00 -0.14676399955E+03  0.14676399955E+03  0.00000000000E+00 0.  1.
          5    1    1    2  502    0  0.93073715174E+01  0.39901364737E+02 -0.54946004421E+01  0.41550079500E+02  0.41800000000E+01 0.  1.
         -5    1    1    2    0  502  0.13679660626E+02 -0.96326249924E+02 -0.33015118478E+02  0.10282679606E+03  0.41800000000E+01 0.  1.
        -11    1    1    2    0    0 -0.57692920883E+02  0.41393919438E+02 -0.10729865095E+00  0.71006627855E+02  0.00000000000E+00 0. -1.
         11    1    1    2    0    0  0.34705888739E+02  0.15030965750E+02 -0.16696344931E+01  0.37857843624E+02  0.00000000000E+00 0.  1.
</event>
<event>
 6    1  0.5317355E-006  0.1045474E+03  0.7561462E-02  0.1271014E+00
         -3   -1    0    0    0  501 -0.00000000000E+00  0.00000000000E+00  0.31912087938E+03  0.31912087938E+03  0.00000000000E+00 0.  1.
          3   -1    0    0  501    0  0.00000000000E+00 -0.00000000000E+00 -0.53237285519E+02  0.53237285519E+02  0.00000000000E+00 0. -1.
          5    1    1    2  502    0  0.10692930344E+02 -0.17416622148E+02 -0.60700494324E+01  0.21725454805E+02  0.41800000000E+01 0.  1.
         -5    1    1    2    0  502 -0.14628999919E+02  0.79554161741E+02  0.21379435604E+03  0.22862277087E+03  0.41800000000E+01 0.  1.
        -11    1    1    2    0    0 -0.28064196376E+02  0.88047616895E+01  0.16946311920E+02  0.33945551024E+02  0.00000000000E+00 0. -1.
         11    1    1    2    0    0  0.32000265951E+02 -0.70942301282E+02  0.41212975337E+02  0.88064388195E+02  0.00000000000E+00 0.  1.
</event>
<event>
 6    1  0.7339100E-006  0.2073421E+03  0.7561462E-02  0.1143688E+00
          1   -1    0    0  501    0  0.00000000000E+00  0.00000000000E+00  0.11137020442E+04  0.11137020442E+04  0.00000000000E+00 0. -1.
         -1   -1    0    0    0  501 -0.00000000000E+00 -0.00000000000E+00 -0.44238602477E+02  0.44238602477E+02  0.00000000000E+00 0.  1.
          5    1    1    2  502    0 -0.24540710821E+02 -0.10554582632E+02  0.12691972344E+03  0.12976800184E+03  0.41800000000E+01 0.  1.
         -5    1    1    2    0  502  0.97659129941E+02 -0.16739942377E+03  0.37575159432E+03  0.42280800108E+03  0.41800000000E+01 0.  1.
        -11    1    1    2    0    0 -0.10238495930E+02  0.52235045463E+02  0.63742553049E+02  0.83044806235E+02  0.00000000000E+00 0.  1.
         11    1    1    2    0    0 -0.62879923190E+02  0.12571896094E+03  0.50304957092E+03  0.52231983754E+03  0.00000000000E+00 0. -1.
</event>
<event>
 6    1  0.5317355E-006  0.1205026E+03  0.7561462E-02  0.1242270E+00
          4   -1    0    0  501    0  0.00000000000E+00  0.00000000000E+00  0.13892339052E+03  0.13892339052E+03  0.00000000000E+00 0. -1.
         -4   -1    0    0    0  501 -0.00000000000E+00 -0.00000000000E+00 -0.12538483994E+03  0.12538483994E+03  0.00000000000E+00 0.  1.
          5    1    1    2  502    0  0.56230272893E+02  0.11469955960E+02 -0.18487434866E+02  0.60437249502E+02  0.41800000000E+01 0.  1.
         -5    1    1    2    0  502 -0.51475611319E+02  0.63520676980E+02  0.25136111564E+02  0.85638259377E+02  0.41800000000E+01 0.  1.
        -11    1    1    2    0    0 -0.36397878342E+02 -0.46222404541E+02  0.33658039429E+02  0.67780379517E+02  0.00000000000E+00 0. -1.
         11    1    1    2    0    0  0.31643216767E+02 -0.28768228399E+02 -0.26768165549E+02  0.50452342061E+02  0.00000000000E+00 0.  1.
</event>
<event>
 6    1  0.5317355E-006  0.1080354E+03  0.7561462E-02  0.1264252E+00
          1   -1    0    0  501    0  0.00000000000E+00  0.00000000000E+00  0.99667339031E+02  0.99667339031E+02  0.00000000000E+00 0. -1.
         -1   -1    0    0    0  501 -0.00000000000E+00 -0.00000000000E+00 -0.47595552302E+03  0.47595552302E+03  0.00000000000E+00 0.  1.
          5    1    1    2  502    0  0.19714021003E+02  0.47020169130E+02 -0.14646965348E+03  0.15514628812E+03  0.41800000000E+01 0. -1.
         -5    1    1    2    0  502 -0.58098854821E+02 -0.38017672688E+02 -0.29417433150E+03  0.30228600709E+03  0.41800000000E+01 0.  1.
        -11    1    1    2    0    0  0.64681093603E+02 -0.18697936581E+02  0.29616913727E+02  0.73555545548E+02  0.00000000000E+00 0.  1.
         11    1    1    2    0    0 -0.26296259786E+02  0.96954401390E+01  0.34738887256E+02  0.44635021295E+02  0.00000000000E+00 0. -1.
</event>
<event>
 6    1  0.5317355E-006  0.6578286E+02  0.7561462E-02  0.1375051E+00
         -1   -1    0    0    0  501 -0.00000000000E+00  0.00000000000E+00  0.46136540256E+03  0.46136540256E+03  0.00000000000E+00 0.  1.
          1   -1    0    0  501    0  0.00000000000E+00 -0.00000000000E+00 -0.27100576017E+02  0.27100576017E+02  0.00000000000E+00 0. -1.
          5    1    1    2  502    0  0.31576871021E+02  0.97271865460E+01  0.97105397933E+01  0.34691265826E+02  0.41800000000E+01 0.  1.
         -5    1    1    2    0  502 -0.18327522630E+02  0.34634915940E+01  0.28977571866E+03  0.29040546376E+03  0.41800000000E+01 0.  1.
        -11    1    1    2    0    0 -0.34451698797E+02  0.19944744175E+02  0.25623819317E+02  0.47342290677E+02  0.00000000000E+00 0. -1.
         11    1    1    2    0    0  0.21202350406E+02 -0.33135422315E+02  0.10915474878E+03  0.11602695831E+03  0.00000000000E+00 0.  1.
</event>
<event>
 6    1  0.5317355E-006  0.9700471E+02  0.7561462E-02  0.1286724E+00
          1   -1    0    0  501    0  0.00000000000E+00  0.00000000000E+00  0.84198724148E+03  0.84198724148E+03  0.00000000000E+00 0. -1.
         -1   -1    0    0    0  501 -0.00000000000E+00 -0.00000000000E+00 -0.22269580807E+02  0.22269580807E+02  0.00000000000E+00 0.  1.
          5    1    1    2  502    0  0.11046354256E+02 -0.81158845368E+01 -0.84080130169E+01  0.16614951310E+02  0.41800000000E+01 0. -1.
         -5    1    1    2    0  502 -0.12414949942E+02 -0.62461067741E+02  0.32259751091E+03  0.32884972619E+03  0.41800000000E+01 0. -1.
        -11    1    1    2    0    0 -0.45049223192E+02  0.40260376407E+02  0.23508297829E+03  0.24272275769E+03  0.00000000000E+00 0. -1.
         11    1    1    2    0    0  0.46417818878E+02  0.30316575871E+02  0.27044518448E+03  0.27606938710E+03  0.00000000000E+00 0.  1.
</event>
<event>
 6    1  0.5317355E-006  0.1640603E+03  0.7561462E-02  0.1184188E+00
         -2   -1    0    0    0  501 -0.00000000000E+00  0.00000000000E+00  0.16016023271E+03  0.16016023271E+03  0.00000000000E+00 0.  1.
          2   -1    0    0  501    0  0.00000000000E+00 -0.00000000000E+00 -0.18604939618E+03  0.18604939618E+03  0.00000000000E+00 0. -1.
          5    1    1    2  502    0 -0.10175552420E+03  0.11875259271E+02 -0.67765638018E+01  0.10275506170E+03  0.41800000000E+01 0. -1.
         -5    1    1    2    0  502 -0.13848270937E+02 -0.77467676949E+02 -0.23831335932E+02  0.82331163918E+02  0.41800000000E+01 0. -1.
        -11    1    1    2    0    0  0.84448628279E+02  0.12702586852E+02  0.35464863937E+02  0.92469903780E+02  0.00000000000E+00 0.  1.
         11    1    1    2    0    0  0.31155166855E+02  0.52889830826E+02 -0.30746127668E+02  0.68653499497E+02  0.00000000000E+00 0. -1.
</event>
<event>
 6    1  0.5317355E-006  0.2376583E+03  0.7561462E-02  0.1121363E+00
         -2   -1    0    0    0  501 -0.00000000000E+00  0.00000000000E+00  0.85091794577E+02  0.85091794577E+02  0.00000000000E+00 0.  1.
          2   -1    0    0  501    0  0.00000000000E+00 -0.00000000000E+00 -0.90603021173E+03  0.90603021173E+03  0.00000000000E+00 0. -1.
          5    1    1    2  502    0  0.54767818803E+02 -0.37998793904E+02 -0.11775945309E+03  0.13538162175E+03  0.41800000000E+01 0. -1.
         -5    1    1    2    0  502  0.24756078452E+02 -0.17719272664E+03 -0.10165012918E+03  0.20581629419E+03  0.41800000000E+01 0. -1.
        -11    1    1    2    0    0 -0.30355167722E+02  0.93937853325E+02 -0.38024412036E+03  0.39285028645E+03  0.00000000000E+00 0. -1.
         11    1    1    2    0    0 -0.49168729533E+02  0.12125366722E+03 -0.22128471453E+03  0.25707380392E+03  0.00000000000E+00 0.  1.
</event>
<event>
 6    1  0.5317355E-006  0.1713952E+03  0.7561462E-02  0.1176401E+00
         -2   -1    0    0    0  501 -0.00000000000E+00  0.00000000000E+00  0.44368794214E+03  0.44368794214E+03  0.00000000000E+00 0.  1.
          2   -1    0    0  501    0  0.00000000000E+00 -0.00000000000E+00 -0.14003621831E+03  0.14003621831E+03  0.00000000000E+00 0. -1.
          5    1    1    2  502    0  0.56903897560E+02 -0.15494527491E+02  0.57149811304E+02  0.82229600946E+02  0.41800000000E+01 0. -1.
         -5    1    1    2    0  502 -0.45130494344E+01 -0.11883554504E+03  0.29982987479E+03  0.32257972750E+03  0.41800000000E+01 0. -1.
        -11    1    1    2    0    0 -0.71895990456E+02  0.83269825671E+02 -0.12562391871E+02  0.11072809490E+03  0.00000000000E+00 0.  1.
         11    1    1    2    0    0  0.19505142330E+02  0.51060246860E+02 -0.40765570391E+02  0.68186737098E+02  0.00000000000E+00 0. -1.
</event>
<event>
 6    1  0.5317355E-006  0.1857990E+03  0.7561462E-02  0.1162306E+00
         -2   -1    0    0    0  501 -0.00000000000E+00  0.00000000000E+00  0.45091458644E+02  0.45091458644E+02  0.00000000000E+00 0.  1.
          2   -1    0    0  501    0  0.00000000000E+00 -0.00000000000E+00 -0.10004418896E+04  0.10004418896E+04  0.00000000000E+00 0. -1.
          5    1    1    2  502    0  0.15615321259E+03  0.40585651229E+02 -0.22781136512E+03  0.27918902443E+03  0.41800000000E+01 0.  1.
         -5    1    1    2    0  502 -0.18541910118E+02  0.30404318544E+02 -0.31596677723E+02  0.47791709115E+02  0.41800000000E+01 0.  1.
        -11    1    1    2    0    0 -0.78331770156E+02  0.43832378004E+01 -0.23527909287E+03  0.24801477885E+03  0.00000000000E+00 0.  1.
         11    1    1    2    0    0 -0.59279532312E+02 -0.75373207574E+02 -0.46066329526E+03  0.47053783585E+03  0.00000000000E+00 0. -1.
</event>
<event>
 6    1  0.5317355E-006  0.6365654E+02  0.7561462E-02  0.1383097E+00
         -2   -1    0    0    0  501 -0.00000000000E+00  0.00000000000E+00  0.16560950024E+03  0.16560950024E+03  0.00000000000E+00 0.  1.
          2   -1    0    0  501    0  0.00000000000E+00 -0.00000000000E+00 -0.80605925770E+02  0.80605925770E+02  0.00000000000E+00 0. -1.
          5    1    1    2  502    0  0.17722800842E+01  0.19286415993E+02  0.10946158624E+03  0.11124036175E+03  0.41800000000E+01 0. -1.
         -5    1    1    2    0  502  0.14638592905E+02  0.84651943763E+01 -0.34115506203E+02  0.38305196535E+02  0.41800000000E+01 0. -1.
        -11    1    1    2    0    0 -0.47304314031E+02 -0.34387432270E+02  0.22364019181E+02  0.62612642318E+02  0.00000000000E+00 0.  1.
         11    1    1    2    0    0  0.30893441041E+02  0.66358219010E+01 -0.12706524749E+02  0.34057225414E+02  0.00000000000E+00 0. -1.
</event>
<event>
 6    1  0.5317355E-006  0.1071615E+03  0.7561462E-02  0.1265918E+00
          2   -1    0    0  501    0  0.00000000000E+00  0.00000000000E+00  0.17872946943E+02  0.17872946943E+02  0.00000000000E+00 0. -1.
         -2   -1    0    0    0  501 -0.00000000000E+00 -0.00000000000E+00 -0.72404569130E+03  0.72404569130E+03  0.00000000000E+00 0.  1.
          5    1    1    2  502    0 -0.43712479941E+02 -0.54479213181E+02 -0.24287784016E+03  0.25275656907E+03  0.41800000000E+01 0. -1.
         -5    1    1    2    0  502  0.17598485478E+02  0.54236909731E+02 -0.24443145183E+03  0.25102899456E+03  0.41800000000E+01 0. -1.
        -11    1    1    2    0    0 -0.30507457363E+02  0.14508061078E+01 -0.12349830293E+03  0.12721886896E+03  0.00000000000E+00 0. -1.
         11    1    1    2    0    0  0.56621451827E+02 -0.12085026581E+01 -0.95365149444E+02  0.11091420565E+03  0.00000000000E+00 0.  1.
</event>
<event>
 6    1  0.5317355E-006  0.1344574E+03  0.7561462E-02  0.1220988E+00
         -1   -1    0    0    0  501 -0.00000000000E+00  0.00000000000E+00  0.66141104123E+02  0.66141104123E+02  0.00000000000E+00 0.  1.
          1   -1    0    0  501    0  0.00000000000E+00 -0.00000000000E+00 -0.38065911860E+03  0.38065911860E+03  0.00000000000E+00 0. -1.
          5    1    1    2  502    0 -0.67661870915E+02 -0.26271345046E+02 -0.21805887136E+02  0.75903105733E+02  0.41800000000E+01 0. -1.
         -5    1    1    2    0  502 -0.28227782289E+02  0.79607536864E+02 -0.96192124960E+02  0.12808030654E+03  0.41800000000E+01 0. -1.
        -11    1    1    2    0    0  0.37953050468E+02 -0.32840612413E+02 -0.16749405905E+03  0.17485193645E+03  0.00000000000E+00 0. -1.
         11    1    1    2    0    0  0.57936602736E+02 -0.20495579405E+02 -0.29025943329E+02  0.67964874000E+02  0.00000000000E+00 0.  1.
</event>
<event>
 6    1  0.5317355E-006  0.1118472E+03  0.7561462E-02  0.1257187E+00
          2   -1    0    0  501    0  0.00000000000E+00  0.00000000000E+00  0.64132177920E+03  0.64132177920E+03  0.00000000000E+00 0.  1.
         -2   -1    0    0    0  501 -0.00000000000E+00 -0.00000000000E+00 -0.22716094492E+02  0.22716094492E+02  0.00000000000E+00 0. -1.
          5    1    1    2  502    0 -0.20944291525E+02  0.18625464944E+02  0.25270721368E+02  0.37969106525E+02  0.41800000000E+01 0.  1.
         -5    1    1    2    0  502  0.66625523253E+02 -0.71136372460E+02  0.36187386267E+03  0.37479262096E+03  0.41800000000E+01 0.  1.
        -11    1    1    2    0    0  0.13635263060E+02 -0.56219071813E+01  0.34503700350E+02  0.37523746840E+02  0.00000000000E+00 0.  1.
         11    1    1    2    0    0 -0.59316494788E+02  0.58132814697E+02  0.19695740032E+03  0.21375239938E+03  0.00000000000E+00 0. -1.
</event>
<event>
 6    1  0.5317355E-006  0.1093836E+03  0.7561462E-02  0.1261716E+00
          2   -1    0    0  501    0  0.00000000000E+00  0.00000000000E+00  0.12540447724E+03  0.12540447724E+03  0.00000000000E+00 0. -1.
         -2   -1    0    0    0  501 -0.00000000000E+00 -0.00000000000E+00 -0.14553046372E+03  0.14553046372E+03  0.00000000000E+00 0.  1.
          5    1    1    2  502    0 -0.48911172534E+02  0.83952523347E+02 -0.30358773747E+02  0.10187961778E+03  0.41800000000E+01 0.  1.
         -5    1    1    2    0  502  0.45907448443E+02 -0.11266280335E+02 -0.14961196106E+02  0.49756735062E+02  0.41800000000E+01 0.  1.
        -11    1    1    2    0    0 -0.48629927564E+01 -0.45533678223E+02  0.59349292015E+02  0.74962010470E+02  0.00000000000E+00 0. -1.
         11    1    1    2    0    0  0.78667168472E+01 -0.27152564789E+02 -0.34155308643E+02  0.44336577643E+02  0.00000000000E+00 0.  1.
</event>
<event>
 6    1  0.5317355E-006  0.1628957E+03  0.7561462E-02  0.1185466E+00
          1   -1    0    0  501    0  0.00000000000E+00  0.00000000000E+00  0.11152440544E+03  0.11152440544E+03  0.00000000000E+00 0. -1.
         -1   -1    0    0    0  501 -0.00000000000E+00 -0.00000000000E+00 -0.28558584551E+03  0.28558584551E+03  0.00000000000E+00 0.  1.
          5    1    1    2  502    0  0.10902814486E+02 -0.18130084391E+02 -0.39356531498E+02  0.44877391806E+02  0.41800000000E+01 0.  1.
         -5    1    1    2    0  502 -0.81505698044E+02  0.13424367020E+03 -0.96023306915E+02  0.18412628729E+03  0.41800000000E+01 0.  1.
        -11    1    1    2    0    0  0.24229178039E+02 -0.91433462228E+02 -0.59336142156E+02  0.11165979066E+03  0.00000000000E+00 0.  1.
         11    1    1    2    0    0  0.46373705519E+02 -0.24680123579E+02  0.20654540496E+02  0.56446781188E+02  0.00000000000E+00 0. -1.
</event>
<event>
 6    1  0.5317355E-006  0.1200770E+03  0.7561462E-02  0.1242970E+00
         -2   -1    0    0    0  501 -0.00000000000E+00  0.00000000000E+00  0.62495285572E+02  0.62495285572E+02  0.00000000000E+00 0.  1.
          2   -1    0    0  501    0  0.00000000000E+00 -0.00000000000E+00 -0.23994009499E+03  0.23994009499E+03  0.00000000000E+00 0. -1.
          5    1    1    2  502    0  0.50746849460E+02  0.82254498506E+02 -0.70156022845E+02  0.11950056567E+03  0.41800000000E+01 0.  1.
         -5    1    1    2    0  502 -0.24535055613E+02 -0.31963857360E+02 -0.25407812449E+02  0.47819310584E+02  0.41800000000E+01 0.  1.
        -11    1    1    2    0    0 -0.83459417224E+01  0.24565828090E+02 -0.51712055682E+01  0.26455170005E+02  0.00000000000E+00 0.  1.
         11    1    1    2    0    0 -0.17865852125E+02 -0.74856469236E+02 -0.76709768556E+02  0.10866033430E+03  0.00000000000E+00 0. -1.
</event>
<event>
 6    1  0.5317355E-006  0.1534875E+03  0.7561462E-02  0.1196252E+00
         -2   -1    0    0    0  501 -0.00000000000E+00  0.00000000000E+00  0.36607367303E+02  0.36607367303E+02  0.00000000000E+00 0.  1.
          2   -1    0    0  501    0  0.00000000000E+00 -0.00000000000E+00 -0.77265247529E+03  0.77265247529E+03  0.00000000000E+00 0. -1.
          5    1    1    2  502    0 -0.36186687130E+02 -0.10316683754E+03 -0.12955975011E+03  0.16957615971E+03  0.41800000000E+01 0.  1.
         -5    1    1    2    0  502 -0.46517980633E+02  0.28625922921E+02 -0.10768328714E+03  0.12081609460E+03  0.41800000000E+01 0.  1.
        -11    1    1    2    0    0 -0.66916285185E+01 -0.14897122056E+02 -0.50785447512E+02  0.53346638289E+02  0.00000000000E+00 0.  1.
         11    1    1    2    0    0  0.89396296281E+02  0.89438036679E+02 -0.44801662323E+03  0.46552094999E+03  0.00000000000E+00 0. -1.
</event>
<event>
 6    1  0.5317355E-006  0.1037741E+03  0.7561462E-02  0.1272554E+00
          2   -1    0    0  501    0  0.00000000000E+00  0.00000000000E+00  0.11209673588E+03  0.11209673588E+03  0.00000000000E+00 0. -1.
         -2   -1    0    0    0  501 -0.00000000000E+00 -0.00000000000E+00 -0.20751905235E+03  0.20751905235E+03  0.00000000000E+00 0.  1.
          5    1    1    2  502    0 -0.66555190310E+01  0.46304483138E+02  0.95795928827E+01  0.47933726040E+02  0.41800000000E+01 0. -1.
         -5    1    1    2    0  502  0.57804579295E+02  0.17636677065E+02 -0.13222339214E+03  0.14544043314E+03  0.41800000000E+01 0. -1.
        -11    1    1    2    0    0  0.12404062852E+02 -0.51663665171E+01 -0.22651962781E+02  0.26337492972E+02  0.00000000000E+00 0.  1.
         11    1    1    2    0    0 -0.63553123115E+02 -0.58774793686E+02  0.49873445567E+02  0.99904136067E+02  0.00000000000E+00 0. -1.
</event>
<event>
 6    1  0.5317355E-006  0.9548356E+02  0.7561462E-02  0.1290091E+00
          2   -1    0    0  501    0  0.00000000000E+00  0.00000000000E+00  0.25841929515E+03  0.25841929515E+03  0.00000000000E+00 0.  1.
         -2   -1    0    0    0  501 -0.00000000000E+00 -0.00000000000E+00 -0.58514020245E+02  0.58514020245E+02  0.00000000000E+00 0. -1.
          5    1    1    2  502    0 -0.55411358489E+02 -0.88588857410E+01  0.74589259431E+02  0.93434086546E+02  0.41800000000E+01 0. -1.
         -5    1    1    2    0  502  0.33592469270E+02  0.94248773738E+01 -0.24747702035E+02  0.42979104937E+02  0.41800000000E+01 0. -1.
        -11    1    1    2    0    0  0.61882220552E+01 -0.48626730816E+02  0.85163153606E+02  0.98262992903E+02  0.00000000000E+00 0.  1.
         11    1    1    2    0    0  0.15630667164E+02  0.48060739183E+02  0.64900563900E+02  0.82257131006E+02  0.00000000000E+00 0. -1.
</event>
<event>
 6    1  0.5317355E-006  0.1108120E+03  0.7561462E-02  0.1259074E+00
         -3   -1    0    0    0  501 -0.00000000000E+00  0.00000000000E+00  0.10333579407E+03  0.10333579407E+03  0.00000000000E+00 0.  1.
          3   -1    0    0  501    0  0.00000000000E+00 -0.00000000000E+00 -0.17106545333E+03  0.17106545333E+03  0.00000000000E+00 0. -1.
          5    1    1    2  502    0  0.68157377202E+02  0.42549684336E+02 -0.31123644931E+02  0.86267359864E+02  0.41800000000E+01 0.  1.
         -5    1    1    2    0  502 -0.44843606959E+02  0.22788279907E+02  0.26172614487E+02  0.56857127393E+02  0.41800000000E+01 0.  1.
        -11    1    1    2    0    0 -0.23389424715E+02 -0.76261598663E+02 -0.78642341229E+02  0.11201568842E+03  0.00000000000E+00 0. -1.
         11    1    1    2    0    0  0.75654471480E-01  0.10923634420E+02  0.15863712409E+02  0.19261071723E+02  0.00000000000E+00 0.  1.
</event>
<event>
 6    1  0.5317355E-006  0.1242320E+03  0.7561462E-02  0.1236274E+00
          1   -1    0    0  501    0  0.00000000000E+00  0.00000000000E+00  0.79535379810E+03  0.79535379810E+03  0.00000000000E+00 0. -1.
         -1   -1    0    0    0  501 -0.00000000000E+00 -0.00000000000E+00 -0.25117254619E+02  0.25117254619E+02  0.00000000000E+00 0.  1.
          5    1    1    2  502    0 -0.13469960968E+02  0.44783914431E+02  0.23080263128E+03  0.23552996804E+03  0.41800000000E+01 0. -1.
         -5    1    1    2    0  502 -0.76491014613E+02 -0.50019316040E+02  0.15576925072E+03  0.18064976935E+03  0.41800000000E+01 0. -1.
        -11    1    1    2    0    0  0.32164566116E+02 -0.28608243617E+02  0.60451548147E+02  0.74211728114E+02  0.00000000000E+00 0.  1.
         11    1    1    2    0    0  0.57796409465E+02  0.33843645226E+02  0.32321311333E+03  0.33007958722E+03  0.00000000000E+00 0. -1.
</event>
<event>
 6    1  0.5317355E-006  0.1656977E+03  0.7561462E-02  0.1182410E+00
          1   -1    0    0  501    0  0.00000000000E+00  0.00000000000E+00  0.12170601366E+03  0.12170601366E+03  0.00000000000E+00 0. -1.
         -1   -1    0    0    0  501 -0.00000000000E+00 -0.00000000000E+00 -0.25969415363E+03  0.25969415363E+03  0.00000000000E+00 0.  1.
          5    1    1    2  502    0 -0.60369672495E+02 -0.21706103143E+02 -0.64163231189E+02  0.90829757829E+02  0.41800000000E+01 0. -1.
         -5    1    1    2    0  502  0.26656282913E+02 -0.11211382259E+03 -0.36872575930E+02  0.12106661757E+03  0.41800000000E+01 0. -1.
        -11    1    1    2    0    0 -0.13646181629E+02  0.49866689099E+01 -0.28490229649E+02  0.31980905636E+02  0.00000000000E+00 0.  1.
         11    1    1    2    0    0  0.47359571211E+02  0.12883325683E+03 -0.84621032018E+01  0.13752288624E+03  0.00000000000E+00 0. -1.
</event>
<event>
 6    1  0.5317355E-006  0.5342060E+02  0.7561462E-02  0.1427719E+00
          2   -1    0    0  501    0  0.00000000000E+00  0.00000000000E+00  0.40576659578E+03  0.40576659578E+03  0.00000000000E+00 0. -1.
         -2   -1    0    0    0  501 -0.00000000000E+00 -0.00000000000E+00 -0.29633959427E+02  0.29633959427E+02  0.00000000000E+00 0.  1.
          5    1    1    2  502    0  0.25304159475E+02  0.81402928003E+01  0.20818990478E+03  0.20992158943E+03  0.41800000000E+01 0.  1.
         -5    1    1    2    0  502 -0.13470683691E+02 -0.22753304997E+02 -0.70558247268E+01  0.27684458997E+02  0.41800000000E+01 0.  1.
        -11    1    1    2    0    0 -0.24074675263E+02  0.26706223418E+02  0.17686815717E+03  0.18048589246E+03  0.00000000000E+00 0. -1.
         11    1    1    2    0    0  0.12241199479E+02 -0.12093211221E+02 -0.18696008701E+01  0.17308614321E+02  0.00000000000E+00 0.  1.
</event>
<event>
 6    1  0.5317355E-006  0.1792397E+03  0.7561462E-02  0.1168541E+00
          3   -1    0    0  501    0  0.00000000000E+00  0.00000000000E+00  0.29797070013E+03  0.29797070013E+03  0.00000000000E+00 0. -1.
         -3   -1    0    0    0  501 -0.00000000000E+00 -0.00000000000E+00 -0.14216259603E+03  0.14216259603E+03  0.00000000000E+00 0.  1.
          5    1    1    2  502    0 -0.45534548091E+02  0.11029000662E+02 -0.40914341429E+02  0.62341716852E+02  0.41800000000E+01 0. -1.
         -5    1    1    2    0  502 -0.11307147023E+03  0.57716884176E+02  0.92656626880E+02  0.15722315034E+03  0.41800000000E+01 0. -1.
        -11    1    1    2    0    0  0.37091129288E+02 -0.48777988065E+02  0.31556513168E+01  0.61359613156E+02  0.00000000000E+00 0.  1.
         11    1    1    2    0    0  0.12151488903E+03 -0.19967896774E+02  0.10091016733E+03  0.15920881580E+03  0.00000000000E+00 0. -1.
</event>
<event>
 6    1  0.5317355E-006  0.1275317E+03  0.7561462E-02  0.1231165E+00
         -1   -1    0    0    0  501 -0.00000000000E+00  0.00000000000E+00  0.66998683579E+02  0.66998683579E+02  0.00000000000E+00 0.  1.
          1   -1    0    0  501    0  0.00000000000E+00 -0.00000000000E+00 -0.38807306296E+03  0.38807306296E+03  0.00000000000E+00 0. -1.
          5    1    1    2  502    0  0.21812245708E+02 -0.12224856895E+03 -0.60049993899E+02  0.13799985811E+03  0.41800000000E+01 0. -1.
         -5    1    1    2    0  502  0.58520915191E+00  0.57190221508E+01 -0.90844110270E+02  0.91121756211E+02  0.41800000000E+01 0. -1.
        -11    1    1    2    0    0  0.95262216669E+01  0.23830444316E+02  0.40961976713E+01  0.25988801644E+02  0.00000000000E+00 0.  1.
         11    1    1    2    0    0 -0.31923676527E+02  0.92699102479E+02 -0.17427647288E+03  0.19996133057E+03  0.00000000000E+00 0. -1.
</event>
<event>
 6    1  0.5317355E-006  0.2583632E+03  0.7561462E-02  0.1108131E+00
          2   -1    0    0  501    0  0.00000000000E+00  0.00000000000E+00  0.21169226314E+03  0.21169226314E+03  0.00000000000E+00 0. -1.
         -2   -1    0    0    0  501 -0.00000000000E+00 -0.00000000000E+00 -0.38078096394E+03  0.38078096394E+03  0.00000000000E+00 0.  1.
          5    1    1    2  502    0 -0.11419035512E+02  0.13454907840E+03 -0.14136219127E+03  0.19553667275E+03  0.41800000000E+01 0. -1.
         -5    1    1    2    0  502  0.71966435476E+02  0.10670772146E+03 -0.32857848403E+02  0.13290152842E+03  0.41800000000E+01 0. -1.
        -11    1    1    2    0    0  0.57879623896E+01 -0.51732554537E+02 -0.30157066294E+02  0.60159840051E+02  0.00000000000E+00 0.  1.
         11    1    1    2    0    0 -0.66335362353E+02 -0.18952424533E+03  0.35288405162E+02  0.20387518585E+03  0.00000000000E+00 0. -1.
</event>
<event>
 6    1  0.5317355E-006  0.1458524E+03  0.7561462E-02  0.1205664E+00
          1   -1    0    0  501    0  0.00000000000E+00  0.00000000000E+00  0.41376890365E+03  0.41376890365E+03  0.00000000000E+00 0. -1.
         -1   -1    0    0    0  501 -0.00000000000E+00 -0.00000000000E+00 -0.94006531145E+02  0.94006531145E+02  0.00000000000E+00 0.  1.
          5    1    1    2  502    0 -0.22542563562E+02 -0.12332859390E+02 -0.38013936737E+02  0.46073836164E+02  0.41800000000E+01 0.  1.
         -5    1    1    2    0  502 -0.10142988145E+03  0.56905219322E+02  0.77544369214E+02  0.13984572369E+03  0.41800000000E+01 0.  1.
        -11    1    1    2    0    0  0.72924579649E+01 -0.30977845398E+02  0.11364637507E+03  0.11801824188E+03  0.00000000000E+00 0.  1.
         11    1    1    2    0    0  0.11667998705E+03 -0.13594514534E+02  0.16658556496E+03  0.20383763307E+03  0.00000000000E+00 0. -1.
</event>
<event>
 6    1  0.5317355E-006  0.5287187E+02  0.7561462E-02  0.1430440E+00
         -2   -1    0    0    0  501 -0.00000000000E+00  0.00000000000E+00  0.83674706251E+02  0.83674706251E+02  0.00000000000E+00 0.  1.
          2   -1    0    0  501    0  0.00000000000E+00 -0.00000000000E+00 -0.18156447790E+03  0.18156447790E+03  0.00000000000E+00 0. -1.
          5    1    1    2  502    0  0.15554135442E+02  0.18469713132E+01 -0.57162574900E+02  0.59416957189E+02  0.41800000000E+01 0.  1.
         -5    1    1    2    0  502 -0.13984274672E+02  0.14855387847E+02  0.63631180240E+02  0.66952535314E+02  0.41800000000E+01 0.  1.
        -11    1    1    2    0    0  0.24615869846E+02  0.14028072481E+02 -0.15009633265E+01  0.28372182798E+02  0.00000000000E+00 0. -1.
         11    1    1    2    0    0 -0.26185730615E+02 -0.30730431641E+02 -0.10285741366E+03  0.11049750885E+03  0.00000000000E+00 0.  1.
</event>
<event>
 6    1  0.5317355E-006  0.9600405E+02  0.7561462E-02  0.1288931E+00
         -2   -1    0    0    0  501 -0.00000000000E+00  0.00000000000E+00  0.59753137696E+02  0.59753137696E+02  0.00000000000E+00 0.  1.
          2   -1    0    0  501    0  0.00000000000E+00 -0.00000000000E+00 -0.80975156089E+03  0.80975156089E+03  0.00000000000E+00 0. -1.
          5    1    1    2  502    0  0.37563109997E+02  0.83159208059E+01 -0.57197618862E+03  0.57328385162E+03  0.41800000000E+01 0. -1.
         -5    1    1    2    0  502 -0.63873869399E+02 -0.14483453012E+01  0.28671977846E+02  0.70153571611E+02  0.41800000000E+01 0.  1.
        -11    1    1    2    0    0 -0.11219925153E+02  0.32804746008E+02 -0.10587406250E+03  0.11140626190E+03  0.00000000000E+00 0. -1.
         11    1    1    2    0    0  0.37530684556E+02 -0.39672321513E+02 -0.10082014992E+03  0.11466101346E+03  0.00000000000E+00 0.  1.
</event>
<event>
 6    1  0.5317355E-006  0.3238557E+03  0.7561462E-02  0.1073888E+00
          1   -1    0    0  501    0  0.00000000000E+00  0.00000000000E+00  0.18233938535E+03  0.18233938535E+03  0.00000000000E+00 0. -1.
         -1   -1    0    0    0  501 -0.00000000000E+00 -0.00000000000E+00 -0.66982223147E+03  0.66982223147E+03  0.00000000000E+00 0.  1.
          5    1    1    2  502    0  0.18303988861E+03 -0.18812501337E+03 -0.34022515558E+03  0.42972694862E+03  0.41800000000E+01 0.  1.
         -5    1    1    2    0  502 -0.10948990462E+02 -0.66176731389E+02 -0.60949823507E+02  0.90728129900E+02  0.41800000000E+01 0.  1.
        -11    1    1    2    0    0 -0.17441063392E+03  0.20719519300E+03 -0.58911561824E+02  0.27716329003E+03  0.00000000000E+00 0.  1.
         11    1    1    2    0    0  0.23197357721E+01  0.47106551764E+02 -0.27396305209E+02  0.54543248273E+02  0.00000000000E+00 0. -1.
</event>
<event>
 6    1  0.5317356E-006  0.2695674E+03  0.7561462E-02  0.1101527E+00
          2   -1    0    0  501    0  0.00000000000E+00  0.00000000000E+00  0.11516113283E+04  0.11516113283E+04  0.00000000000E+00 0. -1.
         -2   -1    0    0    0  501 -0.00000000000E+00 -0.00000000000E+00 -0.71817861571E+02  0.71817861571E+02  0.00000000000E+00 0.  1.
          5    1    1    2  502    0 -0.13979945062E+03 -0.19135039035E+03  0.34092164476E+03  0.41521548448E+03  0.41800000000E+01 0.  1.
         -5    1    1    2    0  502 -0.44137121227E+02  0.14036153167E+02  0.50414411126E+02  0.68587056469E+02  0.41800000000E+01 0.  1.
        -11    1    1    2    0    0  0.13149029716E+03  0.13179380581E+03  0.59329938364E+03  0.62182269509E+03  0.00000000000E+00 0. -1.
         11    1    1    2    0    0  0.52446274690E+02  0.45520431370E+02  0.95158027239E+02  0.11780395388E+03  0.00000000000E+00 0.  1.
</event>
<event>
 6    1  0.5317355E-006  0.1352898E+03  0.7561462E-02  0.1219811E+00
         -1   -1    0    0    0  501 -0.00000000000E+00  0.00000000000E+00  0.30752826077E+03  0.30752826077E+03  0.00000000000E+00 0.  1.
          1   -1    0    0  501    0  0.00000000000E+00 -0.00000000000E+00 -0.68655456859E+02  0.68655456859E+02  0.00000000000E+00 0. -1.
          5    1    1    2  502    0 -0.26959981096E+02  0.55425608811E+02  0.47190481186E+02  0.77738359947E+02  0.41800000000E+01 0. -1.
         -5    1    1    2    0  502  0.82242038952E+02  0.13775049818E+02  0.13591651024E+03  0.15951261745E+03  0.41800000000E+01 0.  1.
        -11    1    1    2    0    0 -0.73949965182E+02 -0.26236361890E+02  0.23005074358E+02  0.81769049657E+02  0.00000000000E+00 0. -1.
         11    1    1    2    0    0  0.18667907325E+02 -0.42964296738E+02  0.32760738129E+02  0.57163690581E+02  0.00000000000E+00 0.  1.
</event>
<event>
 6    1  0.5317355E-006  0.1161514E+03  0.7561462E-02  0.1249585E+00
         -2   -1    0    0    0  501 -0.00000000000E+00  0.00000000000E+00  0.10101678988E+02  0.10101678988E+02  0.00000000000E+00 0.  1.
          2   -1    0    0  501    0  0.00000000000E+00 -0.00000000000E+00 -0.13991785025E+04  0.13991785025E+04  0.00000000000E+00 0. -1.
          5    1    1    2  502    0 -0.74212643060E+01 -0.88327729721E+02 -0.64343278907E+03  0.64952297069E+03  0.41800000000E+01 0. -1.
         -5    1    1    2    0  502  0.16011265363E+01  0.39867116113E+02 -0.15413913010E+03  0.15927427407E+03  0.41800000000E+01 0. -1.
        -11    1    1    2    0    0  0.44493552258E+02  0.47038712880E+02 -0.37173413916E+03  0.37733087194E+03  0.00000000000E+00 0. -1.
         11    1    1    2    0    0 -0.38673414488E+02  0.14219007282E+01 -0.21977076515E+03  0.22315206476E+03  0.00000000000E+00 0.  1.
</event>
<event>
 6    1  0.5317355E-006  0.9667525E+02  0.7561462E-02  0.1287447E+00
          3   -1    0    0  501    0  0.00000000000E+00  0.00000000000E+00  0.53969389613E+02  0.53969389613E+02  0.00000000000E+00 0. -1.
         -3   -1    0    0    0  501 -0.00000000000E+00 -0.00000000000E+00 -0.22603929219E+03  0.22603929219E+03  0.00000000000E+00 0.  1.
          5    1    1    2  502    0 -0.28990060309E+02 -0.49753251099E+02 -0.47170386822E+02  0.74554190925E+02  0.41800000000E+01 0. -1.
         -5    1    1    2    0  502  0.18181834319E+02  0.65712405901E+02 -0.72973716601E+02  0.99956666126E+02  0.41800000000E+01 0. -1.
        -11    1    1    2    0    0  0.10154402902E+02 -0.41009339579E+02  0.57273694038E+01  0.42634265460E+02  0.00000000000E+00 0. -1.
         11    1    1    2    0    0  0.65382308827E+00  0.25050184776E+02 -0.57653168553E+02  0.62863559287E+02  0.00000000000E+00 0.  1.
</event>
<event>
 6    1  0.5317355E-006  0.2644329E+03  0.7561462E-02  0.1104509E+00
         -2   -1    0    0    0  501 -0.00000000000E+00  0.00000000000E+00  0.11929522595E+03  0.11929522595E+03  0.00000000000E+00 0.  1.
          2   -1    0    0  501    0  0.00000000000E+00 -0.00000000000E+00 -0.68952390590E+03  0.68952390590E+03  0.00000000000E+00 0. -1.
          5    1    1    2  502    0  0.67751077801E+01  0.53153204343E+02 -0.13711606476E+03  0.14727339486E+03  0.41800000000E+01 0. -1.
         -5    1    1    2    0  502 -0.22031686146E+03 -0.93609197803E+02 -0.11507978361E+03  0.26563702745E+03  0.41800000000E+01 0.  1.
        -11    1    1    2    0    0  0.16991947724E+03  0.69192791851E+02 -0.25201751106E+03  0.31172599678E+03  0.00000000000E+00 0. -1.
         11    1    1    2    0    0  0.43622276443E+02 -0.28736798391E+02 -0.66015320515E+02  0.84182712753E+02  0.00000000000E+00 0.  1.
</event>
<event>
 6    1  0.5317355E-006  0.1223815E+03  0.7561462E-02  0.1239219E+00
          1   -1    0    0  501    0  0.00000000000E+00  0.00000000000E+00  0.22075132177E+03  0.22075132177E+03  0.00000000000E+00 0. -1.
         -1   -1    0    0    0  501 -0.00000000000E+00 -0.00000000000E+00 -0.84072231341E+02  0.84072231341E+02  0.00000000000E+00 0.  1.
          5    1    1    2  502    0  0.42035266985E+02  0.51470395480E+02  0.30197521018E+01  0.66654006512E+02  0.41800000000E+01 0.  1.
         -5    1    1    2    0  502 -0.73587682908E+02  0.21440686797E+02  0.45552153449E+02  0.89259852173E+02  0.41800000000E+01 0.  1.
        -11    1    1    2    0    0  0.51000232404E+02 -0.54370643780E+02  0.95396659289E+02  0.12106904317E+03  0.00000000000E+00 0. -1.
         11    1    1    2    0    0 -0.19447816481E+02 -0.18540438496E+02 -0.72894744070E+01  0.27840651261E+02  0.00000000000E+00 0.  1.
</event>
<event>
 6    1  0.5317355E-006  0.7099847E+02  0.7561462E-02  0.1356730E+00
         -2   -1    0    0    0  501 -0.00000000000E+00  0.00000000000E+00  0.21687097897E+03  0.21687097897E+03  0.00000000000E+00 0.  1.
          2   -1    0    0  501    0  0.00000000000E+00 -0.00000000000E+00 -0.85913832842E+02  0.85913832842E+02  0.00000000000E+00 0. -1.
          5    1    1    2  502    0 -0.15837603330E+02  0.58829557664E+02 -0.24913844090E+02  0.65953912405E+02  0.41800000000E+01 0. -1.
         -5    1    1    2    0  502  0.94625919474E+01 -0.13816366103E+02  0.16979845555E+03  0.17067343239E+03  0.41800000000E+01 0.  1.
        -11    1    1    2    0    0  0.25645187492E+02 -0.27925673789E+02 -0.13958307932E+02  0.40402391741E+02  0.00000000000E+00 0. -1.
         11    1    1    2    0    0 -0.19270176109E+02 -0.17087517773E+02  0.30842599607E-01  0.25755075270E+02  0.00000000000E+00 0.  1.
</event>
<event>
 6    1  0.5317355E-006  0.1025088E+03  0.7561462E-02  0.1275107E+00
          2   -1    0    0  501    0  0.00000000000E+00  0.00000000000E+00  0.15851976130E+03  0.15851976130E+03  0.00000000000E+00 0. -1.
         -2   -1    0    0    0  501 -0.00000000000E+00 -0.00000000000E+00 -0.92814687749E+02  0.92814687749E+02  0.00000000000E+00 0.  1.
          5    1    1    2  502    0  0.75993423720E+02  0.41759547871E+02 -0.75285824039E+01  0.87137892103E+02  0.41800000000E+01 0.  1.
         -5    1    1    2    0  502 -0.32149412472E+02 -0.26965032168E+02  0.20434359323E+02  0.46858650461E+02  0.41800000000E+01 0.  1.
        -11    1    1    2    0    0 -0.38664971951E+02  0.18132275396E+02 -0.12093982559E+02  0.44384951066E+02  0.00000000000E+00 0.  1.
         11    1    1    2    0    0 -0.51790392976E+01 -0.32926791100E+02  0.64893279187E+02  0.72952955415E+02  0.00000000000E+00 0. -1.
</event>
<event>
 6    1  0.5317355E-006  0.8570454E+02  0.7561462E-02  0.1313600E+00
         -2   -1    0    0    0  501 -0.00000000000E+00  0.00000000000E+00  0.56524035675E+03  0.56524035675E+03  0.00000000000E+00 0.  1.
          2   -1    0    0  501    0  0.00000000000E+00 -0.00000000000E+00 -0.24558818558E+02  0.24558818558E+02  0.00000000000E+00 0. -1.
          5    1    1    2  502    0  0.41242173364E+02  0.19654607032E+02  0.37699845774E+02  0.59379888959E+02  0.41800000000E+01 0. -1.
         -5    1    1    2    0  502 -0.23221061612E+02  0.19292964411E+02  0.32892107300E+03  0.33033010890E+03  0.41800000000E+01 0.  1.
        -11    1    1    2    0    0 -0.47073838722E+02 -0.77109697775E+00  0.59386968197E+02  0.75784911916E+02  0.00000000000E+00 0.  1.
         11    1    1    2    0    0  0.29052726969E+02 -0.38176474465E+02  0.11467365121E+03  0.12430426553E+03  0.00000000000E+00 0. -1.
</event>
<event>
 6    1  0.5317355E-006  0.1132391E+03  0.7561462E-02  0.1254687E+00
          1   -1    0    0  501    0  0.00000000000E+00  0.00000000000E+00  0.44366507741E+02  0.44366507741E+02  0.00000000000E+00 0. -1.
         -1   -1    0    0    0  501 -0.00000000000E+00 -0.00000000000E+00 -0.33618312685E+03  0.33618312685E+03  0.00000000000E+00 0.  1.
          5    1    1    2  502    0  0.20179730514E+02  0.48862333679E+02 -0.26965777851E+02  0.59492644514E+02  0.41800000000E+01 0.  1.
         -5    1    1    2    0  502  0.33859489078E+02 -0.56866597093E+02 -0.14994005354E+03  0.16395050144E+03  0.41800000000E+01 0.  1.
        -11    1    1    2    0    0  0.20550839506E+02  0.23217797530E+02 -0.33792054780E+02  0.45861815194E+02  0.00000000000E+00 0.  1.
         11    1    1    2    0    0 -0.74590059099E+02 -0.15213534116E+02 -0.81118732933E+02  0.11124467344E+03  0.00000000000E+00 0. -1.
</event>
<event>
 6    1  0.5317355E-006  0.1498290E+03  0.7561462E-02  0.1200683E+00
          1   -1    0    0  501    0  0.00000000000E+00  0.00000000000E+00  0.32672693917E+03  0.32672693917E+03  0.00000000000E+00 0. -1.
         -1   -1    0    0    0  501 -0.00000000000E+00 -0.00000000000E+00 -0.11645892719E+03  0.11645892719E+03  0.00000000000E+00 0.  1.
          5    1    1    2  502    0  0.52916396336E+02 -0.96109724924E+02 -0.48392593960E+02  0.11998558154E+03  0.41800000000E+01 0. -1.
         -5    1    1    2    0  502 -0.17480561499E+02 -0.27692232339E+02  0.49560950461E+02  0.59549894819E+02  0.41800000000E+01 0. -1.
        -11    1    1    2    0    0  0.18984211203E+02  0.91749038147E+02  0.96202829567E+02  0.13428801396E+03  0.00000000000E+00 0. -1.
         11    1    1    2    0    0 -0.54420046040E+02  0.32052919117E+02  0.11289682591E+03  0.12936237605E+03  0.00000000000E+00 0.  1.
</event>
<event>
 6    1  0.5317355E-006  0.5493056E+02  0.7561462E-02  0.1420428E+00
          1   -1    0    0  501    0  0.00000000000E+00  0.00000000000E+00  0.66681125689E+02  0.66681125689E+02  0.00000000000E+00 0. -1.
         -1   -1    0    0    0  501 -0.00000000000E+00 -0.00000000000E+00 -0.19797517371E+03  0.19797517371E+03  0.00000000000E+00 0.  1.
          5    1    1    2  502    0 -0.28559809140E+01 -0.36963702678E+01  0.28368045913E+02  0.29052335691E+02  0.41800000000E+01 0.  1.
         -5    1    1    2    0  502 -0.18282061272E+02  0.23612190637E+02 -0.13364521726E+03  0.13700469265E+03  0.41800000000E+01 0.  1.
        -11    1    1    2    0    0 -0.24765960958E+02 -0.77523281806E+01 -0.41244409246E+02  0.48729382393E+02  0.00000000000E+00 0.  1.
         11    1    1    2    0    0  0.45904003144E+02 -0.12163492189E+02  0.15227532575E+02  0.49869888663E+02  0.00000000000E+00 0. -1.
</event>
<event>
 6    1  0.5317355E-006  0.8561285E+02  0.7561462E-02  0.1313838E+00
         -2   -1    0    0    0  501 -0.00000000000E+00  0.00000000000E+00  0.19443400791E+03  0.19443400791E+03  0.00000000000E+00 0.  1.
          2   -1    0    0  501    0  0.00000000000E+00 -0.00000000000E+00 -0.78293785980E+02  0.78293785980E+02  0.00000000000E+00 0. -1.
          5    1    1    2  502    0 -0.47395120341E+02  0.11371464742E+02  0.11494354160E+03  0.12492036583E+03  0.41800000000E+01 0.  1.
         -5    1    1    2    0  502  0.14211844760E+02  0.30286536617E+02 -0.21554676409E+02  0.40016587896E+02  0.41800000000E+01 0.  1.
        -11    1    1    2    0    0 -0.20684218105E+02 -0.31390410624E+00  0.33169574459E+02  0.39091637011E+02  0.00000000000E+00 0.  1.
         11    1    1    2    0    0  0.53867493686E+02 -0.41344097253E+02 -0.10418217721E+02  0.68699203156E+02  0.00000000000E+00 0. -1.
</event>
<event>
 6    1  0.5317355E-006  0.3584585E+03  0.7561462E-02  0.1059196E+00
          2   -1    0    0  501    0  0.00000000000E+00  0.00000000000E+00  0.12214859566E+04  0.12214859566E+04  0.00000000000E+00 0. -1.
         -2   -1    0    0    0  501 -0.00000000000E+00 -0.00000000000E+00 -0.11375103276E+03  0.11375103276E+03  0.00000000000E+00 0.  1.
          5    1    1    2  502    0 -0.17179590752E+02 -0.32431893545E+02  0.13575742111E+03  0.14069298434E+03  0.41800000000E+01 0. -1.
         -5    1    1    2    0  502 -0.15354267902E+03 -0.27620202266E+03  0.33246402544E+03  0.45870765441E+03  0.41800000000E+01 0. -1.
        -11    1    1    2    0    0  0.15082119688E+03  0.18487470278E+03  0.41440761602E+03  0.47818339721E+03  0.00000000000E+00 0. -1.
         11    1    1    2    0    0  0.19901072894E+02  0.12375921343E+03  0.22510586130E+03  0.25765295342E+03  0.00000000000E+00 0.  1.
</event>
<event>
 6    1  0.5317355E-006  0.8144417E+02  0.7561462E-02  0.1325002E+00
         -1   -1    0    0    0  501 -0.00000000000E+00  0.00000000000E+00  0.82232658505E+02  0.82232658505E+02  0.00000000000E+00 0.  1.
          1   -1    0    0  501    0  0.00000000000E+00 -0.00000000000E+00 -0.25852144729E+03  0.25852144729E+03  0.00000000000E+00 0. -1.
          5    1    1    2  502    0  0.25565162432E+02 -0.27262810568E+02  0.60520387635E+02  0.71253267222E+02  0.41800000000E+01 0. -1.
         -5    1    1    2    0  502 -0.31999414008E+02 -0.40855446659E+01 -0.38093178201E+02  0.50092083182E+02  0.41800000000E+01 0.  1.
        -11    1    1    2    0    0 -0.16322060321E+02  0.56513768314E+02 -0.11790442984E+03  0.13176369089E+03  0.00000000000E+00 0.  1.
         11    1    1    2    0    0  0.22756311896E+02 -0.25165413080E+02 -0.80811568381E+02  0.87645064498E+02  0.00000000000E+00 0. -1.
</event>
<event>
 6    1  0.5317355E-006  0.1412539E+03  0.7561462E-02  0.1211652E+00
         -1   -1    0    0    0  501 -0.00000000000E+00  0.00000000000E+00  0.43652643375E+03  0.43652643375E+03  0.00000000000E+00 0.  1.
          1   -1    0    0  501    0  0.00000000000E+00 -0.00000000000E+00 -0.86792482050E+02  0.86792482050E+02  0.00000000000E+00 0. -1.
          5    1    1    2  502    0  0.11326808244E+02  0.14264839603E+01 -0.12023805153E+02  0.17098997978E+02  0.41800000000E+01 0.  1.
         -5    1    1    2    0  502  0.12519445582E+03  0.29642310903E+02  0.30279302188E+03  0.32901885183E+03  0.41800000000E+01 0.  1.
        -11    1    1    2    0    0 -0.27860421605E+02  0.23064923141E+01 -0.23700264185E+02  0.36650041217E+02  0.00000000000E+00 0. -1.
         11    1    1    2    0    0 -0.10866084246E+03 -0.33375287178E+02  0.82664999156E+02  0.14055102477E+03  0.00000000000E+00 0.  1.
</event>
<event>
 6    1  0.5317355E-006  0.8431261E+02  0.7561462E-02  0.1317240E+00
         -2   -1    0    0    0  501 -0.00000000000E+00  0.00000000000E+00  0.29556269331E+02  0.29556269331E+02  0.00000000000E+00 0. -1.
          2   -1    0    0  501    0  0.00000000000E+00 -0.00000000000E+00 -0.53320640695E+03  0.53320640695E+03  0.00000000000E+00 0.  1.
          5    1    1    2  502    0  0.23995195878E+02 -0.45638147901E+01  0.11485038187E+02  0.27312567305E+02  0.41800000000E+01 0.  1.
         -5    1    1    2    0  502 -0.42138520524E+02 -0.25197534519E+02 -0.17324517116E+03  0.18011644120E+03  0.41800000000E+01 0.  1.
        -11    1    1    2    0    0 -0.35809397486E+02  0.11532876859E+02 -0.10032926259E+03  0.10715074022E+03  0.00000000000E+00 0. -1.
         11    1    1    2    0    0  0.53952722133E+02  0.18228472451E+02 -0.24156074205E+03  0.24818292756E+03  0.00000000000E+00 0.  1.
</event>
<event>
 6    1  0.5317355E-006  0.9398522E+02  0.7561462E-02  0.1293478E+00
         -2   -1    0    0    0  501 -0.00000000000E+00  0.00000000000E+00  0.61829584508E+03  0.61829584508E+03  0.00000000000E+00 0.  1.
          2   -1    0    0  501    0  0.00000000000E+00 -0.00000000000E+00 -0.35749666868E+02  0.35749666868E+02  0.00000000000E+00 0. -1.
          5    1    1    2  502    0 -0.43355629342E+02  0.71742034566E+02  0.15765257652E+03  0.17860133651E+03  0.41800000000E+01 0. -1.
         -5    1    1    2    0  502  0.11034182836E+02 -0.91911021966E+01  0.31527690120E+03  0.31563147241E+03  0.41800000000E+01 0. -1.
        -11    1    1    2    0    0  0.47674998232E+02 -0.51419772593E+02  0.11940477026E+03  0.13847164920E+03  0.00000000000E+00 0.  1.
         11    1    1    2    0    0 -0.15353551726E+02 -0.11131159776E+02 -0.97880697695E+01  0.21341053825E+02  0.00000000000E+00 0. -1.
</event>
<event>
 6    1  0.5317355E-006  0.7803026E+02  0.7561462E-02  0.1334736E+00
          2   -1    0    0  501    0  0.00000000000E+00  0.00000000000E+00  0.11322566625E+03  0.11322566625E+03  0.00000000000E+00 0. -1.
         -2   -1    0    0    0  501 -0.00000000000E+00 -0.00000000000E+00 -0.13677369889E+03  0.13677369889E+03  0.00000000000E+00 0.  1.
          5    1    1    2  502    0 -0.30265763993E+02  0.55738729414E+01  0.20655067275E+02  0.37298642519E+02  0.41800000000E+01 0. -1.
         -5    1    1    2    0  502  0.38581053344E+02 -0.39893751449E+01 -0.10148157825E+03  0.10872164419E+03  0.41800000000E+01 0.  1.
        -11    1    1    2    0    0 -0.45493173085E+02 -0.12619203107E+02  0.38355297722E+02  0.60827641313E+02  0.00000000000E+00 0. -1.
         11    1    1    2    0    0  0.37177883734E+02  0.11034705311E+02  0.18923180619E+02  0.43151437113E+02  0.00000000000E+00 0.  1.
</event>
<event>
 6    1  0.5317355E-006  0.1680115E+03  0.7561462E-02  0.1179938E+00
         -1   -1    0    0    0  501 -0.00000000000E+00  0.00000000000E+00  0.35053562999E+03  0.35053562999E+03  0.00000000000E+00 0.  1.
          1   -1    0    0  501    0  0.00000000000E+00 -0.00000000000E+00 -0.20473691122E+03  0.20473691122E+03  0.00000000000E+00 0. -1.
          5    1    1    2  502    0  0.30297207076E+02  0.40795736684E+02  0.56521818796E+01  0.51299439063E+02  0.41800000000E+01 0.  1.
         -5    1    1    2    0  502  0.14149340275E+02  0.11816409786E+03  0.25646136433E+03  0.28275937057E+03  0.41800000000E+01 0.  1.
        -11    1    1    2    0    0 -0.38891321783E+02 -0.10985379321E+03 -0.12515584606E+03  0.17100987280E+03  0.00000000000E+00 0.  1.
         11    1    1    2    0    0 -0.55552255676E+01 -0.49106041328E+02  0.88410186262E+01  0.50203858779E+02  0.00000000000E+00 0. -1.
</event>
<event>
 6    1  0.5317355E-006  0.1155372E+03  0.7561462E-02  0.1250646E+00
         -1   -1    0    0    0  501 -0.00000000000E+00  0.00000000000E+00  0.28980365186E+02  0.28980365186E+02  0.00000000000E+00 0.  1.
          1   -1    0    0  501    0  0.00000000000E+00 -0.00000000000E+00 -0.48470579059E+03  0.48470579059E+03  0.00000000000E+00 0. -1.
          5    1    1    2  502    0  0.52358385140E+02 -0.11159608155E+02 -0.12314993993E+03  0.13434774823E+03  0.41800000000E+01 0. -1.
         -5    1    1    2    0  502 -0.71114556424E+02 -0.33620813732E+02 -0.12478819954E+03  0.14757102153E+03  0.41800000000E+01 0. -1.
        -11    1    1    2    0    0  0.48571199091E+01  0.69807790117E+02 -0.11453661757E+03  0.13422129465E+03  0.00000000000E+00 0.  1.
         11    1    1    2    0    0  0.13899051375E+02 -0.25027368230E+02 -0.93250668368E+02  0.97546091365E+02  0.00000000000E+00 0. -1.
</event>
<event>
 6    1  0.5317355E-006  0.8800163E+02  0.7561462E-02  0.1307764E+00
          1   -1    0    0  501    0  0.00000000000E+00  0.00000000000E+00  0.64352131414E+02  0.64352131414E+02  0.00000000000E+00 0. -1.
         -1   -1    0    0    0  501 -0.00000000000E+00 -0.00000000000E+00 -0.18678841545E+03  0.18678841545E+03  0.00000000000E+00 0.  1.
          5    1    1    2  502    0  0.56848726046E+02  0.36842891472E+02 -0.15203293384E+02  0.69554215076E+02  0.41800000000E+01 0. -1.
         -5    1    1    2    0  502 -0.39259523294E+02 -0.27995768956E+02 -0.62334650264E+02  0.78918656047E+02  0.41800000000E+01 0. -1.
        -11    1    1    2    0    0 -0.35911129595E+02 -0.16934405057E+02  0.12701121894E+02  0.41685750573E+02  0.00000000000E+00 0. -1.
         11    1    1    2    0    0  0.18321926843E+02  0.80872825411E+01 -0.57599462283E+02  0.60981925170E+02  0.00000000000E+00 0.  1.
</event>
<event>
 6    1  0.5317355E-006  0.7674914E+02  0.7561462E-02  0.1338539E+00
          4   -1    0    0  501    0  0.00000000000E+00  0.00000000000E+00  0.18035304768E+03  0.18035304768E+03  0.00000000000E+00 0.  1.
         -4   -1    0    0    0  501 -0.00000000000E+00 -0.00000000000E+00 -0.68623173033E+02  0.68623173033E+02  0.00000000000E+00 0. -1.
          5    1    1    2  502    0  0.55579785802E+02  0.17132526083E+02 -0.13352677727E+02  0.59819749601E+02  0.41800000000E+01 0.  1.
         -5    1    1    2    0  502 -0.38931248817E+02 -0.85096085842E+01  0.65947715871E+02  0.77166243924E+02  0.41800000000E+01 0.  1.
        -11    1    1    2    0    0 -0.29239201168E+02  0.11468770450E+02 -0.14528064400E+02  0.34605320917E+02  0.00000000000E+00 0. -1.
         11    1    1    2    0    0  0.12590664183E+02 -0.20091687949E+02  0.73662900898E+02  0.77384906267E+02  0.00000000000E+00 0.  1.
</event>
<event>
 6    1  0.5317355E-006  0.1402912E+03  0.7561462E-02  0.1212938E+00
         -2   -1    0    0    0  501 -0.00000000000E+00  0.00000000000E+00  0.33819669018E+03  0.33819669018E+03  0.00000000000E+00 0.  1.
          2   -1    0    0  501    0  0.00000000000E+00 -0.00000000000E+00 -0.74382936539E+02  0.74382936539E+02  0.00000000000E+00 0. -1.
          5    1    1    2  502    0 -0.78671789720E+02  0.91808083795E+02  0.12940912666E+03  0.17715013184E+03  0.41800000000E+01 0. -1.
         -5    1    1    2    0  502 -0.21455875546E+02 -0.37453662637E+02  0.16941728017E+02  0.46557770442E+02  0.41800000000E+01 0. -1.
        -11    1    1    2    0    0  0.79853586731E+02 -0.53160207000E+02  0.13251442671E+03  0.16359302005E+03  0.00000000000E+00 0.  1.
         11    1    1    2    0    0  0.20274078535E+02 -0.11942141585E+01 -0.15051527749E+02  0.25278704387E+02  0.00000000000E+00 0. -1.
</event>
<event>
 6    1  0.5317355E-006  0.1816493E+03  0.7561462E-02  0.1166216E+00
         -1   -1    0    0    0  501 -0.00000000000E+00  0.00000000000E+00  0.14454524364E+03  0.14454524364E+03  0.00000000000E+00 0.  1.
          1   -1    0    0  501    0  0.00000000000E+00 -0.00000000000E+00 -0.32327079343E+03  0.32327079343E+03  0.00000000000E+00 0. -1.
          5    1    1    2  502    0 -0.16628482479E+03  0.38951229524E+02  0.23457643781E+02  0.17244006115E+03  0.41800000000E+01 0. -1.
         -5    1    1    2    0  502  0.67808631290E+01 -0.27409139866E+02 -0.11896618977E+02  0.30923178945E+02  0.41800000000E+01 0. -1.
        -11    1    1    2    0    0  0.19151582669E+02 -0.13703514508E+02  0.48804868824E+01  0.24049710618E+02  0.00000000000E+00 0.  1.
         11    1    1    2    0    0  0.14035237900E+03  0.21614248501E+01 -0.19516706148E+03  0.24040308636E+03  0.00000000000E+00 0. -1.
</event>
<event>
 6    1  0.5317355E-006  0.7843193E+02  0.7561462E-02  0.1333561E+00
         -3   -1    0    0    0  501 -0.00000000000E+00  0.00000000000E+00  0.16516880835E+03  0.16516880835E+03  0.00000000000E+00 0.  1.
          3   -1    0    0  501    0  0.00000000000E+00 -0.00000000000E+00 -0.85323362019E+02  0.85323362019E+02  0.00000000000E+00 0. -1.
          5    1    1    2  502    0  0.48298600121E+02 -0.44615537738E+02  0.90868701438E+02  0.11224034160E+03  0.41800000000E+01 0. -1.
         -5    1    1    2    0  502 -0.82994878396E+01  0.20724532539E+02 -0.27367269757E+02  0.35564414817E+02  0.41800000000E+01 0. -1.
        -11    1    1    2    0    0 -0.47776960498E+02  0.52455024789E+01  0.46180699303E+02  0.66654408997E+02  0.00000000000E+00 0.  1.
         11    1    1    2    0    0  0.77778482163E+01  0.18645502721E+02 -0.29836684656E+02  0.36033004952E+02  0.00000000000E+00 0. -1.
</event>
<event>
 6    1  0.5317355E-006  0.1067869E+03  0.7561462E-02  0.1266638E+00
          2   -1    0    0  501    0  0.00000000000E+00  0.00000000000E+00  0.11909850590E+03  0.11909850590E+03  0.00000000000E+00 0. -1.
         -2   -1    0    0    0  501 -0.00000000000E+00 -0.00000000000E+00 -0.16241605983E+03  0.16241605983E+03  0.00000000000E+00 0.  1.
          5    1    1    2  502    0 -0.48548460073E+02 -0.10947355729E+02 -0.58787694871E+02  0.77137948126E+02  0.41800000000E+01 0. -1.
         -5    1    1    2    0  502  0.63177346918E+02  0.44318634407E+02 -0.44956058103E+02  0.89409384740E+02  0.41800000000E+01 0. -1.
        -11    1    1    2    0    0 -0.35675093046E+02 -0.48657259110E+02  0.14290080112E+02  0.62003608907E+02  0.00000000000E+00 0.  1.
         11    1    1    2    0    0  0.21046206200E+02  0.15285980432E+02  0.46136118923E+02  0.52963623956E+02  0.00000000000E+00 0. -1.
</event>
<event>
 6    1  0.5317355E-006  0.7323694E+02  0.7561462E-02  0.1349419E+00
          1   -1    0    0  501    0  0.00000000000E+00  0.00000000000E+00  0.45150049256E+03  0.45150049256E+03  0.00000000000E+00 0. -1.
         -1   -1    0    0    0  501 -0.00000000000E+00 -0.00000000000E+00 -0.30256969190E+02  0.30256969190E+02  0.00000000000E+00 0.  1.
          5    1    1    2  502    0  0.41576001060E+01 -0.18644255505E+02  0.22255791731E+03  0.22341529236E+03  0.41800000000E+01 0.  1.
         -5    1    1    2    0  502  0.25852221402E+02 -0.10441755990E+02 -0.72182535533E+01  0.29102288638E+02  0.41800000000E+01 0.  1.
        -11    1    1    2    0    0 -0.35680537021E+02  0.58635357646E+02  0.12032216106E+03  0.13852302455E+03  0.00000000000E+00 0.  1.
         11    1    1    2    0    0  0.56707155128E+01 -0.29549346151E+02  0.85581698560E+02  0.90716856211E+02  0.00000000000E+00 0. -1.
</event>
<event>
 6    1  0.7958969E-006  0.2892721E+03  0.7561462E-02  0.1090730E+00
         -2   -1    0    0    0  501 -0.00000000000E+00  0.00000000000E+00  0.66282344735E+03  0.66282344735E+03  0.00000000000E+00 0.  1.
          2   -1    0    0  501    0  0.00000000000E+00 -0.00000000000E+00 -0.14903296645E+03  0.14903296645E+03  0.00000000000E+00 0. -1.
          5    1    1    2  502    0 -0.88395226771E+01  0.88092217950E+02  0.11481020967E+03  0.14504217548E+03  0.41800000000E+01 0. -1.
         -5    1    1    2    0  502  0.15747502801E+03  0.13901829315E+03  0.29491702933E+03  0.36210219119E+03  0.41800000000E+01 0. -1.
        -11    1    1    2    0    0 -0.95660432280E+02 -0.84346395817E+02  0.15288532682E+02  0.12844832433E+03  0.00000000000E+00 0.  1.
         11    1    1    2    0    0 -0.52975073050E+02 -0.14276411529E+03  0.88774709216E+02  0.17626372280E+03  0.00000000000E+00 0. -1.
</event>
<event>
 6    1  0.5317355E-006  0.6642617E+02  0.7561462E-02  0.1372686E+00
         -1   -1    0    0    0  501 -0.00000000000E+00  0.00000000000E+00  0.32661406107E+03  0.32661406107E+03  0.00000000000E+00 0.  1.
          1   -1    0    0  501    0  0.00000000000E+00 -0.00000000000E+00 -0.42078581279E+02  0.42078581279E+02  0.00000000000E+00 0. -1.
          5    1    1    2  502    0  0.16858345229E+02 -0.29301910564E+02  0.23835806099E+03  0.24077965737E+03  0.41800000000E+01 0.  1.
         -5    1    1    2    0  502  0.15631941456E+02  0.17574140975E+02 -0.66473005930E+01  0.24796512454E+02  0.41800000000E+01 0.  1.
        -11    1    1    2    0    0  0.10517329199E+02  0.27225129803E+02  0.49267751547E+02  0.57263716686E+02  0.00000000000E+00 0.  1.
         11    1    1    2    0    0 -0.43007615884E+02 -0.15497360214E+02  0.35569678514E+01  0.45852755838E+02  0.00000000000E+00 0. -1.
</event>
<event>
 6    1  0.5317355E-006  0.1062885E+03  0.7561462E-02  0.1267601E+00
          2   -1    0    0  501    0  0.00000000000E+00  0.00000000000E+00  0.30730933440E+03  0.30730933440E+03  0.00000000000E+00 0.  1.
         -2   -1    0    0    0  501 -0.00000000000E+00 -0.00000000000E+00 -0.44713094971E+02  0.44713094971E+02  0.00000000000E+00 0. -1.
          5    1    1    2  502    0 -0.72978605699E+02 -0.26822257468E+02  0.59250733019E+02  0.97843917280E+02  0.41800000000E+01 0. -1.
         -5    1    1    2    0  502  0.29986323525E+02  0.39982518509E+02  0.81972229304E+02  0.96097347320E+02  0.41800000000E+01 0. -1.
        -11    1    1    2    0    0  0.25721813974E+01 -0.37361216983E+02  0.99159038883E+02  0.10599524350E+03  0.00000000000E+00 0.  1.
         11    1    1    2    0    0  0.40420100777E+02  0.24200955941E+02  0.22214238224E+02  0.52085921276E+02  0.00000000000E+00 0. -1.
</event>
<event>
 6    1  0.5317355E-006  0.1067776E+03  0.7561462E-02  0.1266656E+00
         -2   -1    0    0    0  501 -0.00000000000E+00  0.00000000000E+00  0.38031915110E+02  0.38031915110E+02  0.00000000000E+00 0.  1.
          2   -1    0    0  501    0  0.00000000000E+00 -0.00000000000E+00 -0.34966009066E+03  0.34966009066E+03  0.00000000000E+00 0. -1.
          5    1    1    2  502    0  0.31671106996E+02 -0.49800845220E+02 -0.40911205034E+02  0.71933179411E+02  0.41800000000E+01 0.  1.
         -5    1    1    2    0  502 -0.27984219506E+02  0.58239063112E+02 -0.71989501251E+02  0.96823890151E+02  0.41800000000E+01 0.  1.
        -11    1    1    2    0    0  0.40879257349E+02  0.88711848117E+01 -0.69139630791E+02  0.80809035059E+02  0.00000000000E+00 0.  1.
         11    1    1    2    0    0 -0.44566144838E+02 -0.17309402704E+02 -0.12958783847E+03  0.13812590115E+03  0.00000000000E+00 0. -1.
</event>
<event>
 6    1  0.5317355E-006  0.6529284E+02  0.7561462E-02  0.1376873E+00
          3   -1    0    0  501    0  0.00000000000E+00  0.00000000000E+00  0.18119529196E+03  0.18119529196E+03  0.00000000000E+00 0. -1.
         -3   -1    0    0    0  501 -0.00000000000E+00 -0.00000000000E+00 -0.11425800133E+03  0.11425800133E+03  0.00000000000E+00 0.  1.
          5    1    1    2  502    0 -0.14855919070E+02 -0.15501086723E+02  0.39573101326E+02  0.45215979140E+02  0.41800000000E+01 0. -1.
         -5    1    1    2    0  502  0.60051963940E+01 -0.21699691571E+02 -0.93507358676E+02  0.96270647264E+02  0.41800000000E+01 0. -1.
        -11    1    1    2    0    0 -0.12783845778E+02 -0.20516420868E+02  0.81809040724E+01  0.25520137726E+02  0.00000000000E+00 0. -1.
         11    1    1    2    0    0  0.21634568454E+02  0.57717199162E+02  0.11269064390E+03  0.12844652916E+03  0.00000000000E+00 0.  1.
</event>
<event>
 6    1  0.5317355E-006  0.1122483E+03  0.7561462E-02  0.1256462E+00
         -4   -1    0    0    0  501 -0.00000000000E+00  0.00000000000E+00  0.29993228924E+03  0.29993228924E+03  0.00000000000E+00 0.  1.
          4   -1    0    0  501    0  0.00000000000E+00 -0.00000000000E+00 -0.90563604699E+02  0.90563604699E+02  0.00000000000E+00 0. -1.
          5    1    1    2  502    0  0.78545692788E+01 -0.37546635235E+02  0.18844154353E+03  0.19235158384E+03  0.41800000000E+01 0. -1.
         -5    1    1    2    0  502 -0.13547152726E+02 -0.61940007007E+02  0.13015641437E+02  0.64861152758E+02  0.41800000000E+01 0. -1.
        -11    1    1    2    0    0  0.38469820072E+02  0.54161637375E+02 -0.21835909131E+02  0.69930086137E+02  0.00000000000E+00 0. -1.
         11    1    1    2    0    0 -0.32777236625E+02  0.45325004867E+02  0.29747408702E+02  0.63353071207E+02  0.00000000000E+00 0.  1.
</event>
<event>
 6    1  0.5317355E-006  0.8212230E+02  0.7561462E-02  0.1323134E+00
          1   -1    0    0  501    0  0.00000000000E+00  0.00000000000E+00  0.11079419952E+03  0.11079419952E+03  0.00000000000E+00 0. -1.
         -1   -1    0    0    0  501 -0.00000000000E+00 -0.00000000000E+00 -0.33435469306E+03  0.33435469306E+03  0.00000000000E+00 0.  1.
          5    1    1    2  502    0 -0.55961183291E+02  0.39741576594E+02 -0.68363313826E+02  0.96964230636E+02  0.41800000000E+01 0. -1.
         -5    1    1    2    0  502 -0.13405247502E+02 -0.16926730302E+02 -0.21501809039E+03  0.21613992332E+03  0.41800000000E+01 0.  1.
        -11    1    1    2    0    0  0.17545113167E+02 -0.96340893789E+01 -0.24846523655E+02  0.31906056038E+02  0.00000000000E+00 0.  1.
         11    1    1    2    0    0  0.51821317626E+02 -0.13180756913E+02  0.84667434328E+02  0.10013868258E+03  0.00000000000E+00 0. -1.
</event>
<event>
 6    1  0.5317355E-006  0.1093844E+03  0.7561462E-02  0.1261714E+00
         -1   -1    0    0    0  501 -0.00000000000E+00  0.00000000000E+00  0.51124574515E+02  0.51124574515E+02  0.00000000000E+00 0.  1.
          1   -1    0    0  501    0  0.00000000000E+00 -0.00000000000E+00 -0.32164902504E+03  0.32164902504E+03  0.00000000000E+00 0. -1.
          5    1    1    2  502    0  0.34133445889E+02 -0.75694341248E+01 -0.93657310665E+02  0.10005774684E+03  0.41800000000E+01 0.  1.
         -5    1    1    2    0  502 -0.31885868381E+02  0.69685614574E+02 -0.18263193944E+02  0.78891128361E+02  0.41800000000E+01 0.  1.
        -11    1    1    2    0    0  0.34786769582E+02 -0.60441029069E+02 -0.12795047573E+03  0.14572083438E+03  0.00000000000E+00 0. -1.
         11    1    1    2    0    0 -0.37034347090E+02 -0.16751513799E+01 -0.30653470186E+02  0.48103889978E+02  0.00000000000E+00 0.  1.
</event>
<event>
 6    1  0.5317355E-006  0.1091005E+03  0.7561462E-02  0.1262245E+00
         -1   -1    0    0    0  501 -0.00000000000E+00  0.00000000000E+00  0.13843604293E+02  0.13843604293E+02  0.00000000000E+00 0.  1.
          1   -1    0    0  501    0  0.00000000000E+00 -0.00000000000E+00 -0.89411671309E+03  0.89411671309E+03  0.00000000000E+00 0. -1.
          5    1    1    2  502    0 -0.39042850771E+02 -0.41602969935E+02 -0.26908505686E+03  0.27509887592E+03  0.41800000000E+01 0.  1.
         -5    1    1    2    0  502  0.59510644279E+02  0.30222031761E+02 -0.19687126616E+03  0.20791983029E+03  0.41800000000E+01 0.  1.
        -11    1    1    2    0    0 -0.54942101960E+02  0.20193661754E+02 -0.24062663566E+03  0.24764409206E+03  0.00000000000E+00 0. -1.
         11    1    1    2    0    0  0.34474308452E+02 -0.88127235801E+01 -0.17369015011E+03  0.17729751912E+03  0.00000000000E+00 0.  1.
</event>
<event>
 6    1  0.5317355E-006  0.1586505E+03  0.7561462E-02  0.1190229E+00
          2   -1    0    0  501    0  0.00000000000E+00  0.00000000000E+00  0.42176970054E+03  0.42176970054E+03  0.00000000000E+00 0.  1.
         -2   -1    0    0    0  501 -0.00000000000E+00 -0.00000000000E+00 -0.86684154467E+02  0.86684154467E+02  0.00000000000E+00 0. -1.
          5    1    1    2  502    0  0.11599931063E+03 -0.81602304094E+02  0.28792995992E+02  0.14478012681E+03  0.41800000000E+01 0.  1.
         -5    1    1    2    0  502 -0.16429548695E+02  0.22842633579E+02  0.60059429663E+01  0.29073350857E+02  0.41800000000E+01 0.  1.
        -11    1    1    2    0    0 -0.12496303529E+02  0.58574717121E+02  0.10740957832E+03  0.12297956173E+03  0.00000000000E+00 0. -1.
         11    1    1    2    0    0 -0.87073458403E+02  0.18495339459E+00  0.19287702879E+03  0.21162081562E+03  0.00000000000E+00 0.  1.
</event>
<event>
 6    1  0.5317355E-006  0.1068771E+03  0.7561462E-02  0.1266465E+00
          1   -1    0    0  501    0  0.00000000000E+00  0.00000000000E+00  0.65965626793E+03  0.65965626793E+03  0.00000000000E+00 0. -1.
         -1   -1    0    0    0  501 -0.00000000000E+00 -0.00000000000E+00 -0.21907753763E+02  0.21907753763E+02  0.00000000000E+00 0.  1.
          5    1    1    2  502    0 -0.46159154710E+02  0.47566489171E+02  0.99068494616E+02  0.11926976767E+03  0.41800000000E+01 0.  1.
         -5    1    1    2    0  502  0.17382180945E+02 -0.58540526578E+02  0.12548192931E+03  0.13961490053E+03  0.41800000000E+01 0.  1.
        -11    1    1    2    0    0 -0.26658093758E+02 -0.75103773288E+01  0.87434139815E+02  0.91715803085E+02  0.00000000000E+00 0.  1.
         11    1    1    2    0    0  0.55435067524E+02  0.18484414736E+02  0.32576395042E+03  0.33096355040E+03  0.00000000000E+00 0. -1.
</event>
<event>
 6    1  0.5317355E-006  0.1131123E+03  0.7561462E-02  0.1254913E+00
          2   -1    0    0  501    0  0.00000000000E+00  0.00000000000E+00  0.79510608405E+03  0.79510608405E+03  0.00000000000E+00 0. -1.
         -2   -1    0    0    0  501 -0.00000000000E+00 -0.00000000000E+00 -0.17845290311E+02  0.17845290311E+02  0.00000000000E+00 0.  1.
          5    1    1    2  502    0 -0.19679730383E+02 -0.41377012816E+02  0.12747991246E+03  0.13552840831E+03  0.41800000000E+01 0.  1.
         -5    1    1    2    0  502  0.59056808130E+02  0.63675976189E+02  0.25932529832E+03  0.27351310623E+03  0.41800000000E+01 0.  1.
        -11    1    1    2    0    0 -0.57211911299E+02 -0.38673513023E+02  0.35012190338E+03  0.35686718907E+03  0.00000000000E+00 0. -1.
         11    1    1    2    0    0  0.17834833552E+02  0.16374549649E+02  0.40333679580E+02  0.47042670763E+02  0.00000000000E+00 0.  1.
</event>
<event>
 6    1  0.5317355E-006  0.8526467E+02  0.7561462E-02  0.1314742E+00
          2   -1    0    0  501    0  0.00000000000E+00  0.00000000000E+00  0.80075719163E+02  0.80075719163E+02  0.00000000000E+00 0. -1.
         -2   -1    0    0    0  501 -0.00000000000E+00 -0.00000000000E+00 -0.23661840816E+03  0.23661840816E+03  0.00000000000E+00 0.  1.
          5    1    1    2  502    0 -0.17813817020E+02  0.34394623464E+01  0.27062958839E+02  0.32848715640E+02  0.41800000000E+01 0.  1.
         -5    1    1    2    0  502 -0.55759405774E+02  0.35225865578E+02 -0.14082047584E+03  0.15555658698E+03  0.41800000000E+01 0.  1.
        -11    1    1    2    0    0  0.98597272280E+01 -0.14809449154E+02  0.26024522131E+02  0.31524748332E+02  0.00000000000E+00 0. -1.
         11    1    1    2    0    0  0.63713495566E+02 -0.23855878770E+02 -0.68809694125E+02  0.96764076365E+02  0.00000000000E+00 0.  1.
</event>
<event>
 6    1  0.5317355E-006  0.1281410E+03  0.7561462E-02  0.1230240E+00
         -4   -1    0    0    0  501 -0.00000000000E+00  0.00000000000E+00  0.12688898217E+03  0.12688898217E+03  0.00000000000E+00 0.  1.
          4   -1    0    0  501    0  0.00000000000E+00 -0.00000000000E+00 -0.21797658011E+03  0.21797658011E+03  0.00000000000E+00 0. -1.
          5    1    1    2  502    0  0.42896255128E+02 -0.11486451191E+02  0.21262953608E+02  0.49412679153E+02  0.41800000000E+01 0.  1.
         -5    1    1    2    0  502 -0.87136455422E+02  0.12062208607E+02  0.39587607433E+02  0.96555216339E+02  0.41800000000E+01 0.  1.
        -11    1    1    2    0    0  0.16120997509E+02 -0.57717123720E+02 -0.47051408508E+02  0.76190471673E+02  0.00000000000E+00 0.  1.
         11    1    1    2    0    0  0.28119202785E+02  0.57141366304E+02 -0.10488675047E+03  0.12270719511E+03  0.00000000000E+00 0. -1.
</event>
<event>
 6    1  0.5317355E-006  0.1229947E+03  0.7561462E-02  0.1238237E+00
          1   -1    0    0  501    0  0.00000000000E+00  0.00000000000E+00  0.10656458792E+03  0.10656458792E+03  0.00000000000E+00 0. -1.
         -1   -1    0    0    0  501 -0.00000000000E+00 -0.00000000000E+00 -0.20565087587E+03  0.20565087587E+03  0.00000000000E+00 0.  1.
          5    1    1    2  502    0  0.45283420362E+02  0.88781949245E+01 -0.32595330932E+02  0.56651023851E+02  0.41800000000E+01 0.  1.
         -5    1    1    2    0  502 -0.58077147884E+02 -0.73808481056E+02 -0.10047983918E+03  0.13760202565E+03  0.41800000000E+01 0.  1.
        -11    1    1    2    0    0  0.47347272002E+02  0.47003658835E+02  0.66501993889E+00  0.66719939758E+02  0.00000000000E+00 0.  1.
         11    1    1    2    0    0 -0.34553544479E+02  0.17926627296E+02  0.33323862217E+02  0.51242474524E+02  0.00000000000E+00 0. -1.
</event>
<event>
 6    1  0.5317355E-006  0.8618494E+02  0.7561462E-02  0.1312363E+00
          2   -1    0    0  501    0  0.00000000000E+00  0.00000000000E+00  0.28862498438E+03  0.28862498438E+03  0.00000000000E+00 0. -1.
         -2   -1    0    0    0  501 -0.00000000000E+00 -0.00000000000E+00 -0.51326655214E+02  0.51326655214E+02  0.00000000000E+00 0.  1.
          5    1    1    2  502    0  0.12931007499E+02  0.17192374368E+02  0.15279290878E+03  0.15435651610E+03  0.41800000000E+01 0. -1.
         -5    1    1    2    0  502 -0.26737993310E+02  0.35020633322E+02 -0.74351041723E+01  0.44878928447E+02  0.41800000000E+01 0. -1.
        -11    1    1    2    0    0  0.33874800189E+02  0.14264616750E+02  0.37181526067E+02  0.52282380010E+02  0.00000000000E+00 0.  1.
         11    1    1    2    0    0 -0.20067814377E+02 -0.66477624440E+02  0.54758998494E+02  0.88433815031E+02  0.00000000000E+00 0. -1.
</event>
<event>
 6    1  0.5317355E-006  0.2341038E+03  0.7561462E-02  0.1123784E+00
          2   -1    0    0  501    0  0.00000000000E+00  0.00000000000E+00  0.12677893944E+04  0.12677893944E+04  0.00000000000E+00 0. -1.
         -2   -1    0    0    0  501 -0.00000000000E+00 -0.00000000000E+00 -0.48230649697E+02  0.48230649697E+02  0.00000000000E+00 0.  1.
          5    1    1    2  502    0  0.11291440764E+03  0.18308561785E+03  0.52601251317E+03  0.56831034068E+03  0.41800000000E+01 0. -1.
         -5    1    1    2    0  502 -0.22261061500E+02  0.19801872516E+02  0.17674606737E+03  0.17928835363E+03  0.41800000000E+01 0. -1.
        -11    1    1    2    0    0 -0.34289919996E+02 -0.99214837523E+02  0.34017664244E+03  0.35600495876E+03  0.00000000000E+00 0. -1.
         11    1    1    2    0    0 -0.56363426144E+02 -0.10367265284E+03  0.17662352172E+03  0.21241639103E+03  0.00000000000E+00 0.  1.
</event>
<event>
 6    1  0.5317355E-006  0.8949091E+02  0.7561462E-02  0.1304089E+00
         -2   -1    0    0    0  501 -0.00000000000E+00  0.00000000000E+00  0.71926521345E+02  0.71926521345E+02  0.00000000000E+00 0. -1.
          2   -1    0    0  501    0  0.00000000000E+00 -0.00000000000E+00 -0.19721541880E+03  0.19721541880E+03  0.00000000000E+00 0.  1.
          5    1    1    2  502    0  0.29348153947E+02  0.22433612544E+02 -0.46308116208E+02  0.59384300439E+02  0.41800000000E+01 0. -1.
         -5    1    1    2    0  502 -0.61961720365E+02 -0.63506408709E+02 -0.17571886853E+02  0.90545912913E+02  0.41800000000E+01 0. -1.
        -11    1    1    2    0    0  0.21366891616E+02  0.32254436926E+02  0.14986654569E+02  0.41490873381E+02  0.00000000000E+00 0. -1.
         11    1    1    2    0    0  0.11246674801E+02  0.88183592400E+01 -0.76395548966E+02  0.77720853415E+02  0.00000000000E+00 0.  1.
</event>
<event>
 6    1  0.5317355E-006  0.9195380E+02  0.7561462E-02  0.1298188E+00
         -3   -1    0    0    0  501 -0.00000000000E+00  0.00000000000E+00  0.85707420928E+03  0.85707420928E+03  0.00000000000E+00 0.  1.
          3   -1    0    0  501    0  0.00000000000E+00 -0.00000000000E+00 -0.14316708121E+02  0.14316708121E+02  0.00000000000E+00 0. -1.
          5    1    1    2  502    0  0.71811858990E+01 -0.66948661225E+02  0.16707636987E+03  0.18018234775E+03  0.41800000000E+01 0. -1.
         -5    1    1    2    0  502 -0.56025498316E+01  0.22102254331E+02  0.33518995236E+03  0.33599058733E+03  0.41800000000E+01 0.  1.
        -11    1    1    2    0    0  0.29585180230E+02  0.53311924969E+02  0.28088342594E+03  0.28742467396E+03  0.00000000000E+00 0.  1.
         11    1    1    2    0    0 -0.31163816297E+02 -0.84655180751E+01  0.59607752983E+02  0.67793308358E+02  0.00000000000E+00 0. -1.
</event>
<event>
 6    1  0.5317355E-006  0.1142406E+03  0.7561462E-02  0.1252913E+00
          2   -1    0    0  501    0  0.00000000000E+00  0.00000000000E+00  0.71892311590E+03  0.71892311590E+03  0.00000000000E+00 0. -1.
         -2   -1    0    0    0  501 -0.00000000000E+00 -0.00000000000E+00 -0.20768998768E+02  0.20768998768E+02  0.00000000000E+00 0.  1.
          5    1    1    2  502    0 -0.17289370156E+02  0.29972924961E+02  0.19232496647E+03  0.19545757514E+03  0.41800000000E+01 0. -1.
         -5    1    1    2    0  502  0.59318992967E+02 -0.66399568922E+02  0.17172743103E+03  0.19348237297E+03  0.41800000000E+01 0. -1.
        -11    1    1    2    0    0 -0.57900895117E+02 -0.69373371965E+01  0.22154669378E+03  0.22909294583E+03  0.00000000000E+00 0. -1.
         11    1    1    2    0    0  0.15871272306E+02  0.43363981157E+02  0.11255502584E+03  0.12165922073E+03  0.00000000000E+00 0.  1.
</event>
<event>
 6    1  0.5317355E-006  0.8224937E+02  0.7561462E-02  0.1322787E+00
          2   -1    0    0  501    0  0.00000000000E+00  0.00000000000E+00  0.46029551263E+03  0.46029551263E+03  0.00000000000E+00 0. -1.
         -2   -1    0    0    0  501 -0.00000000000E+00 -0.00000000000E+00 -0.34702584405E+02  0.34702584405E+02  0.00000000000E+00 0.  1.
          5    1    1    2  502    0  0.30936175182E+02 -0.56160265434E+02  0.16866820717E+03  0.18049226814E+03  0.41800000000E+01 0.  1.
         -5    1    1    2    0  502 -0.19966943037E+02  0.87277699397E+01 -0.12474252354E+02  0.25454511469E+02  0.41800000000E+01 0.  1.
        -11    1    1    2    0    0  0.17590413470E+02  0.46239575839E+02  0.24916764330E+03  0.25403156396E+03  0.00000000000E+00 0. -1.
         11    1    1    2    0    0 -0.28559645616E+02  0.11929196551E+01  0.20231330114E+02  0.35019753471E+02  0.00000000000E+00 0.  1.
</event>
<event>
 6    1  0.5317355E-006  0.9271834E+02  0.7561462E-02  0.1296399E+00
         -1   -1    0    0    0  501 -0.00000000000E+00  0.00000000000E+00  0.17917045410E+02  0.17917045410E+02  0.00000000000E+00 0.  1.
          1   -1    0    0  501    0  0.00000000000E+00 -0.00000000000E+00 -0.74424864931E+03  0.74424864931E+03  0.00000000000E+00 0. -1.
          5    1    1    2  502    0  0.57087814275E+02 -0.29020781941E+02 -0.39889904039E+03  0.40402863902E+03  0.41800000000E+01 0.  1.
         -5    1    1    2    0  502 -0.15365290993E+02  0.18744253178E+02 -0.11485633352E+02  0.27144637923E+02  0.41800000000E+01 0.  1.
        -11    1    1    2    0    0 -0.21600401000E+02  0.48708744444E+02 -0.20644562543E+03  0.21321096446E+03  0.00000000000E+00 0.  1.
         11    1    1    2    0    0 -0.20122122282E+02 -0.38432215681E+02 -0.10950130472E+03  0.11778145331E+03  0.00000000000E+00 0. -1.
</event>
<event>
 6    1  0.5317355E-006  0.4256710E+03  0.7561462E-02  0.1035236E+00
         -1   -1    0    0    0  501 -0.00000000000E+00  0.00000000000E+00  0.20467152255E+03  0.20467152255E+03  0.00000000000E+00 0.  1.
          1   -1    0    0  501    0  0.00000000000E+00 -0.00000000000E+00 -0.89908267345E+03  0.89908267345E+03  0.00000000000E+00 0. -1.
          5    1    1    2  502    0  0.30723620133E+02 -0.23611146058E+02 -0.62826176434E+02  0.73932590227E+02  0.41800000000E+01 0. -1.
         -5    1    1    2    0  502  0.37818757280E+03  0.90121562434E+02 -0.30935449134E+03  0.49685552221E+03  0.41800000000E+01 0. -1.
        -11    1    1    2    0    0 -0.28449779422E+03 -0.44415515278E+01 -0.23298691993E+03  0.36775212733E+03  0.00000000000E+00 0.  1.
         11    1    1    2    0    0 -0.12441339872E+03 -0.62068864848E+02 -0.89243563190E+02  0.16521395623E+03  0.00000000000E+00 0. -1.
</event>
<event>
 6    1  0.5317355E-006  0.7890147E+02  0.7561462E-02  0.1332198E+00
         -4   -1    0    0    0  501 -0.00000000000E+00  0.00000000000E+00  0.20919281494E+03  0.20919281494E+03  0.00000000000E+00 0.  1.
          4   -1    0    0  501    0  0.00000000000E+00 -0.00000000000E+00 -0.57478060210E+02  0.57478060210E+02  0.00000000000E+00 0. -1.
          5    1    1    2  502    0 -0.38774044433E+02 -0.14968956951E+02  0.12256898521E+03  0.12949179407E+03  0.41800000000E+01 0.  1.
         -5    1    1    2    0  502  0.38076888120E+02  0.13147508062E+02 -0.66766379957E+01  0.41045782634E+02  0.41800000000E+01 0.  1.
        -11    1    1    2    0    0  0.25380282169E+02 -0.27354066913E+02  0.43334002183E+02  0.57186007422E+02  0.00000000000E+00 0.  1.
         11    1    1    2    0    0 -0.24683125856E+02  0.29175515803E+02 -0.75115946672E+01  0.38947291033E+02  0.00000000000E+00 0. -1.
</event>
<event>
 6    1  0.5317355E-006  0.1112483E+03  0.7561462E-02  0.1258276E+00
         -2   -1    0    0    0  501 -0.00000000000E+00  0.00000000000E+00  0.41074606722E+02  0.41074606722E+02  0.00000000000E+00 0.  1.
          2   -1    0    0  501    0  0.00000000000E+00 -0.00000000000E+00 -0.65242774780E+03  0.65242774780E+03  0.00000000000E+00 0. -1.
          5    1    1    2  502    0 -0.35547275355E+02  0.21479594777E+02 -0.14830841552E+03  0.15407089372E+03  0.41800000000E+01 0.  1.
         -5    1    1    2    0  502 -0.51757162056E+02 -0.21190219642E+02  0.35906504809E+01  0.56197814935E+02  0.41800000000E+01 0.  1.
        -11    1    1    2    0    0  0.93677368611E+02 -0.26775514307E+02 -0.33896361093E+03  0.35268783236E+03  0.00000000000E+00 0.  1.
         11    1    1    2    0    0 -0.63729312004E+01  0.26486139172E+02 -0.12767176511E+03  0.13054581351E+03  0.00000000000E+00 0. -1.
</event>
<event>
 6    1  0.5317355E-006  0.7459054E+02  0.7561462E-02  0.1345144E+00
          2   -1    0    0  501    0  0.00000000000E+00  0.00000000000E+00  0.11442196415E+03  0.11442196415E+03  0.00000000000E+00 0. -1.
         -2   -1    0    0    0  501 -0.00000000000E+00 -0.00000000000E+00 -0.49392318909E+02  0.49392318909E+02  0.00000000000E+00 0.  1.
          5    1    1    2  502    0  0.25441054382E+02 -0.45168034727E+02  0.13088106271E+02  0.53629931334E+02  0.41800000000E+01 0. -1.
         -5    1    1    2    0  502 -0.55192768855E+02  0.28959953149E+02  0.33214093911E+02  0.70750046322E+02  0.41800000000E+01 0.  1.
        -11    1    1    2    0    0  0.18920675327E+02  0.60764289813E+01  0.10670466167E+02  0.22556014547E+02  0.00000000000E+00 0.  1.
         11    1    1    2    0    0  0.10831039145E+02  0.10131652597E+02  0.80569788886E+01  0.16878290853E+02  0.00000000000E+00 0. -1.
</event>
<event>
 6    1  0.5317355E-006  0.1129026E+03  0.7561462E-02  0.1255287E+00
          2   -1    0    0  501    0  0.00000000000E+00  0.00000000000E+00  0.42423703677E+03  0.42423703677E+03  0.00000000000E+00 0. -1.
         -2   -1    0    0    0  501 -0.00000000000E+00 -0.00000000000E+00 -0.72772046385E+02  0.72772046385E+02  0.00000000000E+00 0.  1.
          5    1    1    2  502    0 -0.19772855697E+02  0.17708738341E-01 -0.37349481743E+02  0.42466720176E+02  0.41800000000E+01 0. -1.
         -5    1    1    2    0  502 -0.46275943619E+02 -0.71085319748E+02  0.91514605507E+02  0.12484783163E+03  0.41800000000E+01 0. -1.
        -11    1    1    2    0    0  0.14465860231E+02 -0.14676487110E+02  0.56669559166E+01  0.21372289898E+02  0.00000000000E+00 0.  1.
         11    1    1    2    0    0  0.51582939085E+02  0.85744098119E+02  0.29163291070E+03  0.30832224145E+03  0.00000000000E+00 0. -1.
</event>
<event>
 6    1  0.5317355E-006  0.9968087E+02  0.7561462E-02  0.1280968E+00
          1   -1    0    0  501    0  0.00000000000E+00  0.00000000000E+00  0.10052280367E+03  0.10052280367E+03  0.00000000000E+00 0. -1.
         -1   -1    0    0    0  501 -0.00000000000E+00 -0.00000000000E+00 -0.19688577566E+03  0.19688577566E+03  0.00000000000E+00 0.  1.
          5    1    1    2  502    0  0.66579815794E+02 -0.34860103589E+02  0.30736452183E+02  0.81303755056E+02  0.41800000000E+01 0. -1.
         -5    1    1    2    0  502  0.20641466556E+02  0.14270700983E+02 -0.74430849406E+02  0.78658418440E+02  0.41800000000E+01 0. -1.
        -11    1    1    2    0    0 -0.63646829613E+02 -0.50190464047E+01 -0.73124140507E+02  0.97073424126E+02  0.00000000000E+00 0.  1.
         11    1    1    2    0    0 -0.23574452737E+02  0.25608449010E+02  0.20455565733E+02  0.40372981708E+02  0.00000000000E+00 0. -1.
</event>
<event>
 6    1  0.5317355E-006  0.1512561E+03  0.7561462E-02  0.1198938E+00
          1   -1    0    0  501    0  0.00000000000E+00  0.00000000000E+00  0.42441300534E+03  0.42441300534E+03  0.00000000000E+00 0. -1.
         -1   -1    0    0    0  501 -0.00000000000E+00 -0.00000000000E+00 -0.72109932724E+02  0.72109932724E+02  0.00000000000E+00 0.  1.
          5    1    1    2  502    0 -0.16437465036E+02 -0.31726778878E+02  0.47641870525E+02  0.59699237699E+02  0.41800000000E+01 0.  1.
         -5    1    1    2    0  502  0.12492988092E+03 -0.10912102943E+02  0.35328968477E+02  0.13035397022E+03  0.41800000000E+01 0.  1.
        -11    1    1    2    0    0 -0.19635493209E+02 -0.23256347109E+02  0.97207158918E+02  0.10186089544E+03  0.00000000000E+00 0. -1.
         11    1    1    2    0    0 -0.88856922675E+02  0.65895228930E+02  0.17212507470E+03  0.20460883471E+03  0.00000000000E+00 0.  1.
</event>
<event>
 6    1  0.5317355E-006  0.1059682E+03  0.7561462E-02  0.1268224E+00
         -2   -1    0    0    0  501 -0.00000000000E+00  0.00000000000E+00  0.61021557854E+03  0.61021557854E+03  0.00000000000E+00 0.  1.
          2   -1    0    0  501    0  0.00000000000E+00 -0.00000000000E+00 -0.22919233538E+02  0.22919233538E+02  0.00000000000E+00 0. -1.
          5    1    1    2  502    0 -0.48900115280E+02 -0.59100494667E+02  0.32033932963E+03  0.32942199115E+03  0.41800000000E+01 0.  1.
         -5    1    1    2    0  502  0.38702445707E+02  0.24740298239E+02  0.91285322204E+02  0.10227631256E+03  0.41800000000E+01 0.  1.
        -11    1    1    2    0    0 -0.23381301421E+02  0.47491713235E+02  0.14408818077E+03  0.15350424072E+03  0.00000000000E+00 0.  1.
         11    1    1    2    0    0  0.33578970994E+02 -0.13131516807E+02  0.31583512402E+02  0.47932267652E+02  0.00000000000E+00 0. -1.
</event>
<event>
 6    1  0.5317355E-006  0.1645774E+03  0.7561462E-02  0.1183624E+00
          2   -1    0    0  501    0  0.00000000000E+00  0.00000000000E+00  0.21511198079E+03  0.21511198079E+03  0.00000000000E+00 0. -1.
         -2   -1    0    0    0  501 -0.00000000000E+00 -0.00000000000E+00 -0.26662270002E+03  0.26662270002E+03  0.00000000000E+00 0.  1.
          5    1    1    2  502    0  0.19709022646E+02 -0.56229390146E+02  0.70484574646E+01  0.60144351709E+02  0.41800000000E+01 0. -1.
         -5    1    1    2    0  502 -0.12652724053E+02 -0.10534388450E+03 -0.17389433356E+03  0.20375018300E+03  0.41800000000E+01 0. -1.
        -11    1    1    2    0    0  0.60629350810E+01  0.10466977363E+03  0.21052834215E+02  0.10693803123E+03  0.00000000000E+00 0.  1.
         11    1    1    2    0    0 -0.13119233674E+02  0.56903501017E+02  0.94282322646E+02  0.11090211488E+03  0.00000000000E+00 0. -1.
</event>
<event>
 6    1  0.5317355E-006  0.1357928E+03  0.7561462E-02  0.1219105E+00
          2   -1    0    0  501    0  0.00000000000E+00  0.00000000000E+00  0.35092429970E+03  0.35092429970E+03  0.00000000000E+00 0. -1.
         -2   -1    0    0    0  501 -0.00000000000E+00 -0.00000000000E+00 -0.69679600085E+02  0.69679600085E+02  0.00000000000E+00 0.  1.
          5    1    1    2  502    0  0.30103127547E+02  0.24025705656E+02  0.49767823639E+02  0.63069338748E+02  0.41800000000E+01 0. -1.
         -5    1    1    2    0  502 -0.10141647734E+03  0.43173902488E+02  0.27785924927E+02  0.11374892420E+03  0.41800000000E+01 0. -1.
        -11    1    1    2    0    0  0.82077285154E+02 -0.73407687838E+02  0.13612602868E+03  0.17508759252E+03  0.00000000000E+00 0.  1.
         11    1    1    2    0    0 -0.10763935363E+02  0.62080796943E+01  0.67564922373E+02  0.68698044319E+02  0.00000000000E+00 0. -1.
</event>
<event>
 6    1  0.5317355E-006  0.1002276E+03  0.7561462E-02  0.1279818E+00
          1   -1    0    0  501    0  0.00000000000E+00  0.00000000000E+00  0.34811751844E+03  0.34811751844E+03  0.00000000000E+00 0. -1.
         -1   -1    0    0    0  501 -0.00000000000E+00 -0.00000000000E+00 -0.43438762830E+02  0.43438762830E+02  0.00000000000E+00 0.  1.
          5    1    1    2  502    0 -0.35542537292E+02 -0.45451272619E+02  0.11142158082E+03  0.12554414049E+03  0.41800000000E+01 0.  1.
         -5    1    1    2    0  502  0.51414387759E+02 -0.77211808286E+01  0.20042040308E+01  0.52197175554E+02  0.41800000000E+01 0.  1.
        -11    1    1    2    0    0 -0.44395446947E+02  0.28704657977E+02  0.75917870237E+02  0.92511816113E+02  0.00000000000E+00 0.  1.
         11    1    1    2    0    0  0.28523596479E+02  0.24467795471E+02  0.11533510053E+03  0.12130314911E+03  0.00000000000E+00 0. -1.
</event>
<event>
 6    1  0.5317355E-006  0.9713731E+02  0.7561462E-02  0.1286434E+00
          4   -1    0    0  501    0  0.00000000000E+00  0.00000000000E+00  0.27359147731E+02  0.27359147731E+02  0.00000000000E+00 0. -1.
         -4   -1    0    0    0  501 -0.00000000000E+00 -0.00000000000E+00 -0.61130012311E+03  0.61130012311E+03  0.00000000000E+00 0.  1.
          5    1    1    2  502    0 -0.45204726139E+02  0.80903279541E+02 -0.36777898474E+03  0.37929890841E+03  0.41800000000E+01 0.  1.
         -5    1    1    2    0  502  0.11403119668E+02 -0.28244932681E+02 -0.32607527023E+02  0.44816632837E+02  0.41800000000E+01 0.  1.
        -11    1    1    2    0    0  0.13878764377E+02  0.60481111881E+00  0.70913596933E+01  0.15597220247E+02  0.00000000000E+00 0. -1.
         11    1    1    2    0    0  0.19922842093E+02 -0.53263157979E+02 -0.19064582331E+03  0.19894650934E+03  0.00000000000E+00 0.  1.
</event>
<event>
 6    1  0.5317355E-006  0.5444355E+02  0.7561462E-02  0.1422749E+00
          2   -1    0    0  501    0  0.00000000000E+00  0.00000000000E+00  0.40057764522E+02  0.40057764522E+02  0.00000000000E+00 0. -1.
         -2   -1    0    0    0  501 -0.00000000000E+00 -0.00000000000E+00 -0.31186324348E+03  0.31186324348E+03  0.00000000000E+00 0.  1.
          5    1    1    2  502    0 -0.10900124640E+02  0.43887424184E+02 -0.25308490502E+01  0.45484022641E+02  0.41800000000E+01 0.  1.
         -5    1    1    2    0  502 -0.10840762362E+01 -0.19896743257E+02 -0.16033195946E+03  0.16161950760E+03  0.41800000000E+01 0.  1.
        -11    1    1    2    0    0  0.23891663195E+02 -0.15277027963E+02 -0.12191556767E+03  0.12517030317E+03  0.00000000000E+00 0.  1.
         11    1    1    2    0    0 -0.11907462319E+02 -0.87136529648E+01  0.12972897228E+02  0.19647174589E+02  0.00000000000E+00 0. -1.
</event>
<event>
 6    1  0.5317355E-006  0.1583146E+03  0.7561462E-02  0.1190613E+00
         -1   -1    0    0    0  501 -0.00000000000E+00  0.00000000000E+00  0.12019804368E+03  0.12019804368E+03  0.00000000000E+00 0.  1.
          1   -1    0    0  501    0  0.00000000000E+00 -0.00000000000E+00 -0.24241069502E+03  0.24241069502E+03  0.00000000000E+00 0. -1.
          5    1    1    2  502    0 -0.33556630600E+02  0.62016321090E+02 -0.16204043861E+02  0.72471476984E+02  0.41800000000E+01 0. -1.
         -5    1    1    2    0  502 -0.90046684972E+02 -0.53352264896E+02 -0.49860433801E+01  0.10486754823E+03  0.41800000000E+01 0. -1.
        -11    1    1    2    0    0  0.76126970990E+02  0.28151376772E+02 -0.18589718169E+02  0.83267000354E+02  0.00000000000E+00 0.  1.
         11    1    1    2    0    0  0.47476344583E+02 -0.36815432966E+02 -0.82432845925E+02  0.10200271313E+03  0.00000000000E+00 0. -1.
</event>
<event>
 6    1  0.6258174E-006  0.2374297E+03  0.7561462E-02  0.1121517E+00
         -2   -1    0    0    0  501 -0.00000000000E+00  0.00000000000E+00  0.11165315834E+03  0.11165315834E+03  0.00000000000E+00 0.  1.
          2   -1    0    0  501    0  0.00000000000E+00 -0.00000000000E+00 -0.56628816781E+03  0.56628816781E+03  0.00000000000E+00 0. -1.
          5    1    1    2  502    0 -0.21803799967E+03  0.79114865275E+02 -0.15030586864E+03  0.27642188364E+03  0.41800000000E+01 0.  1.
         -5    1    1    2    0  502  0.14558615267E+02  0.11704455777E+02 -0.32688587775E+02  0.37880915172E+02  0.41800000000E+01 0.  1.
        -11    1    1    2    0    0  0.18674826973E+03 -0.76876133985E+02 -0.18357137438E+03  0.27291629801E+03  0.00000000000E+00 0.  1.
         11    1    1    2    0    0  0.16731114666E+02 -0.13943187068E+02 -0.88069178670E+02  0.90722229333E+02  0.00000000000E+00 0. -1.
</event>
<event>
 6    1  0.5317355E-006  0.9155171E+02  0.7561462E-02  0.1299137E+00
         -2   -1    0    0    0  501 -0.00000000000E+00  0.00000000000E+00  0.53452979881E+02  0.53452979881E+02  0.00000000000E+00 0.  1.
          2   -1    0    0  501    0  0.00000000000E+00 -0.00000000000E+00 -0.30212993677E+03  0.30212993677E+03  0.00000000000E+00 0. -1.
          5    1    1    2  502    0 -0.27293518787E+02 -0.70245543537E+01 -0.11840096473E+03  0.12178071021E+03  0.41800000000E+01 0.  1.
         -5    1    1    2    0  502  0.61956376472E+02 -0.49822138913E+02 -0.34734583659E+02  0.86860818632E+02  0.41800000000E+01 0.  1.
        -11    1    1    2    0    0 -0.41665705438E+02  0.45774837164E+02 -0.11074673032E+03  0.12687082014E+03  0.00000000000E+00 0. -1.
         11    1    1    2    0    0  0.70028477523E+01  0.11071856103E+02  0.15205321826E+02  0.20070567656E+02  0.00000000000E+00 0.  1.
</event>
<event>
 6    1  0.5317355E-006  0.1120218E+03  0.7561462E-02  0.1256871E+00
          1   -1    0    0  501    0  0.00000000000E+00  0.00000000000E+00  0.24521886531E+03  0.24521886531E+03  0.00000000000E+00 0. -1.
         -1   -1    0    0    0  501 -0.00000000000E+00 -0.00000000000E+00 -0.73802287709E+02  0.73802287709E+02  0.00000000000E+00 0.  1.
          5    1    1    2  502    0  0.81772350495E+02  0.10278407263E+02 -0.39665546550E+01  0.82617001381E+02  0.41800000000E+01 0. -1.
         -5    1    1    2    0  502 -0.18305721295E+02  0.31735009986E+02  0.67648753854E+02  0.77045678587E+02  0.41800000000E+01 0. -1.
        -11    1    1    2    0    0 -0.19204679436E+02  0.20474763611E+02  0.66953547274E+02  0.72600366044E+02  0.00000000000E+00 0.  1.
         11    1    1    2    0    0 -0.44261949764E+02 -0.62488180860E+02  0.40780831130E+02  0.86758107009E+02  0.00000000000E+00 0. -1.
</event>
<event>
 6    1  0.5317355E-006  0.1187973E+03  0.7561462E-02  0.1245094E+00
         -1   -1    0    0    0  501 -0.00000000000E+00  0.00000000000E+00  0.11930129365E+03  0.11930129365E+03  0.00000000000E+00 0.  1.
          1   -1    0    0  501    0  0.00000000000E+00 -0.00000000000E+00 -0.12639032304E+03  0.12639032304E+03  0.00000000000E+00 0. -1.
          5    1    1    2  502    0  0.52047640427E+01  0.59417347779E+02 -0.13125321990E+02  0.61214845121E+02  0.41800000000E+01 0. -1.
         -5    1    1    2    0  502  0.50743512930E+02 -0.57584554738E+02 -0.50773452931E+01  0.77033349168E+02  0.41800000000E+01 0. -1.
        -11    1    1    2    0    0  0.27638495621E+01  0.32704080283E+02  0.20479019493E+02  0.38685733429E+02  0.00000000000E+00 0.  1.
         11    1    1    2    0    0 -0.58712126535E+02 -0.34536873324E+02 -0.93653816002E+01  0.68757688979E+02  0.00000000000E+00 0. -1.
</event>
<event>
 6    1  0.5317355E-006  0.2705714E+03  0.7561462E-02  0.1100953E+00
         -1   -1    0    0    0  501 -0.00000000000E+00  0.00000000000E+00  0.17099192938E+03  0.17099192938E+03  0.00000000000E+00 0.  1.
          1   -1    0    0  501    0  0.00000000000E+00 -0.00000000000E+00 -0.83536736519E+03  0.83536736519E+03  0.00000000000E+00 0. -1.
          5    1    1    2  502    0 -0.13079211379E+03 -0.16370404742E+03  0.27686379232E+02  0.21139914893E+03  0.41800000000E+01 0.  1.
         -5    1    1    2    0  502  0.17186498598E+02 -0.68516546744E+02 -0.27155135559E+02  0.75794239220E+02  0.41800000000E+01 0.  1.
        -11    1    1    2    0    0  0.74486226748E+02  0.11312097093E+03 -0.23375179378E+03  0.27015634942E+03  0.00000000000E+00 0.  1.
         11    1    1    2    0    0  0.39119388447E+02  0.11909962323E+03 -0.43115488571E+03  0.44900955700E+03  0.00000000000E+00 0. -1.
</event>
<event>
 6    1  0.5317355E-006  0.1110323E+03  0.7561462E-02  0.1258670E+00
         -1   -1    0    0    0  501 -0.00000000000E+00  0.00000000000E+00  0.88543737808E+02  0.88543737808E+02  0.00000000000E+00 0.  1.
          1   -1    0    0  501    0  0.00000000000E+00 -0.00000000000E+00 -0.21592074112E+03  0.21592074112E+03  0.00000000000E+00 0. -1.
          5    1    1    2  502    0  0.41452005888E+02 -0.40262540900E+02 -0.70215760980E+02  0.91033326216E+02  0.41800000000E+01 0.  1.
         -5    1    1    2    0  502  0.41118092287E+02  0.45871265886E+02  0.23494388503E+02  0.66063070156E+02  0.41800000000E+01 0.  1.
        -11    1    1    2    0    0 -0.46508836572E+02 -0.33059770996E+02 -0.84414959714E+02  0.10189163735E+03  0.00000000000E+00 0. -1.
         11    1    1    2    0    0 -0.36061261602E+02  0.27451046010E+02  0.37593288783E+01  0.45476445211E+02  0.00000000000E+00 0.  1.
</event>
<event>
 6    1  0.5317355E-006  0.1375674E+03  0.7561462E-02  0.1216640E+00
         -1   -1    0    0    0  501 -0.00000000000E+00  0.00000000000E+00  0.22940561834E+02  0.22940561834E+02  0.00000000000E+00 0.  1.
          1   -1    0    0  501    0  0.00000000000E+00 -0.00000000000E+00 -0.90269151089E+03  0.90269151089E+03  0.00000000000E+00 0. -1.
          5    1    1    2  502    0 -0.43431212839E+02  0.31830365305E+02 -0.12360135795E+03  0.13488591658E+03  0.41800000000E+01 0. -1.
         -5    1    1    2    0  502  0.88463890065E+02  0.41653046263E+02 -0.23432679558E+03  0.25394360719E+03  0.41800000000E+01 0. -1.
        -11    1    1    2    0    0 -0.97277336047E+01  0.20592814049E+02 -0.60055205292E+02  0.64228657733E+02  0.00000000000E+00 0.  1.
         11    1    1    2    0    0 -0.35304943621E+02 -0.94076225618E+02 -0.46176759023E+03  0.47257389121E+03  0.00000000000E+00 0. -1.
</event>
<event>
 6    1  0.5317355E-006  0.9159518E+02  0.7561462E-02  0.1299034E+00
          3   -1    0    0  501    0  0.00000000000E+00  0.00000000000E+00  0.18964113516E+03  0.18964113516E+03  0.00000000000E+00 0. -1.
         -3   -1    0    0    0  501 -0.00000000000E+00 -0.00000000000E+00 -0.75255251793E+02  0.75255251793E+02  0.00000000000E+00 0.  1.
          5    1    1    2  502    0  0.50027615366E+02  0.72886580149E+02  0.25800763032E+02  0.92186591422E+02  0.41800000000E+01 0. -1.
         -5    1    1    2    0  502 -0.23508985460E+02 -0.36660062076E+02  0.22709222480E+02  0.49293140846E+02  0.41800000000E+01 0. -1.
        -11    1    1    2    0    0 -0.26053710341E+02 -0.15726694556E+02 -0.19147992186E+02  0.35955115754E+02  0.00000000000E+00 0.  1.
         11    1    1    2    0    0 -0.46491956544E+00 -0.20499823517E+02  0.85023890038E+02  0.87461538928E+02  0.00000000000E+00 0. -1.
</event>
<event>
 6    1  0.5317355E-006  0.1267671E+03  0.7561462E-02  0.1232333E+00
          2   -1    0    0  501    0  0.00000000000E+00  0.00000000000E+00  0.34854187494E+03  0.34854187494E+03  0.00000000000E+00 0. -1.
         -2   -1    0    0    0  501 -0.00000000000E+00 -0.00000000000E+00 -0.46538619415E+02  0.46538619415E+02  0.00000000000E+00 0.  1.
          5    1    1    2  502    0 -0.71571313512E+02 -0.31385667425E+02  0.79224017616E+02  0.11136170978E+03  0.41800000000E+01 0.  1.
         -5    1    1    2    0  502  0.52939131999E+02 -0.32480386334E+02  0.88598228517E+02  0.10828040307E+03  0.41800000000E+01 0.  1.
        -11    1    1    2    0    0  0.23700882784E+02 -0.18768675997E+02  0.35994393380E+02  0.47006291049E+02  0.00000000000E+00 0.  1.
         11    1    1    2    0    0 -0.50687012706E+01  0.82634729756E+02  0.98186616007E+02  0.12843209045E+03  0.00000000000E+00 0. -1.
</event>
<event>
 6    1  0.5317355E-006  0.1206957E+03  0.7561462E-02  0.1241954E+00
         -2   -1    0    0    0  501 -0.00000000000E+00  0.00000000000E+00  0.83742484235E+02  0.83742484235E+02  0.00000000000E+00 0. -1.
          2   -1    0    0  501    0  0.00000000000E+00 -0.00000000000E+00 -0.36167805917E+03  0.36167805917E+03  0.00000000000E+00 0.  1.
          5    1    1    2  502    0 -0.43775625234E+02  0.62272457329E+01  0.12741867200E+02  0.46205102897E+02  0.41800000000E+01 0. -1.
         -5    1    1    2    0  502  0.71615094394E+02  0.72405849560E+02 -0.23046810635E+02  0.10449859653E+03  0.41800000000E+01 0. -1.
        -11    1    1    2    0    0 -0.30895431431E+02 -0.21042155133E+02 -0.24158990754E+02  0.44507940979E+02  0.00000000000E+00 0. -1.
         11    1    1    2    0    0  0.30559622709E+01 -0.57590940160E+02 -0.24347164074E+03  0.25020890300E+03  0.00000000000E+00 0.  1.
</event>
<event>
 6    1  0.5317355E-006  0.1914481E+03  0.7561462E-02  0.1157162E+00
         -2   -1    0    0    0  501 -0.00000000000E+00  0.00000000000E+00  0.75397461624E+02  0.75397461624E+02  0.00000000000E+00 0.  1.
          2   -1    0    0  501    0  0.00000000000E+00 -0.00000000000E+00 -0.90859099339E+03  0.90859099339E+03  0.00000000000E+00 0. -1.
          5    1    1    2  502    0 -0.45513699674E+02  0.17209393575E+02  0.17464827398E+02  0.51866681803E+02  0.41800000000E+01 0.  1.
         -5    1    1    2    0  502 -0.12786951224E+03  0.59369702312E+02 -0.17385775605E+03  0.22387354791E+03  0.41800000000E+01 0.  1.
        -11    1    1    2    0    0  0.10616682498E+03 -0.27153790256E+02 -0.24398818095E+03  0.26746767187E+03  0.00000000000E+00 0.  1.
         11    1    1    2    0    0  0.67216386932E+02 -0.49425305632E+02 -0.43281242216E+03  0.44078055343E+03  0.00000000000E+00 0. -1.
</event>
<event>
 6    1  0.5317355E-006  0.1619524E+03  0.7561462E-02  0.1186510E+00
          2   -1    0    0  501    0  0.00000000000E+00  0.00000000000E+00  0.31285165076E+03  0.31285165076E+03  0.00000000000E+00 0.  1.
         -2   -1    0    0    0  501 -0.00000000000E+00 -0.00000000000E+00 -0.98142107350E+02  0.98142107350E+02  0.00000000000E+00 0. -1.
          5    1    1    2  502    0  0.78857455436E+02 -0.19738375911E+02  0.26739628125E+02  0.85677195762E+02  0.41800000000E+01 0. -1.
         -5    1    1    2    0  502 -0.23026521482E+02 -0.92928864762E+02  0.23502794065E+02  0.98670402484E+02  0.41800000000E+01 0. -1.
        -11    1    1    2    0    0 -0.57915408054E+02  0.32360782858E+02  0.36963029503E+02  0.75945245455E+02  0.00000000000E+00 0. -1.
         11    1    1    2    0    0  0.20844740996E+01  0.80306457815E+02  0.12750409172E+03  0.15070091441E+03  0.00000000000E+00 0.  1.
</event>
<event>
 6    1  0.5317355E-006  0.1095231E+03  0.7561462E-02  0.1261456E+00
         -2   -1    0    0    0  501 -0.00000000000E+00  0.00000000000E+00  0.19682439103E+02  0.19682439103E+02  0.00000000000E+00 0.  1.
          2   -1    0    0  501    0  0.00000000000E+00 -0.00000000000E+00 -0.10312728246E+04  0.10312728246E+04  0.00000000000E+00 0. -1.
          5    1    1    2  502    0  0.25310458230E+02 -0.15866832995E+02 -0.19785224478E+02  0.36073580260E+02  0.41800000000E+01 0. -1.
         -5    1    1    2    0  502 -0.15843540832E+02 -0.73865606148E+02 -0.51431730731E+03  0.51985277777E+03  0.41800000000E+01 0. -1.
        -11    1    1    2    0    0  0.14502590582E+02  0.88002524473E+02 -0.44893439021E+03  0.45770826534E+03  0.00000000000E+00 0. -1.
         11    1    1    2    0    0 -0.23969507980E+02  0.17299146703E+01 -0.28553463529E+02  0.37320640363E+02  0.00000000000E+00 0.  1.
</event>
<event>
 6    1  0.5317355E-006  0.1174220E+03  0.7561462E-02  0.1247412E+00
         -1   -1    0    0    0  501 -0.00000000000E+00  0.00000000000E+00  0.93237961776E+02  0.93237961776E+02  0.00000000000E+00 0.  1.
          1   -1    0    0  501    0  0.00000000000E+00 -0.00000000000E+00 -0.24596898185E+03  0.24596898185E+03  0.00000000000E+00 0. -1.
          5    1    1    2  502    0 -0.90595610137E+02 -0.59524070077E+02 -0.61147398538E+02  0.12452773283E+03  0.41800000000E+01 0.  1.
         -5    1    1    2    0  502  0.15187019039E+02  0.21445685810E+01  0.31398362478E+02  0.35193384151E+02  0.41800000000E+01 0.  1.
        -11    1    1    2    0    0  0.68811675508E+02  0.18810037387E+02 -0.27777269989E+02  0.76553516711E+02  0.00000000000E+00 0.  1.
         11    1    1    2    0    0  0.65969155902E+01  0.38569464110E+02 -0.95204714026E+02  0.10293230994E+03  0.00000000000E+00 0. -1.
</event>
<event>
 6    1  0.5317355E-006  0.1855674E+03  0.7561462E-02  0.1162521E+00
          4   -1    0    0  501    0  0.00000000000E+00  0.00000000000E+00  0.17742938783E+03  0.17742938783E+03  0.00000000000E+00 0. -1.
         -4   -1    0    0    0  501 -0.00000000000E+00 -0.00000000000E+00 -0.21284534700E+03  0.21284534700E+03  0.00000000000E+00 0.  1.
          5    1    1    2  502    0 -0.12193553520E+03 -0.12866719864E+03 -0.82250214086E+01  0.17750674953E+03  0.41800000000E+01 0.  1.
         -5    1    1    2    0  502 -0.46730605438E+00  0.25433879973E+02  0.12087690448E+01  0.25807637397E+02  0.41800000000E+01 0.  1.
        -11    1    1    2    0    0  0.14083610187E+02 -0.49699313974E+01 -0.30369554035E+02  0.33843139722E+02  0.00000000000E+00 0.  1.
         11    1    1    2    0    0  0.10831923107E+03  0.10820325007E+03  0.19698472345E+01  0.15311720818E+03  0.00000000000E+00 0. -1.
</event>
<event>
 6    1  0.5317355E-006  0.1902923E+03  0.7561462E-02  0.1158198E+00
         -1   -1    0    0    0  501 -0.00000000000E+00  0.00000000000E+00  0.33449873771E+03  0.33449873771E+03  0.00000000000E+00 0.  1.
          1   -1    0    0  501    0  0.00000000000E+00 -0.00000000000E+00 -0.18485099307E+03  0.18485099307E+03  0.00000000000E+00 0. -1.
          5    1    1    2  502    0  0.52425260451E+02  0.10797031623E+01  0.96421458000E+02  0.10983689569E+03  0.41800000000E+01 0. -1.
         -5    1    1    2    0  502  0.45441050852E+02 -0.14542308395E+03  0.12681030848E+03  0.19827024282E+03  0.41800000000E+01 0.  1.
        -11    1    1    2    0    0 -0.26674922963E+02  0.24751222938E+02 -0.61605585192E+02  0.71550141012E+02  0.00000000000E+00 0. -1.
         11    1    1    2    0    0 -0.71191388340E+02  0.11959215785E+03 -0.11978436648E+02  0.13969245126E+03  0.00000000000E+00 0.  1.
</event>
<event>
 6    1  0.5317355E-006  0.1204244E+03  0.7561462E-02  0.1242399E+00
          1   -1    0    0  501    0  0.00000000000E+00  0.00000000000E+00  0.14045854210E+03  0.14045854210E+03  0.00000000000E+00 0. -1.
         -1   -1    0    0    0  501 -0.00000000000E+00 -0.00000000000E+00 -0.10437501836E+03  0.10437501836E+03  0.00000000000E+00 0.  1.
          5    1    1    2  502    0 -0.83317402142E+02  0.46529205506E+02  0.21589787732E+02  0.97930321142E+02  0.41800000000E+01 0.  1.
         -5    1    1    2    0  502  0.37344978349E+02 -0.16433513992E+02  0.57754915125E+01  0.41419035385E+02  0.41800000000E+01 0.  1.
        -11    1    1    2    0    0  0.13724634729E+02  0.31736676116E+02 -0.32450044077E+01  0.34729127011E+02  0.00000000000E+00 0.  1.
         11    1    1    2    0    0  0.32247789064E+02 -0.61832367629E+02  0.11963248897E+02  0.70755076923E+02  0.00000000000E+00 0. -1.
</event>
<event>
 6    1  0.5317355E-006  0.1105882E+03  0.7561462E-02  0.1259484E+00
          2   -1    0    0  501    0  0.00000000000E+00  0.00000000000E+00  0.46900643551E+03  0.46900643551E+03  0.00000000000E+00 0.  1.
         -2   -1    0    0    0  501 -0.00000000000E+00 -0.00000000000E+00 -0.31942813230E+02  0.31942813230E+02  0.00000000000E+00 0. -1.
          5    1    1    2  502    0 -0.14984970337E+02  0.44331303079E+02  0.25857854249E+02  0.53627556303E+02  0.41800000000E+01 0. -1.
         -5    1    1    2    0  502  0.64954567093E+02 -0.20657786828E+02  0.19010032531E+03  0.20199367819E+03  0.41800000000E+01 0. -1.
        -11    1    1    2    0    0 -0.60997035179E+02  0.17357970812E+02  0.14249434330E+03  0.15596978978E+03  0.00000000000E+00 0.  1.
         11    1    1    2    0    0  0.11027438424E+02 -0.41031487063E+02  0.78611099416E+02  0.89358224469E+02  0.00000000000E+00 0. -1.
</event>
<event>
 6    1  0.5317355E-006  0.1731754E+03  0.7561462E-02  0.1174576E+00
         -2   -1    0    0    0  501 -0.00000000000E+00  0.00000000000E+00  0.12042364645E+03  0.12042364645E+03  0.00000000000E+00 0.  1.
          2   -1    0    0  501    0  0.00000000000E+00 -0.00000000000E+00 -0.30635024648E+03  0.30635024648E+03  0.00000000000E+00 0. -1.
          5    1    1    2  502    0 -0.12592328142E+02 -0.19432113367E+02  0.29452355383E+02  0.37697312843E+02  0.41800000000E+01 0.  1.
         -5    1    1    2    0  502 -0.13925395530E+03 -0.20112467484E+02 -0.10955738060E+03  0.17837171149E+03  0.41800000000E+01 0.  1.
        -11    1    1    2    0    0  0.13644732128E+03 -0.33467433916E+01 -0.75663672662E+02  0.15605788521E+03  0.00000000000E+00 0.  1.
         11    1    1    2    0    0  0.15398962165E+02  0.42891324243E+02 -0.30157902156E+02  0.54646983389E+02  0.00000000000E+00 0. -1.
</event>
<event>
 6    1  0.5317355E-006  0.1012054E+03  0.7561462E-02  0.1277781E+00
         -1   -1    0    0    0  501 -0.00000000000E+00  0.00000000000E+00  0.53540533142E+02  0.53540533142E+02  0.00000000000E+00 0.  1.
          1   -1    0    0  501    0  0.00000000000E+00 -0.00000000000E+00 -0.30287174848E+03  0.30287174848E+03  0.00000000000E+00 0. -1.
          5    1    1    2  502    0 -0.39057606539E+02 -0.16644613640E+02 -0.12062386818E+03  0.12794580793E+03  0.41800000000E+01 0. -1.
         -5    1    1    2    0  502 -0.11905239100E+02  0.56988313354E+02 -0.12139993780E+01  0.58381065179E+02  0.41800000000E+01 0. -1.
        -11    1    1    2    0    0  0.41793700460E+02 -0.63757947258E+02 -0.56844889891E+02  0.95095377087E+02  0.00000000000E+00 0. -1.
         11    1    1    2    0    0  0.91691451795E+01  0.23414247544E+02 -0.70648457891E+02  0.74990031429E+02  0.00000000000E+00 0.  1.
</event>
<event>
 6    1  0.5317355E-006  0.1108561E+03  0.7561462E-02  0.1258993E+00
         -2   -1    0    0    0  501 -0.00000000000E+00  0.00000000000E+00  0.49200918946E+02  0.49200918946E+02  0.00000000000E+00 0.  1.
          2   -1    0    0  501    0  0.00000000000E+00 -0.00000000000E+00 -0.33967141500E+03  0.33967141500E+03  0.00000000000E+00 0. -1.
          5    1    1    2  502    0  0.23893867600E+02 -0.23365377612E+02 -0.12001841194E+03  0.12465452011E+03  0.41800000000E+01 0.  1.
         -5    1    1    2    0  502  0.28846478549E+02  0.67546132788E+02 -0.22169512625E+02  0.76834621553E+02  0.41800000000E+01 0.  1.
        -11    1    1    2    0    0 -0.18735525280E+02  0.28566969628E+02 -0.40767114407E+02  0.53188807829E+02  0.00000000000E+00 0.  1.
         11    1    1    2    0    0 -0.34004820870E+02 -0.72747724803E+02 -0.10751545708E+03  0.13419438445E+03  0.00000000000E+00 0. -1.
</event>
<event>
 6    1  0.5317355E-006  0.2545606E+03  0.7561462E-02  0.1110456E+00
          2   -1    0    0  501    0  0.00000000000E+00  0.00000000000E+00  0.34824194744E+02  0.34824194744E+02  0.00000000000E+00 0. -1.
         -2   -1    0    0    0  501 -0.00000000000E+00 -0.00000000000E+00 -0.20481987925E+04  0.20481987925E+04  0.00000000000E+00 0.  1.
          5    1    1    2  502    0  0.10032068674E+03  0.10822580513E+03 -0.51155297086E+03  0.53242931876E+03  0.41800000000E+01 0. -1.
         -5    1    1    2    0  502 -0.18647755846E+02  0.11763048289E+03 -0.59051367144E+03  0.60241890563E+03  0.41800000000E+01 0. -1.
        -11    1    1    2    0    0 -0.72032166835E+02 -0.15632713082E+03 -0.78522637233E+03  0.80387017652E+03  0.00000000000E+00 0. -1.
         11    1    1    2    0    0 -0.96407640636E+01 -0.69529157194E+02 -0.12608158309E+03  0.14430458630E+03  0.00000000000E+00 0.  1.
</event>
<event>
 6    1  0.5317355E-006  0.3579866E+03  0.7561462E-02  0.1059384E+00
          2   -1    0    0  501    0  0.00000000000E+00  0.00000000000E+00  0.11131090305E+03  0.11131090305E+03  0.00000000000E+00 0. -1.
         -2   -1    0    0    0  501 -0.00000000000E+00 -0.00000000000E+00 -0.15680041847E+04  0.15680041847E+04  0.00000000000E+00 0.  1.
          5    1    1    2  502    0  0.35136751602E+02  0.27533612482E+03 -0.88955754654E+03  0.93186623179E+03  0.41800000000E+01 0. -1.
         -5    1    1    2    0  502  0.69911450805E+02  0.48817178779E+02 -0.27901194222E+03  0.29178050689E+03  0.41800000000E+01 0. -1.
        -11    1    1    2    0    0 -0.73277726143E+02 -0.87081166799E+02 -0.91172631016E+02  0.14582593530E+03  0.00000000000E+00 0. -1.
         11    1    1    2    0    0 -0.31770476264E+02 -0.23707213680E+03 -0.19695116185E+03  0.30984241376E+03  0.00000000000E+00 0.  1.
</event>
<event>
 6    1  0.5317355E-006  0.1121022E+03  0.7561462E-02  0.1256726E+00
         -1   -1    0    0    0  501 -0.00000000000E+00  0.00000000000E+00  0.13925465835E+03  0.13925465835E+03  0.00000000000E+00 0.  1.
          1   -1    0    0  501    0  0.00000000000E+00 -0.00000000000E+00 -0.22367665543E+03  0.22367665543E+03  0.00000000000E+00 0. -1.
          5    1    1    2  502    0  0.20422193432E+02 -0.34373495069E+02 -0.10561086204E+02  0.41564553283E+02  0.41800000000E+01 0. -1.
         -5    1    1    2    0  502  0.21523990665E+02  0.72183016203E+02  0.93733460657E+02  0.12032083797E+03  0.41800000000E+01 0.  1.
        -11    1    1    2    0    0 -0.33417885382E+02 -0.68765192832E+02 -0.97131227321E+02  0.12361182035E+03  0.00000000000E+00 0. -1.
         11    1    1    2    0    0 -0.85282987150E+01  0.30955671698E+02 -0.70463144211E+02  0.77434102185E+02  0.00000000000E+00 0.  1.
</event>
<event>
 6    1  0.5317355E-006  0.2216752E+03  0.7561462E-02  0.1132640E+00
         -2   -1    0    0    0  501 -0.00000000000E+00  0.00000000000E+00  0.31040572767E+02  0.31040572767E+02  0.00000000000E+00 0.  1.
          2   -1    0    0  501    0  0.00000000000E+00 -0.00000000000E+00 -0.16428022513E+04  0.16428022513E+04  0.00000000000E+00 0. -1.
          5    1    1    2  502    0 -0.93009031093E+02  0.25728004334E+02 -0.45354951185E+03  0.46372108230E+03  0.41800000000E+01 0. -1.
         -5    1    1    2    0  502 -0.24796379855E+02  0.13200998387E+03 -0.47077030538E+03  0.48957496783E+03  0.41800000000E+01 0. -1.
        -11    1    1    2    0    0  0.11562432548E+02 -0.79741048188E+02 -0.20053796909E+03  0.21611987798E+03  0.00000000000E+00 0.  1.
         11    1    1    2    0    0  0.10624297840E+03 -0.77996940013E+02 -0.48690389218E+03  0.50442689592E+03  0.00000000000E+00 0. -1.
</event>
<event>
 6    1  0.5317355E-006  0.1049166E+03  0.7561462E-02  0.1270284E+00
         -2   -1    0    0    0  501 -0.00000000000E+00  0.00000000000E+00  0.35850315055E+02  0.35850315055E+02  0.00000000000E+00 0.  1.
          2   -1    0    0  501    0  0.00000000000E+00 -0.00000000000E+00 -0.33371062144E+03  0.33371062144E+03  0.00000000000E+00 0. -1.
          5    1    1    2  502    0  0.14279066340E+02 -0.59990722079E+02 -0.46364634038E+02  0.77265323144E+02  0.41800000000E+01 0.  1.
         -5    1    1    2    0  502 -0.14179466950E+02  0.54998209810E+02 -0.10236966867E+03  0.11714470466E+03  0.41800000000E+01 0.  1.
        -11    1    1    2    0    0  0.26449910540E+02  0.39498678009E+02 -0.89236270009E+02  0.10110813626E+03  0.00000000000E+00 0. -1.
         11    1    1    2    0    0 -0.26549509931E+02 -0.34506165740E+02 -0.59889733663E+02  0.74042772435E+02  0.00000000000E+00 0.  1.
</event>
<event>
 6    1  0.5317355E-006  0.9277987E+02  0.7561462E-02  0.1296256E+00
          1   -1    0    0  501    0  0.00000000000E+00  0.00000000000E+00  0.35535888816E+03  0.35535888816E+03  0.00000000000E+00 0. -1.
         -1   -1    0    0    0  501 -0.00000000000E+00 -0.00000000000E+00 -0.37664879507E+02  0.37664879507E+02  0.00000000000E+00 0.  1.
          5    1    1    2  502    0 -0.52450966586E+02 -0.31181077514E+02  0.14363479978E+03  0.15611467451E+03  0.41800000000E+01 0.  1.
         -5    1    1    2    0  502  0.37958579918E+02  0.57900953910E+00  0.11689847466E+01  0.38210312309E+02  0.41800000000E+01 0.  1.
        -11    1    1    2    0    0  0.43685869606E+02 -0.30940996482E+00  0.40219332670E+02  0.59381357834E+02  0.00000000000E+00 0.  1.
         11    1    1    2    0    0 -0.29193482938E+02  0.30911477939E+02  0.13267089146E+03  0.13931742301E+03  0.00000000000E+00 0. -1.
</event>
<event>
 6    1  0.1949911E-005  0.2052802E+03  0.7561462E-02  0.1145359E+00
          1   -1    0    0  501    0  0.00000000000E+00  0.00000000000E+00  0.13642261471E+04  0.13642261471E+04  0.00000000000E+00 0. -1.
         -1   -1    0    0    0  501 -0.00000000000E+00 -0.00000000000E+00 -0.37876702512E+02  0.37876702512E+02  0.00000000000E+00 0.  1.
          5    1    1    2  502    0  0.66865229522E+02  0.13105741042E+02  0.71465993740E+02  0.98831068134E+02  0.41800000000E+01 0.  1.
         -5    1    1    2    0  502  0.12419198096E+03  0.41821904628E+02  0.55341317254E+03  0.56873221447E+03  0.41800000000E+01 0.  1.
        -11    1    1    2    0    0 -0.11533445296E+03 -0.68661568800E+02  0.52746682778E+03  0.54427722851E+03  0.00000000000E+00 0. -1.
         11    1    1    2    0    0 -0.75722757522E+02  0.13733923131E+02  0.17400345053E+03  0.19026233849E+03  0.00000000000E+00 0.  1.
</event>
<event>
 6    1  0.5317355E-006  0.9116825E+02  0.7561462E-02  0.1300047E+00
          2   -1    0    0  501    0  0.00000000000E+00  0.00000000000E+00  0.59304896426E+02  0.59304896426E+02  0.00000000000E+00 0. -1.
         -2   -1    0    0    0  501 -0.00000000000E+00 -0.00000000000E+00 -0.20794688961E+03  0.20794688961E+03  0.00000000000E+00 0.  1.
          5    1    1    2  502    0 -0.47165116042E+02  0.20559030109E+01 -0.13182697713E+02  0.49193808832E+02  0.41800000000E+01 0. -1.
         -5    1    1    2    0  502  0.47414370901E+02 -0.15175287166E+02 -0.11020046910E+03  0.12099598215E+03  0.41800000000E+01 0.  1.
        -11    1    1    2    0    0 -0.55453318698E+01  0.48697870054E+02 -0.34483081350E+02  0.59927590914E+02  0.00000000000E+00 0.  1.
         11    1    1    2    0    0  0.52960770107E+01 -0.35578485899E+02  0.92242549763E+01  0.37134404135E+02  0.00000000000E+00 0. -1.
</event>
<event>
 6    1  0.5317355E-006  0.1867695E+03  0.7561462E-02  0.1161408E+00
          1   -1    0    0  501    0  0.00000000000E+00  0.00000000000E+00  0.39810158859E+03  0.39810158859E+03  0.00000000000E+00 0. -1.
         -1   -1    0    0    0  501 -0.00000000000E+00 -0.00000000000E+00 -0.13249989674E+03  0.13249989674E+03  0.00000000000E+00 0.  1.
          5    1    1    2  502    0  0.11488868434E+02 -0.73129820718E+01  0.35627005917E+02  0.38369646275E+02  0.41800000000E+01 0. -1.
         -5    1    1    2    0  502 -0.17571381989E+03 -0.19358517613E+01 -0.22994419553E+02  0.17727185268E+03  0.41800000000E+01 0.  1.
        -11    1    1    2    0    0  0.72660243584E+02  0.44724860153E+02  0.85273329508E+02  0.12062903812E+03  0.00000000000E+00 0.  1.
         11    1    1    2    0    0  0.91564707870E+02 -0.35476026320E+02  0.16769577597E+03  0.19433094825E+03  0.00000000000E+00 0. -1.
</event>
<event>
 6    1  0.5317355E-006  0.7883277E+02  0.7561462E-02  0.1332397E+00
         -1   -1    0    0    0  501 -0.00000000000E+00  0.00000000000E+00  0.23354659546E+03  0.23354659546E+03  0.00000000000E+00 0. -1.
          1   -1    0    0  501    0  0.00000000000E+00 -0.00000000000E+00 -0.10740493600E+03  0.10740493600E+03  0.00000000000E+00 0.  1.
          5    1    1    2  502    0  0.44093993578E+02  0.22920483250E+02 -0.19675573881E+01  0.49909643398E+02  0.41800000000E+01 0.  1.
         -5    1    1    2    0  502  0.22984479437E+02 -0.30279066851E+01  0.16755130155E+03  0.16919918902E+03  0.41800000000E+01 0.  1.
        -11    1    1    2    0    0  0.49118254231E+01 -0.10558275325E+02 -0.47405030313E+02  0.48814343239E+02  0.00000000000E+00 0.  1.
         11    1    1    2    0    0 -0.71990298438E+02 -0.93343012397E+01  0.79629456046E+01  0.73028355805E+02  0.00000000000E+00 0. -1.
</event>
<event>
 6    1  0.5317355E-006  0.9592497E+02  0.7561462E-02  0.1289106E+00
         -4   -1    0    0    0  501 -0.00000000000E+00  0.00000000000E+00  0.65303244839E+03  0.65303244839E+03  0.00000000000E+00 0.  1.
          4   -1    0    0  501    0  0.00000000000E+00 -0.00000000000E+00 -0.36643587444E+02  0.36643587444E+02  0.00000000000E+00 0. -1.
          5    1    1    2  502    0 -0.98965888458E+01  0.10103340538E+02 -0.62779739237E+00  0.14760978639E+02  0.41800000000E+01 0.  1.
         -5    1    1    2    0  502  0.41345895757E+02  0.56275397008E+02  0.51306832037E+03  0.51781558221E+03  0.41800000000E+01 0.  1.
        -11    1    1    2    0    0  0.24759862460E+02 -0.34689885563E+02  0.75245255313E+02  0.86477091744E+02  0.00000000000E+00 0.  1.
         11    1    1    2    0    0 -0.56209169372E+02 -0.31688851983E+02  0.28703082652E+02  0.70622383245E+02  0.00000000000E+00 0. -1.
</event>
<event>
 6    1  0.5317355E-006  0.8872550E+02  0.7561462E-02  0.1305968E+00
          2   -1    0    0  501    0  0.00000000000E+00  0.00000000000E+00  0.30407036539E+03  0.30407036539E+03  0.00000000000E+00 0. -1.
         -2   -1    0    0    0  501 -0.00000000000E+00 -0.00000000000E+00 -0.44128188611E+02  0.44128188611E+02  0.00000000000E+00 0.  1.
          5    1    1    2  502    0  0.45275675322E+02  0.55667698890E+01  0.84752544595E+02  0.96339721394E+02  0.41800000000E+01 0.  1.
         -5    1    1    2    0  502 -0.59258034282E+02 -0.32590347092E+02  0.23054841765E+02  0.71572644770E+02  0.41800000000E+01 0.  1.
        -11    1    1    2    0    0  0.77159112660E+01 -0.17393726288E+02 -0.25775750949E+01  0.19202106504E+02  0.00000000000E+00 0.  1.
         11    1    1    2    0    0  0.62664476939E+01  0.44417303491E+02  0.15471236551E+03  0.16108408133E+03  0.00000000000E+00 0. -1.
</event>
<event>
 6    1  0.5317355E-006  0.1654353E+03  0.7561462E-02  0.1182693E+00
          1   -1    0    0  501    0  0.00000000000E+00  0.00000000000E+00  0.74882104961E+03  0.74882104961E+03  0.00000000000E+00 0. -1.
         -1   -1    0    0    0  501 -0.00000000000E+00 -0.00000000000E+00 -0.51998123452E+02  0.51998123452E+02  0.00000000000E+00 0.  1.
          5    1    1    2  502    0 -0.17569358795E+02 -0.11313673490E+02  0.31953876814E+01  0.21549117818E+02  0.41800000000E+01 0.  1.
         -5    1    1    2    0  502  0.15241898211E+03  0.44501800611E+02  0.18210047196E+03  0.24164025048E+03  0.41800000000E+01 0.  1.
        -11    1    1    2    0    0 -0.11151312406E+03 -0.16962726415E+01  0.45740600217E+03  0.47080601631E+03  0.00000000000E+00 0. -1.
         11    1    1    2    0    0 -0.23336499261E+02 -0.31491854480E+02  0.54121064356E+02  0.66823788455E+02  0.00000000000E+00 0.  1.
</event>
<event>
 6    1  0.5317355E-006  0.1345771E+03  0.7561462E-02  0.1220818E+00
         -2   -1    0    0    0  501 -0.00000000000E+00  0.00000000000E+00  0.37893763767E+03  0.37893763767E+03  0.00000000000E+00 0.  1.
          2   -1    0    0  501    0  0.00000000000E+00 -0.00000000000E+00 -0.57131916012E+02  0.57131916012E+02  0.00000000000E+00 0. -1.
          5    1    1    2  502    0 -0.58953943857E+02  0.47435757507E+02  0.16797287806E+03  0.18427717914E+03  0.41800000000E+01 0. -1.
         -5    1    1    2    0  502 -0.38731382860E+02 -0.49462361847E+02  0.30794696435E+02  0.70088736515E+02  0.41800000000E+01 0. -1.
        -11    1    1    2    0    0 -0.52871236434E+01 -0.23690902405E+02  0.89255074626E+01  0.25862660664E+02  0.00000000000E+00 0. -1.
         11    1    1    2    0    0  0.10297245036E+03  0.25717506744E+02  0.11411263969E+03  0.15584097736E+03  0.00000000000E+00 0.  1.
</event>
<event>
 6    1  0.5317355E-006  0.1141210E+03  0.7561462E-02  0.1253123E+00
          3   -1    0    0  501    0  0.00000000000E+00  0.00000000000E+00  0.10329177022E+03  0.10329177022E+03  0.00000000000E+00 0. -1.
         -3   -1    0    0    0  501 -0.00000000000E+00 -0.00000000000E+00 -0.14867524678E+03  0.14867524678E+03  0.00000000000E+00 0.  1.
          5    1    1    2  502    0 -0.68853234839E+01  0.41573858499E+02 -0.23518111774E+02  0.48439316381E+02  0.41800000000E+01 0. -1.
         -5    1    1    2    0  502 -0.45830998399E+02 -0.74385576500E+02 -0.59571326602E+00  0.87472976854E+02  0.41800000000E+01 0.  1.
        -11    1    1    2    0    0  0.26938792461E+02  0.57018748276E+02  0.15605371058E+02  0.64964327135E+02  0.00000000000E+00 0. -1.
         11    1    1    2    0    0  0.25777529421E+02 -0.24207030276E+02 -0.36875022579E+02  0.51090396632E+02  0.00000000000E+00 0.  1.
</event>
<event>
 6    1  0.5317355E-006  0.9845817E+02  0.7561462E-02  0.1283572E+00
         -1   -1    0    0    0  501 -0.00000000000E+00  0.00000000000E+00  0.52030823277E+02  0.52030823277E+02  0.00000000000E+00 0.  1.
          1   -1    0    0  501    0  0.00000000000E+00 -0.00000000000E+00 -0.32115426654E+03  0.32115426654E+03  0.00000000000E+00 0. -1.
          5    1    1    2  502    0 -0.24492825267E+02 -0.43622787309E+01  0.13542168182E+02  0.28631987084E+02  0.41800000000E+01 0. -1.
         -5    1    1    2    0  502  0.27851383046E+02  0.74459662397E+02 -0.14757309873E+03  0.16767597541E+03  0.41800000000E+01 0. -1.
        -11    1    1    2    0    0  0.20658872726E+01  0.10803351981E+02  0.71705212365E+01  0.13129991586E+02  0.00000000000E+00 0.  1.
         11    1    1    2    0    0 -0.54244450514E+01 -0.80900735647E+02 -0.14226303396E+03  0.16374713574E+03  0.00000000000E+00 0. -1.
</event>
<event>
 6    1  0.5317355E-006  0.1047033E+03  0.7561462E-02  0.1270705E+00
         -1   -1    0    0    0  501 -0.00000000000E+00  0.00000000000E+00  0.14136273718E+04  0.14136273718E+04  0.00000000000E+00 0.  1.
          1   -1    0    0  501    0  0.00000000000E+00 -0.00000000000E+00 -0.11844579322E+02  0.11844579322E+02  0.00000000000E+00 0. -1.
          5    1    1    2  502    0 -0.31989152969E+02  0.18531880502E+01  0.90215157727E+02  0.95827904586E+02  0.41800000000E+01 0. -1.
         -5    1    1    2    0  502  0.74051375903E+02  0.37403949534E+02  0.91706429800E+03  0.92081869051E+03  0.41800000000E+01 0. -1.
        -11    1    1    2    0    0 -0.10690305041E+02 -0.56992985031E+02  0.32892346894E+03  0.33399570564E+03  0.00000000000E+00 0.  1.
         11    1    1    2    0    0 -0.31371917893E+02  0.17735847446E+02  0.65579867847E+02  0.74829650432E+02  0.00000000000E+00 0. -1.
</event>
<event>
 6    1  0.5317355E-006  0.1699460E+03  0.7561462E-02  0.1177904E+00
         -2   -1    0    0    0  501 -0.00000000000E+00  0.00000000000E+00  0.43335533233E+02  0.43335533233E+02  0.00000000000E+00 0.  1.
          2   -1    0    0  501    0  0.00000000000E+00 -0.00000000000E+00 -0.91890470765E+03  0.91890470765E+03  0.00000000000E+00 0. -1.
          5    1    1    2  502    0  0.36330990442E+02  0.28892786394E+02 -0.12241377822E+02  0.48187733948E+02  0.41800000000E+01 0.  1.
         -5    1    1    2    0  502  0.43104161782E+02  0.10851903837E+03 -0.32026009146E+03  0.34090812403E+03  0.41800000000E+01 0.  1.
        -11    1    1    2    0    0 -0.68739550604E+02 -0.42255799513E+02 -0.32701990235E+03  0.33682739637E+03  0.00000000000E+00 0. -1.
         11    1    1    2    0    0 -0.10695601620E+02 -0.95156025251E+02 -0.21604780279E+03  0.23631698654E+03  0.00000000000E+00 0.  1.
</event>
<event>
 6    1  0.5317355E-006  0.1491219E+03  0.7561462E-02  0.1201556E+00
         -2   -1    0    0    0  501 -0.00000000000E+00  0.00000000000E+00  0.15463840804E+03  0.15463840804E+03  0.00000000000E+00 0.  1.
          2   -1    0    0  501    0  0.00000000000E+00 -0.00000000000E+00 -0.27117514861E+03  0.27117514861E+03  0.00000000000E+00 0. -1.
          5    1    1    2  502    0  0.62696212288E+02  0.86750795896E+02  0.71436281658E+02  0.12875220527E+03  0.41800000000E+01 0. -1.
         -5    1    1    2    0  502 -0.45329773446E+02  0.37184901295E+02 -0.77814754987E+01  0.59291896629E+02  0.41800000000E+01 0. -1.
        -11    1    1    2    0    0 -0.25410757907E+02 -0.36110331490E+02 -0.12774371345E+03  0.13515960559E+03  0.00000000000E+00 0. -1.
         11    1    1    2    0    0  0.80443190652E+01 -0.87825365700E+02 -0.52447833279E+02  0.10260984916E+03  0.00000000000E+00 0.  1.
</event>
<event>
 6    1  0.5317355E-006  0.1145195E+03  0.7561462E-02  0.1252422E+00
         -1   -1    0    0    0  501 -0.00000000000E+00  0.00000000000E+00  0.23679974466E+02  0.23679974466E+02  0.00000000000E+00 0.  1.
          1   -1    0    0  501    0  0.00000000000E+00 -0.00000000000E+00 -0.62924118856E+03  0.62924118856E+03  0.00000000000E+00 0. -1.
          5    1    1    2  502    0  0.85262265058E+02 -0.18588086928E+02 -0.13927745667E+03  0.16441062360E+03  0.41800000000E+01 0.  1.
         -5    1    1    2    0  502 -0.29620498449E+02  0.18962155169E+02 -0.17254875597E+03  0.17614619736E+03  0.41800000000E+01 0.  1.
        -11    1    1    2    0    0 -0.80621570518E+02 -0.52998456988E+01 -0.22221913931E+03  0.23645141546E+03  0.00000000000E+00 0. -1.
         11    1    1    2    0    0  0.24979803909E+02  0.49257774582E+01 -0.71515862140E+02  0.75912926597E+02  0.00000000000E+00 0.  1.
</event>
<event>
 6    1  0.5317355E-006  0.3756945E+03  0.7561462E-02  0.1052537E+00
          2   -1    0    0  501    0  0.00000000000E+00  0.00000000000E+00  0.11703299114E+04  0.11703299114E+04  0.00000000000E+00 0. -1.
         -2   -1    0    0    0  501 -0.00000000000E+00 -0.00000000000E+00 -0.12612909005E+03  0.12612909005E+03  0.00000000000E+00 0.  1.
          5    1    1    2  502    0  0.28636590257E+03  0.14950441319E+03  0.36270577658E+03  0.48572621144E+03  0.41800000000E+01 0.  1.
         -5    1    1    2    0  502  0.55684870732E+02 -0.25849228294E+02  0.72100392781E+02  0.94788852040E+02  0.41800000000E+01 0.  1.
        -11    1    1    2    0    0 -0.12022394194E+03 -0.19776306921E+02  0.28084810134E+03  0.30613812987E+03  0.00000000000E+00 0. -1.
         11    1    1    2    0    0 -0.22182683137E+03 -0.10387887798E+03  0.32854655060E+03  0.40980580806E+03  0.00000000000E+00 0.  1.
</event>
<event>
 6    1  0.5317355E-006  0.1121387E+03  0.7561462E-02  0.1256660E+00
         -1   -1    0    0    0  501 -0.00000000000E+00  0.00000000000E+00  0.37831810756E+02  0.37831810756E+02  0.00000000000E+00 0.  1.
          1   -1    0    0  501    0  0.00000000000E+00 -0.00000000000E+00 -0.34772706708E+03  0.34772706708E+03  0.00000000000E+00 0. -1.
          5    1    1    2  502    0 -0.79450036359E+02 -0.95194176399E+01 -0.93146385438E+02  0.12286842194E+03  0.41800000000E+01 0. -1.
         -5    1    1    2    0  502  0.36901723682E+02  0.41415638971E+02 -0.56409258029E+02  0.79224170261E+02  0.41800000000E+01 0. -1.
        -11    1    1    2    0    0  0.36040216313E+02  0.16537262930E+02 -0.60974098964E+02  0.72733891698E+02  0.00000000000E+00 0.  1.
         11    1    1    2    0    0  0.65080963638E+01 -0.48433484261E+02 -0.99365513895E+02  0.11073239394E+03  0.00000000000E+00 0. -1.
</event>
<event>
 6    1  0.5317355E-006  0.1523570E+03  0.7561462E-02  0.1197606E+00
         -1   -1    0    0    0  501 -0.00000000000E+00  0.00000000000E+00  0.40926699167E+02  0.40926699167E+02  0.00000000000E+00 0.  1.
          1   -1    0    0  501    0  0.00000000000E+00 -0.00000000000E+00 -0.67972332041E+03  0.67972332041E+03  0.00000000000E+00 0. -1.
          5    1    1    2  502    0 -0.32258265843E+02  0.11313803840E+03 -0.16233688940E+03  0.20052817634E+03  0.41800000000E+01 0.  1.
         -5    1    1    2    0  502 -0.48367699599E+02 -0.24480457434E+02 -0.10039642228E+03  0.11417373239E+03  0.41800000000E+01 0.  1.
        -11    1    1    2    0    0  0.35824948051E+02 -0.29933790484E+01 -0.30587043116E+02  0.47201212141E+02  0.00000000000E+00 0.  1.
         11    1    1    2    0    0  0.44801017391E+02 -0.85664201920E+02 -0.34547626645E+03  0.35874689870E+03  0.00000000000E+00 0. -1.
</event>
<event>
 6    1  0.5317355E-006  0.9611851E+02  0.7561462E-02  0.1288677E+00
         -2   -1    0    0    0  501 -0.00000000000E+00  0.00000000000E+00  0.11913214707E+03  0.11913214707E+03  0.00000000000E+00 0.  1.
          2   -1    0    0  501    0  0.00000000000E+00 -0.00000000000E+00 -0.12478624075E+03  0.12478624075E+03  0.00000000000E+00 0. -1.
          5    1    1    2  502    0 -0.52048666112E+02  0.19701182415E+02 -0.25319453296E+02  0.61284152502E+02  0.41800000000E+01 0. -1.
         -5    1    1    2    0  502  0.28285743559E+02 -0.68008476943E+02  0.15020834512E+02  0.75288339696E+02  0.41800000000E+01 0. -1.
        -11    1    1    2    0    0  0.13113103026E+02  0.50157861062E+02 -0.37405248979E+02  0.63929000840E+02  0.00000000000E+00 0. -1.
         11    1    1    2    0    0  0.10649819528E+02 -0.18505665340E+01  0.42049774077E+02  0.43416894781E+02  0.00000000000E+00 0.  1.
</event>
<event>
 6    1  0.5317355E-006  0.1541763E+03  0.7561462E-02  0.1195433E+00
          2   -1    0    0  501    0  0.00000000000E+00  0.00000000000E+00  0.10045354913E+03  0.10045354913E+03  0.00000000000E+00 0.  1.
         -2   -1    0    0    0  501 -0.00000000000E+00 -0.00000000000E+00 -0.27407247654E+03  0.27407247654E+03  0.00000000000E+00 0. -1.
          5    1    1    2  502    0  0.41126724809E+02 -0.49466119684E+02 -0.26520563339E+02  0.69707368118E+02  0.41800000000E+01 0.  1.
         -5    1    1    2    0  502  0.80539740181E+02  0.73340159830E+02 -0.91300076923E+02  0.14219214197E+03  0.41800000000E+01 0.  1.
        -11    1    1    2    0    0 -0.74865776856E+02 -0.40615843786E+02  0.35076420036E+01  0.85245732228E+02  0.00000000000E+00 0.  1.
         11    1    1    2    0    0 -0.46800688134E+02  0.16741803639E+02 -0.59305929156E+02  0.77380783351E+02  0.00000000000E+00 0. -1.
</event>
<event>
 6    1  0.5317355E-006  0.1175543E+03  0.7561462E-02  0.1247187E+00
          2   -1    0    0  501    0  0.00000000000E+00  0.00000000000E+00  0.23384248859E+03  0.23384248859E+03  0.00000000000E+00 0. -1.
         -2   -1    0    0    0  501 -0.00000000000E+00 -0.00000000000E+00 -0.13764794427E+03  0.13764794427E+03  0.00000000000E+00 0.  1.
          5    1    1    2  502    0 -0.55089099075E+01  0.99312257683E+01 -0.66957284772E+02  0.68042102537E+02  0.41800000000E+01 0. -1.
         -5    1    1    2    0  502  0.85717713874E+02  0.52288040465E+02  0.14188240347E+02  0.10149061145E+03  0.41800000000E+01 0. -1.
        -11    1    1    2    0    0 -0.12467960995E+01  0.13236467463E+02 -0.41091785510E+01  0.13915599871E+02  0.00000000000E+00 0.  1.
         11    1    1    2    0    0 -0.78962007867E+02 -0.75455733696E+02  0.15307276729E+03  0.18804211901E+03  0.00000000000E+00 0. -1.
</event>
<event>
 6    1  0.5317355E-006  0.8027079E+02  0.7561462E-02  0.1328285E+00
          1   -1    0    0  501    0  0.00000000000E+00  0.00000000000E+00  0.47831565539E+03  0.47831565539E+03  0.00000000000E+00 0. -1.
         -1   -1    0    0    0  501 -0.00000000000E+00 -0.00000000000E+00 -0.30158559923E+02  0.30158559923E+02  0.00000000000E+00 0.  1.
          5    1    1    2  502    0  0.89640356445E+01  0.37142688490E+02  0.22489790705E+03  0.22815887938E+03  0.41800000000E+01 0.  1.
         -5    1    1    2    0  502  0.40753042169E+02 -0.26699647304E+02  0.22819138273E+02  0.53961718687E+02  0.41800000000E+01 0.  1.
        -11    1    1    2    0    0 -0.52942775390E+02  0.88212380780E+01  0.19972173577E+03  0.20680793855E+03  0.00000000000E+00 0. -1.
         11    1    1    2    0    0  0.32256975771E+01 -0.19264279264E+02  0.71831437535E+00  0.19545678703E+02  0.00000000000E+00 0.  1.
</event>
<event>
 6    1  0.5317355E-006  0.9768090E+02  0.7561462E-02  0.1285250E+00
          2   -1    0    0  501    0  0.00000000000E+00  0.00000000000E+00  0.38169850835E+03  0.38169850835E+03  0.00000000000E+00 0. -1.
         -2   -1    0    0    0  501 -0.00000000000E+00 -0.00000000000E+00 -0.41217255342E+02  0.41217255342E+02  0.00000000000E+00 0.  1.
          5    1    1    2  502    0 -0.29368876592E+02  0.61575472882E+02  0.40308340748E+02  0.79349256497E+02  0.41800000000E+01 0. -1.
         -5    1    1    2    0  502  0.30686502197E+02 -0.47782365052E+02  0.46828098039E+02  0.73723530796E+02  0.41800000000E+01 0. -1.
        -11    1    1    2    0    0  0.33312086606E+02 -0.15721331497E+01  0.34669178732E+02  0.48105287346E+02  0.00000000000E+00 0.  1.
         11    1    1    2    0    0 -0.34629712212E+02 -0.12220974680E+02  0.21867563549E+03  0.22173768906E+03  0.00000000000E+00 0. -1.
</event>
<event>
 6    1  0.5317355E-006  0.1132625E+03  0.7561462E-02  0.1254645E+00
         -1   -1    0    0    0  501 -0.00000000000E+00  0.00000000000E+00  0.15094756034E+03  0.15094756034E+03  0.00000000000E+00 0.  1.
          1   -1    0    0  501    0  0.00000000000E+00 -0.00000000000E+00 -0.14423084562E+03  0.14423084562E+03  0.00000000000E+00 0. -1.
          5    1    1    2  502    0 -0.22130551201E+02  0.90879101785E+02  0.11504770329E+02  0.94332415309E+02  0.41800000000E+01 0. -1.
         -5    1    1    2    0  502  0.24163571875E+02 -0.18212485643E+02  0.59385106248E+02  0.66780506760E+02  0.41800000000E+01 0. -1.
        -11    1    1    2    0    0 -0.35688480393E+02 -0.51275690555E+02 -0.49513485515E+01  0.62668811439E+02  0.00000000000E+00 0.  1.
         11    1    1    2    0    0  0.33655459720E+02 -0.21390925587E+02 -0.59221813307E+02  0.71396672456E+02  0.00000000000E+00 0. -1.
</event>
<event>
 6    1  0.5317355E-006  0.1305218E+03  0.7561462E-02  0.1226684E+00
         -3   -1    0    0    0  501 -0.00000000000E+00  0.00000000000E+00  0.94967855533E+02  0.94967855533E+02  0.00000000000E+00 0.  1.
          3   -1    0    0  501    0  0.00000000000E+00 -0.00000000000E+00 -0.19287577800E+03  0.19287577800E+03  0.00000000000E+00 0. -1.
          5    1    1    2  502    0  0.71570346874E+02 -0.65586634643E+01 -0.67397531727E+01  0.72306481666E+02  0.41800000000E+01 0.  1.
         -5    1    1    2    0  502 -0.18298942187E+02  0.67107194385E+02 -0.55264891205E+02  0.88937660321E+02  0.41800000000E+01 0.  1.
        -11    1    1    2    0    0  0.24303747061E+02 -0.21829404922E+02 -0.20425108587E+02  0.38527653721E+02  0.00000000000E+00 0. -1.
         11    1    1    2    0    0 -0.77575151748E+02 -0.38719125998E+02 -0.15478169502E+02  0.88071837825E+02  0.00000000000E+00 0.  1.
</event>
<event>
 6    1  0.5317355E-006  0.1143674E+03  0.7561462E-02  0.1252689E+00
         -2   -1    0    0    0  501 -0.00000000000E+00  0.00000000000E+00  0.27345511784E+02  0.27345511784E+02  0.00000000000E+00 0.  1.
          2   -1    0    0  501    0  0.00000000000E+00 -0.00000000000E+00 -0.60017560721E+03  0.60017560721E+03  0.00000000000E+00 0. -1.
          5    1    1    2  502    0 -0.54641861453E+02  0.61181044949E+02 -0.30436629576E+03  0.31525413190E+03  0.41800000000E+01 0. -1.
         -5    1    1    2    0  502 -0.61370034910E+01 -0.28652555059E+02 -0.15520715210E+02  0.33421500922E+02  0.41800000000E+01 0.  1.
        -11    1    1    2    0    0  0.46489732305E+02 -0.65928631142E+02 -0.16392701451E+03  0.18270179447E+03  0.00000000000E+00 0.  1.
         11    1    1    2    0    0  0.14289132639E+02  0.33400141252E+02 -0.89016069950E+02  0.96143691715E+02  0.00000000000E+00 0. -1.
</event>
<event>
 6    1  0.5317355E-006  0.1265768E+03  0.7561462E-02  0.1232625E+00
          1   -1    0    0  501    0  0.00000000000E+00  0.00000000000E+00  0.91709439598E+02  0.91709439598E+02  0.00000000000E+00 0. -1.
         -1   -1    0    0    0  501 -0.00000000000E+00 -0.00000000000E+00 -0.26929476551E+03  0.26929476551E+03  0.00000000000E+00 0.  1.
          5    1    1    2  502    0  0.62640053502E+02 -0.87353196056E+02 -0.69122945309E+02  0.12786637999E+03  0.41800000000E+01 0. -1.
         -5    1    1    2    0  502  0.26116935879E+02  0.29426611684E+02  0.18564450071E+02  0.43705045720E+02  0.41800000000E+01 0. -1.
        -11    1    1    2    0    0 -0.27997740162E+02  0.19625563071E+02 -0.11058642216E+03  0.11575142741E+03  0.00000000000E+00 0.  1.
         11    1    1    2    0    0 -0.60759249219E+02  0.38301021301E+02 -0.16440408505E+02  0.73681351984E+02  0.00000000000E+00 0. -1.
</event>
<event>
 6    1  0.5317355E-006  0.1534128E+03  0.7561462E-02  0.1196341E+00
         -2   -1    0    0    0  501 -0.00000000000E+00  0.00000000000E+00  0.52350722487E+02  0.52350722487E+02  0.00000000000E+00 0.  1.
          2   -1    0    0  501    0  0.00000000000E+00 -0.00000000000E+00 -0.69459065806E+03  0.69459065806E+03  0.00000000000E+00 0. -1.
          5    1    1    2  502    0 -0.72095410870E+02 -0.86897860514E+02 -0.31143739109E+03  0.33130002626E+03  0.41800000000E+01 0. -1.
         -5    1    1    2    0  502  0.53434591524E+02 -0.15376623749E+02  0.14128396986E+01  0.55777814992E+02  0.41800000000E+01 0.  1.
        -11    1    1    2    0    0  0.53569510639E+02  0.81267572952E+02 -0.22405135237E+03  0.24428082074E+03  0.00000000000E+00 0. -1.
         11    1    1    2    0    0 -0.34908691293E+02  0.21006911311E+02 -0.10816403182E+03  0.11558271856E+03  0.00000000000E+00 0.  1.
</event>
<event>
 6    1  0.5317355E-006  0.1050207E+03  0.7561462E-02  0.1270079E+00
          4   -1    0    0  501    0  0.00000000000E+00  0.00000000000E+00  0.10178008981E+03  0.10178008981E+03  0.00000000000E+00 0.  1.
         -4   -1    0    0    0  501 -0.00000000000E+00 -0.00000000000E+00 -0.12780347311E+03  0.12780347311E+03  0.00000000000E+00 0. -1.
          5    1    1    2  502    0  0.45168170906E+02  0.68535280058E+02 -0.11720620136E+02  0.83018634125E+02  0.41800000000E+01 0. -1.
         -5    1    1    2    0  502 -0.24925005860E+02 -0.40364700262E+02 -0.66364591975E+01  0.48084092328E+02  0.41800000000E+01 0. -1.
        -11    1    1    2    0    0 -0.10756364946E+02 -0.52775217785E+02 -0.31957633188E+02  0.62627576339E+02  0.00000000000E+00 0. -1.
         11    1    1    2    0    0 -0.94868001001E+01  0.24604637989E+02  0.24291329216E+02  0.35853260127E+02  0.00000000000E+00 0.  1.
</event>
<event>
 6    1  0.5317355E-006  0.1186336E+03  0.7561462E-02  0.1245368E+00
          2   -1    0    0  501    0  0.00000000000E+00  0.00000000000E+00  0.15328485155E+03  0.15328485155E+03  0.00000000000E+00 0. -1.
         -2   -1    0    0    0  501 -0.00000000000E+00 -0.00000000000E+00 -0.10104188043E+03  0.10104188043E+03  0.00000000000E+00 0.  1.
          5    1    1    2  502    0  0.12722388103E+02  0.95721362259E+02  0.10188540519E+02  0.97189079169E+02  0.41800000000E+01 0.  1.
         -5    1    1    2    0  502  0.73523890697E+01 -0.39216051636E+02  0.19788345248E+02  0.44732620520E+02  0.41800000000E+01 0.  1.
        -11    1    1    2    0    0 -0.47128381352E+02 -0.12362949586E+02 -0.12177113175E+02  0.50221598308E+02  0.00000000000E+00 0.  1.
         11    1    1    2    0    0  0.27053604180E+02 -0.44142361037E+02  0.34443198525E+02  0.62183433981E+02  0.00000000000E+00 0. -1.
</event>
<event>
 6    1  0.5317355E-006  0.1260137E+03  0.7561462E-02  0.1233494E+00
         -2   -1    0    0    0  501 -0.00000000000E+00  0.00000000000E+00  0.56824467125E+02  0.56824467125E+02  0.00000000000E+00 0.  1.
          2   -1    0    0  501    0  0.00000000000E+00 -0.00000000000E+00 -0.39834161782E+03  0.39834161782E+03  0.00000000000E+00 0. -1.
          5    1    1    2  502    0  0.23977411892E+02 -0.47560408441E+02 -0.10307863195E+03  0.11610161711E+03  0.41800000000E+01 0. -1.
         -5    1    1    2    0  502  0.70098982351E+02  0.37503691991E+02 -0.16941485772E+02  0.81393369385E+02  0.41800000000E+01 0. -1.
        -11    1    1    2    0    0  0.11199587368E+02  0.78760147044E+01 -0.80705042974E+02  0.81858208668E+02  0.00000000000E+00 0. -1.
         11    1    1    2    0    0 -0.10527598161E+03  0.21807017455E+01 -0.14079199000E+03  0.17581288978E+03  0.00000000000E+00 0.  1.
</event>
<event>
 6    1  0.5317355E-006  0.2003667E+03  0.7561462E-02  0.1149430E+00
         -2   -1    0    0    0  501 -0.00000000000E+00  0.00000000000E+00  0.63896375868E+02  0.63896375868E+02  0.00000000000E+00 0.  1.
          2   -1    0    0  501    0  0.00000000000E+00 -0.00000000000E+00 -0.71097688981E+03  0.71097688981E+03  0.00000000000E+00 0. -1.
          5    1    1    2  502    0  0.13506955083E+03  0.46450912860E+02 -0.14464461282E+03  0.20332488112E+03  0.41800000000E+01 0. -1.
         -5    1    1    2    0  502  0.46723474898E+02 -0.27579901874E+02 -0.19263190211E+03  0.20017056777E+03  0.41800000000E+01 0. -1.
        -11    1    1    2    0    0 -0.16391716574E+03  0.15532205227E+02 -0.23250856167E+03  0.28490405029E+03  0.00000000000E+00 0.  1.
         11    1    1    2    0    0 -0.17875859985E+02 -0.34403216213E+02 -0.77295437348E+02  0.86473766489E+02  0.00000000000E+00 0. -1.
</event>
<event>
 6    1  0.5317355E-006  0.9986797E+02  0.7561462E-02  0.1280574E+00
         -3   -1    0    0    0  501 -0.00000000000E+00  0.00000000000E+00  0.45745023428E+02  0.45745023428E+02  0.00000000000E+00 0.  1.
          3   -1    0    0  501    0  0.00000000000E+00 -0.00000000000E+00 -0.35775963118E+03  0.35775963118E+03  0.00000000000E+00 0. -1.
          5    1    1    2  502    0 -0.73843131851E+02  0.77961089510E+01 -0.19051499977E+02  0.76772517789E+02  0.41800000000E+01 0. -1.
         -5    1    1    2    0  502  0.13790016065E+02 -0.21430470847E+02 -0.11075395624E+03  0.11372484709E+03  0.41800000000E+01 0. -1.
        -11    1    1    2    0    0  0.54132677887E+02 -0.25586637360E+02 -0.61009643970E+02  0.85482158864E+02  0.00000000000E+00 0.  1.
         11    1    1    2    0    0  0.59204378990E+01  0.39220999255E+02 -0.12119950757E+03  0.12752513087E+03  0.00000000000E+00 0. -1.
</event>
<event>
 6    1  0.5317355E-006  0.8486591E+02  0.7561462E-02  0.1315784E+00
          1   -1    0    0  501    0  0.00000000000E+00  0.00000000000E+00  0.44877112398E+03  0.44877112398E+03  0.00000000000E+00 0. -1.
         -1   -1    0    0    0  501 -0.00000000000E+00 -0.00000000000E+00 -0.40540911862E+02  0.40540911862E+02  0.00000000000E+00 0.  1.
          5    1    1    2  502    0  0.53755110484E+02 -0.86684914881E+01  0.99496290427E+00  0.54618833739E+02  0.41800000000E+01 0. -1.
         -5    1    1    2    0  502  0.35058253025E+01 -0.33171827049E+02  0.15068265641E+03  0.15438716353E+03  0.41800000000E+01 0. -1.
        -11    1    1    2    0    0 -0.16327628770E+02  0.36803265156E+02  0.30469910671E+02  0.50492447392E+02  0.00000000000E+00 0.  1.
         11    1    1    2    0    0 -0.40933307017E+02  0.50370533812E+01  0.22608268213E+03  0.22981359118E+03  0.00000000000E+00 0. -1.
</event>
<event>
 6    1  0.5317355E-006  0.1260348E+03  0.7561462E-02  0.1233461E+00
         -2   -1    0    0    0  501 -0.00000000000E+00  0.00000000000E+00  0.28234811492E+02  0.28234811492E+02  0.00000000000E+00 0. -1.
          2   -1    0    0  501    0  0.00000000000E+00 -0.00000000000E+00 -0.66959121063E+03  0.66959121063E+03  0.00000000000E+00 0.  1.
          5    1    1    2  502    0 -0.43487704004E+02  0.75080789844E+02 -0.10910878351E+03  0.13946506531E+03  0.41800000000E+01 0. -1.
         -5    1    1    2    0  502  0.50602231994E+02 -0.62388560055E+01 -0.12191598647E+03  0.13221380172E+03  0.41800000000E+01 0. -1.
        -11    1    1    2    0    0 -0.42970282327E+02 -0.84208587607E+01 -0.18524912788E+03  0.19035386890E+03  0.00000000000E+00 0.  1.
         11    1    1    2    0    0  0.35855754337E+02 -0.60421075077E+02 -0.22508250129E+03  0.23579328620E+03  0.00000000000E+00 0. -1.
</event>
<event>
 6    1  0.5317355E-006  0.6070870E+02  0.7561462E-02  0.1394881E+00
         -2   -1    0    0    0  501 -0.00000000000E+00  0.00000000000E+00  0.43767562166E+02  0.43767562166E+02  0.00000000000E+00 0. -1.
          2   -1    0    0  501    0  0.00000000000E+00 -0.00000000000E+00 -0.29976774447E+03  0.29976774447E+03  0.00000000000E+00 0.  1.
          5    1    1    2  502    0 -0.40477527010E+02  0.12282965505E+02  0.12851235539E+02  0.44406396942E+02  0.41800000000E+01 0.  1.
         -5    1    1    2    0  502  0.22352408931E+02  0.13011888245E+02 -0.12116080137E+03  0.12396108909E+03  0.41800000000E+01 0.  1.
        -11    1    1    2    0    0  0.10966609732E+02 -0.37220569426E+02 -0.15477044529E+03  0.15956042132E+03  0.00000000000E+00 0.  1.
         11    1    1    2    0    0  0.71585083467E+01  0.11925715676E+02  0.70798288162E+01  0.15607399278E+02  0.00000000000E+00 0. -1.
</event>
<event>
 6    1  0.6263983E-006  0.1385885E+03  0.7561462E-02  0.1215241E+00
          2   -1    0    0  501    0  0.00000000000E+00  0.00000000000E+00  0.90178830801E+02  0.90178830801E+02  0.00000000000E+00 0. -1.
         -2   -1    0    0    0  501 -0.00000000000E+00 -0.00000000000E+00 -0.26896506342E+03  0.26896506342E+03  0.00000000000E+00 0.  1.
          5    1    1    2  502    0 -0.60905086453E+01  0.32420804742E+02 -0.35347940193E+02  0.48529909865E+02  0.41800000000E+01 0. -1.
         -5    1    1    2    0  502  0.10814105629E+03 -0.75159389010E+02 -0.74613379191E+02  0.15142011282E+03  0.41800000000E+01 0. -1.
        -11    1    1    2    0    0 -0.79439570093E+02  0.24551584141E+02 -0.90558129216E+02  0.12293982409E+03  0.00000000000E+00 0.  1.
         11    1    1    2    0    0 -0.22610977551E+02  0.18187000127E+02  0.21733215981E+02  0.36254047447E+02  0.00000000000E+00 0. -1.
</event>
<event>
 6    1  0.5317355E-006  0.1180987E+03  0.7561462E-02  0.1246267E+00
          2   -1    0    0  501    0  0.00000000000E+00  0.00000000000E+00  0.17927404010E+03  0.17927404010E+03  0.00000000000E+00 0. -1.
         -2   -1    0    0    0  501 -0.00000000000E+00 -0.00000000000E+00 -0.21154367791E+03  0.21154367791E+03  0.00000000000E+00 0.  1.
          5    1    1    2  502    0  0.68341045648E+01 -0.95066238193E+02 -0.29372775573E+02  0.99822477300E+02  0.41800000000E+01 0.  1.
         -5    1    1    2    0  502 -0.33800178269E+02 -0.71802506517E+01 -0.10957887743E+03  0.11497395717E+03  0.41800000000E+01 0.  1.
        -11    1    1    2    0    0  0.65562935836E+01  0.14731668030E+02 -0.16810259676E+02  0.23293601243E+02  0.00000000000E+00 0.  1.
         11    1    1    2    0    0  0.20409780121E+02  0.87514820815E+02  0.12349227487E+03  0.15272768229E+03  0.00000000000E+00 0. -1.
</event>
<event>
 6    1  0.5317355E-006  0.1958581E+03  0.7561462E-02  0.1153281E+00
         -2   -1    0    0    0  501 -0.00000000000E+00  0.00000000000E+00  0.10821818187E+03  0.10821818187E+03  0.00000000000E+00 0.  1.
          2   -1    0    0  501    0  0.00000000000E+00 -0.00000000000E+00 -0.48094829651E+03  0.48094829651E+03  0.00000000000E+00 0. -1.
          5    1    1    2  502    0 -0.58738005250E+02  0.19898667738E+02 -0.38768828386E+02  0.73257113600E+02  0.41800000000E+01 0. -1.
         -5    1    1    2    0  502 -0.76234406265E+02 -0.11859733188E+03 -0.11393113419E+02  0.14150719862E+03  0.41800000000E+01 0. -1.
        -11    1    1    2    0    0  0.45019340537E+02  0.86791802086E+02 -0.14328835935E+03  0.17346789864E+03  0.00000000000E+00 0. -1.
         11    1    1    2    0    0  0.89953070978E+02  0.11906862054E+02 -0.17927981348E+03  0.20093426752E+03  0.00000000000E+00 0.  1.
</event>
<event>
 6    1  0.5317355E-006  0.1794871E+03  0.7561462E-02  0.1168300E+00
         -1   -1    0    0    0  501 -0.00000000000E+00  0.00000000000E+00  0.65488420002E+02  0.65488420002E+02  0.00000000000E+00 0.  1.
          1   -1    0    0  501    0  0.00000000000E+00 -0.00000000000E+00 -0.53556295601E+03  0.53556295601E+03  0.00000000000E+00 0. -1.
          5    1    1    2  502    0  0.18486090722E+02  0.79715441159E+02 -0.10890678922E+03  0.13628810750E+03  0.41800000000E+01 0.  1.
         -5    1    1    2    0  502  0.10813137675E+03 -0.20579887763E+01 -0.79646742650E+02  0.13437896402E+03  0.41800000000E+01 0.  1.
        -11    1    1    2    0    0 -0.11292614770E+03 -0.26699155690E+02 -0.22436452055E+03  0.25259572013E+03  0.00000000000E+00 0. -1.
         11    1    1    2    0    0 -0.13691319778E+02 -0.50958296693E+02 -0.57156483590E+02  0.77788584352E+02  0.00000000000E+00 0.  1.
</event>
<event>
 6    1  0.5317355E-006  0.3796433E+03  0.7561462E-02  0.1051066E+00
         -1   -1    0    0    0  501 -0.00000000000E+00  0.00000000000E+00  0.11883198611E+03  0.11883198611E+03  0.00000000000E+00 0.  1.
          1   -1    0    0  501    0  0.00000000000E+00 -0.00000000000E+00 -0.12512178147E+04  0.12512178147E+04  0.00000000000E+00 0. -1.
          5    1    1    2  502    0  0.47032411124E+02 -0.29302004195E+03 -0.55151106133E+03  0.62630241565E+03  0.41800000000E+01 0.  1.
         -5    1    1    2    0  502 -0.40217786806E+02 -0.73552594846E+02 -0.89706042112E+02  0.12284991240E+03  0.41800000000E+01 0.  1.
        -11    1    1    2    0    0 -0.40128465518E+02  0.31232427896E+03 -0.42652202831E+03  0.53016769951E+03  0.00000000000E+00 0. -1.
         11    1    1    2    0    0  0.33313841200E+02  0.54248357840E+02 -0.64646696836E+02  0.90729773259E+02  0.00000000000E+00 0.  1.
</event>
<event>
 6    1  0.5317355E-006  0.8886682E+02  0.7561462E-02  0.1305619E+00
         -1   -1    0    0    0  501 -0.00000000000E+00  0.00000000000E+00  0.38791036589E+02  0.38791036589E+02  0.00000000000E+00 0.  1.
          1   -1    0    0  501    0  0.00000000000E+00 -0.00000000000E+00 -0.31227911173E+03  0.31227911173E+03  0.00000000000E+00 0. -1.
          5    1    1    2  502    0  0.47863043249E+02  0.14809760928E+02 -0.16435267794E+02  0.52894142920E+02  0.41800000000E+01 0. -1.
         -5    1    1    2    0  502 -0.36264973291E+02 -0.30236002148E+02 -0.14312831735E+03  0.15077317978E+03  0.41800000000E+01 0. -1.
        -11    1    1    2    0    0  0.21459718273E+02 -0.21581180167E+02 -0.84264096339E+02  0.89591878971E+02  0.00000000000E+00 0. -1.
         11    1    1    2    0    0 -0.33057788232E+02  0.37007421387E+02 -0.29660393662E+02  0.57810946651E+02  0.00000000000E+00 0.  1.
</event>
<event>
 6    1  0.5317355E-006  0.1283181E+03  0.7561462E-02  0.1229973E+00
          2   -1    0    0  501    0  0.00000000000E+00  0.00000000000E+00  0.39661399808E+02  0.39661399808E+02  0.00000000000E+00 0. -1.
         -2   -1    0    0    0  501 -0.00000000000E+00 -0.00000000000E+00 -0.90441516027E+03  0.90441516027E+03  0.00000000000E+00 0.  1.
          5    1    1    2  502    0 -0.66637339177E+02 -0.49036064195E+02 -0.15257113440E+03  0.17361017832E+03  0.41800000000E+01 0. -1.
         -5    1    1    2    0  502  0.66299455998E+02 -0.85191593353E+01 -0.63108204863E+03  0.63462604614E+03  0.41800000000E+01 0.  1.
        -11    1    1    2    0    0  0.76888280298E+01 -0.23863075096E+02 -0.84016680799E+01  0.26441491184E+02  0.00000000000E+00 0.  1.
         11    1    1    2    0    0 -0.73509448508E+01  0.81418298627E+02 -0.72698909353E+02  0.10939884443E+03  0.00000000000E+00 0. -1.
</event>
<event>
 6    1  0.5317355E-006  0.8853502E+02  0.7561462E-02  0.1306439E+00
          1   -1    0    0  501    0  0.00000000000E+00  0.00000000000E+00  0.53281083444E+02  0.53281083444E+02  0.00000000000E+00 0. -1.
         -1   -1    0    0    0  501 -0.00000000000E+00 -0.00000000000E+00 -0.30059950409E+03  0.30059950409E+03  0.00000000000E+00 0.  1.
          5    1    1    2  502    0 -0.39336438447E+02 -0.45261187851E+02 -0.15828020663E+03  0.16931044482E+03  0.41800000000E+01 0.  1.
         -5    1    1    2    0  502  0.89299310525E+01 -0.14836790221E+02  0.21486436383E+02  0.27910810829E+02  0.41800000000E+01 0.  1.
        -11    1    1    2    0    0  0.37196228591E+02 -0.14484601059E+01 -0.78656106197E+02  0.87019770743E+02  0.00000000000E+00 0.  1.
         11    1    1    2    0    0 -0.67897211970E+01  0.61546438178E+02 -0.31868544205E+02  0.69639561142E+02  0.00000000000E+00 0. -1.
</event>
<event>
 6    1  0.5317355E-006  0.8885886E+02  0.7561462E-02  0.1305639E+00
          1   -1    0    0  501    0  0.00000000000E+00  0.00000000000E+00  0.22822342447E+03  0.22822342447E+03  0.00000000000E+00 0. -1.
         -1   -1    0    0    0  501 -0.00000000000E+00 -0.00000000000E+00 -0.62067634118E+02  0.62067634118E+02  0.00000000000E+00 0.  1.
          5    1    1    2  502    0  0.48457622269E+02  0.18873133824E+02  0.55057133763E+02  0.75849170823E+02  0.41800000000E+01 0.  1.
         -5    1    1    2    0  502 -0.67138910300E+02  0.89296313252E+01  0.84668825083E+01  0.68385174499E+02  0.41800000000E+01 0.  1.
        -11    1    1    2    0    0 -0.14146514582E+02 -0.19022382325E+02  0.10894426474E+03  0.11149362190E+03  0.00000000000E+00 0. -1.
         11    1    1    2    0    0  0.32827802613E+02 -0.87803828233E+01 -0.63124906547E+01  0.34563091372E+02  0.00000000000E+00 0.  1.
</event>
<event>
 6    1  0.5317355E-006  0.1220500E+03  0.7561462E-02  0.1239753E+00
          1   -1    0    0  501    0  0.00000000000E+00  0.00000000000E+00  0.25149384939E+03  0.25149384939E+03  0.00000000000E+00 0. -1.
         -1   -1    0    0    0  501 -0.00000000000E+00 -0.00000000000E+00 -0.70355640895E+02  0.70355640895E+02  0.00000000000E+00 0.  1.
          5    1    1    2  502    0 -0.15195083035E+02  0.32752604890E+02  0.30907563923E+02  0.47711356963E+02  0.41800000000E+01 0. -1.
         -5    1    1    2    0  502  0.72223765517E+02 -0.77466038503E+02  0.39865624498E+02  0.11324310064E+03  0.41800000000E+01 0. -1.
        -11    1    1    2    0    0  0.12781694520E+02  0.26792409374E+02  0.73374514036E+00  0.29694162672E+02  0.00000000000E+00 0.  1.
         11    1    1    2    0    0 -0.69810377002E+02  0.17921024239E+02  0.10963127493E+03  0.13120087000E+03  0.00000000000E+00 0. -1.
</event>
<event>
 6    1  0.5317355E-006  0.1368192E+03  0.7561462E-02  0.1217674E+00
         -1   -1    0    0    0  501 -0.00000000000E+00  0.00000000000E+00  0.31857523409E+02  0.31857523409E+02  0.00000000000E+00 0.  1.
          1   -1    0    0  501    0  0.00000000000E+00 -0.00000000000E+00 -0.78475618960E+03  0.78475618960E+03  0.00000000000E+00 0. -1.
          5    1    1    2  502    0  0.69078666696E+02  0.91954894793E+02 -0.13893101984E+03  0.18040749858E+03  0.41800000000E+01 0. -1.
         -5    1    1    2    0  502 -0.29758240345E+02 -0.16163489804E+02 -0.67385058103E+02  0.75531647186E+02  0.41800000000E+01 0. -1.
        -11    1    1    2    0    0  0.20379603116E+02 -0.58989041142E+02 -0.24948683096E+03  0.25717448166E+03  0.00000000000E+00 0. -1.
         11    1    1    2    0    0 -0.59700029467E+02 -0.16802363847E+02 -0.29709575729E+03  0.30350008559E+03  0.00000000000E+00 0.  1.
</event>
<event>
 6    1  0.5317355E-006  0.9253386E+02  0.7561462E-02  0.1296829E+00
          2   -1    0    0  501    0  0.00000000000E+00  0.00000000000E+00  0.22195033004E+03  0.22195033004E+03  0.00000000000E+00 0.  1.
         -2   -1    0    0    0  501 -0.00000000000E+00 -0.00000000000E+00 -0.62380642740E+02  0.62380642740E+02  0.00000000000E+00 0. -1.
          5    1    1    2  502    0 -0.57553532899E+02 -0.18592809718E+02  0.38475595276E+02  0.71804913162E+02  0.41800000000E+01 0.  1.
         -5    1    1    2    0  502  0.45537477498E+02  0.45537150120E+02  0.87963098221E+01  0.65131723180E+02  0.41800000000E+01 0.  1.
        -11    1    1    2    0    0 -0.92704916819E+01  0.12215417871E+02 -0.92660952567E+01  0.17917002291E+02  0.00000000000E+00 0. -1.
         11    1    1    2    0    0  0.21286547083E+02 -0.39159758274E+02  0.12156387746E+03  0.12947733415E+03  0.00000000000E+00 0.  1.
</event>
<event>
 6    1  0.5317355E-006  0.1630027E+03  0.7561462E-02  0.1185348E+00
         -2   -1    0    0    0  501 -0.00000000000E+00  0.00000000000E+00  0.56026273537E+03  0.56026273537E+03  0.00000000000E+00 0.  1.
          2   -1    0    0  501    0  0.00000000000E+00 -0.00000000000E+00 -0.57147666627E+02  0.57147666627E+02  0.00000000000E+00 0. -1.
          5    1    1    2  502    0  0.10049442537E+03  0.12354368393E+03  0.28100460391E+03  0.32302202895E+03  0.41800000000E+01 0. -1.
         -5    1    1    2    0  502 -0.11914295326E+02 -0.20682787561E+02  0.60623182342E+02  0.65286834597E+02  0.41800000000E+01 0. -1.
        -11    1    1    2    0    0 -0.17757981548E+02 -0.21924568498E+00 -0.73360634489E+01  0.19214884966E+02  0.00000000000E+00 0. -1.
         11    1    1    2    0    0 -0.70822148500E+02 -0.10264165069E+03  0.16882334594E+03  0.20988665348E+03  0.00000000000E+00 0.  1.
</event>
<event>
 6    1  0.5317355E-006  0.2297205E+03  0.7561462E-02  0.1126837E+00
          2   -1    0    0  501    0  0.00000000000E+00  0.00000000000E+00  0.12109035000E+03  0.12109035000E+03  0.00000000000E+00 0. -1.
         -2   -1    0    0    0  501 -0.00000000000E+00 -0.00000000000E+00 -0.63590500725E+03  0.63590500725E+03  0.00000000000E+00 0.  1.
          5    1    1    2  502    0  0.17476460469E+03  0.49962607473E+02 -0.40466562817E+03  0.44363348862E+03  0.41800000000E+01 0. -1.
         -5    1    1    2    0  502  0.46139675447E+02 -0.21135665979E+02 -0.26146668283E+02  0.57242525181E+02  0.41800000000E+01 0. -1.
        -11    1    1    2    0    0 -0.16620410905E+03 -0.30422439101E+01 -0.99443701671E+02  0.19370624904E+03  0.00000000000E+00 0.  1.
         11    1    1    2    0    0 -0.54700171090E+02 -0.25784697584E+02  0.15441340881E+02  0.62413094419E+02  0.00000000000E+00 0. -1.
</event>
<event>
 6    1  0.5317355E-006  0.1294959E+03  0.7561462E-02  0.1228206E+00
          1   -1    0    0  501    0  0.00000000000E+00  0.00000000000E+00  0.65254057090E+03  0.65254057090E+03  0.00000000000E+00 0. -1.
         -1   -1    0    0    0  501 -0.00000000000E+00 -0.00000000000E+00 -0.63975547134E+02  0.63975547134E+02  0.00000000000E+00 0.  1.
          5    1    1    2  502    0  0.11809192060E+02 -0.13194625844E+02 -0.21762427345E+02  0.28366015092E+02  0.41800000000E+01 0. -1.
         -5    1    1    2    0  502  0.28653702724E+02  0.11846155501E+03  0.98289349111E+02  0.15662836028E+03  0.41800000000E+01 0. -1.
        -11    1    1    2    0    0  0.28752540134E+01 -0.42363175368E+02  0.62621246282E+02  0.75659277017E+02  0.00000000000E+00 0.  1.
         11    1    1    2    0    0 -0.43338148797E+02 -0.62903753796E+02  0.44941685571E+03  0.45586246564E+03  0.00000000000E+00 0. -1.
</event>
<event>
 6    1  0.5317355E-006  0.1781615E+03  0.7561462E-02  0.1169594E+00
         -2   -1    0    0    0  501 -0.00000000000E+00  0.00000000000E+00  0.29720153940E+02  0.29720153940E+02  0.00000000000E+00 0.  1.
          2   -1    0    0  501    0  0.00000000000E+00 -0.00000000000E+00 -0.13474498095E+04  0.13474498095E+04  0.00000000000E+00 0. -1.
          5    1    1    2  502    0 -0.18155091419E+02 -0.11480784338E+03 -0.67742569595E+03  0.68733797667E+03  0.41800000000E+01 0. -1.
         -5    1    1    2    0  502 -0.73265949838E+02 -0.10200078531E+00 -0.29099712176E+03  0.30010782576E+03  0.41800000000E+01 0. -1.
        -11    1    1    2    0    0  0.92820878586E+02  0.12541642802E+03 -0.28839846275E+03  0.32790039530E+03  0.00000000000E+00 0. -1.
         11    1    1    2    0    0 -0.13998373298E+01 -0.10506583861E+02 -0.60908375078E+02  0.61823765687E+02  0.00000000000E+00 0.  1.
</event>
<event>
 6    1  0.5317355E-006  0.1120472E+03  0.7561462E-02  0.1256825E+00
         -1   -1    0    0    0  501 -0.00000000000E+00  0.00000000000E+00  0.43839998189E+02  0.43839998189E+02  0.00000000000E+00 0.  1.
          1   -1    0    0  501    0  0.00000000000E+00 -0.00000000000E+00 -0.47488434896E+03  0.47488434896E+03  0.00000000000E+00 0. -1.
          5    1    1    2  502    0 -0.79602115703E+02 -0.62593911359E+01 -0.52720099829E+02  0.95773472985E+02  0.41800000000E+01 0.  1.
         -5    1    1    2    0  502  0.47672261436E+02  0.86918125085E+01 -0.21681586678E+02  0.53251814204E+02  0.41800000000E+01 0.  1.
        -11    1    1    2    0    0 -0.23218123860E+02  0.24818256944E+02 -0.16359508170E+03  0.16708793466E+03  0.00000000000E+00 0.  1.
         11    1    1    2    0    0  0.55147978127E+02 -0.27250678316E+02 -0.19304758256E+03  0.20261112530E+03  0.00000000000E+00 0. -1.
</event>
<event>
 6    1  0.5317355E-006  0.1112812E+03  0.7561462E-02  0.1258216E+00
         -2   -1    0    0    0  501 -0.00000000000E+00  0.00000000000E+00  0.46983542688E+02  0.46983542688E+02  0.00000000000E+00 0.  1.
          2   -1    0    0  501    0  0.00000000000E+00 -0.00000000000E+00 -0.35428647754E+03  0.35428647754E+03  0.00000000000E+00 0. -1.
          5    1    1    2  502    0  0.37608022615E+02  0.39633764131E+02 -0.26034193730E+02  0.60666714658E+02  0.41800000000E+01 0.  1.
         -5    1    1    2    0  502 -0.78136845761E+02  0.10394200737E+02 -0.10697676633E+03  0.13294700828E+03  0.41800000000E+01 0.  1.
        -11    1    1    2    0    0 -0.12888344837E+02 -0.28423554110E+02 -0.88088792674E+01  0.32428447617E+02  0.00000000000E+00 0.  1.
         11    1    1    2    0    0  0.53417167984E+02 -0.21604410758E+02 -0.16548309552E+03  0.17522784967E+03  0.00000000000E+00 0. -1.
</event>
<event>
 6    1  0.5317355E-006  0.1141681E+03  0.7561462E-02  0.1253040E+00
         -2   -1    0    0    0  501 -0.00000000000E+00  0.00000000000E+00  0.86133070210E+02  0.86133070210E+02  0.00000000000E+00 0.  1.
          2   -1    0    0  501    0  0.00000000000E+00 -0.00000000000E+00 -0.22841272528E+03  0.22841272528E+03  0.00000000000E+00 0. -1.
          5    1    1    2  502    0  0.47662367720E+02 -0.66699220734E+01 -0.13305466187E+02  0.50106855694E+02  0.41800000000E+01 0.  1.
         -5    1    1    2    0  502 -0.65345805122E+02  0.43455802828E+02  0.22740119659E+02  0.81811163594E+02  0.41800000000E+01 0.  1.
        -11    1    1    2    0    0 -0.32753009396E+02  0.83024744116E+01 -0.44938630816E+02  0.56224294085E+02  0.00000000000E+00 0.  1.
         11    1    1    2    0    0  0.50436446798E+02 -0.45088355166E+02 -0.10677567772E+03  0.12640348211E+03  0.00000000000E+00 0. -1.
</event>
<event>
 6    1  0.5317355E-006  0.1105249E+03  0.7561462E-02  0.1259601E+00
         -2   -1    0    0    0  501 -0.00000000000E+00  0.00000000000E+00  0.38357597301E+03  0.38357597301E+03  0.00000000000E+00 0.  1.
          2   -1    0    0  501    0  0.00000000000E+00 -0.00000000000E+00 -0.46188047323E+02  0.46188047323E+02  0.00000000000E+00 0. -1.
          5    1    1    2  502    0  0.23815222177E+02  0.27816569286E+01 -0.62267118312E+01  0.25122634473E+02  0.41800000000E+01 0.  1.
         -5    1    1    2    0  502 -0.67469669878E+02  0.50675736095E+02  0.18770306135E+03  0.20583998208E+03  0.41800000000E+01 0.  1.
        -11    1    1    2    0    0  0.70282750642E+02 -0.28865243510E+02  0.13984678637E+03  0.15915398511E+03  0.00000000000E+00 0.  1.
         11    1    1    2    0    0 -0.26628302941E+02 -0.24592149514E+02  0.16064789796E+02  0.39647418661E+02  0.00000000000E+00 0. -1.
</event>
<event>
 6    1  0.5317355E-006  0.1273308E+03  0.7561462E-02  0.1231471E+00
         -2   -1    0    0    0  501 -0.00000000000E+00  0.00000000000E+00  0.41424694312E+02  0.41424694312E+02  0.00000000000E+00 0.  1.
          2   -1    0    0  501    0  0.00000000000E+00 -0.00000000000E+00 -0.52643624187E+03  0.52643624187E+03  0.00000000000E+00 0. -1.
          5    1    1    2  502    0  0.37196517277E+02  0.29356939655E+01 -0.18102638744E+03  0.18487894566E+03  0.41800000000E+01 0.  1.
         -5    1    1    2    0  502  0.57120227633E+01 -0.93011515655E+02 -0.88606229121E+02  0.12865576352E+03  0.41800000000E+01 0.  1.
        -11    1    1    2    0    0  0.59422196277E+01  0.71227203752E+02 -0.70998001080E+02  0.10074393622E+03  0.00000000000E+00 0.  1.
         11    1    1    2    0    0 -0.48850759668E+02  0.18848617938E+02 -0.14438092991E+03  0.15358229078E+03  0.00000000000E+00 0. -1.
</event>
<event>
 6    1  0.5317355E-006  0.1265409E+03  0.7561462E-02  0.1232681E+00
          1   -1    0    0  501    0  0.00000000000E+00  0.00000000000E+00  0.19651340713E+03  0.19651340713E+03  0.00000000000E+00 0. -1.
         -1   -1    0    0    0  501 -0.00000000000E+00 -0.00000000000E+00 -0.15607535316E+03  0.15607535316E+03  0.00000000000E+00 0.  1.
          5    1    1    2  502    0 -0.72313321223E+01  0.17483533956E+02 -0.55330355795E+02  0.58624967345E+02  0.41800000000E+01 0. -1.
         -5    1    1    2    0  502  0.11913078659E+03 -0.31595755618E+01 -0.18499753436E+01  0.11926031209E+03  0.41800000000E+01 0. -1.
        -11    1    1    2    0    0 -0.77837451969E+02 -0.18879164311E+02  0.10160461644E+02  0.80736155190E+02  0.00000000000E+00 0. -1.
         11    1    1    2    0    0 -0.34062002496E+02  0.45552059169E+01  0.87457923471E+02  0.93967325667E+02  0.00000000000E+00 0.  1.
</event>
<event>
 6    1  0.5317355E-006  0.6166196E+02  0.7561462E-02  0.1390987E+00
         -2   -1    0    0    0  501 -0.00000000000E+00  0.00000000000E+00  0.44843148578E+02  0.44843148578E+02  0.00000000000E+00 0.  1.
          2   -1    0    0  501    0  0.00000000000E+00 -0.00000000000E+00 -0.28781490403E+03  0.28781490403E+03  0.00000000000E+00 0. -1.
          5    1    1    2  502    0  0.90887611623E+01  0.71473099405E+01 -0.12080187968E+03  0.12142592867E+03  0.41800000000E+01 0. -1.
         -5    1    1    2    0  502 -0.20781438376E+02 -0.20842514790E+01  0.27758406910E+02  0.34988767332E+02  0.41800000000E+01 0. -1.
        -11    1    1    2    0    0 -0.28531637144E+02 -0.30793246984E+02 -0.92336169860E+02  0.10143099449E+03  0.00000000000E+00 0.  1.
         11    1    1    2    0    0  0.40224314357E+02  0.25730188522E+02 -0.57592112821E+02  0.74812362121E+02  0.00000000000E+00 0. -1.
</event>
<event>
 6    1  0.5317355E-006  0.1154077E+03  0.7561462E-02  0.1250871E+00
          2   -1    0    0  501    0  0.00000000000E+00  0.00000000000E+00  0.15909034733E+03  0.15909034733E+03  0.00000000000E+00 0. -1.
         -2   -1    0    0    0  501 -0.00000000000E+00 -0.00000000000E+00 -0.85701010476E+02  0.85701010476E+02  0.00000000000E+00 0.  1.
          5    1    1    2  502    0  0.43693892264E+02 -0.39240747326E+02  0.14911909167E+02  0.60735738301E+02  0.41800000000E+01 0.  1.
         -5    1    1    2    0  502 -0.15275375310E+02  0.71404359976E+02  0.27343961576E+02  0.78083828986E+02  0.41800000000E+01 0.  1.
        -11    1    1    2    0    0  0.60066626594E+01  0.28457965538E+02 -0.12317230462E+01  0.29111044992E+02  0.00000000000E+00 0.  1.
         11    1    1    2    0    0 -0.34425179614E+02 -0.60621578188E+02  0.32365189154E+02  0.76860745524E+02  0.00000000000E+00 0. -1.
</event>
<event>
 6    1  0.5317355E-006  0.1062549E+03  0.7561462E-02  0.1267667E+00
          1   -1    0    0  501    0  0.00000000000E+00  0.00000000000E+00  0.37988749373E+02  0.37988749373E+02  0.00000000000E+00 0. -1.
         -1   -1    0    0    0  501 -0.00000000000E+00 -0.00000000000E+00 -0.35829748975E+03  0.35829748975E+03  0.00000000000E+00 0.  1.
          5    1    1    2  502    0  0.18168596916E+02  0.46117458969E+02 -0.15444482071E+03  0.16225779790E+03  0.41800000000E+01 0.  1.
         -5    1    1    2    0  502 -0.43466459740E+02 -0.51697312581E+02 -0.80436979190E+02  0.10511672213E+03  0.41800000000E+01 0.  1.
        -11    1    1    2    0    0  0.25510899532E+02  0.47104980455E+02 -0.58994812139E+02  0.79687345532E+02  0.00000000000E+00 0. -1.
         11    1    1    2    0    0 -0.21303670786E+00 -0.41525126844E+02 -0.26432128345E+02  0.49224373565E+02  0.00000000000E+00 0.  1.
</event>
<event>
 6    1  0.5317355E-006  0.1214562E+03  0.7561462E-02  0.1240714E+00
          2   -1    0    0  501    0  0.00000000000E+00  0.00000000000E+00  0.96631542965E+03  0.96631542965E+03  0.00000000000E+00 0. -1.
         -2   -1    0    0    0  501 -0.00000000000E+00 -0.00000000000E+00 -0.16508392333E+02  0.16508392333E+02  0.00000000000E+00 0.  1.
          5    1    1    2  502    0  0.11048683118E+02 -0.33951436221E+02  0.73366011896E+02  0.81699556434E+02  0.41800000000E+01 0. -1.
         -5    1    1    2    0  502 -0.45289099828E+02  0.81375744102E+02  0.45186367367E+03  0.46137985031E+03  0.41800000000E+01 0. -1.
        -11    1    1    2    0    0  0.13540356061E+02 -0.76700338809E+02  0.26627049296E+03  0.27742793413E+03  0.00000000000E+00 0.  1.
         11    1    1    2    0    0  0.20700060649E+02  0.29276030928E+02  0.15830685878E+03  0.16231648110E+03  0.00000000000E+00 0. -1.
</event>
<event>
 6    1  0.5317355E-006  0.8372094E+02  0.7561462E-02  0.1318812E+00
         -1   -1    0    0    0  501 -0.00000000000E+00  0.00000000000E+00  0.97809662171E+03  0.97809662171E+03  0.00000000000E+00 0.  1.
          1   -1    0    0  501    0  0.00000000000E+00 -0.00000000000E+00 -0.14284198141E+02  0.14284198141E+02  0.00000000000E+00 0. -1.
          5    1    1    2  502    0 -0.19960460726E+02 -0.14223468019E+02  0.57130698606E+03  0.57184776974E+03  0.41800000000E+01 0. -1.
         -5    1    1    2    0  502  0.33460101623E+02  0.15523819085E+02  0.51172277993E+02  0.63218998684E+02  0.41800000000E+01 0. -1.
        -11    1    1    2    0    0  0.26838695866E+02 -0.40906260624E+02  0.16958757471E+03  0.17650377687E+03  0.00000000000E+00 0.  1.
         11    1    1    2    0    0 -0.40338336763E+02  0.39605909558E+02  0.17174558481E+03  0.18081027456E+03  0.00000000000E+00 0. -1.
</event>
<event>
 6    1  0.5317355E-006  0.7981245E+02  0.7561462E-02  0.1329585E+00
         -1   -1    0    0    0  501 -0.00000000000E+00  0.00000000000E+00  0.55325906197E+03  0.55325906197E+03  0.00000000000E+00 0.  1.
          1   -1    0    0  501    0  0.00000000000E+00 -0.00000000000E+00 -0.51193503785E+02  0.51193503785E+02  0.00000000000E+00 0. -1.
          5    1    1    2  502    0 -0.22016144423E+02 -0.13339267277E+02  0.16301028022E+02  0.30754553831E+02  0.41800000000E+01 0. -1.
         -5    1    1    2    0  502  0.46745312056E+02 -0.10488879254E+02  0.47341704050E+03  0.47585324147E+03  0.41800000000E+01 0. -1.
        -11    1    1    2    0    0  0.44531985426E+01 -0.26720250843E+02  0.26382995212E+02  0.37813558662E+02  0.00000000000E+00 0. -1.
         11    1    1    2    0    0 -0.29182366175E+02  0.50548397374E+02 -0.14035505547E+02  0.60031211787E+02  0.00000000000E+00 0.  1.
</event>
<event>
 6    1  0.5317355E-006  0.1255130E+03  0.7561462E-02  0.1234270E+00
         -2   -1    0    0    0  501 -0.00000000000E+00  0.00000000000E+00  0.80617615709E+02  0.80617615709E+02  0.00000000000E+00 0.  1.
          2   -1    0    0  501    0  0.00000000000E+00 -0.00000000000E+00 -0.23489736475E+03  0.23489736475E+03  0.00000000000E+00 0. -1.
          5    1    1    2  502    0  0.91973857605E+01 -0.10547617036E+03 -0.13639939054E+02  0.10683320999E+03  0.41800000000E+01 0. -1.
         -5    1    1    2    0  502 -0.31640112645E+02  0.21219854061E+02 -0.38464889738E+02  0.54299162766E+02  0.41800000000E+01 0. -1.
        -11    1    1    2    0    0  0.79349427245E+01 -0.92095334139E+01  0.34118074359E+01  0.12626133681E+02  0.00000000000E+00 0.  1.
         11    1    1    2    0    0  0.14507784160E+02  0.93465849716E+02 -0.10558672769E+03  0.14175647402E+03  0.00000000000E+00 0. -1.
</event>
<event>
 6    1  0.5317355E-006  0.1048743E+03  0.7561462E-02  0.1270368E+00
          2   -1    0    0  501    0  0.00000000000E+00  0.00000000000E+00  0.15774116385E+03  0.15774116385E+03  0.00000000000E+00 0. -1.
         -2   -1    0    0    0  501 -0.00000000000E+00 -0.00000000000E+00 -0.13857254465E+03  0.13857254465E+03  0.00000000000E+00 0.  1.
          5    1    1    2  502    0 -0.48987793791E+02 -0.22889580916E+01 -0.24772558429E+02  0.55101681651E+02  0.41800000000E+01 0. -1.
         -5    1    1    2    0  502  0.76942911410E+02  0.16955452221E+02 -0.62550692642E+02  0.10068644659E+03  0.41800000000E+01 0. -1.
        -11    1    1    2    0    0 -0.46792370715E+01  0.30479571386E+02  0.11697674515E+02  0.32980829591E+02  0.00000000000E+00 0.  1.
         11    1    1    2    0    0 -0.23275880548E+02 -0.45146065515E+02  0.94794195759E+02  0.10754475067E+03  0.00000000000E+00 0. -1.
</event>
<event>
 6    1  0.5317355E-006  0.9484685E+02  0.7561462E-02  0.1291521E+00
         -1   -1    0    0    0  501 -0.00000000000E+00  0.00000000000E+00  0.22958932536E+03  0.22958932536E+03  0.00000000000E+00 0.  1.
          1   -1    0    0  501    0  0.00000000000E+00 -0.00000000000E+00 -0.87166772312E+02  0.87166772312E+02  0.00000000000E+00 0. -1.
          5    1    1    2  502    0  0.15239086019E+02 -0.73745474052E+02  0.15580198925E+03  0.17309638049E+03  0.41800000000E+01 0. -1.
         -5    1    1    2    0  502 -0.17221873685E+02  0.33868978300E+02  0.12186466691E+02  0.40120854860E+02  0.41800000000E+01 0. -1.
        -11    1    1    2    0    0  0.28283493422E+02  0.40901633803E+02  0.17793612678E+02  0.52815833801E+02  0.00000000000E+00 0.  1.
         11    1    1    2    0    0 -0.26300705757E+02 -0.10251380512E+01 -0.43359515571E+02  0.50723028516E+02  0.00000000000E+00 0. -1.
</event>
<event>
 6    1  0.5317355E-006  0.1054140E+03  0.7561462E-02  0.1269306E+00
          1   -1    0    0  501    0  0.00000000000E+00  0.00000000000E+00  0.17807568859E+03  0.17807568859E+03  0.00000000000E+00 0.  1.
         -1   -1    0    0    0  501 -0.00000000000E+00 -0.00000000000E+00 -0.81226251495E+02  0.81226251495E+02  0.00000000000E+00 0. -1.
          5    1    1    2  502    0  0.42563324252E+02 -0.42849250533E+02  0.16244342703E+02  0.62682102010E+02  0.41800000000E+01 0. -1.
         -5    1    1    2    0  502 -0.33088060219E+02  0.51007599857E+02 -0.16105510842E+02  0.63035346051E+02  0.41800000000E+01 0. -1.
        -11    1    1    2    0    0 -0.38956766909E+02 -0.32795718037E+02  0.38506896431E+02  0.63843322926E+02  0.00000000000E+00 0. -1.
         11    1    1    2    0    0  0.29481502876E+02  0.24637368712E+02  0.58203708808E+02  0.69741169103E+02  0.00000000000E+00 0.  1.
</event>
<event>
 6    1  0.5317355E-006  0.1459902E+03  0.7561462E-02  0.1205489E+00
         -1   -1    0    0    0  501 -0.00000000000E+00  0.00000000000E+00  0.92057697081E+02  0.92057697081E+02  0.00000000000E+00 0.  1.
          1   -1    0    0  501    0  0.00000000000E+00 -0.00000000000E+00 -0.31486925860E+03  0.31486925860E+03  0.00000000000E+00 0. -1.
          5    1    1    2  502    0  0.29038748965E+02 -0.92516151636E+02 -0.13392415881E+03  0.16539540491E+03  0.41800000000E+01 0.  1.
         -5    1    1    2    0  502 -0.71440711692E+01 -0.36123083440E+02  0.25877618020E+02  0.45199982572E+02  0.41800000000E+01 0.  1.
        -11    1    1    2    0    0  0.88282166728E+01  0.12677854517E+03 -0.81306196628E+02  0.15086893165E+03  0.00000000000E+00 0.  1.
         11    1    1    2    0    0 -0.30722894469E+02  0.18606899036E+01 -0.33458824101E+02  0.45462636545E+02  0.00000000000E+00 0. -1.
</event>
<event>
 6    1  0.5317355E-006  0.1059853E+03  0.7561462E-02  0.1268190E+00
         -3   -1    0    0    0  501 -0.00000000000E+00  0.00000000000E+00  0.85555629563E+02  0.85555629563E+02  0.00000000000E+00 0.  1.
          3   -1    0    0  501    0  0.00000000000E+00 -0.00000000000E+00 -0.20286779339E+03  0.20286779339E+03  0.00000000000E+00 0. -1.
          5    1    1    2  502    0 -0.23519180884E+02  0.31016253700E+02 -0.60095814869E+02  0.71722654913E+02  0.41800000000E+01 0. -1.
         -5    1    1    2    0  502  0.70828693227E+02  0.23899756080E+02  0.21541523676E+02  0.77906429563E+02  0.41800000000E+01 0. -1.
        -11    1    1    2    0    0 -0.53576468356E+02 -0.66128162863E+02 -0.88417039220E+02  0.12272304066E+03  0.00000000000E+00 0.  1.
         11    1    1    2    0    0  0.62669560125E+01  0.11212153084E+02  0.96591665830E+01  0.16071297817E+02  0.00000000000E+00 0. -1.
</event>
<event>
 6    1  0.5317355E-006  0.7867081E+02  0.7561462E-02  0.1332866E+00
         -1   -1    0    0    0  501 -0.00000000000E+00  0.00000000000E+00  0.12411848848E+03  0.12411848848E+03  0.00000000000E+00 0.  1.
          1   -1    0    0  501    0  0.00000000000E+00 -0.00000000000E+00 -0.99965095643E+02  0.99965095643E+02  0.00000000000E+00 0. -1.
          5    1    1    2  502    0  0.35365349738E+02  0.79397100382E+01  0.46795448561E+02  0.59338295928E+02  0.41800000000E+01 0. -1.
         -5    1    1    2    0  502 -0.60669800024E+02  0.22596435140E+01 -0.33362234900E+02  0.69400588911E+02  0.41800000000E+01 0. -1.
        -11    1    1    2    0    0 -0.15227873470E+02 -0.12060164600E+02  0.40564631883E+02  0.44975827512E+02  0.00000000000E+00 0.  1.
         11    1    1    2    0    0  0.40532323756E+02  0.18608110480E+01 -0.29844452702E+02  0.50368871775E+02  0.00000000000E+00 0. -1.
</event>
<event>
 6    1  0.5317355E-006  0.8169130E+02  0.7561462E-02  0.1324319E+00
          1   -1    0    0  501    0  0.00000000000E+00  0.00000000000E+00  0.36169525917E+03  0.36169525917E+03  0.00000000000E+00 0. -1.
         -1   -1    0    0    0  501 -0.00000000000E+00 -0.00000000000E+00 -0.38723909200E+02  0.38723909200E+02  0.00000000000E+00 0.  1.
          5    1    1    2  502    0  0.23607393614E+02 -0.19596504338E+02 -0.11463544925E+02  0.33018438452E+02  0.41800000000E+01 0.  1.
         -5    1    1    2    0  502  0.12169377962E+02  0.44107673146E+02  0.15765310346E+03  0.16421191803E+03  0.41800000000E+01 0.  1.
        -11    1    1    2    0    0  0.21124772155E+02 -0.20488198106E+02  0.18060869530E+02  0.34528499365E+02  0.00000000000E+00 0.  1.
         11    1    1    2    0    0 -0.56901543731E+02 -0.40229707016E+01  0.15872092190E+03  0.16866031253E+03  0.00000000000E+00 0. -1.
</event>
<event>
 6    1  0.5317355E-006  0.9687202E+02  0.7561462E-02  0.1287015E+00
          2   -1    0    0  501    0  0.00000000000E+00  0.00000000000E+00  0.47877830645E+03  0.47877830645E+03  0.00000000000E+00 0.  1.
         -2   -1    0    0    0  501 -0.00000000000E+00 -0.00000000000E+00 -0.22935879715E+02  0.22935879715E+02  0.00000000000E+00 0. -1.
          5    1    1    2  502    0 -0.43321980627E+02 -0.52121436650E+02  0.10321352041E+03  0.12354732437E+03  0.41800000000E+01 0. -1.
         -5    1    1    2    0  502  0.44871110850E+01  0.61149317812E+02  0.13848221394E+03  0.15150633390E+03  0.41800000000E+01 0. -1.
        -11    1    1    2    0    0  0.14949833143E+01 -0.24078809221E+02  0.31762620084E+02  0.39885938164E+02  0.00000000000E+00 0.  1.
         11    1    1    2    0    0  0.37339886228E+02  0.15050928059E+02  0.18238407230E+03  0.18677458973E+03  0.00000000000E+00 0. -1.
</event>
<event>
 6    1  0.5317355E-006  0.1034910E+03  0.7561462E-02  0.1273121E+00
          2   -1    0    0  501    0  0.00000000000E+00  0.00000000000E+00  0.60509969613E+03  0.60509969613E+03  0.00000000000E+00 0. -1.
         -2   -1    0    0    0  501 -0.00000000000E+00 -0.00000000000E+00 -0.27974583683E+02  0.27974583683E+02  0.00000000000E+00 0.  1.
          5    1    1    2  502    0  0.43435543314E+02  0.47592322022E+01  0.14383399597E+03  0.15038280324E+03  0.41800000000E+01 0.  1.
         -5    1    1    2    0  502 -0.50659389716E+02  0.36573037413E+02  0.34626454270E+02  0.71557141973E+02  0.41800000000E+01 0.  1.
        -11    1    1    2    0    0  0.21554194333E+02 -0.67376028843E+02  0.28465677909E+03  0.29331483842E+03  0.00000000000E+00 0.  1.
         11    1    1    2    0    0 -0.14330347931E+02  0.26043759227E+02  0.11400788312E+03  0.11781949618E+03  0.00000000000E+00 0. -1.
</event>
<event>
 6    1  0.5317355E-006  0.2733976E+03  0.7561462E-02  0.1099351E+00
          2   -1    0    0  501    0  0.00000000000E+00  0.00000000000E+00  0.13148514812E+04  0.13148514812E+04  0.00000000000E+00 0. -1.
         -2   -1    0    0    0  501 -0.00000000000E+00 -0.00000000000E+00 -0.82836254072E+02  0.82836254072E+02  0.00000000000E+00 0.  1.
          5    1    1    2  502    0 -0.45345700355E+02  0.54142721964E+02  0.19498002527E+03  0.20741829605E+03  0.41800000000E+01 0. -1.
         -5    1    1    2    0  502  0.18641424468E+03  0.13070224147E+03  0.15929051541E+03  0.27789258221E+03  0.41800000000E+01 0.  1.
        -11    1    1    2    0    0 -0.15211807023E+03 -0.18145577233E+03  0.82078742923E+03  0.85425880656E+03  0.00000000000E+00 0. -1.
         11    1    1    2    0    0  0.11049525909E+02 -0.33891911130E+01  0.56957257228E+02  0.58118050468E+02  0.00000000000E+00 0.  1.
</event>
<event>
 6    1  0.5317355E-006  0.1558250E+03  0.7561462E-02  0.1193493E+00
         -1   -1    0    0    0  501 -0.00000000000E+00  0.00000000000E+00  0.19867107323E+03  0.19867107323E+03  0.00000000000E+00 0.  1.
          1   -1    0    0  501    0  0.00000000000E+00 -0.00000000000E+00 -0.16328192728E+03  0.16328192728E+03  0.00000000000E+00 0. -1.
          5    1    1    2  502    0  0.39908394616E+01  0.44271423462E+02 -0.28936334572E+02  0.53204037379E+02  0.41800000000E+01 0. -1.
         -5    1    1    2    0  502  0.12243934398E+03  0.20149492940E+02  0.62167550697E+02  0.13885125775E+03  0.41800000000E+01 0. -1.
        -11    1    1    2    0    0 -0.10520354117E+03 -0.46317504004E+02 -0.37941601843E+02  0.12104817802E+03  0.00000000000E+00 0. -1.
         11    1    1    2    0    0 -0.21226642265E+02 -0.18103412398E+02  0.40099531672E+02  0.48849527353E+02  0.00000000000E+00 0.  1.
</event>
<event>
 6    1  0.5317355E-006  0.9535790E+02  0.7561462E-02  0.1290372E+00
         -2   -1    0    0    0  501 -0.00000000000E+00  0.00000000000E+00  0.19177875434E+03  0.19177875434E+03  0.00000000000E+00 0.  1.
          2   -1    0    0  501    0  0.00000000000E+00 -0.00000000000E+00 -0.11006446883E+03  0.11006446883E+03  0.00000000000E+00 0. -1.
          5    1    1    2  502    0  0.61733164224E+02 -0.61695393449E+02  0.10338869134E+03  0.13536616651E+03  0.41800000000E+01 0. -1.
         -5    1    1    2    0  502 -0.44574647600E+02  0.75789997377E+01  0.21267438837E+02  0.50140969280E+02  0.41800000000E+01 0. -1.
        -11    1    1    2    0    0 -0.32144887120E+01  0.29218022516E+02  0.27550103366E+02  0.40286895796E+02  0.00000000000E+00 0.  1.
         11    1    1    2    0    0 -0.13944027912E+02  0.24898371196E+02 -0.70491948037E+02  0.76049191584E+02  0.00000000000E+00 0. -1.
</event>
<event>
 6    1  0.5317355E-006  0.1346095E+03  0.7561462E-02  0.1220772E+00
         -1   -1    0    0    0  501 -0.00000000000E+00  0.00000000000E+00  0.50867882493E+02  0.50867882493E+02  0.00000000000E+00 0.  1.
          1   -1    0    0  501    0  0.00000000000E+00 -0.00000000000E+00 -0.45315974805E+03  0.45315974805E+03  0.00000000000E+00 0. -1.
          5    1    1    2  502    0 -0.24413065884E+02  0.14109552844E+02 -0.11470925215E+01  0.28528327826E+02  0.41800000000E+01 0.  1.
         -5    1    1    2    0  502  0.11082170664E+03 -0.34163370099E+02 -0.11970270156E+03  0.16671771256E+03  0.41800000000E+01 0.  1.
        -11    1    1    2    0    0 -0.12693372774E+02  0.45072041473E+02 -0.13571441565E+03  0.14356536230E+03  0.00000000000E+00 0. -1.
         11    1    1    2    0    0 -0.73715267987E+02 -0.25018224219E+02 -0.14572765583E+03  0.16521622787E+03  0.00000000000E+00 0.  1.
</event>
<event>
 6    1  0.5317355E-006  0.1421384E+03  0.7561462E-02  0.1210480E+00
         -3   -1    0    0    0  501 -0.00000000000E+00  0.00000000000E+00  0.93498408452E+02  0.93498408452E+02  0.00000000000E+00 0.  1.
          3   -1    0    0  501    0  0.00000000000E+00 -0.00000000000E+00 -0.33180527506E+03  0.33180527506E+03  0.00000000000E+00 0. -1.
          5    1    1    2  502    0  0.13949215197E+02  0.56541210695E+02  0.24177024148E+02  0.63194066242E+02  0.41800000000E+01 0.  1.
         -5    1    1    2    0  502 -0.11388648185E+02  0.79552528537E+02 -0.12148192346E+03  0.14571765930E+03  0.41800000000E+01 0.  1.
        -11    1    1    2    0    0  0.18447452887E+02 -0.11175268640E+03 -0.57731493898E+02  0.12712944908E+03  0.00000000000E+00 0.  1.
         11    1    1    2    0    0 -0.21008019899E+02 -0.24341052828E+02 -0.83270473398E+02  0.89262508887E+02  0.00000000000E+00 0. -1.
</event>
<event>
 6    1  0.5317355E-006  0.9252869E+02  0.7561462E-02  0.1296841E+00
         -2   -1    0    0    0  501 -0.00000000000E+00  0.00000000000E+00  0.20640710824E+02  0.20640710824E+02  0.00000000000E+00 0.  1.
          2   -1    0    0  501    0  0.00000000000E+00 -0.00000000000E+00 -0.84169249052E+03  0.84169249052E+03  0.00000000000E+00 0. -1.
          5    1    1    2  502    0 -0.57068068538E+02 -0.48335688265E+01 -0.39775613938E+02  0.69854847351E+02  0.41800000000E+01 0. -1.
         -5    1    1    2    0  502  0.11958764707E+02 -0.18126728531E+02 -0.23736405533E+03  0.23839202483E+03  0.41800000000E+01 0. -1.
        -11    1    1    2    0    0 -0.69787516229E+01 -0.30257042891E+02 -0.17502038541E+03  0.17775355672E+03  0.00000000000E+00 0.  1.
         11    1    1    2    0    0  0.52088055454E+02  0.53217340249E+02 -0.36889172502E+03  0.37633277244E+03  0.00000000000E+00 0. -1.
</event>
<event>
 6    1  0.5317355E-006  0.2087704E+03  0.7561462E-02  0.1142543E+00
         -1   -1    0    0    0  501 -0.00000000000E+00  0.00000000000E+00  0.41729721598E+02  0.41729721598E+02  0.00000000000E+00 0.  1.
          1   -1    0    0  501    0  0.00000000000E+00 -0.00000000000E+00 -0.11612392672E+04  0.11612392672E+04  0.00000000000E+00 0. -1.
          5    1    1    2  502    0  0.44411624435E+02 -0.70203366240E+02 -0.12374174874E+03  0.14909861770E+03  0.41800000000E+01 0.  1.
         -5    1    1    2    0  502 -0.69673544044E+02 -0.11909375592E+03 -0.36853969297E+03  0.39354377537E+03  0.41800000000E+01 0.  1.
        -11    1    1    2    0    0  0.37227208467E+02  0.10999912938E+03 -0.46604202170E+03  0.48029245206E+03  0.00000000000E+00 0.  1.
         11    1    1    2    0    0 -0.11965288858E+02  0.79297992775E+02 -0.16118608214E+03  0.18003414363E+03  0.00000000000E+00 0. -1.
</event>
<event>
 6    1  0.5317355E-006  0.1221897E+03  0.7561462E-02  0.1239528E+00
         -2   -1    0    0    0  501 -0.00000000000E+00  0.00000000000E+00  0.21258579575E+02  0.21258579575E+02  0.00000000000E+00 0.  1.
          2   -1    0    0  501    0  0.00000000000E+00 -0.00000000000E+00 -0.72426890727E+03  0.72426890727E+03  0.00000000000E+00 0. -1.
          5    1    1    2  502    0 -0.66680687940E+02 -0.31901847579E+02 -0.21166277046E+03  0.22423791566E+03  0.41800000000E+01 0. -1.
         -5    1    1    2    0  502  0.57350736464E+02 -0.25765073827E+02 -0.13860239888E+03  0.15225322123E+03  0.41800000000E+01 0. -1.
        -11    1    1    2    0    0  0.43330100193E+02  0.59121448440E+02 -0.21508251719E+03  0.22722969095E+03  0.00000000000E+00 0.  1.
         11    1    1    2    0    0 -0.34000148716E+02 -0.14545270333E+01 -0.13766264117E+03  0.14180665900E+03  0.00000000000E+00 0. -1.
</event>
<event>
 6    1  0.5317355E-006  0.1144368E+03  0.7561462E-02  0.1252567E+00
         -2   -1    0    0    0  501 -0.00000000000E+00  0.00000000000E+00  0.35941564336E+02  0.35941564336E+02  0.00000000000E+00 0.  1.
          2   -1    0    0  501    0  0.00000000000E+00 -0.00000000000E+00 -0.40844543406E+03  0.40844543406E+03  0.00000000000E+00 0. -1.
          5    1    1    2  502    0 -0.73341463592E+02 -0.19019600205E+02 -0.99490896138E+02  0.12512644120E+03  0.41800000000E+01 0. -1.
         -5    1    1    2    0  502  0.32724425969E+02  0.46614239349E+02 -0.50144003356E+02  0.75997821269E+02  0.41800000000E+01 0. -1.
        -11    1    1    2    0    0  0.45258988913E+02  0.18980409063E+02 -0.13603565401E+03  0.14461787983E+03  0.00000000000E+00 0. -1.
         11    1    1    2    0    0 -0.46419512904E+01 -0.46575048207E+02 -0.86833316221E+02  0.98644856091E+02  0.00000000000E+00 0.  1.
</event>
<event>
 6    1  0.5317355E-006  0.7246761E+02  0.7561462E-02  0.1351897E+00
          2   -1    0    0  501    0  0.00000000000E+00  0.00000000000E+00  0.18804763552E+03  0.18804763552E+03  0.00000000000E+00 0. -1.
         -2   -1    0    0    0  501 -0.00000000000E+00 -0.00000000000E+00 -0.90637632197E+02  0.90637632197E+02  0.00000000000E+00 0.  1.
          5    1    1    2  502    0 -0.19368764914E+02  0.10571747372E+02  0.56258019668E+02  0.60575144026E+02  0.41800000000E+01 0.  1.
         -5    1    1    2    0  502 -0.22104797132E+02 -0.21694959619E+02 -0.64812830477E+02  0.71954629619E+02  0.41800000000E+01 0.  1.
        -11    1    1    2    0    0  0.54096612811E+02 -0.19970555542E+02  0.94477584885E+02  0.11068550335E+03  0.00000000000E+00 0. -1.
         11    1    1    2    0    0 -0.12623050765E+02  0.31093767789E+02  0.11487229245E+02  0.35469990720E+02  0.00000000000E+00 0.  1.
</event>
<event>
 6    1  0.5317355E-006  0.2784812E+03  0.7561462E-02  0.1096521E+00
         -2   -1    0    0    0  501 -0.00000000000E+00  0.00000000000E+00  0.34916274022E+03  0.34916274022E+03  0.00000000000E+00 0.  1.
          2   -1    0    0  501    0  0.00000000000E+00 -0.00000000000E+00 -0.34415475596E+03  0.34415475596E+03  0.00000000000E+00 0. -1.
          5    1    1    2  502    0 -0.33705828732E+02 -0.15930066135E+03  0.36484744414E+02  0.16691732256E+03  0.41800000000E+01 0. -1.
         -5    1    1    2    0  502 -0.94396709681E+01 -0.10934173931E+03  0.14982263247E+03  0.18576602742E+03  0.41800000000E+01 0. -1.
        -11    1    1    2    0    0 -0.19269844901E+02  0.13943525877E+03 -0.11850693940E+03  0.18400383963E+03  0.00000000000E+00 0.  1.
         11    1    1    2    0    0  0.62415344601E+02  0.12920714188E+03 -0.62792453231E+02  0.15663030657E+03  0.00000000000E+00 0. -1.
</event>
<event>
 6    1  0.5317355E-006  0.9915652E+02  0.7561462E-02  0.1282080E+00
         -1   -1    0    0    0  501 -0.00000000000E+00  0.00000000000E+00  0.32991629339E+02  0.32991629339E+02  0.00000000000E+00 0.  1.
          1   -1    0    0  501    0  0.00000000000E+00 -0.00000000000E+00 -0.38313246706E+03  0.38313246706E+03  0.00000000000E+00 0. -1.
          5    1    1    2  502    0  0.15954980441E+02 -0.66467407473E+02 -0.54621549427E+02  0.87598308881E+02  0.41800000000E+01 0.  1.
         -5    1    1    2    0  502 -0.26383795960E+02  0.41140003514E+02 -0.11425287122E+03  0.12433742623E+03  0.41800000000E+01 0.  1.
        -11    1    1    2    0    0  0.35105632355E+02 -0.11065009763E+02 -0.32644547537E+02  0.49198641729E+02  0.00000000000E+00 0.  1.
         11    1    1    2    0    0 -0.24676816836E+02  0.36392413722E+02 -0.14862186954E+03  0.15498971956E+03  0.00000000000E+00 0. -1.
</event>
<event>
 6    1  0.5317355E-006  0.1279501E+03  0.7561462E-02  0.1230529E+00
          1   -1    0    0  501    0  0.00000000000E+00  0.00000000000E+00  0.29494692205E+03  0.29494692205E+03  0.00000000000E+00 0. -1.
         -1   -1    0    0    0  501 -0.00000000000E+00 -0.00000000000E+00 -0.22948696481E+03  0.22948696481E+03  0.00000000000E+00 0.  1.
          5    1    1    2  502    0 -0.56219470780E+02  0.49638264164E+01  0.15141934716E+03  0.16164949601E+03  0.41800000000E+01 0. -1.
         -5    1    1    2    0  502  0.60015884654E+02 -0.65337689604E+02 -0.19064513256E+03  0.21031870830E+03  0.41800000000E+01 0.  1.
        -11    1    1    2    0    0  0.28749789064E+02 -0.11986242446E+02  0.35142737081E+02  0.46959901499E+02  0.00000000000E+00 0.  1.
         11    1    1    2    0    0 -0.32546202939E+02  0.72360105634E+02  0.69543005562E+02  0.10550578105E+03  0.00000000000E+00 0. -1.
</event>
<event>
 6    1  0.5317355E-006  0.8822263E+02  0.7561462E-02  0.1307214E+00
         -2   -1    0    0    0  501 -0.00000000000E+00  0.00000000000E+00  0.96530841201E+02  0.96530841201E+02  0.00000000000E+00 0.  1.
          2   -1    0    0  501    0  0.00000000000E+00 -0.00000000000E+00 -0.13464354656E+03  0.13464354656E+03  0.00000000000E+00 0. -1.
          5    1    1    2  502    0 -0.39340274503E+02  0.13408305974E+02 -0.29352753755E+02  0.51053858033E+02  0.41800000000E+01 0.  1.
         -5    1    1    2    0  502  0.70831311010E+02 -0.26709697259E+02  0.21665132492E+02  0.78850066030E+02  0.41800000000E+01 0.  1.
        -11    1    1    2    0    0  0.55603947727E+01  0.20389863019E+02 -0.53172957322E+02  0.57219121754E+02  0.00000000000E+00 0. -1.
         11    1    1    2    0    0 -0.37051431280E+02 -0.70884717339E+01  0.22747873221E+02  0.44051341949E+02  0.00000000000E+00 0.  1.
</event>
<event>
 6    1  0.5317355E-006  0.1280791E+03  0.7561462E-02  0.1230334E+00
         -2   -1    0    0    0  501 -0.00000000000E+00  0.00000000000E+00  0.40784187269E+02  0.40784187269E+02  0.00000000000E+00 0.  1.
          2   -1    0    0  501    0  0.00000000000E+00 -0.00000000000E+00 -0.43405475771E+03  0.43405475771E+03  0.00000000000E+00 0. -1.
          5    1    1    2  502    0 -0.24741932719E+02 -0.10098583439E+03 -0.18942457685E+03  0.21612367917E+03  0.41800000000E+01 0.  1.
         -5    1    1    2    0  502  0.25297508767E+02  0.24582579172E+02 -0.24295948583E+02  0.43035249112E+02  0.41800000000E+01 0.  1.
        -11    1    1    2    0    0  0.34994072351E+02  0.72893522144E+02 -0.10092962359E+03  0.12932455137E+03  0.00000000000E+00 0.  1.
         11    1    1    2    0    0 -0.35549648399E+02  0.35097330711E+01 -0.78620421417E+02  0.86355465324E+02  0.00000000000E+00 0. -1.
</event>
<event>
 6    1  0.5317355E-006  0.2703143E+03  0.7561462E-02  0.1101100E+00
          1   -1    0    0  501    0  0.00000000000E+00  0.00000000000E+00  0.37789441524E+03  0.37789441524E+03  0.00000000000E+00 0. -1.
         -1   -1    0    0    0  501 -0.00000000000E+00 -0.00000000000E+00 -0.20802554677E+03  0.20802554677E+03  0.00000000000E+00 0.  1.
          5    1    1    2  502    0 -0.25465649386E+03 -0.52472178997E+01  0.51956167009E+01  0.25479782180E+03  0.41800000000E+01 0. -1.
         -5    1    1    2    0  502  0.77219893647E+01  0.20292158651E+02  0.46675997962E+01  0.22597781093E+02  0.41800000000E+01 0. -1.
        -11    1    1    2    0    0  0.16604363159E+03  0.33562478329E+02  0.10444658943E+03  0.19901260661E+03  0.00000000000E+00 0. -1.
         11    1    1    2    0    0  0.80890872903E+02 -0.48607419080E+02  0.55559062544E+02  0.10951175252E+03  0.00000000000E+00 0.  1.
</event>
<event>
 6    1  0.5317355E-006  0.2401382E+03  0.7561462E-02  0.1119701E+00
         -2   -1    0    0    0  501 -0.00000000000E+00  0.00000000000E+00  0.81671030994E+02  0.81671030994E+02  0.00000000000E+00 0.  1.
          2   -1    0    0  501    0  0.00000000000E+00 -0.00000000000E+00 -0.76062500909E+03  0.76062500909E+03  0.00000000000E+00 0. -1.
          5    1    1    2  502    0  0.82994307959E+02  0.15703892981E+02 -0.49678041436E+02  0.98081841383E+02  0.41800000000E+01 0. -1.
         -5    1    1    2    0  502 -0.29117837896E+02 -0.19014371608E+03 -0.28847364060E+03  0.34675206556E+03  0.41800000000E+01 0.  1.
        -11    1    1    2    0    0 -0.17973581607E+02  0.16527066086E+03 -0.29421883159E+03  0.33793810356E+03  0.00000000000E+00 0. -1.
         11    1    1    2    0    0 -0.35902888455E+02  0.91691622340E+01 -0.46583464469E+02  0.59524029580E+02  0.00000000000E+00 0.  1.
</event>
<event>
 6    1  0.5317355E-006  0.9679710E+02  0.7561462E-02  0.1287179E+00
          3   -1    0    0  501    0  0.00000000000E+00  0.00000000000E+00  0.19585247026E+03  0.19585247026E+03  0.00000000000E+00 0. -1.
         -3   -1    0    0    0  501 -0.00000000000E+00 -0.00000000000E+00 -0.74308291681E+02  0.74308291681E+02  0.00000000000E+00 0.  1.
          5    1    1    2  502    0  0.29713886059E+02 -0.53492486320E+02 -0.11950217988E+02  0.62487128494E+02  0.41800000000E+01 0.  1.
         -5    1    1    2    0  502  0.57907871053E+01  0.59089281248E+02  0.36910746762E+02  0.70035362498E+02  0.41800000000E+01 0.  1.
        -11    1    1    2    0    0  0.80030339500E+01  0.20500053400E+02 -0.63295827412E+01  0.22899003460E+02  0.00000000000E+00 0.  1.
         11    1    1    2    0    0 -0.43507707114E+02 -0.26096848328E+02  0.10291323255E+03  0.11473926749E+03  0.00000000000E+00 0. -1.
</event>
<event>
 6    1  0.5317355E-006  0.1026577E+03  0.7561462E-02  0.1274804E+00
         -1   -1    0    0    0  501 -0.00000000000E+00  0.00000000000E+00  0.92786508195E+03  0.92786508195E+03  0.00000000000E+00 0.  1.
          1   -1    0    0  501    0  0.00000000000E+00 -0.00000000000E+00 -0.15236570686E+02  0.15236570686E+02  0.00000000000E+00 0. -1.
          5    1    1    2  502    0  0.50314532609E+02 -0.76639220492E+00  0.16161841478E+03  0.16932254411E+03  0.41800000000E+01 0. -1.
         -5    1    1    2    0  502 -0.60415058349E+02  0.18172701261E+02  0.53512970404E+03  0.53885201948E+03  0.41800000000E+01 0. -1.
        -11    1    1    2    0    0 -0.16954348835E+02 -0.47909965041E+02  0.13719113532E+03  0.14630181922E+03  0.00000000000E+00 0.  1.
         11    1    1    2    0    0  0.27054874575E+02  0.30503655984E+02  0.78689257113E+02  0.88625269826E+02  0.00000000000E+00 0. -1.
</event>
<event>
 6    1  0.5317355E-006  0.1278287E+03  0.7561462E-02  0.1230714E+00
          2   -1    0    0  501    0  0.00000000000E+00  0.00000000000E+00  0.10217412722E+03  0.10217412722E+03  0.00000000000E+00 0. -1.
         -2   -1    0    0    0  501 -0.00000000000E+00 -0.00000000000E+00 -0.22428039156E+03  0.22428039156E+03  0.00000000000E+00 0.  1.
          5    1    1    2  502    0  0.52760322556E+02  0.53199834441E+02 -0.76691746471E+02  0.10729851070E+03  0.41800000000E+01 0. -1.
         -5    1    1    2    0  502  0.46667128042E+02 -0.62195200816E+02 -0.22748397829E+02  0.81123522162E+02  0.41800000000E+01 0. -1.
        -11    1    1    2    0    0 -0.74477637448E+02  0.17282021347E+02 -0.56584950126E+02  0.95118049404E+02  0.00000000000E+00 0.  1.
         11    1    1    2    0    0 -0.24949813150E+02 -0.82866549717E+01  0.33918830087E+02  0.42914436514E+02  0.00000000000E+00 0. -1.
</event>
<event>
 6    1  0.5317355E-006  0.8708816E+02  0.7561462E-02  0.1310060E+00
         -2   -1    0    0    0  501 -0.00000000000E+00  0.00000000000E+00  0.38577121202E+02  0.38577121202E+02  0.00000000000E+00 0. -1.
          2   -1    0    0  501    0  0.00000000000E+00 -0.00000000000E+00 -0.40405827540E+03  0.40405827540E+03  0.00000000000E+00 0.  1.
          5    1    1    2  502    0  0.18346768975E+02  0.41894910839E+01  0.13287533419E+02  0.23413387446E+02  0.41800000000E+01 0. -1.
         -5    1    1    2    0  502  0.37075314691E+02 -0.22572455419E+02 -0.22599832505E+03  0.23016691775E+03  0.41800000000E+01 0. -1.
        -11    1    1    2    0    0 -0.79682300686E+02  0.29019593676E+02 -0.11335350008E+03  0.14156419689E+03  0.00000000000E+00 0. -1.
         11    1    1    2    0    0  0.24260217020E+02 -0.10636629340E+02 -0.39416862495E+02  0.47490894522E+02  0.00000000000E+00 0.  1.
</event>
<event>
 6    1  0.5317355E-006  0.6436387E+02  0.7561462E-02  0.1380380E+00
         -1   -1    0    0    0  501 -0.00000000000E+00  0.00000000000E+00  0.59708385667E+02  0.59708385667E+02  0.00000000000E+00 0.  1.
          1   -1    0    0  501    0  0.00000000000E+00 -0.00000000000E+00 -0.22153816415E+03  0.22153816415E+03  0.00000000000E+00 0. -1.
          5    1    1    2  502    0  0.91426536105E+01  0.19442886564E+02 -0.92231757552E+02  0.94793372417E+02  0.41800000000E+01 0. -1.
         -5    1    1    2    0  502 -0.34614376573E+02 -0.11195494267E+02  0.30116978033E+02  0.47413067010E+02  0.41800000000E+01 0. -1.
        -11    1    1    2    0    0 -0.60652732791E-01 -0.33974354062E+02 -0.96901762560E+02  0.10268501351E+03  0.00000000000E+00 0. -1.
         11    1    1    2    0    0  0.25532375695E+02  0.25726961765E+02 -0.28132364094E+01  0.36355096883E+02  0.00000000000E+00 0.  1.
</event>
<event>
 6    1  0.5317355E-006  0.1000279E+03  0.7561462E-02  0.1280237E+00
         -1   -1    0    0    0  501 -0.00000000000E+00  0.00000000000E+00  0.60982924826E+02  0.60982924826E+02  0.00000000000E+00 0.  1.
          1   -1    0    0  501    0  0.00000000000E+00 -0.00000000000E+00 -0.21314152195E+03  0.21314152195E+03  0.00000000000E+00 0. -1.
          5    1    1    2  502    0 -0.35034498669E+02 -0.50466873566E+02 -0.76964445149E+00  0.61582352805E+02  0.41800000000E+01 0. -1.
         -5    1    1    2    0  502  0.28744880630E+02  0.44047174650E+02 -0.53279708270E+02  0.74984141459E+02  0.41800000000E+01 0. -1.
        -11    1    1    2    0    0 -0.16379827914E+02  0.41122474701E+02 -0.18844088110E+02  0.48108796958E+02  0.00000000000E+00 0.  1.
         11    1    1    2    0    0  0.22669445952E+02 -0.34702775786E+02 -0.79265156298E+02  0.89449155558E+02  0.00000000000E+00 0. -1.
</event>
<event>
 6    1  0.5317355E-006  0.1647841E+03  0.7561462E-02  0.1183399E+00
         -2   -1    0    0    0  501 -0.00000000000E+00  0.00000000000E+00  0.12946741710E+03  0.12946741710E+03  0.00000000000E+00 0.  1.
          2   -1    0    0  501    0  0.00000000000E+00 -0.00000000000E+00 -0.21786884423E+03  0.21786884423E+03  0.00000000000E+00 0. -1.
          5    1    1    2  502    0  0.14012185916E+02  0.43810849651E+02 -0.12693193386E+01  0.46204063380E+02  0.41800000000E+01 0.  1.
         -5    1    1    2    0  502 -0.13034063646E+03  0.13827301354E+01 -0.13238410484E+02  0.13108516837E+03  0.41800000000E+01 0.  1.
        -11    1    1    2    0    0  0.12977014029E+03 -0.49441606029E+02 -0.64581359802E+02  0.15315193029E+03  0.00000000000E+00 0.  1.
         11    1    1    2    0    0 -0.13441689741E+02  0.42480262427E+01 -0.93123375044E+01  0.16895099285E+02  0.00000000000E+00 0. -1.
</event>
<event>
 6    1  0.5317355E-006  0.1914991E+03  0.7561462E-02  0.1157116E+00
         -1   -1    0    0    0  501 -0.00000000000E+00  0.00000000000E+00  0.61606819129E+03  0.61606819129E+03  0.00000000000E+00 0.  1.
          1   -1    0    0  501    0  0.00000000000E+00 -0.00000000000E+00 -0.10180549141E+03  0.10180549141E+03  0.00000000000E+00 0. -1.
          5    1    1    2  502    0 -0.13230220219E+02  0.77048108982E+02  0.87390469168E+02  0.11732866796E+03  0.41800000000E+01 0. -1.
         -5    1    1    2    0  502 -0.10505713257E+03  0.54948586237E+02  0.37719148315E+03  0.39540768277E+03  0.41800000000E+01 0. -1.
        -11    1    1    2    0    0  0.10267449181E+03 -0.75451577284E+02 -0.12935468874E+01  0.12742317312E+03  0.00000000000E+00 0.  1.
         11    1    1    2    0    0  0.15612860977E+02 -0.56545117934E+02  0.50974294451E+02  0.77714158844E+02  0.00000000000E+00 0. -1.
</event>
<event>
 6    1  0.5317355E-006  0.5346520E+02  0.7561462E-02  0.1427500E+00
          2   -1    0    0  501    0  0.00000000000E+00  0.00000000000E+00  0.59885532295E+03  0.59885532295E+03  0.00000000000E+00 0. -1.
         -2   -1    0    0    0  501 -0.00000000000E+00 -0.00000000000E+00 -0.19635483783E+02  0.19635483783E+02  0.00000000000E+00 0.  1.
          5    1    1    2  502    0  0.12226850517E+02 -0.11892952048E+02  0.30597810581E+03  0.30648166637E+03  0.41800000000E+01 0.  1.
         -5    1    1    2    0  502  0.15025638560E+01  0.48964664354E+01 -0.11816703922E+02  0.13540309202E+02  0.41800000000E+01 0.  1.
        -11    1    1    2    0    0 -0.42818029914E+02 -0.15966158012E+02  0.20801473025E+03  0.21297518609E+03  0.00000000000E+00 0. -1.
         11    1    1    2    0    0  0.29088615541E+02  0.22962643625E+02  0.77043707023E+02  0.85493645075E+02  0.00000000000E+00 0.  1.
</event>
<event>
 6    1  0.5317355E-006  0.1269660E+03  0.7561462E-02  0.1232028E+00
         -2   -1    0    0    0  501 -0.00000000000E+00  0.00000000000E+00  0.34967633107E+03  0.34967633107E+03  0.00000000000E+00 0.  1.
          2   -1    0    0  501    0  0.00000000000E+00 -0.00000000000E+00 -0.53340877015E+02  0.53340877015E+02  0.00000000000E+00 0. -1.
          5    1    1    2  502    0 -0.37791223439E+02 -0.22119859972E+02  0.43065494246E+02  0.61559515665E+02  0.41800000000E+01 0. -1.
         -5    1    1    2    0  502  0.25939450873E+02  0.91279457601E+02  0.18268943878E+03  0.20590701283E+03  0.41800000000E+01 0. -1.
        -11    1    1    2    0    0 -0.37803778137E+02 -0.12957523861E+02  0.17253076992E+02  0.43528056833E+02  0.00000000000E+00 0. -1.
         11    1    1    2    0    0  0.49655550703E+02 -0.56202073768E+02  0.53327444040E+02  0.92022622758E+02  0.00000000000E+00 0.  1.
</event>
<event>
 6    1  0.5317355E-006  0.1040207E+03  0.7561462E-02  0.1272061E+00
         -2   -1    0    0    0  501 -0.00000000000E+00  0.00000000000E+00  0.30335137964E+03  0.30335137964E+03  0.00000000000E+00 0.  1.
          2   -1    0    0  501    0  0.00000000000E+00 -0.00000000000E+00 -0.63916550294E+02  0.63916550294E+02  0.00000000000E+00 0. -1.
          5    1    1    2  502    0 -0.43825902866E+02  0.21547285820E+00  0.10842004224E+03  0.11701766598E+03  0.41800000000E+01 0.  1.
         -5    1    1    2    0  502  0.82994817034E+02 -0.95444533245E+01  0.11537322227E+03  0.14250504924E+03  0.41800000000E+01 0.  1.
        -11    1    1    2    0    0 -0.29053685668E+02 -0.28807587375E+02 -0.27488280547E+02  0.49290965792E+02  0.00000000000E+00 0. -1.
         11    1    1    2    0    0 -0.10115228500E+02  0.38136567841E+02  0.43129845387E+02  0.58454248925E+02  0.00000000000E+00 0.  1.
</event>
<event>
 6    1  0.5317355E-006  0.8540056E+02  0.7561462E-02  0.1314388E+00
         -1   -1    0    0    0  501 -0.00000000000E+00  0.00000000000E+00  0.99662039443E+02  0.99662039443E+02  0.00000000000E+00 0.  1.
          1   -1    0    0  501    0  0.00000000000E+00 -0.00000000000E+00 -0.15469592771E+03  0.15469592771E+03  0.00000000000E+00 0. -1.
          5    1    1    2  502    0 -0.58027798706E+02  0.26705679212E+02  0.62381939062E+02  0.89383429370E+02  0.41800000000E+01 0. -1.
         -5    1    1    2    0  502  0.19910118528E+02  0.49067780005E+00 -0.41126270304E+02  0.45885685062E+02  0.41800000000E+01 0. -1.
        -11    1    1    2    0    0  0.34228270326E+02  0.19623930507E+02 -0.15808041204E+02  0.42503732833E+02  0.00000000000E+00 0.  1.
         11    1    1    2    0    0  0.38894098529E+01 -0.46820287519E+02 -0.60481515825E+02  0.76585119892E+02  0.00000000000E+00 0. -1.
</event>
<event>
 6    1  0.5317355E-006  0.8978267E+02  0.7561462E-02  0.1303379E+00
         -2   -1    0    0    0  501 -0.00000000000E+00  0.00000000000E+00  0.32998727984E+02  0.32998727984E+02  0.00000000000E+00 0.  1.
          2   -1    0    0  501    0  0.00000000000E+00 -0.00000000000E+00 -0.42885535873E+03  0.42885535873E+03  0.00000000000E+00 0. -1.
          5    1    1    2  502    0  0.81907456405E+02 -0.20320288250E+02 -0.16174802240E+03  0.18248737129E+03  0.41800000000E+01 0. -1.
         -5    1    1    2    0  502 -0.46081755976E+02 -0.99497360915E+01 -0.60286611462E+02  0.76645113371E+02  0.41800000000E+01 0. -1.
        -11    1    1    2    0    0 -0.27463441233E+02  0.17795914720E+02 -0.18247712435E+03  0.18538833862E+03  0.00000000000E+00 0. -1.
         11    1    1    2    0    0 -0.83622591971E+01  0.12474109621E+02  0.86551274685E+01  0.17333263433E+02  0.00000000000E+00 0.  1.
</event>
<event>
 6    1  0.5317355E-006  0.1535118E+03  0.7561462E-02  0.1196223E+00
          2   -1    0    0  501    0  0.00000000000E+00  0.00000000000E+00  0.59166847767E+02  0.59166847767E+02  0.00000000000E+00 0. -1.
         -2   -1    0    0    0  501 -0.00000000000E+00 -0.00000000000E+00 -0.48597182382E+03  0.48597182382E+03  0.00000000000E+00 0.  1.
          5    1    1    2  502    0  0.80159608327E+02 -0.40629888932E+02 -0.89236228010E+02  0.12671593219E+03  0.41800000000E+01 0. -1.
         -5    1    1    2    0  502  0.46320448674E+02  0.68205845691E+02 -0.16881458378E+03  0.18791875226E+03  0.41800000000E+01 0. -1.
        -11    1    1    2    0    0 -0.68596548301E+02 -0.33460900383E+02 -0.33663217253E+02  0.83416607993E+02  0.00000000000E+00 0. -1.
         11    1    1    2    0    0 -0.57883508700E+02  0.58849436230E+01 -0.13509094701E+03  0.14708737915E+03  0.00000000000E+00 0.  1.
</event>
<event>
 6    1  0.5317355E-006  0.2328374E+03  0.7561462E-02  0.1124658E+00
          1   -1    0    0  501    0  0.00000000000E+00  0.00000000000E+00  0.35710075536E+03  0.35710075536E+03  0.00000000000E+00 0. -1.
         -1   -1    0    0    0  501 -0.00000000000E+00 -0.00000000000E+00 -0.16031231778E+03  0.16031231778E+03  0.00000000000E+00 0.  1.
          5    1    1    2  502    0 -0.34751450007E+01  0.28770926008E+02 -0.87790291453E+01  0.30567737385E+02  0.41800000000E+01 0.  1.
         -5    1    1    2    0  502  0.20904478639E+03  0.52763706892E+01  0.63076024191E+02  0.21845736434E+03  0.41800000000E+01 0.  1.
        -11    1    1    2    0    0 -0.79879959753E+02  0.31040483860E+02  0.48355719953E+02  0.98400179169E+02  0.00000000000E+00 0.  1.
         11    1    1    2    0    0 -0.12568968164E+03 -0.65087780557E+02  0.94135722583E+02  0.16998779225E+03  0.00000000000E+00 0. -1.
</event>
<event>
 6    1  0.5317355E-006  0.2090489E+03  0.7561462E-02  0.1142321E+00
          1   -1    0    0  501    0  0.00000000000E+00  0.00000000000E+00  0.14870963593E+03  0.14870963593E+03  0.00000000000E+00 0. -1.
         -1   -1    0    0    0  501 -0.00000000000E+00 -0.00000000000E+00 -0.34266502151E+03  0.34266502151E+03  0.00000000000E+00 0.  1.
          5    1    1    2  502    0  0.19699137542E+03 -0.30982073362E+02 -0.78228316548E+02  0.21424899712E+03  0.41800000000E+01 0.  1.
         -5    1    1    2    0  502  0.28045229121E+01  0.82935896298E+01 -0.58294614618E+02  0.59096391355E+02  0.41800000000E+01 0.  1.
        -11    1    1    2    0    0 -0.78936672032E+02 -0.18823194042E+02 -0.34589155826E+02  0.88214060819E+02  0.00000000000E+00 0.  1.
         11    1    1    2    0    0 -0.12085922630E+03  0.41511677775E+02 -0.22843298594E+02  0.12981520814E+03  0.00000000000E+00 0. -1.
</event>
<event>
 6    1  0.5317355E-006  0.1068322E+03  0.7561462E-02  0.1266551E+00
          1   -1    0    0  501    0  0.00000000000E+00  0.00000000000E+00  0.95410470859E+02  0.95410470859E+02  0.00000000000E+00 0. -1.
         -1   -1    0    0    0  501 -0.00000000000E+00 -0.00000000000E+00 -0.14867298511E+03  0.14867298511E+03  0.00000000000E+00 0.  1.
          5    1    1    2  502    0  0.49067828149E+02 -0.27702134522E+01 -0.39738221551E+02  0.63339754451E+02  0.41800000000E+01 0. -1.
         -5    1    1    2    0  502 -0.65879572388E+02  0.41185038388E+02 -0.13764542142E+02  0.79014305448E+02  0.41800000000E+01 0. -1.
        -11    1    1    2    0    0  0.29764952284E+02 -0.56752106253E+02 -0.24238057511E+02  0.68514504891E+02  0.00000000000E+00 0.  1.
         11    1    1    2    0    0 -0.12953208046E+02  0.18337281317E+02  0.24478306953E+02  0.33214891179E+02  0.00000000000E+00 0. -1.
</event>
<event>
 6    1  0.5317355E-006  0.2953182E+03  0.7561462E-02  0.1087605E+00
         -1   -1    0    0    0  501 -0.00000000000E+00  0.00000000000E+00  0.16501223446E+04  0.16501223446E+04  0.00000000000E+00 0.  1.
          1   -1    0    0  501    0  0.00000000000E+00 -0.00000000000E+00 -0.60468671600E+02  0.60468671600E+02  0.00000000000E+00 0. -1.
          5    1    1    2  502    0  0.83216474771E+01  0.51820328853E+02  0.14395608871E+03  0.15328217175E+03  0.41800000000E+01 0.  1.
         -5    1    1    2    0  502 -0.20289445055E+03  0.14871169553E+03  0.93660549365E+03  0.96980856337E+03  0.41800000000E+01 0.  1.
        -11    1    1    2    0    0  0.17876269074E+03 -0.20289053478E+03  0.50160361887E+03  0.56984810184E+03  0.00000000000E+00 0.  1.
         11    1    1    2    0    0  0.15810112334E+02  0.23585104012E+01  0.74884717996E+01  0.17652179277E+02  0.00000000000E+00 0. -1.
</event>
<event>
 6    1  0.5317355E-006  0.1294572E+03  0.7561462E-02  0.1228263E+00
         -1   -1    0    0    0  501 -0.00000000000E+00  0.00000000000E+00  0.25165887505E+02  0.25165887505E+02  0.00000000000E+00 0.  1.
          1   -1    0    0  501    0  0.00000000000E+00 -0.00000000000E+00 -0.77102625629E+03  0.77102625629E+03  0.00000000000E+00 0. -1.
          5    1    1    2  502    0  0.35707318164E+02  0.20005830249E+02 -0.55675942701E+02  0.69228092637E+02  0.41800000000E+01 0. -1.
         -5    1    1    2    0  502 -0.29484040801E+02 -0.98153836342E+02 -0.25013739059E+03  0.27035101410E+03  0.41800000000E+01 0. -1.
        -11    1    1    2    0    0 -0.41670467286E+02  0.18017074286E+02 -0.25140512730E+03  0.25547129162E+03  0.00000000000E+00 0. -1.
         11    1    1    2    0    0  0.35447189922E+02  0.60130931807E+02 -0.18864190819E+03  0.20114174544E+03  0.00000000000E+00 0.  1.
</event>
<event>
 6    1  0.5317355E-006  0.1680053E+03  0.7561462E-02  0.1179944E+00
          1   -1    0    0  501    0  0.00000000000E+00  0.00000000000E+00  0.10869596537E+04  0.10869596537E+04  0.00000000000E+00 0. -1.
         -1   -1    0    0    0  501 -0.00000000000E+00 -0.00000000000E+00 -0.38937585189E+02  0.38937585189E+02  0.00000000000E+00 0.  1.
          5    1    1    2  502    0  0.79923466878E+01 -0.34781093838E+02  0.49021207431E+02  0.60779546495E+02  0.41800000000E+01 0. -1.
         -5    1    1    2    0  502  0.97463684627E+02  0.10537231553E+03  0.17499536010E+03  0.22636992547E+03  0.41800000000E+01 0.  1.
        -11    1    1    2    0    0 -0.10376745472E+03 -0.89782381104E+02  0.71325169988E+03  0.72633088052E+03  0.00000000000E+00 0. -1.
         11    1    1    2    0    0 -0.16885765975E+01  0.19191159413E+02  0.11075380109E+03  0.11241688639E+03  0.00000000000E+00 0.  1.
</event>
<event>
 6    1  0.5317355E-006  0.1807870E+03  0.7561462E-02  0.1167044E+00
          2   -1    0    0  501    0  0.00000000000E+00  0.00000000000E+00  0.14489156754E+03  0.14489156754E+03  0.00000000000E+00 0. -1.
         -2   -1    0    0    0  501 -0.00000000000E+00 -0.00000000000E+00 -0.25362684184E+03  0.25362684184E+03  0.00000000000E+00 0.  1.
          5    1    1    2  502    0 -0.16636146970E+03  0.55317549001E+02 -0.84497357590E+02  0.19466238894E+03  0.41800000000E+01 0. -1.
         -5    1    1    2    0  502  0.19917165730E+02 -0.34675612641E+01  0.28955585177E+01  0.20846441686E+02  0.41800000000E+01 0. -1.
        -11    1    1    2    0    0  0.16003879404E+02 -0.29018304086E+02 -0.37664796279E+02  0.50167948003E+02  0.00000000000E+00 0.  1.
         11    1    1    2    0    0  0.13044042457E+03 -0.22831683650E+02  0.10531321047E+02  0.13284163076E+03  0.00000000000E+00 0. -1.
</event>
<event>
 6    1  0.5317355E-006  0.1025281E+03  0.7561462E-02  0.1275068E+00
         -1   -1    0    0    0  501 -0.00000000000E+00  0.00000000000E+00  0.12581773378E+03  0.12581773378E+03  0.00000000000E+00 0.  1.
          1   -1    0    0  501    0  0.00000000000E+00 -0.00000000000E+00 -0.98466646119E+02  0.98466646119E+02  0.00000000000E+00 0. -1.
          5    1    1    2  502    0 -0.58282461684E+01  0.56962233572E+02 -0.75863912045E+01  0.57911054545E+02  0.41800000000E+01 0.  1.
         -5    1    1    2    0  502 -0.60989362116E+01 -0.55975187637E+02  0.47973393774E+02  0.74090063869E+02  0.41800000000E+01 0.  1.
        -11    1    1    2    0    0 -0.25826119801E+01 -0.44879770510E+02 -0.35725129289E+01  0.45095748517E+02  0.00000000000E+00 0. -1.
         11    1    1    2    0    0  0.14509794360E+02  0.43892724575E+02 -0.94634019796E+01  0.47187512967E+02  0.00000000000E+00 0.  1.
</event>
<event>
 6    1  0.5317355E-006  0.1049968E+03  0.7561462E-02  0.1270126E+00
         -1   -1    0    0    0  501 -0.00000000000E+00  0.00000000000E+00  0.67176674477E+02  0.67176674477E+02  0.00000000000E+00 0.  1.
          1   -1    0    0  501    0  0.00000000000E+00 -0.00000000000E+00 -0.25792370787E+03  0.25792370787E+03  0.00000000000E+00 0. -1.
          5    1    1    2  502    0  0.42770168970E+01 -0.26059204389E+02 -0.54997782444E+02  0.61152297427E+02  0.41800000000E+01 0. -1.
         -5    1    1    2    0  502 -0.23661384241E+02  0.83530274317E+02  0.37952508116E+01  0.87000253795E+02  0.41800000000E+01 0. -1.
        -11    1    1    2    0    0 -0.25047495411E+02 -0.18010366481E+01 -0.63471310861E+01  0.25901869284E+02  0.00000000000E+00 0.  1.
         11    1    1    2    0    0  0.44431862756E+02 -0.55670033279E+02 -0.13319737067E+03  0.15104596184E+03  0.00000000000E+00 0. -1.
</event>
<event>
 6    1  0.5317355E-006  0.9513854E+02  0.7561462E-02  0.1290864E+00
          1   -1    0    0  501    0  0.00000000000E+00  0.00000000000E+00  0.22308894789E+02  0.22308894789E+02  0.00000000000E+00 0. -1.
         -1   -1    0    0    0  501 -0.00000000000E+00 -0.00000000000E+00 -0.81295961691E+03  0.81295961691E+03  0.00000000000E+00 0.  1.
          5    1    1    2  502    0  0.55331694918E+02 -0.41546700046E+02 -0.52323663138E+03  0.52780845917E+03  0.41800000000E+01 0. -1.
         -5    1    1    2    0  502  0.59389179575E+01  0.41480961876E+02 -0.71128291743E+02  0.82659828399E+02  0.41800000000E+01 0. -1.
        -11    1    1    2    0    0  0.54540255287E+01  0.99950131482E+01  0.50556434516E+01  0.12458178559E+02  0.00000000000E+00 0. -1.
         11    1    1    2    0    0 -0.66724638404E+02 -0.99292749781E+01 -0.20134144245E+03  0.21234204557E+03  0.00000000000E+00 0.  1.
</event>
<event>
 6    1  0.5317355E-006  0.1655087E+03  0.7561462E-02  0.1182614E+00
          2   -1    0    0  501    0  0.00000000000E+00  0.00000000000E+00  0.56295626957E+03  0.56295626957E+03  0.00000000000E+00 0. -1.
         -2   -1    0    0    0  501 -0.00000000000E+00 -0.00000000000E+00 -0.64258918520E+02  0.64258918520E+02  0.00000000000E+00 0.  1.
          5    1    1    2  502    0  0.76818395295E+02 -0.56036046226E+02  0.69146627314E+02  0.11764281874E+03  0.41800000000E+01 0. -1.
         -5    1    1    2    0  502 -0.46555245719E+02 -0.75875619596E+02  0.64973484855E+02  0.11028837966E+03  0.41800000000E+01 0. -1.
        -11    1    1    2    0    0  0.30524952242E+01  0.10170966900E+03  0.15845731455E+03  0.18831594470E+03  0.00000000000E+00 0.  1.
         11    1    1    2    0    0 -0.33315644800E+02  0.30201996825E+02  0.20611992433E+03  0.21096804499E+03  0.00000000000E+00 0. -1.
</event>
<event>
 6    1  0.6949647E-006  0.6643402E+02  0.7561462E-02  0.1372657E+00
          3   -1    0    0  501    0  0.00000000000E+00  0.00000000000E+00  0.22743024260E+03  0.22743024260E+03  0.00000000000E+00 0. -1.
         -3   -1    0    0    0  501 -0.00000000000E+00 -0.00000000000E+00 -0.57823812370E+02  0.57823812370E+02  0.00000000000E+00 0.  1.
          5    1    1    2  502    0  0.19049778250E+02  0.18243577594E+02 -0.30624623488E+02  0.40633263942E+02  0.41800000000E+01 0.  1.
         -5    1    1    2    0  502 -0.10068503946E+02  0.15167354957E+02  0.10984046433E+03  0.11141733901E+03  0.41800000000E+01 0.  1.
        -11    1    1    2    0    0 -0.42628336673E+02 -0.32874556431E+02  0.24349607583E+02  0.59083118887E+02  0.00000000000E+00 0.  1.
         11    1    1    2    0    0  0.33647062369E+02 -0.53637612083E+00  0.66040981807E+02  0.74120333130E+02  0.00000000000E+00 0. -1.
</event>
<event>
 6    1  0.5317355E-006  0.1119154E+03  0.7561462E-02  0.1257063E+00
         -1   -1    0    0    0  501 -0.00000000000E+00  0.00000000000E+00  0.84253871808E+02  0.84253871808E+02  0.00000000000E+00 0.  1.
          1   -1    0    0  501    0  0.00000000000E+00 -0.00000000000E+00 -0.15879187318E+03  0.15879187318E+03  0.00000000000E+00 0. -1.
          5    1    1    2  502    0 -0.62835910426E+02 -0.55820538589E+02 -0.36562919472E+02  0.91752948987E+02  0.41800000000E+01 0. -1.
         -5    1    1    2    0  502  0.42166138599E+02  0.85425529792E+01 -0.11088371142E+02  0.44624912665E+02  0.41800000000E+01 0.  1.
        -11    1    1    2    0    0  0.47707470620E+02  0.74081671598E+01  0.55426582904E+01  0.48596345074E+02  0.00000000000E+00 0. -1.
         11    1    1    2    0    0 -0.27037698794E+02  0.39869818450E+02 -0.32429369048E+02  0.58071538263E+02  0.00000000000E+00 0.  1.
</event>
<event>
 6    1  0.5317355E-006  0.1282126E+03  0.7561462E-02  0.1230132E+00
         -2   -1    0    0    0  501 -0.00000000000E+00  0.00000000000E+00  0.17072139917E+03  0.17072139917E+03  0.00000000000E+00 0.  1.
          2   -1    0    0  501    0  0.00000000000E+00 -0.00000000000E+00 -0.16001620057E+03  0.16001620057E+03  0.00000000000E+00 0. -1.
          5    1    1    2  502    0 -0.48982882656E+02  0.77221105210E+02  0.45996983089E+02  0.10244811729E+03  0.41800000000E+01 0.  1.
         -5    1    1    2    0  502  0.58384146420E+02  0.86593514901E+01  0.48933976822E+02  0.76783457913E+02  0.41800000000E+01 0.  1.
        -11    1    1    2    0    0 -0.34164479641E+02 -0.64531102904E+02 -0.14426508761E+02  0.74428482896E+02  0.00000000000E+00 0.  1.
         11    1    1    2    0    0  0.24763215877E+02 -0.21349353795E+02 -0.69799252552E+02  0.77077541638E+02  0.00000000000E+00 0. -1.
</event>
<event>
 6    1  0.5317355E-006  0.7732414E+02  0.7561462E-02  0.1336821E+00
          2   -1    0    0  501    0  0.00000000000E+00  0.00000000000E+00  0.55063709695E+03  0.55063709695E+03  0.00000000000E+00 0. -1.
         -2   -1    0    0    0  501 -0.00000000000E+00 -0.00000000000E+00 -0.26238488638E+02  0.26238488638E+02  0.00000000000E+00 0.  1.
          5    1    1    2  502    0 -0.13143456174E+02  0.36447871477E+02  0.27255635771E+03  0.27532823739E+03  0.41800000000E+01 0.  1.
         -5    1    1    2    0  502 -0.68050110612E+01  0.12152317013E+02 -0.11724071188E+02  0.18679219190E+02  0.41800000000E+01 0.  1.
        -11    1    1    2    0    0 -0.20192638909E+02  0.15533769260E+02  0.46921342827E+02  0.53391507436E+02  0.00000000000E+00 0.  1.
         11    1    1    2    0    0  0.40141106145E+02 -0.64133957750E+02  0.21664497896E+03  0.22947662157E+03  0.00000000000E+00 0. -1.
</event>
<event>
 6    1  0.5317355E-006  0.1085440E+03  0.7561462E-02  0.1263290E+00
         -1   -1    0    0    0  501 -0.00000000000E+00  0.00000000000E+00  0.77541784169E+02  0.77541784169E+02  0.00000000000E+00 0.  1.
          1   -1    0    0  501    0  0.00000000000E+00 -0.00000000000E+00 -0.20211307573E+03  0.20211307573E+03  0.00000000000E+00 0. -1.
          5    1    1    2  502    0  0.70490093870E+02  0.37531398894E+01 -0.48215447305E+02  0.85587038456E+02  0.41800000000E+01 0. -1.
         -5    1    1    2    0  502 -0.31745473732E+02 -0.29425314602E+02  0.24557683489E+02  0.49941730649E+02  0.41800000000E+01 0. -1.
        -11    1    1    2    0    0 -0.94270425725E+01  0.58280253403E+02 -0.56716369894E+02  0.81866987745E+02  0.00000000000E+00 0. -1.
         11    1    1    2    0    0 -0.29317577566E+02 -0.32608078690E+02 -0.44197157849E+02  0.62259103047E+02  0.00000000000E+00 0.  1.
</event>
<event>
 6    1  0.5317355E-006  0.8654834E+02  0.7561462E-02  0.1311432E+00
         -1   -1    0    0    0  501 -0.00000000000E+00  0.00000000000E+00  0.30434590426E+03  0.30434590426E+03  0.00000000000E+00 0.  1.
          1   -1    0    0  501    0  0.00000000000E+00 -0.00000000000E+00 -0.43352155940E+02  0.43352155940E+02  0.00000000000E+00 0. -1.
          5    1    1    2  502    0 -0.44980279539E+02  0.16727980502E+02  0.26060423151E+02  0.54769233461E+02  0.41800000000E+01 0. -1.
         -5    1    1    2    0  502  0.51460145066E+02 -0.51552170525E+02  0.12311084367E+03  0.14310669113E+03  0.41800000000E+01 0. -1.
        -11    1    1    2    0    0 -0.22521999691E+02  0.19931807804E+02  0.12202173688E+03  0.12567347256E+03  0.00000000000E+00 0.  1.
         11    1    1    2    0    0  0.16042134164E+02  0.14892382219E+02 -0.10199255389E+02  0.24148663052E+02  0.00000000000E+00 0. -1.
</event>
<event>
 6    1  0.5317355E-006  0.1280322E+03  0.7561462E-02  0.1230405E+00
          3   -1    0    0  501    0  0.00000000000E+00  0.00000000000E+00  0.49974568336E+02  0.49974568336E+02  0.00000000000E+00 0. -1.
         -3   -1    0    0    0  501 -0.00000000000E+00 -0.00000000000E+00 -0.38393692043E+03  0.38393692043E+03  0.00000000000E+00 0.  1.
          5    1    1    2  502    0  0.14058881119E+02  0.41522049859E+02 -0.30868692401E+02  0.53778074838E+02  0.41800000000E+01 0.  1.
         -5    1    1    2    0  502 -0.95683792323E+02 -0.27449690539E+02 -0.16821572991E+03  0.19550672064E+03  0.41800000000E+01 0.  1.
        -11    1    1    2    0    0  0.41797796504E+02 -0.45410663171E+02 -0.31045793166E+02  0.69087085592E+02  0.00000000000E+00 0. -1.
         11    1    1    2    0    0  0.39827114700E+02  0.31338303852E+02 -0.10383213662E+03  0.11553960770E+03  0.00000000000E+00 0.  1.
</event>
<event>
 6    1  0.5317355E-006  0.1006862E+03  0.7561462E-02  0.1278860E+00
          1   -1    0    0  501    0  0.00000000000E+00  0.00000000000E+00  0.17307230395E+02  0.17307230395E+02  0.00000000000E+00 0. -1.
         -1   -1    0    0    0  501 -0.00000000000E+00 -0.00000000000E+00 -0.71787991070E+03  0.71787991070E+03  0.00000000000E+00 0.  1.
          5    1    1    2  502    0 -0.36215807451E+02  0.52834859473E+02 -0.11804150289E+03  0.13436657281E+03  0.41800000000E+01 0.  1.
         -5    1    1    2    0  502  0.35747105064E+02 -0.23328590907E+02 -0.29800951097E+03  0.30108008852E+03  0.41800000000E+01 0.  1.
        -11    1    1    2    0    0 -0.43151145624E+02 -0.26342206474E+02 -0.15417011097E+03  0.16224782379E+03  0.00000000000E+00 0. -1.
         11    1    1    2    0    0  0.43619848011E+02 -0.31640620919E+01 -0.13035155548E+03  0.13749265597E+03  0.00000000000E+00 0.  1.
</event>
<event>
 6    1  0.5317355E-006  0.1121779E+03  0.7561462E-02  0.1256589E+00
         -1   -1    0    0    0  501 -0.00000000000E+00  0.00000000000E+00  0.41872435322E+02  0.41872435322E+02  0.00000000000E+00 0.  1.
          1   -1    0    0  501    0  0.00000000000E+00 -0.00000000000E+00 -0.48045266847E+03  0.48045266847E+03  0.00000000000E+00 0. -1.
          5    1    1    2  502    0 -0.10889822492E+02 -0.84803044828E+02 -0.10839948954E+03  0.13812337376E+03  0.41800000000E+01 0. -1.
         -5    1    1    2    0  502 -0.43551907352E+02  0.34280537964E+02 -0.32385317457E+02  0.64328882346E+02  0.41800000000E+01 0. -1.
        -11    1    1    2    0    0  0.51473332941E+02  0.24545917632E+02 -0.28521113672E+03  0.29085631949E+03  0.00000000000E+00 0. -1.
         11    1    1    2    0    0  0.29683969032E+01  0.25976589232E+02 -0.12584289430E+02  0.29016528200E+02  0.00000000000E+00 0.  1.
</event>
<event>
 6    1  0.5317355E-006  0.2791566E+03  0.7561462E-02  0.1096150E+00
          1   -1    0    0  501    0  0.00000000000E+00  0.00000000000E+00  0.29555130189E+03  0.29555130189E+03  0.00000000000E+00 0. -1.
         -1   -1    0    0    0  501 -0.00000000000E+00 -0.00000000000E+00 -0.49656449912E+03  0.49656449912E+03  0.00000000000E+00 0.  1.
          5    1    1    2  502    0  0.35473200172E+02  0.89739977437E+02 -0.11742619566E+03  0.15204603023E+03  0.41800000000E+01 0. -1.
         -5    1    1    2    0  502 -0.10353305831E+03  0.15811215474E+03 -0.25541198714E+03  0.31775982001E+03  0.41800000000E+01 0. -1.
        -11    1    1    2    0    0  0.83270007692E+02 -0.13359653817E+03  0.10002878986E+03  0.18651457850E+03  0.00000000000E+00 0. -1.
         11    1    1    2    0    0 -0.15210149557E+02 -0.11425559401E+03  0.71796195709E+02  0.13579537227E+03  0.00000000000E+00 0.  1.
</event>
<event>
 6    1  0.5317355E-006  0.1170351E+03  0.7561462E-02  0.1248070E+00
         -1   -1    0    0    0  501 -0.00000000000E+00  0.00000000000E+00  0.12893937571E+03  0.12893937571E+03  0.00000000000E+00 0. -1.
          1   -1    0    0  501    0  0.00000000000E+00 -0.00000000000E+00 -0.18352779449E+03  0.18352779449E+03  0.00000000000E+00 0.  1.
          5    1    1    2  502    0  0.15695072330E+01  0.21601683405E+02 -0.32485476053E+02  0.39266711515E+02  0.41800000000E+01 0. -1.
         -5    1    1    2    0  502 -0.85942350913E+02 -0.69938891163E+02  0.45002737923E+02  0.11966726786E+03  0.41800000000E+01 0. -1.
        -11    1    1    2    0    0  0.64063492078E+02  0.21713079576E+02  0.11018788363E+02  0.68534681285E+02  0.00000000000E+00 0. -1.
         11    1    1    2    0    0  0.20309351602E+02  0.26624128183E+02 -0.78124469018E+02  0.84998509536E+02  0.00000000000E+00 0.  1.
</event>
<event>
 6    1  0.5317355E-006  0.8583240E+02  0.7561462E-02  0.1313270E+00
          2   -1    0    0  501    0  0.00000000000E+00  0.00000000000E+00  0.11430573421E+03  0.11430573421E+03  0.00000000000E+00 0. -1.
         -2   -1    0    0    0  501 -0.00000000000E+00 -0.00000000000E+00 -0.17901711417E+03  0.17901711417E+03  0.00000000000E+00 0.  1.
          5    1    1    2  502    0 -0.63085283329E+02 -0.40455443515E+02 -0.26947584329E+02  0.79749862595E+02  0.41800000000E+01 0.  1.
         -5    1    1    2    0  502  0.83574096297E+01  0.40818460460E+02 -0.92992847069E+02  0.10198595499E+03  0.41800000000E+01 0.  1.
        -11    1    1    2    0    0  0.41736300047E+02 -0.48684809007E+00 -0.11748453370E+02  0.43361064554E+02  0.00000000000E+00 0.  1.
         11    1    1    2    0    0  0.12991573652E+02  0.12383114445E+00  0.66977504805E+02  0.68225966245E+02  0.00000000000E+00 0. -1.
</event>
<event>
 6    1  0.5317355E-006  0.2052526E+03  0.7561462E-02  0.1145382E+00
         -2   -1    0    0    0  501 -0.00000000000E+00  0.00000000000E+00  0.32086088276E+02  0.32086088276E+02  0.00000000000E+00 0.  1.
          2   -1    0    0  501    0  0.00000000000E+00 -0.00000000000E+00 -0.14280923529E+04  0.14280923529E+04  0.00000000000E+00 0. -1.
          5    1    1    2  502    0 -0.14886804651E+03  0.11831201585E+03 -0.54907142458E+03  0.58108203385E+03  0.41800000000E+01 0.  1.
         -5    1    1    2    0  502  0.14071875382E+02  0.81675766998E+01 -0.19554813207E+03  0.19626836561E+03  0.41800000000E+01 0.  1.
        -11    1    1    2    0    0  0.11746592012E+03 -0.54546402883E+02 -0.45054910665E+03  0.46879425121E+03  0.00000000000E+00 0. -1.
         11    1    1    2    0    0  0.17330251009E+02 -0.71933189663E+02 -0.20083760128E+03  0.21403379047E+03  0.00000000000E+00 0.  1.
</event>
<event>
 6    1  0.5317355E-006  0.1065469E+03  0.7561462E-02  0.1267101E+00
          2   -1    0    0  501    0  0.00000000000E+00  0.00000000000E+00  0.22796436489E+03  0.22796436489E+03  0.00000000000E+00 0. -1.
         -2   -1    0    0    0  501 -0.00000000000E+00 -0.00000000000E+00 -0.73583869039E+02  0.73583869039E+02  0.00000000000E+00 0.  1.
          5    1    1    2  502    0 -0.69269102132E+02  0.27982992479E+02 -0.70729490974E+01  0.75158202395E+02  0.41800000000E+01 0.  1.
         -5    1    1    2    0  502  0.15521263600E+01 -0.36848272291E+02  0.72943923845E+02  0.81844319858E+02  0.41800000000E+01 0.  1.
        -11    1    1    2    0    0  0.79971809024E+02 -0.79269054100E+01  0.93374653599E+02  0.12319558435E+03  0.00000000000E+00 0.  1.
         11    1    1    2    0    0 -0.12254833252E+02  0.16792185222E+02 -0.48651325000E+01  0.21350127325E+02  0.00000000000E+00 0. -1.
</event>
<event>
 6    1  0.5317355E-006  0.1024151E+03  0.7561462E-02  0.1275298E+00
          1   -1    0    0  501    0  0.00000000000E+00  0.00000000000E+00  0.75255399539E+02  0.75255399539E+02  0.00000000000E+00 0. -1.
         -1   -1    0    0    0  501 -0.00000000000E+00 -0.00000000000E+00 -0.21591500922E+03  0.21591500922E+03  0.00000000000E+00 0.  1.
          5    1    1    2  502    0  0.26651617010E+02 -0.25577565203E+02 -0.70013175460E+02  0.79270660834E+02  0.41800000000E+01 0.  1.
         -5    1    1    2    0  502 -0.86908982456E+02  0.16067756387E+02 -0.35326933487E+02  0.95272286928E+02  0.41800000000E+01 0.  1.
        -11    1    1    2    0    0  0.62187543529E+02 -0.69746336070E+01  0.14398335695E+02  0.64212523350E+02  0.00000000000E+00 0. -1.
         11    1    1    2    0    0 -0.19301780833E+01  0.16484442423E+02 -0.49717836431E+02  0.52414937650E+02  0.00000000000E+00 0.  1.
</event>
<event>
 6    1  0.5317355E-006  0.1129307E+03  0.7561462E-02  0.1255237E+00
          2   -1    0    0  501    0  0.00000000000E+00  0.00000000000E+00  0.10603832148E+03  0.10603832148E+03  0.00000000000E+00 0. -1.
         -2   -1    0    0    0  501 -0.00000000000E+00 -0.00000000000E+00 -0.12747133229E+03  0.12747133229E+03  0.00000000000E+00 0.  1.
          5    1    1    2  502    0 -0.42014492280E+02 -0.27454667238E+02  0.10623614805E+02  0.51471447485E+02  0.41800000000E+01 0. -1.
         -5    1    1    2    0  502  0.76752946699E+02 -0.36597774724E+02 -0.32794479185E+02  0.91232462462E+02  0.41800000000E+01 0.  1.
        -11    1    1    2    0    0  0.14501139125E+02  0.14590581143E+02  0.39173255512E+01  0.20940714732E+02  0.00000000000E+00 0. -1.
         11    1    1    2    0    0 -0.49239593545E+02  0.49461860820E+02 -0.31794719780E+01  0.69865029094E+02  0.00000000000E+00 0.  1.
</event>
<event>
 6    1  0.5317355E-006  0.1700142E+03  0.7561462E-02  0.1177833E+00
          1   -1    0    0  501    0  0.00000000000E+00  0.00000000000E+00  0.59761340244E+02  0.59761340244E+02  0.00000000000E+00 0. -1.
         -1   -1    0    0    0  501 -0.00000000000E+00 -0.00000000000E+00 -0.53980064447E+03  0.53980064447E+03  0.00000000000E+00 0.  1.
          5    1    1    2  502    0 -0.18669475943E+01 -0.51807471858E+02 -0.86975126836E+02  0.10133925558E+03  0.41800000000E+01 0. -1.
         -5    1    1    2    0  502  0.13026412536E+03  0.13464946889E+02 -0.25234409743E+03  0.28433266267E+03  0.41800000000E+01 0. -1.
        -11    1    1    2    0    0 -0.11554561436E+03  0.61214210702E+02 -0.96646823797E+02  0.16259943770E+03  0.00000000000E+00 0. -1.
         11    1    1    2    0    0 -0.12851563405E+02 -0.22871685733E+02 -0.44073256158E+02  0.51290628760E+02  0.00000000000E+00 0.  1.
</event>
<event>
 6    1  0.5317355E-006  0.8472349E+02  0.7561462E-02  0.1316157E+00
          1   -1    0    0  501    0  0.00000000000E+00  0.00000000000E+00  0.50385262974E+03  0.50385262974E+03  0.00000000000E+00 0. -1.
         -1   -1    0    0    0  501 -0.00000000000E+00 -0.00000000000E+00 -0.32536031986E+02  0.32536031986E+02  0.00000000000E+00 0.  1.
          5    1    1    2  502    0 -0.67727331451E+01 -0.59120605841E+01  0.23290128716E+03  0.23311221404E+03  0.41800000000E+01 0. -1.
         -5    1    1    2    0  502 -0.37968240599E+02 -0.44860751810E+02  0.30769582042E+02  0.66470398871E+02  0.41800000000E+01 0. -1.
        -11    1    1    2    0    0  0.54935029913E+02  0.66598463921E+01  0.56748427169E+02  0.79262822633E+02  0.00000000000E+00 0.  1.
         11    1    1    2    0    0 -0.10194056169E+02  0.44112966002E+02  0.15089730139E+03  0.15754322618E+03  0.00000000000E+00 0. -1.
</event>
<event>
 6    1  0.5317355E-006  0.9050417E+02  0.7561462E-02  0.1301635E+00
         -2   -1    0    0    0  501 -0.00000000000E+00  0.00000000000E+00  0.16468541900E+03  0.16468541900E+03  0.00000000000E+00 0.  1.
          2   -1    0    0  501    0  0.00000000000E+00 -0.00000000000E+00 -0.99260995981E+02  0.99260995981E+02  0.00000000000E+00 0. -1.
          5    1    1    2  502    0 -0.54296087982E+02 -0.49686846812E+02  0.17131616092E+02  0.75682313563E+02  0.41800000000E+01 0.  1.
         -5    1    1    2    0  502  0.17288462372E+01  0.52868206755E+02  0.61299580992E+02  0.81074948194E+02  0.41800000000E+01 0.  1.
        -11    1    1    2    0    0  0.22197595448E+02 -0.77628651801E+01  0.39725863806E+02  0.46164267292E+02  0.00000000000E+00 0.  1.
         11    1    1    2    0    0  0.30369646297E+02  0.45815052375E+01 -0.52732637871E+02  0.61024885934E+02  0.00000000000E+00 0. -1.
</event>
<event>
 6    1  0.5317355E-006  0.1076207E+03  0.7561462E-02  0.1265041E+00
         -1   -1    0    0    0  501 -0.00000000000E+00  0.00000000000E+00  0.24034959716E+03  0.24034959716E+03  0.00000000000E+00 0.  1.
          1   -1    0    0  501    0  0.00000000000E+00 -0.00000000000E+00 -0.92152255737E+02  0.92152255737E+02  0.00000000000E+00 0. -1.
          5    1    1    2  502    0  0.74642090203E+02 -0.19012897245E+02  0.12810219532E+02  0.78195306867E+02  0.41800000000E+01 0.  1.
         -5    1    1    2    0  502  0.13687556237E+02  0.32814149003E+02  0.12031921048E+03  0.12553207710E+03  0.41800000000E+01 0.  1.
        -11    1    1    2    0    0 -0.66794393447E+02 -0.32040836800E+02 -0.26373463887E+02  0.78636288164E+02  0.00000000000E+00 0. -1.
         11    1    1    2    0    0 -0.21535252994E+02  0.18239585043E+02  0.41441375296E+02  0.50138180766E+02  0.00000000000E+00 0.  1.
</event>
<event>
 6    1  0.5317355E-006  0.7417530E+02  0.7561462E-02  0.1346444E+00
          1   -1    0    0  501    0  0.00000000000E+00  0.00000000000E+00  0.11143421882E+03  0.11143421882E+03  0.00000000000E+00 0. -1.
         -1   -1    0    0    0  501 -0.00000000000E+00 -0.00000000000E+00 -0.68546280437E+02  0.68546280437E+02  0.00000000000E+00 0.  1.
          5    1    1    2  502    0  0.55670919868E+02 -0.27466823102E+02  0.34846680248E+02  0.71312279549E+02  0.41800000000E+01 0. -1.
         -5    1    1    2    0  502 -0.33531061244E+02  0.36739134629E+02 -0.23909586373E+02  0.55346515717E+02  0.41800000000E+01 0.  1.
        -11    1    1    2    0    0  0.23557420663E+00 -0.13451906603E+02  0.26794444829E+02  0.29982520911E+02  0.00000000000E+00 0. -1.
         11    1    1    2    0    0 -0.22375432830E+02  0.41795950756E+01  0.51563996828E+01  0.23339183084E+02  0.00000000000E+00 0.  1.
</event>
<event>
 6    1  0.5317355E-006  0.1041837E+03  0.7561462E-02  0.1271736E+00
         -2   -1    0    0    0  501 -0.00000000000E+00  0.00000000000E+00  0.87821508611E+02  0.87821508611E+02  0.00000000000E+00 0.  1.
          2   -1    0    0  501    0  0.00000000000E+00 -0.00000000000E+00 -0.13884608549E+03  0.13884608549E+03  0.00000000000E+00 0. -1.
          5    1    1    2  502    0 -0.85178885496E+01  0.41969411136E+02  0.80596361320E+01  0.43776889234E+02  0.41800000000E+01 0. -1.
         -5    1    1    2    0  502  0.27847042728E+02 -0.79694154476E+02 -0.32438667488E+02  0.90533726283E+02  0.41800000000E+01 0. -1.
        -11    1    1    2    0    0 -0.28193006332E+02 -0.11757407877E+02 -0.28880321193E+02  0.42037545102E+02  0.00000000000E+00 0. -1.
         11    1    1    2    0    0  0.88638521538E+01  0.49482151217E+02  0.22347756653E+01  0.50319433485E+02  0.00000000000E+00 0.  1.
</event>
<event>
 6    1  0.5317355E-006  0.1025269E+03  0.7561462E-02  0.1275070E+00
         -3   -1    0    0    0  501 -0.00000000000E+00  0.00000000000E+00  0.52607821047E+03  0.52607821047E+03  0.00000000000E+00 0.  1.
          3   -1    0    0  501    0  0.00000000000E+00 -0.00000000000E+00 -0.29485803923E+02  0.29485803923E+02  0.00000000000E+00 0. -1.
          5    1    1    2  502    0 -0.49363369059E+01  0.60124290560E+02  0.57765389355E+02  0.83627808441E+02  0.41800000000E+01 0. -1.
         -5    1    1    2    0  502  0.45826935264E+02 -0.15734694944E+02  0.24079295536E+03  0.24565505973E+03  0.41800000000E+01 0. -1.
        -11    1    1    2    0    0  0.19334301207E+02 -0.27103844141E+02  0.12822803820E+03  0.13247967146E+03  0.00000000000E+00 0.  1.
         11    1    1    2    0    0 -0.60224899565E+02 -0.17285751474E+02  0.69806023640E+02  0.93801474765E+02  0.00000000000E+00 0. -1.
</event>
<event>
 6    1  0.5317355E-006  0.9487636E+02  0.7561462E-02  0.1291455E+00
          1   -1    0    0  501    0  0.00000000000E+00  0.00000000000E+00  0.34433508470E+03  0.34433508470E+03  0.00000000000E+00 0. -1.
         -1   -1    0    0    0  501 -0.00000000000E+00 -0.00000000000E+00 -0.63744273179E+02  0.63744273179E+02  0.00000000000E+00 0.  1.
          5    1    1    2  502    0  0.46267461753E+02 -0.38518438902E+02  0.11054970510E+03  0.12594863179E+03  0.41800000000E+01 0.  1.
         -5    1    1    2    0  502  0.55690664524E+01 -0.29171909705E+02 -0.32620593280E+02  0.44312417255E+02  0.41800000000E+01 0.  1.
        -11    1    1    2    0    0 -0.19381430893E+01  0.44235188632E+02  0.23016878348E+02  0.49902755443E+02  0.00000000000E+00 0.  1.
         11    1    1    2    0    0 -0.49898385116E+02  0.23455159976E+02  0.17964482135E+03  0.18791555339E+03  0.00000000000E+00 0. -1.
</event>
<event>
 6    1  0.5317355E-006  0.9494993E+02  0.7561462E-02  0.1291289E+00
          1   -1    0    0  501    0  0.00000000000E+00  0.00000000000E+00  0.24991511298E+03  0.24991511298E+03  0.00000000000E+00 0. -1.
         -1   -1    0    0    0  501 -0.00000000000E+00 -0.00000000000E+00 -0.66191951639E+02  0.66191951639E+02  0.00000000000E+00 0.  1.
          5    1    1    2  502    0  0.25311818316E+02 -0.29719706933E+02 -0.29745462647E+02  0.49256614527E+02  0.41800000000E+01 0. -1.
         -5    1    1    2    0  502 -0.57678931385E+02  0.10116130703E+02  0.61935734532E+02  0.85338753437E+02  0.41800000000E+01 0. -1.
        -11    1    1    2    0    0 -0.78901150169E+00 -0.31229866869E+02  0.21237986627E+02  0.37775378221E+02  0.00000000000E+00 0.  1.
         11    1    1    2    0    0  0.33156124571E+02  0.50833443099E+02  0.13029490283E+03  0.14373631844E+03  0.00000000000E+00 0. -1.
</event>
<event>
 6    1  0.5317355E-006  0.2087972E+03  0.7561462E-02  0.1142522E+00
         -4   -1    0    0    0  501 -0.00000000000E+00  0.00000000000E+00  0.45327133218E+02  0.45327133218E+02  0.00000000000E+00 0.  1.
          4   -1    0    0  501    0  0.00000000000E+00 -0.00000000000E+00 -0.12019386935E+04  0.12019386935E+04  0.00000000000E+00 0. -1.
          5    1    1    2  502    0 -0.44023183692E+02 -0.80645995501E+02 -0.12194277470E+03  0.15273941860E+03  0.41800000000E+01 0. -1.
         -5    1    1    2    0  502 -0.64298531788E+02 -0.93817630813E+02 -0.53126028833E+03  0.54331484003E+03  0.41800000000E+01 0. -1.
        -11    1    1    2    0    0  0.47328914064E+02  0.12372483973E+03 -0.39675349658E+03  0.41828363478E+03  0.00000000000E+00 0.  1.
         11    1    1    2    0    0  0.60992801416E+02  0.50738786582E+02 -0.10665500071E+03  0.13292793335E+03  0.00000000000E+00 0. -1.
</event>
<event>
 6    1  0.5317355E-006  0.2477953E+03  0.7561462E-02  0.1114706E+00
          1   -1    0    0  501    0  0.00000000000E+00  0.00000000000E+00  0.14095885225E+03  0.14095885225E+03  0.00000000000E+00 0. -1.
         -1   -1    0    0    0  501 -0.00000000000E+00 -0.00000000000E+00 -0.50366087353E+03  0.50366087353E+03  0.00000000000E+00 0.  1.
          5    1    1    2  502    0 -0.12155466247E+03 -0.87993365320E+02 -0.16567477111E+03  0.22357095181E+03  0.41800000000E+01 0. -1.
         -5    1    1    2    0  502 -0.10530348415E+03  0.29747725473E+02 -0.10980235522E+03  0.15507346826E+03  0.41800000000E+01 0.  1.
        -11    1    1    2    0    0  0.15373120309E+03  0.53160101862E+02 -0.10088742114E+03  0.19140938059E+03  0.00000000000E+00 0.  1.
         11    1    1    2    0    0  0.73126943545E+02  0.50855379843E+01  0.13662526186E+02  0.74565925130E+02  0.00000000000E+00 0. -1.
</event>
<event>
 6    1  0.5317355E-006  0.1272543E+03  0.7561462E-02  0.1231588E+00
          1   -1    0    0  501    0  0.00000000000E+00  0.00000000000E+00  0.56493689992E+02  0.56493689992E+02  0.00000000000E+00 0.  1.
         -1   -1    0    0    0  501 -0.00000000000E+00 -0.00000000000E+00 -0.34363782622E+03  0.34363782622E+03  0.00000000000E+00 0. -1.
          5    1    1    2  502    0 -0.88207545220E+02 -0.17105750695E+02 -0.10790344643E+03  0.14047705824E+03  0.41800000000E+01 0.  1.
         -5    1    1    2    0  502  0.11111273685E+02  0.52921413789E+02 -0.20703859675E+02  0.58053928771E+02  0.41800000000E+01 0.  1.
        -11    1    1    2    0    0  0.89763699633E+02 -0.23802246164E+02 -0.84576089870E+02  0.12560725963E+03  0.00000000000E+00 0.  1.
         11    1    1    2    0    0 -0.12667428097E+02 -0.12013416930E+02 -0.73960740260E+02  0.75993269575E+02  0.00000000000E+00 0. -1.
</event>
<event>
 6    1  0.5317355E-006  0.1247894E+03  0.7561462E-02  0.1235399E+00
         -2   -1    0    0    0  501 -0.00000000000E+00  0.00000000000E+00  0.81431791116E+02  0.81431791116E+02  0.00000000000E+00 0.  1.
          2   -1    0    0  501    0  0.00000000000E+00 -0.00000000000E+00 -0.28529334104E+03  0.28529334104E+03  0.00000000000E+00 0. -1.
          5    1    1    2  502    0 -0.21075813554E+02  0.81244477713E+02 -0.51753060214E+01  0.84196860204E+02  0.41800000000E+01 0. -1.
         -5    1    1    2    0  502  0.61979031278E+02 -0.12048030853E+02 -0.21773121093E+02  0.66918581633E+02  0.41800000000E+01 0. -1.
        -11    1    1    2    0    0 -0.42769617085E+02 -0.11165855292E+02 -0.20417418787E+02  0.48690732793E+02  0.00000000000E+00 0.  1.
         11    1    1    2    0    0  0.18663993606E+01 -0.58030591569E+02 -0.15649570402E+03  0.16691895752E+03  0.00000000000E+00 0. -1.
</event>
<event>
 6    1  0.5317355E-006  0.1176646E+03  0.7561462E-02  0.1247000E+00
         -2   -1    0    0    0  501 -0.00000000000E+00  0.00000000000E+00  0.13775632994E+03  0.13775632994E+03  0.00000000000E+00 0.  1.
          2   -1    0    0  501    0  0.00000000000E+00 -0.00000000000E+00 -0.18506905632E+03  0.18506905632E+03  0.00000000000E+00 0. -1.
          5    1    1    2  502    0  0.29508209226E+02  0.12432675751E+02 -0.27194227828E+02  0.42217345549E+02  0.41800000000E+01 0. -1.
         -5    1    1    2    0  502 -0.48301515527E+02  0.69335672907E+02  0.82690480505E+02  0.11830325399E+03  0.41800000000E+01 0. -1.
        -11    1    1    2    0    0  0.40831342105E+02 -0.82162349324E+01 -0.11915526967E+02  0.43320720187E+02  0.00000000000E+00 0.  1.
         11    1    1    2    0    0 -0.22038035804E+02 -0.73552113726E+02 -0.90893452094E+02  0.11898406653E+03  0.00000000000E+00 0. -1.
</event>
<event>
 6    1  0.5317355E-006  0.2016670E+03  0.7561462E-02  0.1148340E+00
         -2   -1    0    0    0  501 -0.00000000000E+00  0.00000000000E+00  0.43770962687E+02  0.43770962687E+02  0.00000000000E+00 0.  1.
          2   -1    0    0  501    0  0.00000000000E+00 -0.00000000000E+00 -0.10279739200E+04  0.10279739200E+04  0.00000000000E+00 0. -1.
          5    1    1    2  502    0 -0.16546872775E+03  0.65073003023E+02 -0.28742886386E+03  0.33800476293E+03  0.41800000000E+01 0. -1.
         -5    1    1    2    0  502 -0.67078568785E+01 -0.30898228327E+02 -0.10487012074E+03  0.10961254710E+03  0.41800000000E+01 0. -1.
        -11    1    1    2    0    0  0.10046769086E+03 -0.60408698114E+02 -0.41947723905E+03  0.43555036654E+03  0.00000000000E+00 0.  1.
         11    1    1    2    0    0  0.71708893768E+02  0.26233923417E+02 -0.17242673362E+03  0.18857720607E+03  0.00000000000E+00 0. -1.
</event>
<event>
 6    1  0.5317355E-006  0.2252928E+03  0.7561462E-02  0.1129997E+00
         -2   -1    0    0    0  501 -0.00000000000E+00  0.00000000000E+00  0.45719131730E+02  0.45719131730E+02  0.00000000000E+00 0.  1.
          2   -1    0    0  501    0  0.00000000000E+00 -0.00000000000E+00 -0.13931100164E+04  0.13931100164E+04  0.00000000000E+00 0. -1.
          5    1    1    2  502    0  0.18285544575E+03 -0.44209109946E+02 -0.81565477643E+03  0.83707869770E+03  0.41800000000E+01 0. -1.
         -5    1    1    2    0  502 -0.13696173029E+03  0.74273160914E+02 -0.20157361841E+03  0.25480269628E+03  0.41800000000E+01 0.  1.
        -11    1    1    2    0    0 -0.13800995222E+00 -0.54624115073E+02 -0.17477672433E+03  0.18311394366E+03  0.00000000000E+00 0. -1.
         11    1    1    2    0    0 -0.45755705504E+02  0.24560064105E+02 -0.15538576550E+03  0.16383381048E+03  0.00000000000E+00 0.  1.
</event>
<event>
 6    1  0.5317355E-006  0.1889245E+03  0.7561462E-02  0.1159435E+00
         -1   -1    0    0    0  501 -0.00000000000E+00  0.00000000000E+00  0.13144285410E+03  0.13144285410E+03  0.00000000000E+00 0.  1.
          1   -1    0    0  501    0  0.00000000000E+00 -0.00000000000E+00 -0.50427712001E+03  0.50427712001E+03  0.00000000000E+00 0. -1.
          5    1    1    2  502    0 -0.28506762329E+02 -0.67628501758E+01  0.44393443579E+02  0.53353742828E+02  0.41800000000E+01 0.  1.
         -5    1    1    2    0  502 -0.14116151641E+03  0.70672695574E+02 -0.54801943175E+02  0.16715839492E+03  0.41800000000E+01 0.  1.
        -11    1    1    2    0    0  0.15561366015E+03 -0.36964136560E+02 -0.23539486852E+03  0.28459216916E+03  0.00000000000E+00 0.  1.
         11    1    1    2    0    0  0.14054618592E+02 -0.26945708839E+02 -0.12703089778E+03  0.13061566721E+03  0.00000000000E+00 0. -1.
</event>
<event>
 6    1  0.5317355E-006  0.3865281E+03  0.7561462E-02  0.1048547E+00
         -2   -1    0    0    0  501 -0.00000000000E+00  0.00000000000E+00  0.65037746194E+02  0.65037746194E+02  0.00000000000E+00 0.  1.
          2   -1    0    0  501    0  0.00000000000E+00 -0.00000000000E+00 -0.24643492645E+04  0.24643492645E+04  0.00000000000E+00 0. -1.
          5    1    1    2  502    0 -0.29347323778E+03  0.23086574444E+03 -0.10136022731E+04  0.10802002470E+04  0.41800000000E+01 0. -1.
         -5    1    1    2    0  502 -0.12368562823E+01  0.89016415086E+01 -0.48753620705E+00  0.99236649764E+01  0.41800000000E+01 0. -1.
        -11    1    1    2    0    0  0.54722802111E+02 -0.66020234375E+01 -0.23372174759E+03  0.24013335271E+03  0.00000000000E+00 0.  1.
         11    1    1    2    0    0  0.23998729195E+03 -0.23316536251E+03 -0.11514999614E+04  0.11991297460E+04  0.00000000000E+00 0. -1.
</event>
<event>
 6    1  0.5317355E-006  0.1217437E+03  0.7561462E-02  0.1240248E+00
         -3   -1    0    0    0  501 -0.00000000000E+00  0.00000000000E+00  0.48544005850E+03  0.48544005850E+03  0.00000000000E+00 0.  1.
          3   -1    0    0  501    0  0.00000000000E+00 -0.00000000000E+00 -0.39571556440E+02  0.39571556440E+02  0.00000000000E+00 0. -1.
          5    1    1    2  502    0  0.46700026766E+02 -0.89579779027E+02  0.20468348355E+03  0.22829417458E+03  0.41800000000E+01 0.  1.
         -5    1    1    2    0  502 -0.42449831283E+02  0.13106802526E+02  0.11829952569E+03  0.12643585974E+03  0.41800000000E+01 0.  1.
        -11    1    1    2    0    0 -0.32493101778E+02  0.44404497299E+02  0.19438360543E+02  0.58355898623E+02  0.00000000000E+00 0. -1.
         11    1    1    2    0    0  0.28242906295E+02  0.32068479203E+02  0.10344713227E+03  0.11192568199E+03  0.00000000000E+00 0.  1.
</event>
<event>
 6    1  0.5317355E-006  0.9694389E+02  0.7561462E-02  0.1286857E+00
         -1   -1    0    0    0  501 -0.00000000000E+00  0.00000000000E+00  0.39623667858E+03  0.39623667858E+03  0.00000000000E+00 0.  1.
          1   -1    0    0  501    0  0.00000000000E+00 -0.00000000000E+00 -0.32971378825E+02  0.32971378825E+02  0.00000000000E+00 0. -1.
          5    1    1    2  502    0 -0.88538253938E+01  0.42888215656E+02  0.29883149988E+02  0.53181428333E+02  0.41800000000E+01 0.  1.
         -5    1    1    2    0  502  0.34926507454E+02 -0.44336298848E+02  0.22410772110E+03  0.23114348655E+03  0.41800000000E+01 0.  1.
        -11    1    1    2    0    0 -0.53522935181E+02  0.23143273056E+02  0.81490681611E+02  0.10020502416E+03  0.00000000000E+00 0.  1.
         11    1    1    2    0    0  0.27450253120E+02 -0.21695189864E+02  0.27783747056E+02  0.44678118359E+02  0.00000000000E+00 0. -1.
</event>
<event>
 6    1  0.5317355E-006  0.2105214E+03  0.7561462E-02  0.1141154E+00
          2   -1    0    0  501    0  0.00000000000E+00  0.00000000000E+00  0.59373305892E+03  0.59373305892E+03  0.00000000000E+00 0. -1.
         -2   -1    0    0    0  501 -0.00000000000E+00 -0.00000000000E+00 -0.83219322527E+02  0.83219322527E+02  0.00000000000E+00 0.  1.
          5    1    1    2  502    0 -0.73572594741E+02  0.18218872255E+03  0.15736005363E+03  0.25176440615E+03  0.41800000000E+01 0. -1.
         -5    1    1    2    0  502 -0.11167151759E+02 -0.20334093788E+02  0.92665877208E+01  0.25328298335E+02  0.41800000000E+01 0. -1.
        -11    1    1    2    0    0  0.37707819431E+02 -0.14679205584E+03  0.28674706868E+03  0.32433573454E+03  0.00000000000E+00 0. -1.
         11    1    1    2    0    0  0.47031927069E+02 -0.15062572922E+02  0.57140026355E+02  0.75523942420E+02  0.00000000000E+00 0.  1.
</event>
<event>
 6    1  0.5317355E-006  0.1086824E+03  0.7561462E-02  0.1263030E+00
         -2   -1    0    0    0  501 -0.00000000000E+00  0.00000000000E+00  0.28165464611E+02  0.28165464611E+02  0.00000000000E+00 0.  1.
          2   -1    0    0  501    0  0.00000000000E+00 -0.00000000000E+00 -0.55344857280E+03  0.55344857280E+03  0.00000000000E+00 0. -1.
          5    1    1    2  502    0 -0.27354412376E+02  0.18947475981E+02 -0.12865776865E+02  0.35920347115E+02  0.41800000000E+01 0.  1.
         -5    1    1    2    0  502  0.57482040699E+02 -0.62323551681E+02 -0.19109569296E+03  0.20910152167E+03  0.41800000000E+01 0.  1.
        -11    1    1    2    0    0  0.20680801515E+02  0.43462089969E+02 -0.12948892686E+03  0.13814496370E+03  0.00000000000E+00 0. -1.
         11    1    1    2    0    0 -0.50808429838E+02 -0.86014268838E-01 -0.19183271150E+03  0.19844720493E+03  0.00000000000E+00 0.  1.
</event>
<event>
 6    1  0.5317355E-006  0.1222969E+03  0.7561462E-02  0.1239355E+00
          2   -1    0    0  501    0  0.00000000000E+00  0.00000000000E+00  0.54664164985E+03  0.54664164985E+03  0.00000000000E+00 0. -1.
         -2   -1    0    0    0  501 -0.00000000000E+00 -0.00000000000E+00 -0.30468427195E+02  0.30468427195E+02  0.00000000000E+00 0.  1.
          5    1    1    2  502    0  0.56527373778E+02 -0.79819661996E+02  0.18575488886E+03  0.20997350681E+03  0.41800000000E+01 0. -1.
         -5    1    1    2    0  502 -0.35844466400E+02  0.18622650765E+02  0.47677435365E+02  0.62627782461E+02  0.41800000000E+01 0. -1.
        -11    1    1    2    0    0  0.32797364992E+02  0.18515901859E+02  0.54614654634E+02  0.66342040011E+02  0.00000000000E+00 0.  1.
         11    1    1    2    0    0 -0.53480272370E+02  0.42681109372E+02  0.22812624380E+03  0.23816674776E+03  0.00000000000E+00 0. -1.
</event>
<event>
 6    1  0.5317355E-006  0.1126184E+03  0.7561462E-02  0.1255796E+00
         -1   -1    0    0    0  501 -0.00000000000E+00  0.00000000000E+00  0.25943758232E+03  0.25943758232E+03  0.00000000000E+00 0.  1.
          1   -1    0    0  501    0  0.00000000000E+00 -0.00000000000E+00 -0.65452673621E+02  0.65452673621E+02  0.00000000000E+00 0. -1.
          5    1    1    2  502    0  0.54715032042E+02 -0.20197076063E+02  0.90893311495E+02  0.10807739397E+03  0.41800000000E+01 0. -1.
         -5    1    1    2    0  502 -0.67921315112E+02 -0.34904748252E+02  0.72768776877E+02  0.10556710560E+03  0.41800000000E+01 0. -1.
        -11    1    1    2    0    0  0.37049257264E+02  0.55152022825E+02 -0.71564482073E+01  0.66825203602E+02  0.00000000000E+00 0. -1.
         11    1    1    2    0    0 -0.23842974195E+02 -0.50198510538E-01  0.37479268537E+02  0.44420552770E+02  0.00000000000E+00 0.  1.
</event>
<event>
 6    1  0.5317355E-006  0.8478516E+02  0.7561462E-02  0.1315995E+00
          1   -1    0    0  501    0  0.00000000000E+00  0.00000000000E+00  0.15349163628E+03  0.15349163628E+03  0.00000000000E+00 0. -1.
         -1   -1    0    0    0  501 -0.00000000000E+00 -0.00000000000E+00 -0.10012407041E+03  0.10012407041E+03  0.00000000000E+00 0.  1.
          5    1    1    2  502    0 -0.54895114893E+01 -0.66303152352E+01  0.62130471202E+02  0.62863054875E+02  0.41800000000E+01 0. -1.
         -5    1    1    2    0  502  0.13154451434E+02  0.65330295399E+02 -0.39175606400E+02  0.77416326613E+02  0.41800000000E+01 0. -1.
        -11    1    1    2    0    0 -0.10640423896E+02 -0.75460075905E+02 -0.25377038181E+01  0.76248813872E+02  0.00000000000E+00 0.  1.
         11    1    1    2    0    0  0.29754839513E+01  0.16760095741E+02  0.32950404892E+02  0.37087511328E+02  0.00000000000E+00 0. -1.
</event>
<event>
 6    1  0.5317355E-006  0.9115375E+02  0.7561462E-02  0.1300082E+00
          2   -1    0    0  501    0  0.00000000000E+00  0.00000000000E+00  0.48067651636E+02  0.48067651636E+02  0.00000000000E+00 0. -1.
         -2   -1    0    0    0  501 -0.00000000000E+00 -0.00000000000E+00 -0.58820808742E+03  0.58820808742E+03  0.00000000000E+00 0.  1.
          5    1    1    2  502    0 -0.44100753364E+02  0.21401201148E+02 -0.83283478520E+02  0.96728992821E+02  0.41800000000E+01 0. -1.
         -5    1    1    2    0  502  0.56917418790E+02  0.39951805580E+02 -0.41581476329E+03  0.42161016248E+03  0.41800000000E+01 0. -1.
        -11    1    1    2    0    0 -0.27056686708E+01 -0.36698131913E+02  0.26487483745E+02  0.45339390424E+02  0.00000000000E+00 0. -1.
         11    1    1    2    0    0 -0.10110996755E+02 -0.24654874815E+02 -0.67529677715E+02  0.72597193333E+02  0.00000000000E+00 0.  1.
</event>
<event>
 6    1  0.5317355E-006  0.2686667E+03  0.7561462E-02  0.1102045E+00
          2   -1    0    0  501    0  0.00000000000E+00  0.00000000000E+00  0.22934132074E+03  0.22934132074E+03  0.00000000000E+00 0. -1.
         -2   -1    0    0    0  501 -0.00000000000E+00 -0.00000000000E+00 -0.33812920639E+03  0.33812920639E+03  0.00000000000E+00 0.  1.
          5    1    1    2  502    0 -0.35344297823E+02 -0.28420456105E+02  0.22879854438E+02  0.50969616959E+02  0.41800000000E+01 0. -1.
         -5    1    1    2    0  502 -0.10645195333E+02  0.25220002577E+03 -0.51185955858E+02  0.25759589993E+03  0.41800000000E+01 0.  1.
        -11    1    1    2    0    0  0.65247527992E+02 -0.18142826121E+03 -0.39291845211E+02  0.19676712880E+03  0.00000000000E+00 0. -1.
         11    1    1    2    0    0 -0.19258034836E+02 -0.42351308456E+02 -0.41189939017E+02  0.62137881440E+02  0.00000000000E+00 0.  1.
</event>
<event>
 6    1  0.5317355E-006  0.1013586E+03  0.7561462E-02  0.1277465E+00
          2   -1    0    0  501    0  0.00000000000E+00  0.00000000000E+00  0.26123847541E+03  0.26123847541E+03  0.00000000000E+00 0. -1.
         -2   -1    0    0    0  501 -0.00000000000E+00 -0.00000000000E+00 -0.68596073534E+02  0.68596073534E+02  0.00000000000E+00 0.  1.
          5    1    1    2  502    0  0.26013861742E+02  0.29057639508E+02  0.48885337242E+02  0.62676279514E+02  0.41800000000E+01 0.  1.
         -5    1    1    2    0  502 -0.63524919309E+02 -0.15973224980E+02 -0.25914741657E+02  0.70566320045E+02  0.41800000000E+01 0.  1.
        -11    1    1    2    0    0  0.77434770789E+01 -0.49908943933E+02  0.10415983525E+03  0.11575895387E+03  0.00000000000E+00 0. -1.
         11    1    1    2    0    0  0.29767580488E+02  0.36824529405E+02  0.65511971038E+02  0.80832995512E+02  0.00000000000E+00 0.  1.
</event>
<event>
 6    1  0.5317355E-006  0.1346637E+03  0.7561462E-02  0.1220695E+00
         -2   -1    0    0    0  501 -0.00000000000E+00  0.00000000000E+00  0.20450809313E+03  0.20450809313E+03  0.00000000000E+00 0.  1.
          2   -1    0    0  501    0  0.00000000000E+00 -0.00000000000E+00 -0.11580440763E+03  0.11580440763E+03  0.00000000000E+00 0. -1.
          5    1    1    2  502    0  0.99499780930E+02  0.28587071660E+02  0.99997879059E+02  0.14399470576E+03  0.41800000000E+01 0. -1.
         -5    1    1    2    0  502 -0.14076090207E+02  0.30252473721E+02 -0.17870189610E+02  0.38081026227E+02  0.41800000000E+01 0. -1.
        -11    1    1    2    0    0 -0.99684105409E+02 -0.62122489319E+02  0.19070375838E+02  0.11899497378E+03  0.00000000000E+00 0.  1.
         11    1    1    2    0    0  0.14260414687E+02  0.32829439379E+01 -0.12494379790E+02  0.19241794986E+02  0.00000000000E+00 0. -1.
</event>
<event>
 6    1  0.5317355E-006  0.2035691E+03  0.7561462E-02  0.1146762E+00
          2   -1    0    0  501    0  0.00000000000E+00  0.00000000000E+00  0.84828282561E+02  0.84828282561E+02  0.00000000000E+00 0. -1.
         -2   -1    0    0    0  501 -0.00000000000E+00 -0.00000000000E+00 -0.52136797998E+03  0.52136797998E+03  0.00000000000E+00 0.  1.
          5    1    1    2  502    0  0.52313163094E+02  0.17713622779E+02 -0.11603965652E+03  0.12858115628E+03  0.41800000000E+01 0. -1.
         -5    1    1    2    0  502  0.89397255652E+02 -0.12531764563E+03 -0.14897970161E+03  0.21426340219E+03  0.41800000000E+01 0. -1.
        -11    1    1    2    0    0 -0.11603342577E+03  0.12195986622E+03 -0.15838091869E+03  0.23113303587E+03  0.00000000000E+00 0.  1.
         11    1    1    2    0    0 -0.25676992975E+02 -0.14355843369E+02 -0.13139420588E+02  0.32218668199E+02  0.00000000000E+00 0. -1.
</event>
<event>
 6    1  0.5317355E-006  0.1520721E+03  0.7561462E-02  0.1197950E+00
         -1   -1    0    0    0  501 -0.00000000000E+00  0.00000000000E+00  0.92403093154E+02  0.92403093154E+02  0.00000000000E+00 0.  1.
          1   -1    0    0  501    0  0.00000000000E+00 -0.00000000000E+00 -0.31202118467E+03  0.31202118467E+03  0.00000000000E+00 0. -1.
          5    1    1    2  502    0 -0.14472200674E+02 -0.24692046088E+02 -0.14789714953E+02  0.32486147828E+02  0.41800000000E+01 0.  1.
         -5    1    1    2    0  502 -0.10161146313E+02  0.14761709909E+03 -0.57607586741E+02  0.15884005568E+03  0.41800000000E+01 0.  1.
        -11    1    1    2    0    0  0.13175549716E+02 -0.10562915527E+03 -0.15737886658E+03  0.18999795051E+03  0.00000000000E+00 0. -1.
         11    1    1    2    0    0  0.11457797271E+02 -0.17295897736E+02  0.10158076752E+02  0.23100123811E+02  0.00000000000E+00 0.  1.
</event>
<event>
 6    1  0.5317355E-006  0.1023808E+03  0.7561462E-02  0.1275368E+00
         -1   -1    0    0    0  501 -0.00000000000E+00  0.00000000000E+00  0.69956478677E+02  0.69956478677E+02  0.00000000000E+00 0.  1.
          1   -1    0    0  501    0  0.00000000000E+00 -0.00000000000E+00 -0.22700506982E+03  0.22700506982E+03  0.00000000000E+00 0. -1.
          5    1    1    2  502    0 -0.12968894328E+02  0.71065970926E+02 -0.92843120873E+02  0.11771101026E+03  0.41800000000E+01 0.  1.
         -5    1    1    2    0  502 -0.19927058613E+02 -0.21880164701E+02  0.22600074412E+02  0.37470855818E+02  0.41800000000E+01 0.  1.
        -11    1    1    2    0    0 -0.26685970761E+02 -0.29462177910E+02 -0.63328543477E+02  0.74770752180E+02  0.00000000000E+00 0. -1.
         11    1    1    2    0    0  0.59581923702E+02 -0.19723628315E+02 -0.23477001206E+02  0.67008930238E+02  0.00000000000E+00 0.  1.
</event>
<event>
 6    1  0.5317355E-006  0.1214096E+03  0.7561462E-02  0.1240790E+00
          1   -1    0    0  501    0  0.00000000000E+00  0.00000000000E+00  0.29745612800E+03  0.29745612800E+03  0.00000000000E+00 0. -1.
         -1   -1    0    0    0  501 -0.00000000000E+00 -0.00000000000E+00 -0.52430439565E+02  0.52430439565E+02  0.00000000000E+00 0.  1.
          5    1    1    2  502    0 -0.23523738629E+01 -0.38787707153E+02  0.42507051821E+02  0.57743759346E+02  0.41800000000E+01 0. -1.
         -5    1    1    2    0  502  0.39910614242E+02  0.93008258133E+02  0.73147715357E+02  0.12494580374E+03  0.41800000000E+01 0. -1.
        -11    1    1    2    0    0 -0.11995153395E+02 -0.70906058056E+02  0.10868183373E+03  0.13031996684E+03  0.00000000000E+00 0. -1.
         11    1    1    2    0    0 -0.25563086983E+02  0.16685507076E+02  0.20689087531E+02  0.36877037644E+02  0.00000000000E+00 0.  1.
</event>
<event>
 6    1  0.5317355E-006  0.1217439E+03  0.7561462E-02  0.1240248E+00
         -1   -1    0    0    0  501 -0.00000000000E+00  0.00000000000E+00  0.34999164100E+03  0.34999164100E+03  0.00000000000E+00 0.  1.
          1   -1    0    0  501    0  0.00000000000E+00 -0.00000000000E+00 -0.68978109810E+02  0.68978109810E+02  0.00000000000E+00 0. -1.
          5    1    1    2  502    0  0.74639226084E+02  0.82364862973E+02  0.22139489936E+03  0.24776633869E+03  0.41800000000E+01 0.  1.
         -5    1    1    2    0  502 -0.25869539047E+02  0.60336388715E+00  0.27283505274E+01  0.26353622048E+02  0.41800000000E+01 0.  1.
        -11    1    1    2    0    0 -0.95030779562E+01 -0.59594439095E+02  0.74501858184E+02  0.95876652708E+02  0.00000000000E+00 0.  1.
         11    1    1    2    0    0 -0.39266609081E+02 -0.23373787766E+02 -0.17611576882E+02  0.48973137367E+02  0.00000000000E+00 0. -1.
</event>
<event>
 6    1  0.5317355E-006  0.1240595E+03  0.7561462E-02  0.1236546E+00
         -1   -1    0    0    0  501 -0.00000000000E+00  0.00000000000E+00  0.56076316303E+02  0.56076316303E+02  0.00000000000E+00 0.  1.
          1   -1    0    0  501    0  0.00000000000E+00 -0.00000000000E+00 -0.35459724969E+03  0.35459724969E+03  0.00000000000E+00 0. -1.
          5    1    1    2  502    0 -0.38292745725E+02  0.74187869611E+02 -0.11624747449E+03  0.14318212912E+03  0.41800000000E+01 0.  1.
         -5    1    1    2    0  502  0.45756098674E+02  0.95933881836E+01  0.37884811292E+00  0.46938998590E+02  0.41800000000E+01 0.  1.
        -11    1    1    2    0    0  0.32329583376E+02 -0.67020610541E+02 -0.80359401455E+02  0.10951985026E+03  0.00000000000E+00 0.  1.
         11    1    1    2    0    0 -0.39792936325E+02 -0.16760647254E+02 -0.10229290556E+03  0.11103258803E+03  0.00000000000E+00 0. -1.
</event>
<event>
 6    1  0.5317355E-006  0.1419818E+03  0.7561462E-02  0.1210687E+00
          1   -1    0    0  501    0  0.00000000000E+00  0.00000000000E+00  0.80367813856E+03  0.80367813856E+03  0.00000000000E+00 0. -1.
         -1   -1    0    0    0  501 -0.00000000000E+00 -0.00000000000E+00 -0.35409840121E+02  0.35409840121E+02  0.00000000000E+00 0.  1.
          5    1    1    2  502    0 -0.53715127670E+02  0.44693703559E+02  0.15999601089E+03  0.17463973769E+03  0.41800000000E+01 0.  1.
         -5    1    1    2    0  502 -0.47525418314E+02 -0.59954926379E+02  0.54864081986E+02  0.94237988493E+02  0.41800000000E+01 0.  1.
        -11    1    1    2    0    0  0.78091300291E+02 -0.32251061895E+02  0.33215395295E+03  0.34273113461E+03  0.00000000000E+00 0.  1.
         11    1    1    2    0    0  0.23149245693E+02  0.47512284715E+02  0.22125425262E+03  0.22747911789E+03  0.00000000000E+00 0. -1.
</event>
<event>
 6    1  0.5317355E-006  0.1137380E+03  0.7561462E-02  0.1253800E+00
         -2   -1    0    0    0  501 -0.00000000000E+00  0.00000000000E+00  0.17630595368E+03  0.17630595368E+03  0.00000000000E+00 0.  1.
          2   -1    0    0  501    0  0.00000000000E+00 -0.00000000000E+00 -0.14951697572E+03  0.14951697572E+03  0.00000000000E+00 0. -1.
          5    1    1    2  502    0 -0.10691163779E+02 -0.69879988480E+02  0.36101612056E+01  0.70908528661E+02  0.41800000000E+01 0. -1.
         -5    1    1    2    0  502 -0.54777542744E+02  0.13134000039E+02  0.94623785558E+02  0.11020079101E+03  0.41800000000E+01 0. -1.
        -11    1    1    2    0    0  0.13566343506E+02  0.44944502732E+02  0.94393902951E+01  0.47886909391E+02  0.00000000000E+00 0.  1.
         11    1    1    2    0    0  0.51902363018E+02  0.11801485709E+02 -0.80884359102E+02  0.96826700342E+02  0.00000000000E+00 0. -1.
</event>
<event>
 6    1  0.5317355E-006  0.1261422E+03  0.7561462E-02  0.1233295E+00
          2   -1    0    0  501    0  0.00000000000E+00  0.00000000000E+00  0.75939358245E+02  0.75939358245E+02  0.00000000000E+00 0. -1.
         -2   -1    0    0    0  501 -0.00000000000E+00 -0.00000000000E+00 -0.36093777577E+03  0.36093777577E+03  0.00000000000E+00 0.  1.
          5    1    1    2  502    0 -0.96740179391E+02 -0.55958802049E+02 -0.22449013031E+03  0.25080538439E+03  0.41800000000E+01 0.  1.
         -5    1    1    2    0  502 -0.27863935146E+01 -0.34499403052E+01  0.16833407445E+02  0.17902571970E+02  0.41800000000E+01 0.  1.
        -11    1    1    2    0    0  0.91331016931E+02  0.74046981508E+02 -0.35078487817E+02  0.12269804575E+03  0.00000000000E+00 0. -1.
         11    1    1    2    0    0  0.81955559747E+01 -0.14638239154E+02 -0.42263206841E+02  0.45471131895E+02  0.00000000000E+00 0.  1.
</event>
<event>
 6    1  0.5317355E-006  0.2289570E+03  0.7561462E-02  0.1127376E+00
         -2   -1    0    0    0  501 -0.00000000000E+00  0.00000000000E+00  0.82415296851E+02  0.82415296851E+02  0.00000000000E+00 0. -1.
          2   -1    0    0  501    0  0.00000000000E+00 -0.00000000000E+00 -0.65491366257E+03  0.65491366257E+03  0.00000000000E+00 0.  1.
          5    1    1    2  502    0 -0.94778571784E+02 -0.17870120383E+02 -0.10409293203E+03  0.14196876336E+03  0.41800000000E+01 0.  1.
         -5    1    1    2    0  502 -0.36405593672E+02 -0.13669695582E+03 -0.13774124956E+03  0.19748809891E+03  0.41800000000E+01 0.  1.
        -11    1    1    2    0    0  0.12346245669E+03  0.16549290933E+03 -0.31968639294E+03  0.38056572505E+03  0.00000000000E+00 0.  1.
         11    1    1    2    0    0  0.77217087629E+01 -0.10925833133E+02 -0.10977791193E+02  0.17306372102E+02  0.00000000000E+00 0. -1.
</event>
<event>
 6    1  0.5317355E-006  0.1737938E+03  0.7561462E-02  0.1173948E+00
         -1   -1    0    0    0  501 -0.00000000000E+00  0.00000000000E+00  0.11370963468E+03  0.11370963468E+03  0.00000000000E+00 0.  1.
          1   -1    0    0  501    0  0.00000000000E+00 -0.00000000000E+00 -0.32240489738E+03  0.32240489738E+03  0.00000000000E+00 0. -1.
          5    1    1    2  502    0 -0.16589945652E+03 -0.23284953136E+02 -0.45270502445E+02  0.17358487696E+03  0.41800000000E+01 0. -1.
         -5    1    1    2    0  502  0.22288974377E+02 -0.11802503191E+02 -0.13216507629E+01  0.25599152742E+02  0.41800000000E+01 0. -1.
        -11    1    1    2    0    0  0.27513984623E+02  0.26225610989E+02 -0.83128311836E+00  0.38019640361E+02  0.00000000000E+00 0.  1.
         11    1    1    2    0    0  0.11609649752E+03  0.88618453379E+01 -0.16127182637E+03  0.19891086200E+03  0.00000000000E+00 0. -1.
</event>
<event>
 6    1  0.5317355E-006  0.6773525E+02  0.7561462E-02  0.1367968E+00
          2   -1    0    0  501    0  0.00000000000E+00  0.00000000000E+00  0.71750372896E+03  0.71750372896E+03  0.00000000000E+00 0. -1.
         -2   -1    0    0    0  501 -0.00000000000E+00 -0.00000000000E+00 -0.20466903373E+02  0.20466903373E+02  0.00000000000E+00 0.  1.
          5    1    1    2  502    0 -0.81238549070E+01 -0.12173538409E+02  0.23636027693E+03  0.23684983632E+03  0.41800000000E+01 0.  1.
         -5    1    1    2    0  502  0.16956075964E+02  0.21386787949E+02 -0.34592587900E+01  0.27827002754E+02  0.41800000000E+01 0.  1.
        -11    1    1    2    0    0  0.37692509565E+02  0.14541839100E+02  0.20682252820E+03  0.21073146071E+03  0.00000000000E+00 0.  1.
         11    1    1    2    0    0 -0.46524730622E+02 -0.23755088640E+02  0.25731327925E+03  0.26256233255E+03  0.00000000000E+00 0. -1.
</event>
<event>
 6    1  0.5317355E-006  0.1379872E+03  0.7561462E-02  0.1216063E+00
         -1   -1    0    0    0  501 -0.00000000000E+00  0.00000000000E+00  0.42240593151E+03  0.42240593151E+03  0.00000000000E+00 0.  1.
          1   -1    0    0  501    0  0.00000000000E+00 -0.00000000000E+00 -0.67044728878E+02  0.67044728878E+02  0.00000000000E+00 0. -1.
          5    1    1    2  502    0 -0.28317641923E+02 -0.46596440632E+02  0.16832572202E+03  0.17698626562E+03  0.41800000000E+01 0.  1.
         -5    1    1    2    0  502 -0.84740688184E+02  0.52261881013E+02  0.10953533454E+03  0.14808021594E+03  0.41800000000E+01 0.  1.
        -11    1    1    2    0    0  0.37796158729E+02  0.19178263144E+02  0.73722760394E+02  0.85037643382E+02  0.00000000000E+00 0.  1.
         11    1    1    2    0    0  0.75262171378E+02 -0.24843703524E+02  0.37773856830E+01  0.79346535450E+02  0.00000000000E+00 0. -1.
</event>
<event>
 6    1  0.5317355E-006  0.1356071E+03  0.7561462E-02  0.1219365E+00
          2   -1    0    0  501    0  0.00000000000E+00  0.00000000000E+00  0.12747431919E+04  0.12747431919E+04  0.00000000000E+00 0. -1.
         -2   -1    0    0    0  501 -0.00000000000E+00 -0.00000000000E+00 -0.14723083755E+02  0.14723083755E+02  0.00000000000E+00 0.  1.
          5    1    1    2  502    0  0.74554625753E+01 -0.75588003934E+02  0.41648767479E+03  0.42337759260E+03  0.41800000000E+01 0. -1.
         -5    1    1    2    0  502  0.62801986886E+02  0.33089395404E+02  0.26844316955E+03  0.27770164803E+03  0.41800000000E+01 0. -1.
        -11    1    1    2    0    0 -0.74492568120E+02 -0.65725984664E+01  0.36796180347E+03  0.37548399509E+03  0.00000000000E+00 0. -1.
         11    1    1    2    0    0  0.42351186589E+01  0.49071206996E+02  0.20712746029E+03  0.21290303989E+03  0.00000000000E+00 0.  1.
</event>
<event>
 6    1  0.5317355E-006  0.1113259E+03  0.7561462E-02  0.1258134E+00
          3   -1    0    0  501    0  0.00000000000E+00  0.00000000000E+00  0.49776540228E+02  0.49776540228E+02  0.00000000000E+00 0. -1.
         -3   -1    0    0    0  501 -0.00000000000E+00 -0.00000000000E+00 -0.30271600030E+03  0.30271600030E+03  0.00000000000E+00 0.  1.
          5    1    1    2  502    0  0.47763444811E+02  0.11006112680E+02 -0.36111760690E+02  0.61024690386E+02  0.41800000000E+01 0.  1.
         -5    1    1    2    0  502 -0.69972406151E+02  0.25944222206E+02 -0.14660077967E+03  0.16455546569E+03  0.41800000000E+01 0.  1.
        -11    1    1    2    0    0  0.45814889067E+02 -0.53084863563E+02 -0.68872180739E+02  0.98287252884E+02  0.00000000000E+00 0.  1.
         11    1    1    2    0    0 -0.23605927727E+02  0.16134528677E+02 -0.13547389693E+01  0.28625131565E+02  0.00000000000E+00 0. -1.
</event>
<event>
 6    1  0.5317355E-006  0.2122976E+03  0.7561462E-02  0.1139759E+00
         -1   -1    0    0    0  501 -0.00000000000E+00  0.00000000000E+00  0.75392480856E+02  0.75392480856E+02  0.00000000000E+00 0.  1.
          1   -1    0    0  501    0  0.00000000000E+00 -0.00000000000E+00 -0.72513704120E+03  0.72513704120E+03  0.00000000000E+00 0. -1.
          5    1    1    2  502    0  0.37287983570E+02 -0.70022568264E+02 -0.11544976697E+03  0.14014162436E+03  0.41800000000E+01 0. -1.
         -5    1    1    2    0  502  0.14158553438E+03 -0.74117632387E+00 -0.89778743307E+02  0.16770422784E+03  0.41800000000E+01 0. -1.
        -11    1    1    2    0    0 -0.56137123771E+02 -0.93847280393E+01 -0.68227357857E+02  0.88850560751E+02  0.00000000000E+00 0.  1.
         11    1    1    2    0    0 -0.12273639418E+03  0.80148472627E+02 -0.37628869220E+03  0.40383310909E+03  0.00000000000E+00 0. -1.
</event>
<event>
 6    1  0.5317355E-006  0.1177114E+03  0.7561462E-02  0.1246921E+00
         -1   -1    0    0    0  501 -0.00000000000E+00  0.00000000000E+00  0.34410937275E+03  0.34410937275E+03  0.00000000000E+00 0.  1.
          1   -1    0    0  501    0  0.00000000000E+00 -0.00000000000E+00 -0.49898042091E+02  0.49898042091E+02  0.00000000000E+00 0. -1.
          5    1    1    2  502    0  0.35679625192E+02 -0.23340163822E+01  0.99260949651E+02  0.10558736578E+03  0.41800000000E+01 0. -1.
         -5    1    1    2    0  502 -0.80282518500E+02 -0.35548211998E+02  0.10522024401E+03  0.13710481502E+03  0.41800000000E+01 0.  1.
        -11    1    1    2    0    0 -0.18594940553E+02  0.44257056160E+02  0.69855493427E+02  0.84759948065E+02  0.00000000000E+00 0.  1.
         11    1    1    2    0    0  0.63197833862E+02 -0.63748277802E+01  0.19874643572E+02  0.66555285975E+02  0.00000000000E+00 0. -1.
</event>
<event>
 6    1  0.5317355E-006  0.1290609E+03  0.7561462E-02  0.1228856E+00
         -1   -1    0    0    0  501 -0.00000000000E+00  0.00000000000E+00  0.94473561223E+02  0.94473561223E+02  0.00000000000E+00 0.  1.
          1   -1    0    0  501    0  0.00000000000E+00 -0.00000000000E+00 -0.20052334711E+03  0.20052334711E+03  0.00000000000E+00 0. -1.
          5    1    1    2  502    0  0.59056616949E+02  0.83539729151E+02 -0.28070278388E+01  0.10243008424E+03  0.41800000000E+01 0.  1.
         -5    1    1    2    0  502 -0.51396382775E+01 -0.39972365028E+02 -0.45517501678E+01  0.40772499030E+02  0.41800000000E+01 0.  1.
        -11    1    1    2    0    0 -0.79065072424E+02 -0.43123444221E+02 -0.74227756942E+02  0.11670765622E+03  0.00000000000E+00 0.  1.
         11    1    1    2    0    0  0.25148093753E+02 -0.44391990179E+00 -0.24463250942E+02  0.35086668849E+02  0.00000000000E+00 0. -1.
</event>
<event>
 6    1  0.5317355E-006  0.1645013E+03  0.7561462E-02  0.1183707E+00
          1   -1    0    0  501    0  0.00000000000E+00  0.00000000000E+00  0.11032820729E+03  0.11032820729E+03  0.00000000000E+00 0. -1.
         -1   -1    0    0    0  501 -0.00000000000E+00 -0.00000000000E+00 -0.25396592635E+03  0.25396592635E+03  0.00000000000E+00 0.  1.
          5    1    1    2  502    0 -0.32302713970E+02 -0.14418530564E+03 -0.83807401501E+02  0.16992357293E+03  0.41800000000E+01 0.  1.
         -5    1    1    2    0  502 -0.64800112339E+01  0.26473589770E+02 -0.23942941559E+02  0.36518192061E+02  0.41800000000E+01 0.  1.
        -11    1    1    2    0    0 -0.25947444885E+02  0.65483628998E+02 -0.13501467792E+02  0.71719350216E+02  0.00000000000E+00 0.  1.
         11    1    1    2    0    0  0.64730170088E+02  0.52228086870E+02 -0.22385908201E+02  0.86133018429E+02  0.00000000000E+00 0. -1.
</event>
<event>
 6    1  0.5317355E-006  0.1181335E+03  0.7561462E-02  0.1246208E+00
          4   -1    0    0  501    0  0.00000000000E+00  0.00000000000E+00  0.15332743963E+03  0.15332743963E+03  0.00000000000E+00 0.  1.
         -4   -1    0    0    0  501 -0.00000000000E+00 -0.00000000000E+00 -0.95281160312E+02  0.95281160312E+02  0.00000000000E+00 0. -1.
          5    1    1    2  502    0 -0.85666265199E+02  0.45437996902E+01 -0.29134329157E+00  0.85888953828E+02  0.41800000000E+01 0. -1.
         -5    1    1    2    0  502  0.37899950431E+02 -0.25910290136E+02  0.23240012304E+02  0.51626736769E+02  0.41800000000E+01 0. -1.
        -11    1    1    2    0    0 -0.28144462166E-01  0.49046956915E+02  0.84517945330E+01  0.49769846349E+02  0.00000000000E+00 0.  1.
         11    1    1    2    0    0  0.47794459231E+02 -0.27680466470E+02  0.26645815776E+02  0.61323062998E+02  0.00000000000E+00 0. -1.
</event>
<event>
 6    1  0.5317355E-006  0.8634306E+02  0.7561462E-02  0.1311957E+00
          1   -1    0    0  501    0  0.00000000000E+00  0.00000000000E+00  0.12058811898E+03  0.12058811898E+03  0.00000000000E+00 0. -1.
         -1   -1    0    0    0  501 -0.00000000000E+00 -0.00000000000E+00 -0.10871589141E+03  0.10871589141E+03  0.00000000000E+00 0.  1.
          5    1    1    2  502    0 -0.23821528050E+02 -0.33262000395E+02  0.30101598531E+02  0.50964737840E+02  0.41800000000E+01 0. -1.
         -5    1    1    2    0  502  0.65840628557E+02  0.41968699978E+02 -0.22895391566E+02  0.81474115531E+02  0.41800000000E+01 0. -1.
        -11    1    1    2    0    0 -0.14553005332E+02 -0.19091697996E+02  0.42597483961E+02  0.48896099398E+02  0.00000000000E+00 0. -1.
         11    1    1    2    0    0 -0.27466095175E+02  0.10384998413E+02 -0.37931463362E+02  0.47969057620E+02  0.00000000000E+00 0.  1.
</event>
<event>
 6    1  0.5317355E-006  0.9281463E+02  0.7561462E-02  0.1296175E+00
         -2   -1    0    0    0  501 -0.00000000000E+00  0.00000000000E+00  0.29977503664E+02  0.29977503664E+02  0.00000000000E+00 0.  1.
          2   -1    0    0  501    0  0.00000000000E+00 -0.00000000000E+00 -0.46001113787E+03  0.46001113787E+03  0.00000000000E+00 0. -1.
          5    1    1    2  502    0  0.17540360296E+02 -0.38783309966E+02 -0.14277510198E+03  0.14904365641E+03  0.41800000000E+01 0. -1.
         -5    1    1    2    0  502  0.50412332148E+01  0.64810878002E+02 -0.44900322735E+02  0.79116214023E+02  0.41800000000E+01 0. -1.
        -11    1    1    2    0    0 -0.38701335961E+02  0.84905236551E+01 -0.41451748624E+02  0.57342217092E+02  0.00000000000E+00 0.  1.
         11    1    1    2    0    0  0.16119742450E+02 -0.34518091692E+02 -0.20090646087E+03  0.20448655401E+03  0.00000000000E+00 0. -1.
</event>
<event>
 6    1  0.5317355E-006  0.1067044E+03  0.7561462E-02  0.1266797E+00
          3   -1    0    0  501    0  0.00000000000E+00  0.00000000000E+00  0.25817827438E+03  0.25817827438E+03  0.00000000000E+00 0. -1.
         -3   -1    0    0    0  501 -0.00000000000E+00 -0.00000000000E+00 -0.85942345921E+02  0.85942345921E+02  0.00000000000E+00 0.  1.
          5    1    1    2  502    0 -0.55084054888E+01 -0.57673903345E+01 -0.39323815350E+02  0.40341544046E+02  0.41800000000E+01 0. -1.
         -5    1    1    2    0  502 -0.87486552181E+02 -0.56878526233E+00  0.85370720598E+02  0.12231047651E+03  0.41800000000E+01 0. -1.
        -11    1    1    2    0    0  0.54034156284E+01  0.26407451672E+02  0.49886598332E+00  0.26959214965E+02  0.00000000000E+00 0.  1.
         11    1    1    2    0    0  0.87591542041E+02 -0.20071276075E+02  0.12569015723E+03  0.15450938478E+03  0.00000000000E+00 0. -1.
</event>
<event>
 6    1  0.5317355E-006  0.1868391E+03  0.7561462E-02  0.1161344E+00
         -2   -1    0    0    0  501 -0.00000000000E+00  0.00000000000E+00  0.42922142976E+02  0.42922142976E+02  0.00000000000E+00 0.  1.
          2   -1    0    0  501    0  0.00000000000E+00 -0.00000000000E+00 -0.95588563002E+03  0.95588563002E+03  0.00000000000E+00 0. -1.
          5    1    1    2  502    0 -0.62513245085E+02  0.61991088880E+02 -0.24611455515E+03  0.26142044214E+03  0.41800000000E+01 0. -1.
         -5    1    1    2    0  502 -0.81782307209E+02 -0.79510103573E+02 -0.12606924971E+03  0.17006213707E+03  0.41800000000E+01 0.  1.
        -11    1    1    2    0    0  0.12813121522E+03 -0.20803885373E+02 -0.40078561676E+03  0.42128318333E+03  0.00000000000E+00 0. -1.
         11    1    1    2    0    0  0.16164337072E+02  0.38322900066E+02 -0.13999406542E+03  0.14604201044E+03  0.00000000000E+00 0.  1.
</event>
<event>
 6    1  0.5317355E-006  0.1378602E+03  0.7561462E-02  0.1216238E+00
          2   -1    0    0  501    0  0.00000000000E+00  0.00000000000E+00  0.56851228250E+03  0.56851228250E+03  0.00000000000E+00 0. -1.
         -2   -1    0    0    0  501 -0.00000000000E+00 -0.00000000000E+00 -0.37116743433E+02  0.37116743433E+02  0.00000000000E+00 0.  1.
          5    1    1    2  502    0 -0.52760358376E+02 -0.37254209420E+02  0.69532899637E+02  0.94993831734E+02  0.41800000000E+01 0. -1.
         -5    1    1    2    0  502 -0.35964385706E+02  0.74437862344E+02  0.21475930507E+03  0.23015964873E+03  0.41800000000E+01 0. -1.
        -11    1    1    2    0    0  0.47009750476E+02 -0.63419082550E+02  0.18541355044E+03  0.20151943172E+03  0.00000000000E+00 0. -1.
         11    1    1    2    0    0  0.41714993606E+02  0.26235429627E+02  0.61689783913E+02  0.78956113750E+02  0.00000000000E+00 0.  1.
</event>
<event>
 6    1  0.5317355E-006  0.1056964E+03  0.7561462E-02  0.1268754E+00
          1   -1    0    0  501    0  0.00000000000E+00  0.00000000000E+00  0.10507077381E+04  0.10507077381E+04  0.00000000000E+00 0. -1.
         -1   -1    0    0    0  501 -0.00000000000E+00 -0.00000000000E+00 -0.12423304347E+02  0.12423304347E+02  0.00000000000E+00 0.  1.
          5    1    1    2  502    0  0.65739176135E+02 -0.21451644252E+02  0.27183403271E+03  0.28052277280E+03  0.41800000000E+01 0.  1.
         -5    1    1    2    0  502 -0.41508654339E+02  0.30797070800E+02  0.40037402026E+03  0.40371804079E+03  0.41800000000E+01 0.  1.
        -11    1    1    2    0    0  0.32680676925E+02 -0.61978547763E+01  0.71613372757E+02  0.78961479253E+02  0.00000000000E+00 0.  1.
         11    1    1    2    0    0 -0.56911198721E+02 -0.31475717708E+01  0.29446300802E+03  0.29992874961E+03  0.00000000000E+00 0. -1.
</event>
<event>
 6    1  0.5317355E-006  0.1291266E+03  0.7561462E-02  0.1228758E+00
         -1   -1    0    0    0  501 -0.00000000000E+00  0.00000000000E+00  0.60023827981E+02  0.60023827981E+02  0.00000000000E+00 0.  1.
          1   -1    0    0  501    0  0.00000000000E+00 -0.00000000000E+00 -0.31797763732E+03  0.31797763732E+03  0.00000000000E+00 0. -1.
          5    1    1    2  502    0  0.55345347805E+02 -0.54509049185E+02 -0.90353423916E+02  0.11922901316E+03  0.41800000000E+01 0.  1.
         -5    1    1    2    0  502 -0.64167039139E+02 -0.29440954717E+02 -0.47745899054E+02  0.85330662737E+02  0.41800000000E+01 0.  1.
        -11    1    1    2    0    0 -0.22097033218E+02  0.74043354966E+02 -0.11783685953E+03  0.14091211004E+03  0.00000000000E+00 0. -1.
         11    1    1    2    0    0  0.30918724553E+02  0.99066489366E+01 -0.20176268367E+01  0.32529679358E+02  0.00000000000E+00 0.  1.
</event>
<event>
 6    1  0.5317355E-006  0.1753596E+03  0.7561462E-02  0.1172371E+00
         -1   -1    0    0    0  501 -0.00000000000E+00  0.00000000000E+00  0.70691654266E+02  0.70691654266E+02  0.00000000000E+00 0.  1.
          1   -1    0    0  501    0  0.00000000000E+00 -0.00000000000E+00 -0.55578268706E+03  0.55578268706E+03  0.00000000000E+00 0. -1.
          5    1    1    2  502    0 -0.10495452056E+03  0.27149283175E+02 -0.80075585118E+02  0.13484104233E+03  0.41800000000E+01 0. -1.
         -5    1    1    2    0  502  0.11297170921E+02  0.76106398478E+02 -0.32039772901E+02  0.83449562058E+02  0.41800000000E+01 0. -1.
        -11    1    1    2    0    0 -0.17630143431E+02 -0.13574687576E+02 -0.63855945907E+02  0.67621564074E+02  0.00000000000E+00 0.  1.
         11    1    1    2    0    0  0.11128749307E+03 -0.89680994077E+02 -0.30911972886E+03  0.34056217286E+03  0.00000000000E+00 0. -1.
</event>
<event>
 6    1  0.5317355E-006  0.1771507E+03  0.7561462E-02  0.1170589E+00
          2   -1    0    0  501    0  0.00000000000E+00  0.00000000000E+00  0.12825334026E+03  0.12825334026E+03  0.00000000000E+00 0. -1.
         -2   -1    0    0    0  501 -0.00000000000E+00 -0.00000000000E+00 -0.49798374384E+03  0.49798374384E+03  0.00000000000E+00 0.  1.
          5    1    1    2  502    0 -0.26395598862E+02  0.88524496048E+02 -0.10104922093E+03  0.13697347002E+03  0.41800000000E+01 0.  1.
         -5    1    1    2    0  502  0.57006589841E+02  0.67396985280E+02 -0.29150456118E+03  0.30460546039E+03  0.41800000000E+01 0.  1.
        -11    1    1    2    0    0 -0.11153889295E+01 -0.13987813763E+03 -0.65654903185E+01  0.14003657787E+03  0.00000000000E+00 0.  1.
         11    1    1    2    0    0 -0.29495602049E+02 -0.16043343701E+02  0.29388868836E+02  0.44621575821E+02  0.00000000000E+00 0. -1.
</event>
<event>
 6    1  0.5317355E-006  0.1608803E+03  0.7561462E-02  0.1187706E+00
          1   -1    0    0  501    0  0.00000000000E+00  0.00000000000E+00  0.14774588101E+03  0.14774588101E+03  0.00000000000E+00 0. -1.
         -1   -1    0    0    0  501 -0.00000000000E+00 -0.00000000000E+00 -0.28353384172E+03  0.28353384172E+03  0.00000000000E+00 0.  1.
          5    1    1    2  502    0 -0.11817071243E+02 -0.14445137603E+03 -0.13065634524E+03  0.19517785776E+03  0.41800000000E+01 0. -1.
         -5    1    1    2    0  502 -0.21846635789E+02  0.19686732579E+02 -0.59853834679E+02  0.66819135438E+02  0.41800000000E+01 0. -1.
        -11    1    1    2    0    0  0.54616949088E+02  0.72624151248E+02  0.32607474341E-01  0.90869574311E+02  0.00000000000E+00 0.  1.
         11    1    1    2    0    0 -0.20953242056E+02  0.52140492202E+02  0.54689611735E+02  0.78413155219E+02  0.00000000000E+00 0. -1.
</event>
<event>
 6    1  0.7018134E-006  0.1148996E+03  0.7561462E-02  0.1251757E+00
          1   -1    0    0  501    0  0.00000000000E+00  0.00000000000E+00  0.18947458415E+03  0.18947458415E+03  0.00000000000E+00 0. -1.
         -1   -1    0    0    0  501 -0.00000000000E+00 -0.00000000000E+00 -0.11021246445E+03  0.11021246445E+03  0.00000000000E+00 0.  1.
          5    1    1    2  502    0 -0.74177502427E-01  0.25310301618E+02 -0.28796735623E+02  0.38566063486E+02  0.41800000000E+01 0. -1.
         -5    1    1    2    0  502 -0.82346724101E+02 -0.69839879925E+02  0.50290764088E+02  0.11918567511E+03  0.41800000000E+01 0. -1.
        -11    1    1    2    0    0  0.48626370734E+02  0.37899176930E+02 -0.13203592177E+02  0.63049237815E+02  0.00000000000E+00 0.  1.
         11    1    1    2    0    0  0.33794530870E+02  0.66304013777E+01  0.70971683416E+02  0.78886072193E+02  0.00000000000E+00 0. -1.
</event>
<event>
 6    1  0.5317355E-006  0.2366535E+03  0.7561462E-02  0.1122042E+00
          3   -1    0    0  501    0  0.00000000000E+00  0.00000000000E+00  0.20158781823E+03  0.20158781823E+03  0.00000000000E+00 0. -1.
         -3   -1    0    0    0  501 -0.00000000000E+00 -0.00000000000E+00 -0.42481442386E+03  0.42481442386E+03  0.00000000000E+00 0.  1.
          5    1    1    2  502    0  0.35834637997E+02  0.51507133354E+02 -0.12173106833E+02  0.64052814120E+02  0.41800000000E+01 0. -1.
         -5    1    1    2    0  502 -0.79691078530E+02  0.99980012318E+02 -0.80285007650E+02  0.15102922139E+03  0.41800000000E+01 0.  1.
        -11    1    1    2    0    0 -0.97202564263E+02 -0.56336541771E+02 -0.19857701267E+03  0.22815559252E+03  0.00000000000E+00 0.  1.
         11    1    1    2    0    0  0.14105900480E+03 -0.95150603901E+02  0.67808521519E+02  0.18316461407E+03  0.00000000000E+00 0. -1.
</event>
<event>
 6    1  0.5317355E-006  0.7789001E+02  0.7561462E-02  0.1335148E+00
          1   -1    0    0  501    0  0.00000000000E+00  0.00000000000E+00  0.28665328175E+03  0.28665328175E+03  0.00000000000E+00 0. -1.
         -1   -1    0    0    0  501 -0.00000000000E+00 -0.00000000000E+00 -0.59288779692E+02  0.59288779692E+02  0.00000000000E+00 0.  1.
          5    1    1    2  502    0 -0.32235118765E+02 -0.11082848136E+02  0.74721393325E+02  0.82235584907E+02  0.41800000000E+01 0. -1.
         -5    1    1    2    0  502  0.17425299599E+02  0.27799646082E+02 -0.37664064986E+02  0.50124999548E+02  0.41800000000E+01 0. -1.
        -11    1    1    2    0    0 -0.26721441217E+02 -0.34115215074E+02  0.49694462208E+02  0.65934989910E+02  0.00000000000E+00 0.  1.
         11    1    1    2    0    0  0.41531260383E+02  0.17398417128E+02  0.14061271151E+03  0.14764648707E+03  0.00000000000E+00 0. -1.
</event>
<event>
 6    1  0.5317355E-006  0.1118161E+03  0.7561462E-02  0.1257243E+00
         -1   -1    0    0    0  501 -0.00000000000E+00  0.00000000000E+00  0.34260322318E+02  0.34260322318E+02  0.00000000000E+00 0.  1.
          1   -1    0    0  501    0  0.00000000000E+00 -0.00000000000E+00 -0.38432823834E+03  0.38432823834E+03  0.00000000000E+00 0. -1.
          5    1    1    2  502    0 -0.52293417848E+01 -0.60586671322E+02 -0.12984999437E+03  0.14344540493E+03  0.41800000000E+01 0.  1.
         -5    1    1    2    0  502 -0.30284743576E+02  0.59674727650E+02 -0.94558104985E+02  0.11591784346E+03  0.41800000000E+01 0.  1.
        -11    1    1    2    0    0  0.40520623864E+02 -0.38502186392E+02 -0.56573277910E+02  0.79529083289E+02  0.00000000000E+00 0.  1.
         11    1    1    2    0    0 -0.50065385030E+01  0.39414130064E+02 -0.69086538753E+02  0.79696228978E+02  0.00000000000E+00 0. -1.
</event>
<event>
 6    1  0.5317355E-006  0.1025589E+03  0.7561462E-02  0.1275005E+00
          1   -1    0    0  501    0  0.00000000000E+00  0.00000000000E+00  0.34549380149E+03  0.34549380149E+03  0.00000000000E+00 0. -1.
         -1   -1    0    0    0  501 -0.00000000000E+00 -0.00000000000E+00 -0.45521948670E+02  0.45521948670E+02  0.00000000000E+00 0.  1.
          5    1    1    2  502    0 -0.58840660306E+02  0.41748623644E+00  0.12950871186E+02  0.60395323200E+02  0.41800000000E+01 0. -1.
         -5    1    1    2    0  502  0.64270556447E+02 -0.61866476138E+01  0.66615597020E+02  0.92865974399E+02  0.41800000000E+01 0.  1.
        -11    1    1    2    0    0  0.23930449705E+02  0.33412841722E+02  0.62656876594E+02  0.74933094154E+02  0.00000000000E+00 0. -1.
         11    1    1    2    0    0 -0.29360345846E+02 -0.27643680344E+02  0.15774850802E+03  0.16282135841E+03  0.00000000000E+00 0.  1.
</event>
<event>
 6    1  0.5317355E-006  0.1664248E+03  0.7561462E-02  0.1181628E+00
          4   -1    0    0  501    0  0.00000000000E+00  0.00000000000E+00  0.68021451782E+02  0.68021451782E+02  0.00000000000E+00 0. -1.
         -4   -1    0    0    0  501 -0.00000000000E+00 -0.00000000000E+00 -0.59645815441E+03  0.59645815441E+03  0.00000000000E+00 0.  1.
          5    1    1    2  502    0  0.33838948814E+02 -0.10795727980E+03 -0.33960717227E+03  0.35798093884E+03  0.41800000000E+01 0. -1.
         -5    1    1    2    0  502  0.21330392524E+02 -0.37330279859E+02 -0.96854023462E+01  0.44269796230E+02  0.41800000000E+01 0. -1.
        -11    1    1    2    0    0  0.90477704103E+01  0.93513005817E+02 -0.14538466843E+03  0.17309894922E+03  0.00000000000E+00 0.  1.
         11    1    1    2    0    0 -0.64217111749E+02  0.51774553838E+02 -0.33759459582E+02  0.89129921899E+02  0.00000000000E+00 0. -1.
</event>
<event>
 6    1  0.5317355E-006  0.1151866E+03  0.7561462E-02  0.1251256E+00
          1   -1    0    0  501    0  0.00000000000E+00  0.00000000000E+00  0.39438310999E+03  0.39438310999E+03  0.00000000000E+00 0. -1.
         -1   -1    0    0    0  501 -0.00000000000E+00 -0.00000000000E+00 -0.90095340681E+02  0.90095340681E+02  0.00000000000E+00 0.  1.
          5    1    1    2  502    0  0.11686388598E+02 -0.20852420136E+02 -0.52187313321E+02  0.57553307252E+02  0.41800000000E+01 0.  1.
         -5    1    1    2    0  502  0.80831803720E+02 -0.12005471739E+02  0.60350519517E+02  0.10167383857E+03  0.41800000000E+01 0.  1.
        -11    1    1    2    0    0 -0.45563541319E+02 -0.23221736936E+02  0.18711605557E+03  0.19397861639E+03  0.00000000000E+00 0. -1.
         11    1    1    2    0    0 -0.46954650999E+02  0.56079628811E+02  0.10900850754E+03  0.13127268845E+03  0.00000000000E+00 0.  1.
</event>
<event>
 6    1  0.5317355E-006  0.1643543E+03  0.7561462E-02  0.1183867E+00
         -1   -1    0    0    0  501 -0.00000000000E+00  0.00000000000E+00  0.63415889696E+03  0.63415889696E+03  0.00000000000E+00 0.  1.
          1   -1    0    0  501    0  0.00000000000E+00 -0.00000000000E+00 -0.57495022602E+02  0.57495022602E+02  0.00000000000E+00 0. -1.
          5    1    1    2  502    0 -0.81014762631E+02  0.87468431094E+02  0.71569115739E+02  0.13911768015E+03  0.41800000000E+01 0.  1.
         -5    1    1    2    0  502  0.43561302453E+02  0.39626028463E+02  0.70403193785E+02  0.91879765445E+02  0.41800000000E+01 0.  1.
        -11    1    1    2    0    0  0.56736600721E+02 -0.11315466841E+03  0.33374620554E+03  0.35694474441E+03  0.00000000000E+00 0. -1.
         11    1    1    2    0    0 -0.19283140542E+02 -0.13939791142E+02  0.10094535929E+03  0.10371172956E+03  0.00000000000E+00 0.  1.
</event>
<event>
 6    1  0.5317355E-006  0.9887907E+02  0.7561462E-02  0.1282671E+00
         -3   -1    0    0    0  501 -0.00000000000E+00  0.00000000000E+00  0.41838535100E+03  0.41838535100E+03  0.00000000000E+00 0.  1.
          3   -1    0    0  501    0  0.00000000000E+00 -0.00000000000E+00 -0.30240213945E+02  0.30240213945E+02  0.00000000000E+00 0. -1.
          5    1    1    2  502    0 -0.46894550788E+02  0.28854283133E+02  0.74507701095E+02  0.92739088152E+02  0.41800000000E+01 0.  1.
         -5    1    1    2    0  502  0.60127196574E+02 -0.15230862854E+02  0.20180038222E+03  0.21115900553E+03  0.41800000000E+01 0.  1.
        -11    1    1    2    0    0  0.24613629907E+02  0.18451867694E+02  0.11583429239E+02  0.32870625664E+02  0.00000000000E+00 0. -1.
         11    1    1    2    0    0 -0.37846275693E+02 -0.32075287973E+02  0.10025362450E+03  0.11185684560E+03  0.00000000000E+00 0.  1.
</event>
<event>
 6    1  0.5317355E-006  0.1073764E+03  0.7561462E-02  0.1265507E+00
         -1   -1    0    0    0  501 -0.00000000000E+00  0.00000000000E+00  0.79578274590E+02  0.79578274590E+02  0.00000000000E+00 0.  1.
          1   -1    0    0  501    0  0.00000000000E+00 -0.00000000000E+00 -0.26459416479E+03  0.26459416479E+03  0.00000000000E+00 0. -1.
          5    1    1    2  502    0  0.11034291217E+02 -0.32383925456E+02 -0.43490749133E+02  0.55492268567E+02  0.41800000000E+01 0. -1.
         -5    1    1    2    0  502  0.28949797388E+02  0.69852033391E+02  0.33914597344E+02  0.82976319819E+02  0.41800000000E+01 0.  1.
        -11    1    1    2    0    0  0.26234727414E+02 -0.26766154121E+02 -0.41584206585E+02  0.55981552016E+02  0.00000000000E+00 0.  1.
         11    1    1    2    0    0 -0.66218816019E+02 -0.10701953814E+02 -0.13385553183E+03  0.14972229898E+03  0.00000000000E+00 0. -1.
</event>
<event>
 6    1  0.5317355E-006  0.1200663E+03  0.7561462E-02  0.1242988E+00
          2   -1    0    0  501    0  0.00000000000E+00  0.00000000000E+00  0.37082363875E+03  0.37082363875E+03  0.00000000000E+00 0. -1.
         -2   -1    0    0    0  501 -0.00000000000E+00 -0.00000000000E+00 -0.11306156245E+03  0.11306156245E+03  0.00000000000E+00 0.  1.
          5    1    1    2  502    0 -0.46090087042E+02  0.36552517254E+01 -0.25327587105E+02  0.52883041302E+02  0.41800000000E+01 0. -1.
         -5    1    1    2    0  502  0.48528883191E+02 -0.67456540116E+02 -0.36812958408E+02  0.90984084405E+02  0.41800000000E+01 0.  1.
        -11    1    1    2    0    0 -0.45416999267E+02  0.21674218771E+02  0.98888177327E+02  0.11095651038E+03  0.00000000000E+00 0.  1.
         11    1    1    2    0    0  0.42978203118E+02  0.42127069620E+02  0.22101444448E+03  0.22906156510E+03  0.00000000000E+00 0. -1.
</event>
<event>
 6    1  0.5317355E-006  0.1178765E+03  0.7561462E-02  0.1246642E+00
          2   -1    0    0  501    0  0.00000000000E+00  0.00000000000E+00  0.46643422778E+03  0.46643422778E+03  0.00000000000E+00 0. -1.
         -2   -1    0    0    0  501 -0.00000000000E+00 -0.00000000000E+00 -0.34397513142E+02  0.34397513142E+02  0.00000000000E+00 0.  1.
          5    1    1    2  502    0 -0.52945062677E+02  0.75468320675E+02  0.13939320558E+03  0.16717232202E+03  0.41800000000E+01 0. -1.
         -5    1    1    2    0  502  0.37713966535E+02 -0.96212669692E+01  0.36169228257E+02  0.53297256239E+02  0.41800000000E+01 0.  1.
        -11    1    1    2    0    0  0.20869862946E+02  0.13449176120E+02  0.23452956151E+02  0.34153662613E+02  0.00000000000E+00 0. -1.
         11    1    1    2    0    0 -0.56387668041E+01 -0.79296229826E+02  0.23302132465E+03  0.24620850005E+03  0.00000000000E+00 0.  1.
</event>
<event>
 6    1  0.5317355E-006  0.1147387E+03  0.7561462E-02  0.1252038E+00
          1   -1    0    0  501    0  0.00000000000E+00  0.00000000000E+00  0.56327357828E+03  0.56327357828E+03  0.00000000000E+00 0. -1.
         -1   -1    0    0    0  501 -0.00000000000E+00 -0.00000000000E+00 -0.32258929802E+02  0.32258929802E+02  0.00000000000E+00 0.  1.
          5    1    1    2  502    0 -0.24093070484E+02  0.74790728972E+02  0.10682790908E+03  0.13267932674E+03  0.41800000000E+01 0.  1.
         -5    1    1    2    0  502 -0.18954053509E+02 -0.50566097472E+02  0.47673738091E+02  0.72155693203E+02  0.41800000000E+01 0.  1.
        -11    1    1    2    0    0  0.85818521855E+01  0.30649109250E+02  0.63295987961E+02  0.70847711160E+02  0.00000000000E+00 0.  1.
         11    1    1    2    0    0  0.34465271807E+02 -0.54873740749E+02  0.31321701334E+03  0.31984977698E+03  0.00000000000E+00 0. -1.
</event>
<event>
 6    1  0.5317355E-006  0.1538215E+03  0.7561462E-02  0.1195854E+00
         -1   -1    0    0    0  501 -0.00000000000E+00  0.00000000000E+00  0.97068842681E+03  0.97068842681E+03  0.00000000000E+00 0.  1.
          1   -1    0    0  501    0  0.00000000000E+00 -0.00000000000E+00 -0.34770825220E+02  0.34770825220E+02  0.00000000000E+00 0. -1.
          5    1    1    2  502    0  0.60488335260E+02 -0.71957839152E+02  0.56377769772E+03  0.57157635899E+03  0.41800000000E+01 0.  1.
         -5    1    1    2    0  502  0.50908550622E+02  0.40290756024E+02  0.17748905916E+03  0.18903667387E+03  0.41800000000E+01 0.  1.
        -11    1    1    2    0    0 -0.59548076287E+02 -0.31015371070E+02  0.85188148531E+02  0.10846634170E+03  0.00000000000E+00 0. -1.
         11    1    1    2    0    0 -0.51848809595E+02  0.62682454197E+02  0.10946269618E+03  0.13637987746E+03  0.00000000000E+00 0.  1.
</event>
<event>
 6    1  0.5317355E-006  0.1072705E+03  0.7561462E-02  0.1265710E+00
         -2   -1    0    0    0  501 -0.00000000000E+00  0.00000000000E+00  0.24275358171E+02  0.24275358171E+02  0.00000000000E+00 0. -1.
          2   -1    0    0  501    0  0.00000000000E+00 -0.00000000000E+00 -0.76717712596E+03  0.76717712596E+03  0.00000000000E+00 0.  1.
          5    1    1    2  502    0 -0.11969074532E+02 -0.35094923030E+01 -0.22841547168E+03  0.22879395837E+03  0.41800000000E+01 0. -1.
         -5    1    1    2    0  502  0.25768555678E+02  0.77174955971E+02 -0.89845462575E+02  0.12128343595E+03  0.41800000000E+01 0. -1.
        -11    1    1    2    0    0  0.21402266807E+02  0.13913255246E+02 -0.75402156573E+02  0.79606035650E+02  0.00000000000E+00 0.  1.
         11    1    1    2    0    0 -0.35201747953E+02 -0.87578718914E+02 -0.34923867695E+03  0.36176905416E+03  0.00000000000E+00 0. -1.
</event>
<event>
 6    1  0.5317355E-006  0.1323041E+03  0.7561462E-02  0.1224076E+00
         -2   -1    0    0    0  501 -0.00000000000E+00  0.00000000000E+00  0.45818561674E+03  0.45818561674E+03  0.00000000000E+00 0.  1.
          2   -1    0    0  501    0  0.00000000000E+00 -0.00000000000E+00 -0.66059293277E+02  0.66059293277E+02  0.00000000000E+00 0. -1.
          5    1    1    2  502    0 -0.10583823884E+03  0.29702416359E+01  0.86189037717E+02  0.13658908360E+03  0.41800000000E+01 0. -1.
         -5    1    1    2    0  502  0.57724897159E+00 -0.16040869844E+02  0.21293133152E+03  0.21357637290E+03  0.41800000000E+01 0.  1.
        -11    1    1    2    0    0  0.10391827795E+02 -0.34429042824E+02  0.45061876854E+02  0.57653463212E+02  0.00000000000E+00 0.  1.
         11    1    1    2    0    0  0.94869162077E+02  0.47499671033E+02  0.47944077374E+02  0.11642599030E+03  0.00000000000E+00 0. -1.
</event>
<event>
 6    1  0.5317355E-006  0.1981998E+03  0.7561462E-02  0.1151267E+00
         -1   -1    0    0    0  501 -0.00000000000E+00  0.00000000000E+00  0.75119067200E+03  0.75119067200E+03  0.00000000000E+00 0.  1.
          1   -1    0    0  501    0  0.00000000000E+00 -0.00000000000E+00 -0.79122839736E+02  0.79122839736E+02  0.00000000000E+00 0. -1.
          5    1    1    2  502    0  0.46341536960E+02 -0.97545088250E+02  0.36301621870E+03  0.37876223377E+03  0.41800000000E+01 0.  1.
         -5    1    1    2    0  502  0.10450313698E+03  0.40205122289E+01  0.22784818722E+03  0.25073758987E+03  0.41800000000E+01 0.  1.
        -11    1    1    2    0    0 -0.61686448705E+02  0.66026786486E+02  0.39507132502E+02  0.98618294480E+02  0.00000000000E+00 0.  1.
         11    1    1    2    0    0 -0.89158225236E+02  0.27497789535E+02  0.41696293849E+02  0.10219539362E+03  0.00000000000E+00 0. -1.
</event>
<event>
 6    1  0.5317355E-006  0.1205883E+03  0.7561462E-02  0.1242130E+00
         -1   -1    0    0    0  501 -0.00000000000E+00  0.00000000000E+00  0.12099365027E+03  0.12099365027E+03  0.00000000000E+00 0.  1.
          1   -1    0    0  501    0  0.00000000000E+00 -0.00000000000E+00 -0.12866497633E+03  0.12866497633E+03  0.00000000000E+00 0. -1.
          5    1    1    2  502    0 -0.20657192042E+02  0.40107951834E+02  0.22789951636E+02  0.50717074827E+02  0.41800000000E+01 0.  1.
         -5    1    1    2    0  502  0.78903918530E+02 -0.38601895814E+02 -0.67941815818E+01  0.88201859522E+02  0.41800000000E+01 0.  1.
        -11    1    1    2    0    0  0.24777080565E+02 -0.24629393803E+01 -0.23006302396E+01  0.25005253272E+02  0.00000000000E+00 0. -1.
         11    1    1    2    0    0 -0.83023807052E+02  0.95688336024E+00 -0.21366465877E+02  0.85734438980E+02  0.00000000000E+00 0.  1.
</event>
<event>
 6    1  0.5317355E-006  0.7513939E+02  0.7561462E-02  0.1343440E+00
          2   -1    0    0  501    0  0.00000000000E+00  0.00000000000E+00  0.12757669060E+03  0.12757669060E+03  0.00000000000E+00 0. -1.
         -2   -1    0    0    0  501 -0.00000000000E+00 -0.00000000000E+00 -0.12604496103E+03  0.12604496103E+03  0.00000000000E+00 0.  1.
          5    1    1    2  502    0  0.24163206889E+02 -0.33682908038E+02 -0.82045156533E+02  0.92017818772E+02  0.41800000000E+01 0.  1.
         -5    1    1    2    0  502 -0.35270414394E+00  0.59426079687E+02  0.37019396712E+01  0.59688860808E+02  0.41800000000E+01 0.  1.
        -11    1    1    2    0    0 -0.27615425180E+02 -0.51402917050E+01  0.11414529406E+02  0.30320385687E+02  0.00000000000E+00 0.  1.
         11    1    1    2    0    0  0.38049224349E+01 -0.20602879945E+02  0.68460417031E+02  0.71594586366E+02  0.00000000000E+00 0. -1.
</event>
<event>
 6    1  0.5317355E-006  0.1056245E+03  0.7561462E-02  0.1268894E+00
         -1   -1    0    0    0  501 -0.00000000000E+00  0.00000000000E+00  0.50393038809E+03  0.50393038809E+03  0.00000000000E+00 0.  1.
          1   -1    0    0  501    0  0.00000000000E+00 -0.00000000000E+00 -0.26353182188E+02  0.26353182188E+02  0.00000000000E+00 0. -1.
          5    1    1    2  502    0 -0.11410403458E+02  0.46435042329E+02  0.43533322290E+02  0.64799946086E+02  0.41800000000E+01 0. -1.
         -5    1    1    2    0  502  0.49916393446E+02 -0.50038689492E+02  0.19266353014E+03  0.20526135785E+03  0.41800000000E+01 0. -1.
        -11    1    1    2    0    0  0.26263003292E+02 -0.60835362828E+01  0.38246736333E+02  0.46792815642E+02  0.00000000000E+00 0. -1.
         11    1    1    2    0    0 -0.64768993280E+02  0.96871834452E+01  0.20313361714E+03  0.21342945070E+03  0.00000000000E+00 0.  1.
</event>
<event>
 6    1  0.5317355E-006  0.1142061E+03  0.7561462E-02  0.1252973E+00
          2   -1    0    0  501    0  0.00000000000E+00  0.00000000000E+00  0.59388712094E+03  0.59388712094E+03  0.00000000000E+00 0. -1.
         -2   -1    0    0    0  501 -0.00000000000E+00 -0.00000000000E+00 -0.36043960289E+02  0.36043960289E+02  0.00000000000E+00 0.  1.
          5    1    1    2  502    0  0.68067182186E+02  0.59682006491E+02  0.79862551572E+02  0.12079148452E+03  0.41800000000E+01 0.  1.
         -5    1    1    2    0  502  0.35932864869E+01  0.52148346807E+01  0.20388546436E+03  0.20402661882E+03  0.41800000000E+01 0.  1.
        -11    1    1    2    0    0 -0.22596968980E+02 -0.76513916624E+02  0.20156277215E+03  0.21677765928E+03  0.00000000000E+00 0.  1.
         11    1    1    2    0    0 -0.49063499693E+02  0.11617075452E+02  0.72532372565E+02  0.88335318611E+02  0.00000000000E+00 0. -1.
</event>
<event>
 6    1  0.5317355E-006  0.1059555E+03  0.7561462E-02  0.1268248E+00
         -3   -1    0    0    0  501 -0.00000000000E+00  0.00000000000E+00  0.26613436862E+03  0.26613436862E+03  0.00000000000E+00 0.  1.
          3   -1    0    0  501    0  0.00000000000E+00 -0.00000000000E+00 -0.84863444861E+02  0.84863444861E+02  0.00000000000E+00 0. -1.
          5    1    1    2  502    0 -0.52292602415E+02  0.16042399353E+02  0.38632408476E+02  0.67095530619E+02  0.41800000000E+01 0. -1.
         -5    1    1    2    0  502  0.59680773490E+01 -0.54648386079E+02  0.16734213330E+03  0.17619002817E+03  0.41800000000E+01 0.  1.
        -11    1    1    2    0    0  0.71897049805E+01  0.57861121017E+02 -0.26531354074E+02  0.64058675697E+02  0.00000000000E+00 0. -1.
         11    1    1    2    0    0  0.39134820086E+02 -0.19255134291E+02  0.18277360500E+01  0.43653578992E+02  0.00000000000E+00 0.  1.
</event>
<event>
 6    1  0.5317355E-006  0.9103227E+02  0.7561462E-02  0.1300371E+00
          4   -1    0    0  501    0  0.00000000000E+00  0.00000000000E+00  0.40352962047E+02  0.40352962047E+02  0.00000000000E+00 0.  1.
         -4   -1    0    0    0  501 -0.00000000000E+00 -0.00000000000E+00 -0.37120997072E+03  0.37120997072E+03  0.00000000000E+00 0. -1.
          5    1    1    2  502    0 -0.68326607457E+01 -0.26580092847E+02 -0.32264198162E+01  0.27947607652E+02  0.41800000000E+01 0. -1.
         -5    1    1    2    0  502 -0.17484112695E+02  0.56204255899E+02 -0.25250413147E+03  0.25930758065E+03  0.41800000000E+01 0. -1.
        -11    1    1    2    0    0 -0.18580237680E+02  0.21592833605E+02 -0.39184981127E+02  0.48445210715E+02  0.00000000000E+00 0. -1.
         11    1    1    2    0    0  0.42897011121E+02 -0.51216996657E+02 -0.35941476260E+02  0.75862533740E+02  0.00000000000E+00 0.  1.
</event>
<event>
 6    1  0.5410659E-006  0.1273422E+03  0.7561462E-02  0.1231454E+00
          2   -1    0    0  501    0  0.00000000000E+00  0.00000000000E+00  0.26502531165E+03  0.26502531165E+03  0.00000000000E+00 0. -1.
         -2   -1    0    0    0  501 -0.00000000000E+00 -0.00000000000E+00 -0.73882976352E+02  0.73882976352E+02  0.00000000000E+00 0.  1.
          5    1    1    2  502    0 -0.33876659754E+02  0.91871239802E+01  0.17508461989E+02  0.39446799165E+02  0.41800000000E+01 0.  1.
         -5    1    1    2    0  502  0.11364916794E+03  0.25752514088E+02  0.82994035154E+02  0.14312514673E+03  0.41800000000E+01 0.  1.
        -11    1    1    2    0    0 -0.92708726394E+01 -0.30736238560E+02 -0.97858361386E+01  0.33562300715E+02  0.00000000000E+00 0.  1.
         11    1    1    2    0    0 -0.70501635548E+02 -0.42033995079E+01  0.10042567430E+03  0.12277404140E+03  0.00000000000E+00 0. -1.
</event>
<event>
 6    1  0.5317355E-006  0.1044512E+03  0.7561462E-02  0.1271205E+00
         -2   -1    0    0    0  501 -0.00000000000E+00  0.00000000000E+00  0.25541813372E+03  0.25541813372E+03  0.00000000000E+00 0.  1.
          2   -1    0    0  501    0  0.00000000000E+00 -0.00000000000E+00 -0.58935319669E+02  0.58935319669E+02  0.00000000000E+00 0. -1.
          5    1    1    2  502    0  0.38359352963E+02  0.94589649787E+02  0.68398035810E+02  0.12294065849E+03  0.41800000000E+01 0. -1.
         -5    1    1    2    0  502 -0.24661472359E+02 -0.28024270223E+02  0.48063270640E+02  0.61000805938E+02  0.41800000000E+01 0. -1.
        -11    1    1    2    0    0 -0.32797373078E+01 -0.46104551712E+02  0.93132829181E+02  0.10397167997E+03  0.00000000000E+00 0.  1.
         11    1    1    2    0    0 -0.10418143297E+02 -0.20460827852E+02 -0.13111321578E+02  0.26440308993E+02  0.00000000000E+00 0. -1.
</event>
<event>
 6    1  0.5317355E-006  0.9287577E+02  0.7561462E-02  0.1296033E+00
         -2   -1    0    0    0  501 -0.00000000000E+00  0.00000000000E+00  0.92072197567E+02  0.92072197567E+02  0.00000000000E+00 0.  1.
          2   -1    0    0  501    0  0.00000000000E+00 -0.00000000000E+00 -0.16651414685E+03  0.16651414685E+03  0.00000000000E+00 0. -1.
          5    1    1    2  502    0 -0.51880093106E+01 -0.21212084073E+02 -0.46137953968E+02  0.51215731447E+02  0.41800000000E+01 0.  1.
         -5    1    1    2    0  502  0.83684783944E+01  0.71263654414E+02  0.42687948885E+02  0.83595892549E+02  0.41800000000E+01 0.  1.
        -11    1    1    2    0    0  0.28183026708E+02 -0.53116157179E+02 -0.69953446995E+02  0.92244749956E+02  0.00000000000E+00 0. -1.
         11    1    1    2    0    0 -0.31363495792E+02  0.30645868380E+01 -0.10384972006E+01  0.31529970460E+02  0.00000000000E+00 0.  1.
</event>
<event>
 6    1  0.5317355E-006  0.1090706E+03  0.7561462E-02  0.1262301E+00
         -1   -1    0    0    0  501 -0.00000000000E+00  0.00000000000E+00  0.13949062850E+02  0.13949062850E+02  0.00000000000E+00 0.  1.
          1   -1    0    0  501    0  0.00000000000E+00 -0.00000000000E+00 -0.91451318042E+03  0.91451318042E+03  0.00000000000E+00 0. -1.
          5    1    1    2  502    0 -0.35919312983E+02  0.35714027889E+02 -0.15481245308E+03  0.16294188186E+03  0.41800000000E+01 0.  1.
         -5    1    1    2    0  502  0.29374288469E+02 -0.67479623600E+02 -0.39843940422E+03  0.40520091271E+03  0.41800000000E+01 0.  1.
        -11    1    1    2    0    0 -0.34614114097E+02 -0.89020879014E+01 -0.96132375375E+02  0.10256128733E+03  0.00000000000E+00 0.  1.
         11    1    1    2    0    0  0.41159138611E+02  0.40667683613E+02 -0.25117988489E+03  0.25775816137E+03  0.00000000000E+00 0. -1.
</event>
<event>
 6    1  0.5317355E-006  0.1164711E+03  0.7561462E-02  0.1249035E+00
          2   -1    0    0  501    0  0.00000000000E+00  0.00000000000E+00  0.12404683427E+04  0.12404683427E+04  0.00000000000E+00 0. -1.
         -2   -1    0    0    0  501 -0.00000000000E+00 -0.00000000000E+00 -0.12385921711E+02  0.12385921711E+02  0.00000000000E+00 0.  1.
          5    1    1    2  502    0 -0.86759402086E+02 -0.23724115451E+02  0.31940913701E+03  0.33185794658E+03  0.41800000000E+01 0.  1.
         -5    1    1    2    0  502  0.28847720287E+02  0.17312969388E+02  0.34929527099E+03  0.35093673021E+03  0.41800000000E+01 0.  1.
        -11    1    1    2    0    0  0.98136999039E+00  0.41900189700E+02  0.18184158145E+03  0.18660908265E+03  0.00000000000E+00 0.  1.
         11    1    1    2    0    0  0.56930311809E+02 -0.35489043637E+02  0.37753643156E+03  0.38345050499E+03  0.00000000000E+00 0. -1.
</event>
<event>
 6    1  0.5587006E-006  0.1852384E+03  0.7561462E-02  0.1162827E+00
          1   -1    0    0  501    0  0.00000000000E+00  0.00000000000E+00  0.74754971540E+03  0.74754971540E+03  0.00000000000E+00 0.  1.
         -1   -1    0    0    0  501 -0.00000000000E+00 -0.00000000000E+00 -0.64299544935E+02  0.64299544935E+02  0.00000000000E+00 0. -1.
          5    1    1    2  502    0 -0.69426628269E+01 -0.15945543113E+02 -0.13214173731E+02  0.22238428445E+02  0.41800000000E+01 0.  1.
         -5    1    1    2    0  502  0.78592890493E+02 -0.14526285305E+03  0.23765324849E+03  0.28943855622E+03  0.41800000000E+01 0.  1.
        -11    1    1    2    0    0 -0.77475964365E+02  0.10304403355E+03  0.22650503887E+03  0.26062450103E+03  0.00000000000E+00 0. -1.
         11    1    1    2    0    0  0.58257366985E+01  0.58164362617E+02  0.23230605685E+03  0.23954777464E+03  0.00000000000E+00 0.  1.
</event>
<event>
 6    1  0.5317355E-006  0.1088730E+03  0.7561462E-02  0.1262671E+00
          2   -1    0    0  501    0  0.00000000000E+00  0.00000000000E+00  0.25623740285E+03  0.25623740285E+03  0.00000000000E+00 0. -1.
         -2   -1    0    0    0  501 -0.00000000000E+00 -0.00000000000E+00 -0.71577385195E+02  0.71577385195E+02  0.00000000000E+00 0.  1.
          5    1    1    2  502    0  0.25454149437E+02 -0.37135476256E+02  0.32437870464E+02  0.55647508126E+02  0.41800000000E+01 0.  1.
         -5    1    1    2    0  502  0.84565999055E+01  0.83566691957E+02 -0.68695978678E+01  0.84377543585E+02  0.41800000000E+01 0.  1.
        -11    1    1    2    0    0  0.13864624303E+02  0.80015917516E+01  0.38198211489E+01  0.16457348245E+02  0.00000000000E+00 0.  1.
         11    1    1    2    0    0 -0.47775373646E+02 -0.54432807452E+02  0.15527192391E+03  0.17133238809E+03  0.00000000000E+00 0. -1.
</event>
<event>
 6    1  0.5317355E-006  0.1779760E+03  0.7561462E-02  0.1169776E+00
         -2   -1    0    0    0  501 -0.00000000000E+00  0.00000000000E+00  0.21406686641E+03  0.21406686641E+03  0.00000000000E+00 0.  1.
          2   -1    0    0  501    0  0.00000000000E+00 -0.00000000000E+00 -0.15289293019E+03  0.15289293019E+03  0.00000000000E+00 0. -1.
          5    1    1    2  502    0 -0.40875003895E+02  0.11317492972E+03  0.49164786987E+02  0.13005375558E+03  0.41800000000E+01 0. -1.
         -5    1    1    2    0  502  0.62389604776E+02  0.28321206291E+02  0.12185562170E+02  0.69717385459E+02  0.41800000000E+01 0. -1.
        -11    1    1    2    0    0  0.31797481968E+02 -0.31956743471E+02 -0.43709650668E+01  0.45292589332E+02  0.00000000000E+00 0.  1.
         11    1    1    2    0    0 -0.53312082848E+02 -0.10953939254E+03  0.41945521276E+01  0.12189606623E+03  0.00000000000E+00 0. -1.
</event>
<event>
 6    1  0.5317355E-006  0.7816797E+02  0.7561462E-02  0.1334332E+00
         -1   -1    0    0    0  501 -0.00000000000E+00  0.00000000000E+00  0.90561459755E+03  0.90561459755E+03  0.00000000000E+00 0.  1.
          1   -1    0    0  501    0  0.00000000000E+00 -0.00000000000E+00 -0.17688200875E+02  0.17688200875E+02  0.00000000000E+00 0. -1.
          5    1    1    2  502    0 -0.31113123006E+02  0.39676134619E+01  0.49363830299E+03  0.49465140752E+03  0.41800000000E+01 0. -1.
         -5    1    1    2    0  502  0.61896297702E+02  0.18923344712E+02  0.19899265024E+03  0.20929594333E+03  0.41800000000E+01 0.  1.
        -11    1    1    2    0    0 -0.33790653979E+02  0.28571156006E+01  0.18986502922E+03  0.19286964698E+03  0.00000000000E+00 0.  1.
         11    1    1    2    0    0  0.30074792831E+01 -0.25748073774E+02  0.54304142268E+01  0.26485800600E+02  0.00000000000E+00 0. -1.
</event>
<event>
 6    1  0.5317355E-006  0.1003006E+03  0.7561462E-02  0.1279665E+00
          1   -1    0    0  501    0  0.00000000000E+00  0.00000000000E+00  0.19288486545E+03  0.19288486545E+03  0.00000000000E+00 0.  1.
         -1   -1    0    0    0  501 -0.00000000000E+00 -0.00000000000E+00 -0.65183591477E+02  0.65183591477E+02  0.00000000000E+00 0. -1.
          5    1    1    2  502    0 -0.17324397299E+02  0.70688339358E+02  0.19611115199E+02  0.75492014825E+02  0.41800000000E+01 0. -1.
         -5    1    1    2    0  502  0.86556021552E+01 -0.46300287250E+02  0.54636148778E+02  0.72257990571E+02  0.41800000000E+01 0. -1.
        -11    1    1    2    0    0  0.34465831336E+02  0.11395241779E+02  0.55319405013E+02  0.66166317986E+02  0.00000000000E+00 0.  1.
         11    1    1    2    0    0 -0.25797036193E+02 -0.35783293888E+02 -0.18653950184E+01  0.44152133543E+02  0.00000000000E+00 0. -1.
</event>
<event>
 6    1  0.5317355E-006  0.1345412E+03  0.7561462E-02  0.1220869E+00
         -1   -1    0    0    0  501 -0.00000000000E+00  0.00000000000E+00  0.19355211797E+02  0.19355211797E+02  0.00000000000E+00 0.  1.
          1   -1    0    0  501    0  0.00000000000E+00 -0.00000000000E+00 -0.98136790192E+03  0.98136790192E+03  0.00000000000E+00 0. -1.
          5    1    1    2  502    0  0.20742143335E+02 -0.25714285927E+02 -0.68809154475E+02  0.76443659976E+02  0.41800000000E+01 0.  1.
         -5    1    1    2    0  502 -0.99638617533E+02  0.55806844846E+02 -0.40576669996E+03  0.42155230426E+03  0.41800000000E+01 0.  1.
        -11    1    1    2    0    0 -0.10982780184E+02 -0.29653828127E+02 -0.94831762507E+02  0.99965164750E+02  0.00000000000E+00 0.  1.
         11    1    1    2    0    0  0.89879254383E+02 -0.43873079130E+00 -0.39260507318E+03  0.40276198473E+03  0.00000000000E+00 0. -1.
</event>
<event>
 6    1  0.5317355E-006  0.8806904E+02  0.7561462E-02  0.1307596E+00
         -3   -1    0    0    0  501 -0.00000000000E+00  0.00000000000E+00  0.13238022364E+03  0.13238022364E+03  0.00000000000E+00 0.  1.
          3   -1    0    0  501    0  0.00000000000E+00 -0.00000000000E+00 -0.12433340809E+03  0.12433340809E+03  0.00000000000E+00 0. -1.
          5    1    1    2  502    0  0.31174848394E+02 -0.26981459135E+02  0.74322643475E+02  0.85095229259E+02  0.41800000000E+01 0.  1.
         -5    1    1    2    0  502 -0.58718436959E+02  0.97268823234E+01 -0.79556164175E+01  0.60193282941E+02  0.41800000000E+01 0.  1.
        -11    1    1    2    0    0  0.48905351616E+02  0.21210881320E+02 -0.46319132166E+01  0.53507845435E+02  0.00000000000E+00 0.  1.
         11    1    1    2    0    0 -0.21361763051E+02 -0.39563045078E+01 -0.53688298293E+02  0.57917274103E+02  0.00000000000E+00 0. -1.
</event>
<event>
 6    1  0.5317355E-006  0.2036671E+03  0.7561462E-02  0.1146681E+00
         -2   -1    0    0    0  501 -0.00000000000E+00  0.00000000000E+00  0.43790167485E+02  0.43790167485E+02  0.00000000000E+00 0. -1.
          2   -1    0    0  501    0  0.00000000000E+00 -0.00000000000E+00 -0.10309229526E+04  0.10309229526E+04  0.00000000000E+00 0.  1.
          5    1    1    2  502    0  0.93995352186E+02 -0.14147347451E+02 -0.26102235998E+03  0.27782263853E+03  0.41800000000E+01 0. -1.
         -5    1    1    2    0  502  0.41203041334E+02 -0.10888742328E+03 -0.16005112293E+03  0.19795958152E+03  0.41800000000E+01 0. -1.
        -11    1    1    2    0    0 -0.75680423098E+02  0.11197913047E+03 -0.39145252279E+03  0.41412791466E+03  0.00000000000E+00 0. -1.
         11    1    1    2    0    0 -0.59517970422E+02  0.11055640254E+02 -0.17460677937E+03  0.18480298533E+03  0.00000000000E+00 0.  1.
</event>
<event>
 6    1  0.5317355E-006  0.7741158E+02  0.7561462E-02  0.1336562E+00
         -2   -1    0    0    0  501 -0.00000000000E+00  0.00000000000E+00  0.59048738474E+02  0.59048738474E+02  0.00000000000E+00 0. -1.
          2   -1    0    0  501    0  0.00000000000E+00 -0.00000000000E+00 -0.27647148245E+03  0.27647148245E+03  0.00000000000E+00 0.  1.
          5    1    1    2  502    0 -0.28117086502E+02  0.11328281741E+02 -0.68148756902E+02  0.74703587517E+02  0.41800000000E+01 0.  1.
         -5    1    1    2    0  502  0.21130410989E+02 -0.63876272400E+02  0.18569893738E+02  0.69921282867E+02  0.41800000000E+01 0.  1.
        -11    1    1    2    0    0  0.13153753726E+02  0.21869922567E+02 -0.62169903720E+01  0.26267198546E+02  0.00000000000E+00 0. -1.
         11    1    1    2    0    0 -0.61670782135E+01  0.30678068092E+02 -0.16162689044E+03  0.16462815199E+03  0.00000000000E+00 0.  1.
</event>
<event>
 6    1  0.5317355E-006  0.1458135E+03  0.7561462E-02  0.1205714E+00
         -1   -1    0    0    0  501 -0.00000000000E+00  0.00000000000E+00  0.41473920303E+02  0.41473920303E+02  0.00000000000E+00 0.  1.
          1   -1    0    0  501    0  0.00000000000E+00 -0.00000000000E+00 -0.55180027580E+03  0.55180027580E+03  0.00000000000E+00 0. -1.
          5    1    1    2  502    0  0.44646404947E+01 -0.83521235181E+02 -0.11242886908E+03  0.14019077268E+03  0.41800000000E+01 0. -1.
         -5    1    1    2    0  502  0.68937562513E+02  0.51483297369E+02 -0.10578419264E+03  0.13642098536E+03  0.41800000000E+01 0.  1.
        -11    1    1    2    0    0 -0.60547193863E+02  0.63508519289E+02 -0.19704473491E+03  0.21569868397E+03  0.00000000000E+00 0. -1.
         11    1    1    2    0    0 -0.12855009145E+02 -0.31470581478E+02 -0.95068558867E+02  0.10096375411E+03  0.00000000000E+00 0.  1.
</event>
<event>
 6    1  0.5317355E-006  0.1185656E+03  0.7561462E-02  0.1245482E+00
          2   -1    0    0  501    0  0.00000000000E+00  0.00000000000E+00  0.55447759349E+03  0.55447759349E+03  0.00000000000E+00 0. -1.
         -2   -1    0    0    0  501 -0.00000000000E+00 -0.00000000000E+00 -0.18171286916E+03  0.18171286916E+03  0.00000000000E+00 0.  1.
          5    1    1    2  502    0 -0.16931095301E+02  0.35674298445E+02  0.35980587167E+02  0.53585376835E+02  0.41800000000E+01 0. -1.
         -5    1    1    2    0  502  0.49614651241E+02  0.50948216928E+02 -0.15676127596E+03  0.17218857240E+03  0.41800000000E+01 0.  1.
        -11    1    1    2    0    0 -0.62019519234E+02 -0.64171586195E+02  0.28570871462E+03  0.29932237279E+03  0.00000000000E+00 0.  1.
         11    1    1    2    0    0  0.29335963294E+02 -0.22450929179E+02  0.20783669849E+03  0.21109414062E+03  0.00000000000E+00 0. -1.
</event>
<event>
 6    1  0.5317355E-006  0.1092715E+03  0.7561462E-02  0.1261925E+00
          1   -1    0    0  501    0  0.00000000000E+00  0.00000000000E+00  0.16603517372E+03  0.16603517372E+03  0.00000000000E+00 0. -1.
         -1   -1    0    0    0  501 -0.00000000000E+00 -0.00000000000E+00 -0.10860862978E+03  0.10860862978E+03  0.00000000000E+00 0.  1.
          5    1    1    2  502    0 -0.10608218838E+02 -0.34086654530E+02 -0.56574402719E+01  0.36385620160E+02  0.41800000000E+01 0.  1.
         -5    1    1    2    0  502  0.12989171895E+02  0.10779595445E+03  0.64865797462E+01  0.10884959577E+03  0.41800000000E+01 0.  1.
        -11    1    1    2    0    0  0.15658832329E+01 -0.34710399671E+02  0.77538382180E+02  0.84967432271E+02  0.00000000000E+00 0. -1.
         11    1    1    2    0    0 -0.39468362896E+01 -0.38998900248E+02 -0.20940977718E+02  0.44441155307E+02  0.00000000000E+00 0.  1.
</event>
<event>
 6    1  0.5317355E-006  0.9988338E+02  0.7561462E-02  0.1280541E+00
          1   -1    0    0  501    0  0.00000000000E+00  0.00000000000E+00  0.83429190334E+02  0.83429190334E+02  0.00000000000E+00 0. -1.
         -1   -1    0    0    0  501 -0.00000000000E+00 -0.00000000000E+00 -0.28607963699E+03  0.28607963699E+03  0.00000000000E+00 0.  1.
          5    1    1    2  502    0  0.55902040514E+02 -0.17721726454E+02 -0.19929096720E+03  0.20778224113E+03  0.41800000000E+01 0. -1.
         -5    1    1    2    0  502 -0.14912281835E+02  0.45445193510E+02 -0.25945397459E+02  0.54573599955E+02  0.41800000000E+01 0. -1.
        -11    1    1    2    0    0 -0.61903704413E+02 -0.50390680390E+01 -0.92794762363E+01  0.62797846348E+02  0.00000000000E+00 0.  1.
         11    1    1    2    0    0  0.20913945734E+02 -0.22684399017E+02  0.31865394237E+02  0.44355139891E+02  0.00000000000E+00 0. -1.
</event>
<event>
 6    1  0.5317355E-006  0.7236942E+02  0.7561462E-02  0.1352216E+00
         -2   -1    0    0    0  501 -0.00000000000E+00  0.00000000000E+00  0.27208193094E+02  0.27208193094E+02  0.00000000000E+00 0. -1.
          2   -1    0    0  501    0  0.00000000000E+00 -0.00000000000E+00 -0.46539556862E+03  0.46539556862E+03  0.00000000000E+00 0.  1.
          5    1    1    2  502    0  0.24854036892E+02  0.19571295272E+02 -0.20440823494E+03  0.20688392315E+03  0.41800000000E+01 0.  1.
         -5    1    1    2    0  502 -0.20577928341E+02 -0.28427423502E+02 -0.29300601181E+01  0.35463039831E+02  0.41800000000E+01 0.  1.
        -11    1    1    2    0    0 -0.24957651839E+02  0.35725797370E+02 -0.50307246932E+02  0.66558516186E+02  0.00000000000E+00 0. -1.
         11    1    1    2    0    0  0.20681543288E+02 -0.26869669140E+02 -0.18054183353E+03  0.18369828254E+03  0.00000000000E+00 0.  1.
</event>
<event>
 6    1  0.5317355E-006  0.1129449E+03  0.7561462E-02  0.1255212E+00
          1   -1    0    0  501    0  0.00000000000E+00  0.00000000000E+00  0.30920513626E+02  0.30920513626E+02  0.00000000000E+00 0. -1.
         -1   -1    0    0    0  501 -0.00000000000E+00 -0.00000000000E+00 -0.71276498204E+03  0.71276498204E+03  0.00000000000E+00 0.  1.
          5    1    1    2  502    0 -0.29155762192E+01 -0.16312855257E+02  0.26303327097E+01  0.17291641955E+02  0.41800000000E+01 0.  1.
         -5    1    1    2    0  502 -0.93320148976E+02  0.45288973929E+02 -0.35554427970E+03  0.37039026525E+03  0.41800000000E+01 0.  1.
        -11    1    1    2    0    0  0.54646565261E+02 -0.62035922374E+00 -0.55175363487E+02  0.77659208574E+02  0.00000000000E+00 0. -1.
         11    1    1    2    0    0  0.41589159934E+02 -0.28355759448E+02 -0.27375515794E+03  0.27834437989E+03  0.00000000000E+00 0.  1.
</event>
<event>
 6    1  0.5317355E-006  0.1480480E+03  0.7561462E-02  0.1202892E+00
          1   -1    0    0  501    0  0.00000000000E+00  0.00000000000E+00  0.25727525379E+03  0.25727525379E+03  0.00000000000E+00 0.  1.
         -1   -1    0    0    0  501 -0.00000000000E+00 -0.00000000000E+00 -0.11426313295E+03  0.11426313295E+03  0.00000000000E+00 0. -1.
          5    1    1    2  502    0  0.11202988594E+03  0.91379946052E+02  0.12318490423E+02  0.14515580419E+03  0.41800000000E+01 0.  1.
         -5    1    1    2    0  502 -0.28002449085E+02 -0.54400974776E+01  0.33904096889E+01  0.29029279929E+02  0.41800000000E+01 0.  1.
        -11    1    1    2    0    0 -0.15783725594E+02 -0.31874956172E+02 -0.80009591999E+01  0.36457566742E+02  0.00000000000E+00 0. -1.
         11    1    1    2    0    0 -0.68243711264E+02 -0.54064892402E+02  0.13530417993E+03  0.16089573588E+03  0.00000000000E+00 0.  1.
</event>
<event>
 6    1  0.5317355E-006  0.1304767E+03  0.7561462E-02  0.1226750E+00
         -1   -1    0    0    0  501 -0.00000000000E+00  0.00000000000E+00  0.18733752434E+03  0.18733752434E+03  0.00000000000E+00 0.  1.
          1   -1    0    0  501    0  0.00000000000E+00 -0.00000000000E+00 -0.11882235601E+03  0.11882235601E+03  0.00000000000E+00 0. -1.
          5    1    1    2  502    0  0.34503262381E+02 -0.10610886613E+03  0.74332159204E+02  0.13413541247E+03  0.41800000000E+01 0. -1.
         -5    1    1    2    0  502 -0.38426338510E+02  0.10328745643E+02 -0.23910538470E+00  0.40009949378E+02  0.41800000000E+01 0. -1.
        -11    1    1    2    0    0 -0.21268947974E+02  0.70341199087E+02 -0.38863243836E+02  0.83130043657E+02  0.00000000000E+00 0. -1.
         11    1    1    2    0    0  0.25192024103E+02  0.25438921397E+02  0.33285358350E+02  0.48884474844E+02  0.00000000000E+00 0.  1.
</event>
<event>
 6    1  0.5317355E-006  0.8533548E+02  0.7561462E-02  0.1314558E+00
         -2   -1    0    0    0  501 -0.00000000000E+00  0.00000000000E+00  0.37326433090E+02  0.37326433090E+02  0.00000000000E+00 0.  1.
          2   -1    0    0  501    0  0.00000000000E+00 -0.00000000000E+00 -0.40448367124E+03  0.40448367124E+03  0.00000000000E+00 0. -1.
          5    1    1    2  502    0  0.13267742213E+02  0.63392418072E+02 -0.17746245087E+03  0.18895773475E+03  0.41800000000E+01 0. -1.
         -5    1    1    2    0  502 -0.25941937147E+02 -0.10270356407E+02  0.67795302412E+01  0.29015491620E+02  0.41800000000E+01 0.  1.
        -11    1    1    2    0    0 -0.14972700404E+02 -0.46882903928E+02 -0.18788171767E+03  0.19422082348E+03  0.00000000000E+00 0.  1.
         11    1    1    2    0    0  0.27646895338E+02 -0.62391577376E+01 -0.85925998538E+01  0.29616054486E+02  0.00000000000E+00 0. -1.
</event>
<event>
 6    1  0.5317355E-006  0.8244417E+02  0.7561462E-02  0.1322255E+00
         -1   -1    0    0    0  501 -0.00000000000E+00  0.00000000000E+00  0.27541707314E+02  0.27541707314E+02  0.00000000000E+00 0.  1.
          1   -1    0    0  501    0  0.00000000000E+00 -0.00000000000E+00 -0.58496363322E+03  0.58496363322E+03  0.00000000000E+00 0. -1.
          5    1    1    2  502    0  0.96889290115E+01  0.23311050509E+02 -0.23590812416E+03  0.23729179477E+03  0.41800000000E+01 0.  1.
         -5    1    1    2    0  502 -0.28643143832E+02  0.34088031438E+02 -0.11052327191E+02  0.46065712979E+02  0.41800000000E+01 0.  1.
        -11    1    1    2    0    0 -0.22549057150E+02  0.14185712244E+01 -0.20918985993E+02  0.30790847628E+02  0.00000000000E+00 0.  1.
         11    1    1    2    0    0  0.41503271970E+02 -0.58817653171E+02 -0.28954248856E+03  0.29835698515E+03  0.00000000000E+00 0. -1.
</event>
<event>
 6    1  0.5317355E-006  0.9266903E+02  0.7561462E-02  0.1296514E+00
         -2   -1    0    0    0  501 -0.00000000000E+00  0.00000000000E+00  0.16770892748E+03  0.16770892748E+03  0.00000000000E+00 0.  1.
          2   -1    0    0  501    0  0.00000000000E+00 -0.00000000000E+00 -0.93422918144E+02  0.93422918144E+02  0.00000000000E+00 0. -1.
          5    1    1    2  502    0  0.79115780741E+02 -0.13899346373E+02 -0.15287962142E+02  0.81876081845E+02  0.41800000000E+01 0.  1.
         -5    1    1    2    0  502 -0.24046878085E+02 -0.12798087154E+02  0.57295860809E+02  0.63579331911E+02  0.41800000000E+01 0.  1.
        -11    1    1    2    0    0  0.86204413207E+01  0.54675028913E+01  0.46029638277E+02  0.47147992496E+02  0.00000000000E+00 0.  1.
         11    1    1    2    0    0 -0.63689343977E+02  0.21229930636E+02 -0.13751527609E+02  0.68528439371E+02  0.00000000000E+00 0. -1.
</event>
<event>
 6    1  0.5317355E-006  0.1274330E+03  0.7561462E-02  0.1231315E+00
         -2   -1    0    0    0  501 -0.00000000000E+00  0.00000000000E+00  0.71996850574E+02  0.71996850574E+02  0.00000000000E+00 0.  1.
          2   -1    0    0  501    0  0.00000000000E+00 -0.00000000000E+00 -0.27536979897E+03  0.27536979897E+03  0.00000000000E+00 0. -1.
          5    1    1    2  502    0  0.71179574635E+01 -0.30731919740E+02 -0.32158770679E+02  0.45241299064E+02  0.41800000000E+01 0. -1.
         -5    1    1    2    0  502 -0.38257190786E+02  0.10632757808E+03 -0.33074759955E+02  0.11781586758E+03  0.41800000000E+01 0. -1.
        -11    1    1    2    0    0  0.55450869498E+02 -0.49987398130E+02 -0.51347689866E+02  0.90609735428E+02  0.00000000000E+00 0.  1.
         11    1    1    2    0    0 -0.24311636175E+02 -0.25608260214E+02 -0.86791727894E+02  0.93699747468E+02  0.00000000000E+00 0. -1.
</event>
<event>
 6    1  0.5317355E-006  0.3155395E+03  0.7561462E-02  0.1077721E+00
         -1   -1    0    0    0  501 -0.00000000000E+00  0.00000000000E+00  0.94596231870E+03  0.94596231870E+03  0.00000000000E+00 0.  1.
          1   -1    0    0  501    0  0.00000000000E+00 -0.00000000000E+00 -0.11479372503E+03  0.11479372503E+03  0.00000000000E+00 0. -1.
          5    1    1    2  502    0 -0.70911436707E+02 -0.10092990887E+03  0.29242297510E+03  0.31740187007E+03  0.41800000000E+01 0. -1.
         -5    1    1    2    0  502 -0.90212780282E+02 -0.16421987089E+03  0.16778334783E+03  0.25154569352E+03  0.41800000000E+01 0. -1.
        -11    1    1    2    0    0  0.61541248106E+02  0.38266289973E+02  0.59188860805E+02  0.93567918702E+02  0.00000000000E+00 0. -1.
         11    1    1    2    0    0  0.99582968883E+02  0.22688348979E+03  0.31177340994E+03  0.39824056144E+03  0.00000000000E+00 0.  1.
</event>
<event>
 6    1  0.5317355E-006  0.1509779E+03  0.7561462E-02  0.1199276E+00
         -2   -1    0    0    0  501 -0.00000000000E+00  0.00000000000E+00  0.12165304346E+03  0.12165304346E+03  0.00000000000E+00 0. -1.
          2   -1    0    0  501    0  0.00000000000E+00 -0.00000000000E+00 -0.32420412032E+03  0.32420412032E+03  0.00000000000E+00 0.  1.
          5    1    1    2  502    0 -0.11191357197E+03 -0.31164177459E+02  0.38568084461E+02  0.12247784733E+03  0.41800000000E+01 0. -1.
         -5    1    1    2    0  502  0.24817751660E+02 -0.41477569873E+02 -0.78332494444E+01  0.49144092187E+02  0.41800000000E+01 0. -1.
        -11    1    1    2    0    0  0.99429935336E+02  0.75114848854E+02 -0.17640451604E+03  0.21597941068E+03  0.00000000000E+00 0. -1.
         11    1    1    2    0    0 -0.12334115030E+02 -0.24731015216E+01 -0.56881395838E+02  0.58255813592E+02  0.00000000000E+00 0.  1.
</event>
<event>
 6    1  0.5317355E-006  0.6367786E+02  0.7561462E-02  0.1383015E+00
          2   -1    0    0  501    0  0.00000000000E+00  0.00000000000E+00  0.17626348548E+03  0.17626348548E+03  0.00000000000E+00 0. -1.
         -2   -1    0    0    0  501 -0.00000000000E+00 -0.00000000000E+00 -0.13481820731E+03  0.13481820731E+03  0.00000000000E+00 0.  1.
          5    1    1    2  502    0 -0.17819105321E+02 -0.13051244197E+02 -0.11284090140E+03  0.11505823273E+03  0.41800000000E+01 0. -1.
         -5    1    1    2    0  502 -0.21896069160E+02  0.21656993424E+01  0.32304486828E+02  0.39308782321E+02  0.41800000000E+01 0. -1.
        -11    1    1    2    0    0  0.59501349104E+02 -0.78816947244E+00  0.40312334937E+02  0.71875698984E+02  0.00000000000E+00 0.  1.
         11    1    1    2    0    0 -0.19786174624E+02  0.11673714327E+02  0.81669357805E+02  0.84838978758E+02  0.00000000000E+00 0. -1.
</event>
<event>
 6    1  0.5317355E-006  0.9531179E+02  0.7561462E-02  0.1290475E+00
         -1   -1    0    0    0  501 -0.00000000000E+00  0.00000000000E+00  0.48512009482E+03  0.48512009482E+03  0.00000000000E+00 0.  1.
          1   -1    0    0  501    0  0.00000000000E+00 -0.00000000000E+00 -0.33315982049E+02  0.33315982049E+02  0.00000000000E+00 0. -1.
          5    1    1    2  502    0  0.55107515078E+01  0.29707750923E+02  0.27820949563E+03  0.27987660621E+03  0.41800000000E+01 0. -1.
         -5    1    1    2    0  502 -0.44765224022E+02 -0.41814561335E+02  0.74108763168E+02  0.96239098082E+02  0.41800000000E+01 0. -1.
        -11    1    1    2    0    0 -0.15857298645E+02  0.35477285739E+02  0.56704909540E+02  0.68742552249E+02  0.00000000000E+00 0.  1.
         11    1    1    2    0    0  0.55111771159E+02 -0.23370475327E+02  0.42780944436E+02  0.73577820327E+02  0.00000000000E+00 0. -1.
</event>
<event>
 6    1  0.5317355E-006  0.1306585E+03  0.7561462E-02  0.1226482E+00
         -1   -1    0    0    0  501 -0.00000000000E+00  0.00000000000E+00  0.23551297242E+02  0.23551297242E+02  0.00000000000E+00 0.  1.
          1   -1    0    0  501    0  0.00000000000E+00 -0.00000000000E+00 -0.78502800273E+03  0.78502800273E+03  0.00000000000E+00 0. -1.
          5    1    1    2  502    0  0.99083357296E+01 -0.91635078657E+02 -0.20226343799E+03  0.22231314289E+03  0.41800000000E+01 0. -1.
         -5    1    1    2    0  502  0.41298535406E+02  0.34915473748E+02 -0.11047666803E+03  0.12307406678E+03  0.41800000000E+01 0. -1.
        -11    1    1    2    0    0  0.19680533745E+02 -0.55611206196E+01 -0.81185297896E+02  0.83721574671E+02  0.00000000000E+00 0.  1.
         11    1    1    2    0    0 -0.70887404881E+02  0.62280725528E+02 -0.36755130157E+03  0.37947051562E+03  0.00000000000E+00 0. -1.
</event>
<event>
 6    1  0.5317355E-006  0.2224137E+03  0.7561462E-02  0.1132096E+00
          2   -1    0    0  501    0  0.00000000000E+00  0.00000000000E+00  0.57309565509E+03  0.57309565509E+03  0.00000000000E+00 0. -1.
         -2   -1    0    0    0  501 -0.00000000000E+00 -0.00000000000E+00 -0.10114959177E+03  0.10114959177E+03  0.00000000000E+00 0.  1.
          5    1    1    2  502    0  0.98417896205E+00 -0.88910147929E+02  0.16570795023E+03  0.18810257888E+03  0.41800000000E+01 0. -1.
         -5    1    1    2    0  502  0.38669446500E+02 -0.12012510766E+03  0.37825287165E+02  0.13180892357E+03  0.41800000000E+01 0. -1.
        -11    1    1    2    0    0 -0.32717751855E+02  0.16056482477E+02  0.27928608750E+02  0.45915891614E+02  0.00000000000E+00 0.  1.
         11    1    1    2    0    0 -0.69358736069E+01  0.19297877311E+03  0.24048421717E+03  0.30841785280E+03  0.00000000000E+00 0. -1.
</event>
<event>
 6    1  0.5317355E-006  0.1713378E+03  0.7561462E-02  0.1176460E+00
         -1   -1    0    0    0  501 -0.00000000000E+00  0.00000000000E+00  0.90313878048E+02  0.90313878048E+02  0.00000000000E+00 0.  1.
          1   -1    0    0  501    0  0.00000000000E+00 -0.00000000000E+00 -0.42977400360E+03  0.42977400360E+03  0.00000000000E+00 0. -1.
          5    1    1    2  502    0  0.65619837615E+02 -0.60321713377E+02 -0.15527274319E+03  0.17908592734E+03  0.41800000000E+01 0. -1.
         -5    1    1    2    0  502  0.66169178046E+02 -0.35421623675E+02  0.51041397522E+01  0.75343056679E+02  0.41800000000E+01 0. -1.
        -11    1    1    2    0    0 -0.57688113693E+02  0.85971056974E+02 -0.70312468143E+02  0.12515104584E+03  0.00000000000E+00 0. -1.
         11    1    1    2    0    0 -0.74100901968E+02  0.97722800777E+01 -0.11897905397E+03  0.14050785179E+03  0.00000000000E+00 0.  1.
</event>
<event>
 6    1  0.5317355E-006  0.7022645E+02  0.7561462E-02  0.1359325E+00
         -1   -1    0    0    0  501 -0.00000000000E+00  0.00000000000E+00  0.21433156363E+03  0.21433156363E+03  0.00000000000E+00 0.  1.
          1   -1    0    0  501    0  0.00000000000E+00 -0.00000000000E+00 -0.55064841836E+02  0.55064841836E+02  0.00000000000E+00 0. -1.
          5    1    1    2  502    0  0.39027269111E+02 -0.20798804193E+02 -0.91794446420E+00  0.44430091291E+02  0.41800000000E+01 0. -1.
         -5    1    1    2    0  502 -0.21229803878E+02  0.27358992592E+02  0.11776524755E+03  0.12282241236E+03  0.41800000000E+01 0.  1.
        -11    1    1    2    0    0 -0.39291362487E+02 -0.36351040434E+01  0.61622310523E+02  0.73173316869E+02  0.00000000000E+00 0.  1.
         11    1    1    2    0    0  0.21493897254E+02 -0.29250843555E+01 -0.19202891816E+02  0.28970584940E+02  0.00000000000E+00 0. -1.
</event>
<event>
 6    1  0.5317355E-006  0.1524995E+03  0.7561462E-02  0.1197435E+00
          1   -1    0    0  501    0  0.00000000000E+00  0.00000000000E+00  0.24495052446E+02  0.24495052446E+02  0.00000000000E+00 0. -1.
         -1   -1    0    0    0  501 -0.00000000000E+00 -0.00000000000E+00 -0.13612613521E+04  0.13612613521E+04  0.00000000000E+00 0.  1.
          5    1    1    2  502    0 -0.23607258284E+02 -0.95945473926E+02 -0.25947577917E+03  0.27768325298E+03  0.41800000000E+01 0. -1.
         -5    1    1    2    0  502 -0.79313853818E+02  0.44432335525E+02 -0.65125848865E+03  0.65758650480E+03  0.41800000000E+01 0.  1.
        -11    1    1    2    0    0  0.29363472190E+02  0.14278652643E+02 -0.25148865520E+02  0.41213576129E+02  0.00000000000E+00 0. -1.
         11    1    1    2    0    0  0.73557639912E+02  0.37234485757E+02 -0.40088316634E+03  0.40927307067E+03  0.00000000000E+00 0.  1.
</event>
<event>
 6    1  0.5317355E-006  0.7967329E+02  0.7561462E-02  0.1329981E+00
          3   -1    0    0  501    0  0.00000000000E+00  0.00000000000E+00  0.52534299566E+02  0.52534299566E+02  0.00000000000E+00 0. -1.
         -3   -1    0    0    0  501 -0.00000000000E+00 -0.00000000000E+00 -0.66889565416E+03  0.66889565416E+03  0.00000000000E+00 0.  1.
          5    1    1    2  502    0 -0.49599911684E+02 -0.28771129341E+02 -0.12632055178E+03  0.13878862823E+03  0.41800000000E+01 0. -1.
         -5    1    1    2    0  502  0.66267468589E+01  0.22956795923E+02 -0.50098686680E+03  0.50157376462E+03  0.41800000000E+01 0.  1.
        -11    1    1    2    0    0  0.33674013325E+02  0.34038317943E+02 -0.35343162155E+01  0.48010807668E+02  0.00000000000E+00 0.  1.
         11    1    1    2    0    0  0.92991515002E+01 -0.28223984525E+02  0.14480380210E+02  0.33056753200E+02  0.00000000000E+00 0. -1.
</event>
<event>
 6    1  0.5317355E-006  0.1350899E+03  0.7561462E-02  0.1220093E+00
          1   -1    0    0  501    0  0.00000000000E+00  0.00000000000E+00  0.60581355084E+02  0.60581355084E+02  0.00000000000E+00 0. -1.
         -1   -1    0    0    0  501 -0.00000000000E+00 -0.00000000000E+00 -0.30922601765E+03  0.30922601765E+03  0.00000000000E+00 0.  1.
          5    1    1    2  502    0  0.28188471058E+02  0.16084364205E+02 -0.14757224166E+02  0.35896305346E+02  0.41800000000E+01 0. -1.
         -5    1    1    2    0  502 -0.92086895018E+02 -0.68649414242E+02 -0.11181760641E+03  0.16035394542E+03  0.41800000000E+01 0. -1.
        -11    1    1    2    0    0  0.56958856386E+02  0.77759306225E+02 -0.10392132519E+03  0.14174082988E+03  0.00000000000E+00 0.  1.
         11    1    1    2    0    0  0.69395675745E+01 -0.25194256188E+02 -0.18148506800E+02  0.31816292085E+02  0.00000000000E+00 0. -1.
</event>
<event>
 6    1  0.5317355E-006  0.8650978E+02  0.7561462E-02  0.1311531E+00
          1   -1    0    0  501    0  0.00000000000E+00  0.00000000000E+00  0.34245756800E+03  0.34245756800E+03  0.00000000000E+00 0. -1.
         -1   -1    0    0    0  501 -0.00000000000E+00 -0.00000000000E+00 -0.41046334528E+02  0.41046334528E+02  0.00000000000E+00 0.  1.
          5    1    1    2  502    0 -0.14747454357E+02 -0.16769555022E+02 -0.15005052847E+02  0.27227364848E+02  0.41800000000E+01 0. -1.
         -5    1    1    2    0  502 -0.18009975156E+02  0.48552164917E+02  0.16675109017E+03  0.17465700786E+03  0.41800000000E+01 0. -1.
        -11    1    1    2    0    0 -0.30155560323E+02 -0.10082598936E+02  0.75784919765E+02  0.82184978454E+02  0.00000000000E+00 0. -1.
         11    1    1    2    0    0  0.62912989837E+02 -0.21700010959E+02  0.73880276383E+02  0.99434551360E+02  0.00000000000E+00 0.  1.
</event>
<event>
 6    1  0.5317355E-006  0.1046745E+03  0.7561462E-02  0.1270762E+00
         -1   -1    0    0    0  501 -0.00000000000E+00  0.00000000000E+00  0.48357099563E+02  0.48357099563E+02  0.00000000000E+00 0.  1.
          1   -1    0    0  501    0  0.00000000000E+00 -0.00000000000E+00 -0.27747898537E+03  0.27747898537E+03  0.00000000000E+00 0. -1.
          5    1    1    2  502    0  0.41056645222E+02 -0.35822675576E+02 -0.69079139757E+02  0.88081281507E+02  0.41800000000E+01 0. -1.
         -5    1    1    2    0  502 -0.45456173561E+02  0.55493931334E+02 -0.30039430330E+02  0.77882474949E+02  0.41800000000E+01 0.  1.
        -11    1    1    2    0    0 -0.22561039348E+02  0.23097501666E+02 -0.17950696252E+02  0.36942151746E+02  0.00000000000E+00 0.  1.
         11    1    1    2    0    0  0.26960567687E+02 -0.42768757423E+02 -0.11205261946E+03  0.12293017673E+03  0.00000000000E+00 0. -1.
</event>
<event>
 6    1  0.5317355E-006  0.1362830E+03  0.7561462E-02  0.1218420E+00
          1   -1    0    0  501    0  0.00000000000E+00  0.00000000000E+00  0.59216851472E+03  0.59216851472E+03  0.00000000000E+00 0. -1.
         -1   -1    0    0    0  501 -0.00000000000E+00 -0.00000000000E+00 -0.75464243275E+02  0.75464243275E+02  0.00000000000E+00 0.  1.
          5    1    1    2  502    0  0.44482804046E+02 -0.11634193586E+03 -0.21625496508E+01  0.12464475487E+03  0.41800000000E+01 0. -1.
         -5    1    1    2    0  502 -0.48607471094E+01  0.31107461251E+00  0.59156033712E+02  0.59503212976E+02  0.41800000000E+01 0. -1.
        -11    1    1    2    0    0  0.93448941204E+01  0.80454061021E+02  0.33781473585E+03  0.34738880053E+03  0.00000000000E+00 0. -1.
         11    1    1    2    0    0 -0.48966951057E+02  0.35576800225E+02  0.12189605153E+03  0.13609598962E+03  0.00000000000E+00 0.  1.
</event>
<event>
 6    1  0.5317355E-006  0.1910656E+03  0.7561462E-02  0.1157504E+00
          2   -1    0    0  501    0  0.00000000000E+00  0.00000000000E+00  0.90328095468E+03  0.90328095468E+03  0.00000000000E+00 0. -1.
         -2   -1    0    0    0  501 -0.00000000000E+00 -0.00000000000E+00 -0.49799071580E+02  0.49799071580E+02  0.00000000000E+00 0.  1.
          5    1    1    2  502    0 -0.69240747669E+02  0.34469897039E+02  0.28009772225E+03  0.29061084176E+03  0.41800000000E+01 0.  1.
         -5    1    1    2    0  502 -0.51932477484E+02  0.98121215018E+02  0.10789496568E+03  0.15486623606E+03  0.41800000000E+01 0.  1.
        -11    1    1    2    0    0  0.82415847810E+02 -0.36832476630E+02  0.14430633705E+03  0.17021551697E+03  0.00000000000E+00 0.  1.
         11    1    1    2    0    0  0.38757377342E+02 -0.95758635427E+02  0.32118285812E+03  0.33738743146E+03  0.00000000000E+00 0. -1.
</event>
<event>
 6    1  0.5317355E-006  0.1271220E+03  0.7561462E-02  0.1231790E+00
          4   -1    0    0  501    0  0.00000000000E+00  0.00000000000E+00  0.94169370260E+02  0.94169370260E+02  0.00000000000E+00 0. -1.
         -4   -1    0    0    0  501 -0.00000000000E+00 -0.00000000000E+00 -0.19937482935E+03  0.19937482935E+03  0.00000000000E+00 0.  1.
          5    1    1    2  502    0 -0.66136017455E+01  0.66998113453E+02 -0.33529900046E+02  0.75327375711E+02  0.41800000000E+01 0.  1.
         -5    1    1    2    0  502  0.77815698422E+02 -0.24615762360E+02 -0.21654802268E+02  0.84543607320E+02  0.41800000000E+01 0.  1.
        -11    1    1    2    0    0 -0.75561953204E+02 -0.53857866500E+02 -0.11811396314E+02  0.93540299544E+02  0.00000000000E+00 0. -1.
         11    1    1    2    0    0  0.43598565280E+01  0.11475515407E+02 -0.38209360462E+02  0.40132917035E+02  0.00000000000E+00 0.  1.
</event>
<event>
 6    1  0.5317355E-006  0.8785426E+02  0.7561462E-02  0.1308133E+00
          2   -1    0    0  501    0  0.00000000000E+00  0.00000000000E+00  0.10644789387E+02  0.10644789387E+02  0.00000000000E+00 0.  1.
         -2   -1    0    0    0  501 -0.00000000000E+00 -0.00000000000E+00 -0.12819488870E+04  0.12819488870E+04  0.00000000000E+00 0. -1.
          5    1    1    2  502    0 -0.54125873690E+01  0.14904556238E+02 -0.92099690803E+01  0.18807919320E+02  0.41800000000E+01 0.  1.
         -5    1    1    2    0  502  0.29489176266E+02 -0.49384950785E+02 -0.71545998000E+03  0.71778056554E+03  0.41800000000E+01 0.  1.
        -11    1    1    2    0    0  0.65677563370E+01  0.60854416506E+02 -0.33335328736E+03  0.33892596481E+03  0.00000000000E+00 0. -1.
         11    1    1    2    0    0 -0.30644345234E+02 -0.26374021959E+02 -0.21328086117E+03  0.21707922672E+03  0.00000000000E+00 0.  1.
</event>
<event>
 6    1  0.5317355E-006  0.1144630E+03  0.7561462E-02  0.1252521E+00
          2   -1    0    0  501    0  0.00000000000E+00  0.00000000000E+00  0.21260981190E+03  0.21260981190E+03  0.00000000000E+00 0. -1.
         -2   -1    0    0    0  501 -0.00000000000E+00 -0.00000000000E+00 -0.76609387238E+02  0.76609387238E+02  0.00000000000E+00 0.  1.
          5    1    1    2  502    0  0.80157131298E+01 -0.49462730766E+02  0.22264090272E+02  0.54990685643E+02  0.41800000000E+01 0.  1.
         -5    1    1    2    0  502 -0.52075280132E+02  0.60368912213E+02 -0.57259357348E+00  0.79837589054E+02  0.41800000000E+01 0.  1.
        -11    1    1    2    0    0  0.57455722864E+02 -0.37791593574E+02  0.99362343379E+02  0.12083972822E+03  0.00000000000E+00 0. -1.
         11    1    1    2    0    0 -0.13396155862E+02  0.26885412127E+02  0.14946584588E+02  0.33551196223E+02  0.00000000000E+00 0.  1.
</event>
<event>
 6    1  0.5317355E-006  0.1018560E+03  0.7561462E-02  0.1276441E+00
          2   -1    0    0  501    0  0.00000000000E+00  0.00000000000E+00  0.26608070434E+03  0.26608070434E+03  0.00000000000E+00 0. -1.
         -2   -1    0    0    0  501 -0.00000000000E+00 -0.00000000000E+00 -0.61716124591E+02  0.61716124591E+02  0.00000000000E+00 0.  1.
          5    1    1    2  502    0 -0.84832535972E+02  0.70227757648E+01  0.60796252461E+02  0.10468779897E+03  0.41800000000E+01 0. -1.
         -5    1    1    2    0  502  0.37271924021E+02 -0.85202506297E+01 -0.78241199220E+01  0.39248952134E+02  0.41800000000E+01 0. -1.
        -11    1    1    2    0    0  0.26812281447E+02 -0.31301416967E+02  0.18067664501E+02  0.45001307104E+02  0.00000000000E+00 0.  1.
         11    1    1    2    0    0  0.20748330504E+02  0.32798891832E+02  0.13332478271E+03  0.13885877073E+03  0.00000000000E+00 0. -1.
</event>
<event>
 6    1  0.5317355E-006  0.1387136E+03  0.7561462E-02  0.1215070E+00
         -2   -1    0    0    0  501 -0.00000000000E+00  0.00000000000E+00  0.12233163147E+03  0.12233163147E+03  0.00000000000E+00 0.  1.
          2   -1    0    0  501    0  0.00000000000E+00 -0.00000000000E+00 -0.18956677061E+03  0.18956677061E+03  0.00000000000E+00 0. -1.
          5    1    1    2  502    0  0.28749942075E+02  0.37244118799E+02 -0.64778824990E+02  0.80171392164E+02  0.41800000000E+01 0.  1.
         -5    1    1    2    0  502  0.74032884583E+02 -0.51692115301E+02  0.10966360790E+02  0.91053150703E+02  0.41800000000E+01 0.  1.
        -11    1    1    2    0    0 -0.35424221187E+00  0.35275303229E+02 -0.69030184536E+01  0.35946128709E+02  0.00000000000E+00 0.  1.
         11    1    1    2    0    0 -0.10242858445E+03 -0.20827306727E+02 -0.65196564860E+01  0.10472773051E+03  0.00000000000E+00 0. -1.
</event>
<event>
 6    1  0.5317355E-006  0.1305296E+03  0.7561462E-02  0.1226672E+00
          1   -1    0    0  501    0  0.00000000000E+00  0.00000000000E+00  0.19601855426E+03  0.19601855426E+03  0.00000000000E+00 0. -1.
         -1   -1    0    0    0  501 -0.00000000000E+00 -0.00000000000E+00 -0.10483623519E+03  0.10483623519E+03  0.00000000000E+00 0.  1.
          5    1    1    2  502    0  0.18303810154E+02  0.74208773669E+02  0.69587068902E+02  0.10344952447E+03  0.41800000000E+01 0. -1.
         -5    1    1    2    0  502  0.51057250271E+02 -0.14009364167E+02 -0.24017446440E+02  0.58287350455E+02  0.41800000000E+01 0. -1.
        -11    1    1    2    0    0 -0.34715239010E+02  0.22752444798E+02  0.13158280620E+02  0.43542644760E+02  0.00000000000E+00 0.  1.
         11    1    1    2    0    0 -0.34645821415E+02 -0.82951854301E+02  0.32454415990E+02  0.95575269765E+02  0.00000000000E+00 0. -1.
</event>
<event>
 6    1  0.5317355E-006  0.1162057E+03  0.7561462E-02  0.1249491E+00
          2   -1    0    0  501    0  0.00000000000E+00  0.00000000000E+00  0.50036638113E+03  0.50036638113E+03  0.00000000000E+00 0. -1.
         -2   -1    0    0    0  501 -0.00000000000E+00 -0.00000000000E+00 -0.40938847715E+02  0.40938847715E+02  0.00000000000E+00 0.  1.
          5    1    1    2  502    0  0.75093241189E+02  0.14155148888E+01  0.44448081660E+02  0.87373353592E+02  0.41800000000E+01 0. -1.
         -5    1    1    2    0  502  0.14266342754E+02  0.25289560734E+02  0.20336643635E+03  0.20547133681E+03  0.41800000000E+01 0. -1.
        -11    1    1    2    0    0  0.16930611866E+02 -0.11533185789E+02  0.53972973184E+02  0.57729904096E+02  0.00000000000E+00 0. -1.
         11    1    1    2    0    0 -0.10629019581E+03 -0.15171889834E+02  0.15764004222E+03  0.19073063435E+03  0.00000000000E+00 0.  1.
</event>
<event>
 6    1  0.5317355E-006  0.1457741E+03  0.7561462E-02  0.1205764E+00
         -1   -1    0    0    0  501 -0.00000000000E+00  0.00000000000E+00  0.17359514904E+03  0.17359514904E+03  0.00000000000E+00 0.  1.
          1   -1    0    0  501    0  0.00000000000E+00 -0.00000000000E+00 -0.13610429730E+03  0.13610429730E+03  0.00000000000E+00 0. -1.
          5    1    1    2  502    0 -0.52947287066E+02  0.73335960135E+02  0.29566527998E+02  0.95253505103E+02  0.41800000000E+01 0.  1.
         -5    1    1    2    0  502  0.59816944401E+02  0.35477502169E+02 -0.15162376412E+02  0.71302805387E+02  0.41800000000E+01 0.  1.
        -11    1    1    2    0    0 -0.36465713568E+02 -0.87680176030E+02 -0.80043539343E+01  0.95297592922E+02  0.00000000000E+00 0. -1.
         11    1    1    2    0    0  0.29596056233E+02 -0.21133286273E+02  0.31091054088E+02  0.47845542923E+02  0.00000000000E+00 0.  1.
</event>
<event>
 6    1  0.5317355E-006  0.1439932E+03  0.7561462E-02  0.1208055E+00
         -2   -1    0    0    0  501 -0.00000000000E+00  0.00000000000E+00  0.26282078166E+03  0.26282078166E+03  0.00000000000E+00 0. -1.
          2   -1    0    0  501    0  0.00000000000E+00 -0.00000000000E+00 -0.20086386616E+03  0.20086386616E+03  0.00000000000E+00 0.  1.
          5    1    1    2  502    0  0.61695323308E+02  0.80607429487E+02  0.85767178992E+01  0.10195539758E+03  0.41800000000E+01 0.  1.
         -5    1    1    2    0  502 -0.76412365390E+02 -0.36804559914E+02  0.17986521450E+03  0.19890297384E+03  0.41800000000E+01 0. -1.
        -11    1    1    2    0    0  0.49903719340E+02 -0.43631920276E+02 -0.93363616613E+02  0.11450279725E+03  0.00000000000E+00 0.  1.
         11    1    1    2    0    0 -0.35186677258E+02 -0.17094929659E+00 -0.33121400289E+02  0.48323479151E+02  0.00000000000E+00 0. -1.
</event>
<event>
 6    1  0.5317355E-006  0.2075139E+03  0.7561462E-02  0.1143550E+00
         -2   -1    0    0    0  501 -0.00000000000E+00  0.00000000000E+00  0.47950422383E+03  0.47950422383E+03  0.00000000000E+00 0.  1.
          2   -1    0    0  501    0  0.00000000000E+00 -0.00000000000E+00 -0.14193769265E+03  0.14193769265E+03  0.00000000000E+00 0. -1.
          5    1    1    2  502    0  0.18352234601E+03 -0.86818310113E+02  0.21070762313E+03  0.29263124458E+03  0.41800000000E+01 0. -1.
         -5    1    1    2    0  502  0.19221882612E+01 -0.29575216440E+01  0.10220470103E+03  0.10235094067E+03  0.41800000000E+01 0. -1.
        -11    1    1    2    0    0 -0.12501157948E+03  0.67614016247E+02  0.58549106957E+02  0.15371255031E+03  0.00000000000E+00 0.  1.
         11    1    1    2    0    0 -0.60432954798E+02  0.22161815510E+02 -0.33894899940E+02  0.72747180937E+02  0.00000000000E+00 0. -1.
</event>
<event>
 6    1  0.5317355E-006  0.1237805E+03  0.7561462E-02  0.1236988E+00
         -1   -1    0    0    0  501 -0.00000000000E+00  0.00000000000E+00  0.60556202619E+02  0.60556202619E+02  0.00000000000E+00 0.  1.
          1   -1    0    0  501    0  0.00000000000E+00 -0.00000000000E+00 -0.44817416860E+03  0.44817416860E+03  0.00000000000E+00 0. -1.
          5    1    1    2  502    0 -0.49996700694E+02 -0.47890516670E+02 -0.12102942727E+03  0.13949468209E+03  0.41800000000E+01 0.  1.
         -5    1    1    2    0  502 -0.41918148378E+02  0.62929951072E+01  0.23342809726E+02  0.48570486067E+02  0.41800000000E+01 0.  1.
        -11    1    1    2    0    0  0.48977270310E+02  0.69041876769E+02 -0.20226459341E+03  0.21926358453E+03  0.00000000000E+00 0.  1.
         11    1    1    2    0    0  0.42937578762E+02 -0.27444355207E+02 -0.87666755031E+02  0.10140161853E+03  0.00000000000E+00 0. -1.
</event>
<event>
 6    1  0.5317355E-006  0.1290598E+03  0.7561462E-02  0.1228857E+00
          2   -1    0    0  501    0  0.00000000000E+00  0.00000000000E+00  0.67489153990E+03  0.67489153990E+03  0.00000000000E+00 0. -1.
         -2   -1    0    0    0  501 -0.00000000000E+00 -0.00000000000E+00 -0.85259003834E+02  0.85259003834E+02  0.00000000000E+00 0.  1.
          5    1    1    2  502    0 -0.43037726163E+02 -0.30116354058E+02  0.41295893139E+02  0.66948217640E+02  0.41800000000E+01 0. -1.
         -5    1    1    2    0  502  0.41573485419E+02 -0.66137654465E+02 -0.41468186765E+02  0.88541667827E+02  0.41800000000E+01 0.  1.
        -11    1    1    2    0    0 -0.34897740782E+02  0.80166189512E+02  0.47954565638E+03  0.48745103016E+03  0.00000000000E+00 0. -1.
         11    1    1    2    0    0  0.36361981526E+02  0.16087819011E+02  0.11025917332E+03  0.11720962811E+03  0.00000000000E+00 0.  1.
</event>
<event>
 6    1  0.5317355E-006  0.9564993E+02  0.7561462E-02  0.1289719E+00
         -2   -1    0    0    0  501 -0.00000000000E+00  0.00000000000E+00  0.93383623282E+02  0.93383623282E+02  0.00000000000E+00 0.  1.
          2   -1    0    0  501    0  0.00000000000E+00 -0.00000000000E+00 -0.15691414200E+03  0.15691414200E+03  0.00000000000E+00 0. -1.
          5    1    1    2  502    0  0.99367172254E+01  0.29783323408E+02  0.34379970295E+02  0.46746544899E+02  0.41800000000E+01 0. -1.
         -5    1    1    2    0  502 -0.60047763488E+02 -0.39490179392E+02 -0.53523791863E+02  0.89707730234E+02  0.41800000000E+01 0. -1.
        -11    1    1    2    0    0 -0.18480098384E+02  0.29083977873E+01  0.14116133521E+02  0.23435828118E+02  0.00000000000E+00 0.  1.
         11    1    1    2    0    0  0.68591144647E+02  0.67984581961E+01 -0.58502830672E+02  0.90407662034E+02  0.00000000000E+00 0. -1.
</event>
<event>
 6    1  0.5317355E-006  0.1931034E+03  0.7561462E-02  0.1155692E+00
          3   -1    0    0  501    0  0.00000000000E+00  0.00000000000E+00  0.72023187920E+02  0.72023187920E+02  0.00000000000E+00 0. -1.
         -3   -1    0    0    0  501 -0.00000000000E+00 -0.00000000000E+00 -0.58128575107E+03  0.58128575107E+03  0.00000000000E+00 0.  1.
          5    1    1    2  502    0 -0.30089216266E+02  0.41088953126E+02 -0.50708259592E+02  0.71989325565E+02  0.41800000000E+01 0.  1.
         -5    1    1    2    0  502  0.12457777001E+03  0.10164090198E+03 -0.17397741383E+03  0.23693059461E+03  0.41800000000E+01 0.  1.
        -11    1    1    2    0    0 -0.29670385028E+02 -0.20964857235E+02 -0.13969525976E+03  0.14434203333E+03  0.00000000000E+00 0.  1.
         11    1    1    2    0    0 -0.64818168719E+02 -0.12176499787E+03 -0.14488162996E+03  0.20004698549E+03  0.00000000000E+00 0. -1.
</event>
<event>
 6    1  0.5317355E-006  0.1070123E+03  0.7561462E-02  0.1266205E+00
         -1   -1    0    0    0  501 -0.00000000000E+00  0.00000000000E+00  0.22241849236E+03  0.22241849236E+03  0.00000000000E+00 0.  1.
          1   -1    0    0  501    0  0.00000000000E+00 -0.00000000000E+00 -0.62841699390E+02  0.62841699390E+02  0.00000000000E+00 0. -1.
          5    1    1    2  502    0  0.78826462847E+02 -0.39992450756E+02  0.82980660121E+02  0.12131063316E+03  0.41800000000E+01 0.  1.
         -5    1    1    2    0  502 -0.35059944402E+02  0.26798819171E+02  0.32777804682E+02  0.55129241698E+02  0.41800000000E+01 0.  1.
        -11    1    1    2    0    0 -0.40278330896E+02 -0.21964012068E+02 -0.75299927019E+01  0.46491532089E+02  0.00000000000E+00 0. -1.
         11    1    1    2    0    0 -0.34881875492E+01  0.35157643653E+02  0.51348320874E+02  0.62328784813E+02  0.00000000000E+00 0.  1.
</event>
<event>
 6    1  0.5317355E-006  0.9839346E+02  0.7561462E-02  0.1283711E+00
         -3   -1    0    0    0  501 -0.00000000000E+00  0.00000000000E+00  0.11143953760E+03  0.11143953760E+03  0.00000000000E+00 0.  1.
          3   -1    0    0  501    0  0.00000000000E+00 -0.00000000000E+00 -0.14035903408E+03  0.14035903408E+03  0.00000000000E+00 0. -1.
          5    1    1    2  502    0  0.11021610745E+02 -0.25062180181E+02  0.34083159480E+02  0.43917228271E+02  0.41800000000E+01 0.  1.
         -5    1    1    2    0  502 -0.70892819547E+02  0.44898059084E+02 -0.48243703972E+02  0.96884234763E+02  0.41800000000E+01 0.  1.
        -11    1    1    2    0    0  0.50348378256E+02 -0.38991024725E+02  0.22911044603E+02  0.67676991415E+02  0.00000000000E+00 0.  1.
         11    1    1    2    0    0  0.95228305449E+01  0.19155145822E+02 -0.37669996596E+02  0.43320117227E+02  0.00000000000E+00 0. -1.
</event>
<event>
 6    1  0.5598551E-006  0.2716355E+03  0.7561462E-02  0.1100347E+00
         -1   -1    0    0    0  501 -0.00000000000E+00  0.00000000000E+00  0.54409572418E+02  0.54409572418E+02  0.00000000000E+00 0.  1.
          1   -1    0    0  501    0  0.00000000000E+00 -0.00000000000E+00 -0.15657031101E+04  0.15657031101E+04  0.00000000000E+00 0. -1.
          5    1    1    2  502    0 -0.22205061305E+02  0.13223852431E+03 -0.18037041681E+03  0.22479112909E+03  0.41800000000E+01 0. -1.
         -5    1    1    2    0  502 -0.67526887146E+02  0.12079571143E+03 -0.46753887374E+03  0.48760799341E+03  0.41800000000E+01 0. -1.
        -11    1    1    2    0    0  0.73331618254E+01 -0.64428606424E+02 -0.32333994390E+03  0.32977801611E+03  0.00000000000E+00 0. -1.
         11    1    1    2    0    0  0.82398786626E+02 -0.18860562931E+03 -0.54004430325E+03  0.57793554392E+03  0.00000000000E+00 0.  1.
</event>
<event>
 6    1  0.5317355E-006  0.1376673E+03  0.7561462E-02  0.1216503E+00
          1   -1    0    0  501    0  0.00000000000E+00  0.00000000000E+00  0.19373587649E+03  0.19373587649E+03  0.00000000000E+00 0. -1.
         -1   -1    0    0    0  501 -0.00000000000E+00 -0.00000000000E+00 -0.12370617537E+03  0.12370617537E+03  0.00000000000E+00 0.  1.
          5    1    1    2  502    0  0.10967968690E+03  0.77948903303E+01  0.44291496590E+01  0.11012485550E+03  0.41800000000E+01 0.  1.
         -5    1    1    2    0  502 -0.21338822532E+02  0.48256080754E+02 -0.20167419188E+01  0.52967294860E+02  0.41800000000E+01 0.  1.
        -11    1    1    2    0    0 -0.65051556609E+02 -0.17557147612E+02  0.82905160619E+02  0.10683269213E+03  0.00000000000E+00 0. -1.
         11    1    1    2    0    0 -0.23289307756E+02 -0.38493823473E+02 -0.15287867248E+02  0.47517209370E+02  0.00000000000E+00 0.  1.
</event>
<event>
 6    1  0.5317355E-006  0.4044670E+02  0.7561462E-02  0.1504950E+00
          2   -1    0    0  501    0  0.00000000000E+00  0.00000000000E+00  0.13708634349E+03  0.13708634349E+03  0.00000000000E+00 0. -1.
         -2   -1    0    0    0  501 -0.00000000000E+00 -0.00000000000E+00 -0.92981480626E+02  0.92981480626E+02  0.00000000000E+00 0.  1.
          5    1    1    2  502    0  0.58348814513E+01 -0.70653484109E+01 -0.55141222281E+02  0.56053472545E+02  0.41800000000E+01 0.  1.
         -5    1    1    2    0  502 -0.17465542673E+02 -0.27912234017E+02  0.67153135186E+02  0.74907636153E+02  0.41800000000E+01 0.  1.
        -11    1    1    2    0    0  0.34467135058E+01  0.22141772389E+02 -0.28714152091E+02  0.36423075773E+02  0.00000000000E+00 0.  1.
         11    1    1    2    0    0  0.81839477160E+01  0.12835810039E+02  0.60807102051E+02  0.62683639647E+02  0.00000000000E+00 0. -1.
</event>
<event>
 6    1  0.5317355E-006  0.1817168E+03  0.7561462E-02  0.1166152E+00
         -2   -1    0    0    0  501 -0.00000000000E+00  0.00000000000E+00  0.64346140394E+02  0.64346140394E+02  0.00000000000E+00 0.  1.
          2   -1    0    0  501    0  0.00000000000E+00 -0.00000000000E+00 -0.67581581534E+03  0.67581581534E+03  0.00000000000E+00 0. -1.
          5    1    1    2  502    0  0.17471370933E+02  0.38800916600E+02  0.68685891863E+01  0.43306002455E+02  0.41800000000E+01 0. -1.
         -5    1    1    2    0  502  0.85903356440E+02  0.95613638324E+02 -0.23057623042E+03  0.26401557704E+03  0.41800000000E+01 0. -1.
        -11    1    1    2    0    0  0.11843582408E+02 -0.44137454697E+02 -0.82963797269E+02  0.94717353261E+02  0.00000000000E+00 0. -1.
         11    1    1    2    0    0 -0.11521830978E+03 -0.90277100226E+02 -0.30479823644E+03  0.33812302298E+03  0.00000000000E+00 0.  1.
</event>
<event>
 6    1  0.5317355E-006  0.8817883E+02  0.7561462E-02  0.1307323E+00
         -1   -1    0    0    0  501 -0.00000000000E+00  0.00000000000E+00  0.22845252947E+03  0.22845252947E+03  0.00000000000E+00 0.  1.
          1   -1    0    0  501    0  0.00000000000E+00 -0.00000000000E+00 -0.54699422741E+02  0.54699422741E+02  0.00000000000E+00 0. -1.
          5    1    1    2  502    0  0.28424953863E+02 -0.27083749509E+02 -0.24402263751E+01  0.39559254219E+02  0.41800000000E+01 0. -1.
         -5    1    1    2    0  502 -0.31883117655E+02  0.37523274548E+02  0.13164421076E+03  0.14061365492E+03  0.41800000000E+01 0. -1.
        -11    1    1    2    0    0  0.76387108552E+01 -0.48535257834E+02  0.75507119899E+01  0.49709500179E+02  0.00000000000E+00 0.  1.
         11    1    1    2    0    0 -0.41805470635E+01  0.38095732795E+02  0.36998410353E+02  0.53269542888E+02  0.00000000000E+00 0. -1.
</event>
<event>
 6    1  0.5317355E-006  0.1180232E+03  0.7561462E-02  0.1246394E+00
         -1   -1    0    0    0  501 -0.00000000000E+00  0.00000000000E+00  0.19127634449E+03  0.19127634449E+03  0.00000000000E+00 0.  1.
          1   -1    0    0  501    0  0.00000000000E+00 -0.00000000000E+00 -0.17947547517E+03  0.17947547517E+03  0.00000000000E+00 0. -1.
          5    1    1    2  502    0 -0.16232083316E+02  0.67811668771E+02  0.98975517620E+02  0.12114259547E+03  0.41800000000E+01 0.  1.
         -5    1    1    2    0  502 -0.48592023865E+02 -0.46185493527E+02  0.41337445507E+02  0.78870408878E+02  0.41800000000E+01 0.  1.
        -11    1    1    2    0    0  0.24492534166E+02  0.26598367490E+02 -0.11559500326E+02  0.37960234862E+02  0.00000000000E+00 0.  1.
         11    1    1    2    0    0  0.40331573015E+02 -0.48224542734E+02 -0.11695259348E+03  0.13277858045E+03  0.00000000000E+00 0. -1.
</event>
<event>
 6    1  0.5317355E-006  0.1074502E+03  0.7561462E-02  0.1265366E+00
          1   -1    0    0  501    0  0.00000000000E+00  0.00000000000E+00  0.73265005936E+02  0.73265005936E+02  0.00000000000E+00 0. -1.
         -1   -1    0    0    0  501 -0.00000000000E+00 -0.00000000000E+00 -0.51883722580E+03  0.51883722580E+03  0.00000000000E+00 0.  1.
          5    1    1    2  502    0  0.48365929052E+02  0.89630130177E+01 -0.25502526210E+03  0.25975941831E+03  0.41800000000E+01 0. -1.
         -5    1    1    2    0  502 -0.67265279216E+02  0.45371808023E+02 -0.20803942490E+03  0.22334075639E+03  0.41800000000E+01 0. -1.
        -11    1    1    2    0    0  0.34322127884E+02 -0.58929948447E+02 -0.17569559119E+02  0.70423268129E+02  0.00000000000E+00 0.  1.
         11    1    1    2    0    0 -0.15422777720E+02  0.45951274057E+01  0.35062026252E+02  0.38578788905E+02  0.00000000000E+00 0. -1.
</event>
<event>
 6    1  0.5317355E-006  0.1903225E+03  0.7561462E-02  0.1158171E+00
         -3   -1    0    0    0  501 -0.00000000000E+00  0.00000000000E+00  0.23808086376E+03  0.23808086376E+03  0.00000000000E+00 0.  1.
          3   -1    0    0  501    0  0.00000000000E+00 -0.00000000000E+00 -0.16770622342E+03  0.16770622342E+03  0.00000000000E+00 0. -1.
          5    1    1    2  502    0 -0.58276970540E+01  0.17662502131E+02 -0.23498227203E+02  0.30258306564E+02  0.41800000000E+01 0. -1.
         -5    1    1    2    0  502 -0.11083235959E+03 -0.13764735447E+03  0.26136237272E+02  0.17869298090E+03  0.41800000000E+01 0. -1.
        -11    1    1    2    0    0  0.26105360360E+02  0.82975364317E+02  0.32435927874E+02  0.92835824659E+02  0.00000000000E+00 0.  1.
         11    1    1    2    0    0  0.90554696281E+02  0.37009488027E+02  0.35300702395E+02  0.10399997506E+03  0.00000000000E+00 0. -1.
</event>
<event>
 6    1  0.5317355E-006  0.1514346E+03  0.7561462E-02  0.1198721E+00
         -1   -1    0    0    0  501 -0.00000000000E+00  0.00000000000E+00  0.22629761323E+03  0.22629761323E+03  0.00000000000E+00 0.  1.
          1   -1    0    0  501    0  0.00000000000E+00 -0.00000000000E+00 -0.12178931312E+03  0.12178931312E+03  0.00000000000E+00 0. -1.
          5    1    1    2  502    0 -0.42955364959E+02 -0.35523177570E+02  0.62352424378E+02  0.83739815794E+02  0.41800000000E+01 0. -1.
         -5    1    1    2    0  502 -0.65487728880E+02  0.86990633909E+02  0.31637798099E+02  0.11346557051E+03  0.41800000000E+01 0. -1.
        -11    1    1    2    0    0  0.12269141668E+02 -0.39173118583E+02 -0.24488238390E+02  0.47798942208E+02  0.00000000000E+00 0. -1.
         11    1    1    2    0    0  0.96173952171E+02 -0.12294337757E+02  0.35006316021E+02  0.10308259784E+03  0.00000000000E+00 0.  1.
</event>
<event>
 6    1  0.5317355E-006  0.1580626E+03  0.7561462E-02  0.1190902E+00
          2   -1    0    0  501    0  0.00000000000E+00  0.00000000000E+00  0.20535181978E+03  0.20535181978E+03  0.00000000000E+00 0. -1.
         -2   -1    0    0    0  501 -0.00000000000E+00 -0.00000000000E+00 -0.14179714674E+03  0.14179714674E+03  0.00000000000E+00 0.  1.
          5    1    1    2  502    0  0.64431542512E+02 -0.49340099969E+02 -0.27892045440E+02  0.85914537386E+02  0.41800000000E+01 0.  1.
         -5    1    1    2    0  502  0.22734749804E+02  0.41625150200E+02  0.48784218243E+02  0.68168132785E+02  0.41800000000E+01 0.  1.
        -11    1    1    2    0    0 -0.66733581468E+02 -0.75964355293E+02  0.12907552164E+02  0.10193409181E+03  0.00000000000E+00 0.  1.
         11    1    1    2    0    0 -0.20432710847E+02  0.83679305063E+02  0.29754948081E+02  0.91132204536E+02  0.00000000000E+00 0. -1.
</event>
<event>
 6    1  0.5317355E-006  0.9074605E+02  0.7561462E-02  0.1301055E+00
          1   -1    0    0  501    0  0.00000000000E+00  0.00000000000E+00  0.18786482863E+03  0.18786482863E+03  0.00000000000E+00 0. -1.
         -1   -1    0    0    0  501 -0.00000000000E+00 -0.00000000000E+00 -0.73336758030E+02  0.73336758030E+02  0.00000000000E+00 0.  1.
          5    1    1    2  502    0 -0.54426350588E+02 -0.32736866482E+02  0.37794167254E+02  0.74025681651E+02  0.41800000000E+01 0.  1.
         -5    1    1    2    0  502  0.54648414564E+02  0.56712619117E+01 -0.12337733583E+02  0.56465073240E+02  0.41800000000E+01 0.  1.
        -11    1    1    2    0    0 -0.28140302475E+02  0.92462149921E+01  0.92770587275E+02  0.97384552052E+02  0.00000000000E+00 0. -1.
         11    1    1    2    0    0  0.27918238500E+02  0.17819389579E+02 -0.36989503498E+01  0.33326279714E+02  0.00000000000E+00 0.  1.
</event>
<event>
 6    1  0.5317355E-006  0.1220929E+03  0.7561462E-02  0.1239684E+00
          2   -1    0    0  501    0  0.00000000000E+00  0.00000000000E+00  0.25131994567E+03  0.25131994567E+03  0.00000000000E+00 0.  1.
         -2   -1    0    0    0  501 -0.00000000000E+00 -0.00000000000E+00 -0.64202561150E+02  0.64202561150E+02  0.00000000000E+00 0. -1.
          5    1    1    2  502    0  0.13814275037E+02  0.50373339957E+02  0.50711775949E+02  0.72920944818E+02  0.41800000000E+01 0. -1.
         -5    1    1    2    0  502 -0.76827251661E+02 -0.39378657280E+02  0.48936729196E+02  0.99324624899E+02  0.41800000000E+01 0. -1.
        -11    1    1    2    0    0  0.50622490027E+02 -0.45887869376E+02  0.80521097797E+02  0.10560293672E+03  0.00000000000E+00 0. -1.
         11    1    1    2    0    0  0.12390486597E+02  0.34893186699E+02  0.69477815757E+01  0.37674000384E+02  0.00000000000E+00 0.  1.
</event>
<event>
 6    1  0.5317355E-006  0.1311732E+03  0.7561462E-02  0.1225725E+00
          1   -1    0    0  501    0  0.00000000000E+00  0.00000000000E+00  0.40711786520E+03  0.40711786520E+03  0.00000000000E+00 0. -1.
         -1   -1    0    0    0  501 -0.00000000000E+00 -0.00000000000E+00 -0.50084175883E+02  0.50084175883E+02  0.00000000000E+00 0.  1.
          5    1    1    2  502    0  0.51145961732E+02 -0.71218400334E+01  0.18951022058E+02  0.55165602000E+02  0.41800000000E+01 0. -1.
         -5    1    1    2    0  502 -0.69068839672E+02  0.73497057648E+02  0.12266381578E+03  0.15885907654E+03  0.41800000000E+01 0.  1.
        -11    1    1    2    0    0 -0.25016656805E+02 -0.61481209148E+02  0.10089858366E+03  0.12077374045E+03  0.00000000000E+00 0.  1.
         11    1    1    2    0    0  0.42939534745E+02 -0.48940084662E+01  0.11452026782E+03  0.12240362210E+03  0.00000000000E+00 0. -1.
</event>
<event>
 6    1  0.5317355E-006  0.1622850E+03  0.7561462E-02  0.1186141E+00
         -1   -1    0    0    0  501 -0.00000000000E+00  0.00000000000E+00  0.31051392033E+03  0.31051392033E+03  0.00000000000E+00 0.  1.
          1   -1    0    0  501    0  0.00000000000E+00 -0.00000000000E+00 -0.10627238189E+03  0.10627238189E+03  0.00000000000E+00 0. -1.
          5    1    1    2  502    0 -0.12836950785E+03  0.43939784443E+02  0.13640072353E+03  0.19243717152E+03  0.41800000000E+01 0.  1.
         -5    1    1    2    0  502  0.25715451867E+02  0.36744494310E+02  0.42591444494E+02  0.61991498376E+02  0.41800000000E+01 0.  1.
        -11    1    1    2    0    0  0.12401462299E+02  0.99308746639E+01  0.30464297354E+02  0.34358287967E+02  0.00000000000E+00 0.  1.
         11    1    1    2    0    0  0.90252593683E+02 -0.90615153417E+02 -0.52149269333E+01  0.12799934437E+03  0.00000000000E+00 0. -1.
</event>
<event>
 6    1  0.5317355E-006  0.1234464E+03  0.7561462E-02  0.1237517E+00
         -2   -1    0    0    0  501 -0.00000000000E+00  0.00000000000E+00  0.54926920772E+03  0.54926920772E+03  0.00000000000E+00 0.  1.
          2   -1    0    0  501    0  0.00000000000E+00 -0.00000000000E+00 -0.35911866545E+02  0.35911866545E+02  0.00000000000E+00 0. -1.
          5    1    1    2  502    0 -0.29422204268E+02  0.90881440412E+02  0.23821441790E+03  0.25668791091E+03  0.41800000000E+01 0. -1.
         -5    1    1    2    0  502 -0.32720226646E+02 -0.41063268694E+02  0.12867511587E+03  0.13903799162E+03  0.41800000000E+01 0. -1.
        -11    1    1    2    0    0  0.47172741112E+01  0.12800100069E+02  0.81144503589E+02  0.82283204237E+02  0.00000000000E+00 0.  1.
         11    1    1    2    0    0  0.57425156802E+02 -0.62618271788E+02  0.65323303812E+02  0.10717196749E+03  0.00000000000E+00 0. -1.
</event>
<event>
 6    1  0.5317355E-006  0.7090186E+02  0.7561462E-02  0.1357053E+00
         -2   -1    0    0    0  501 -0.00000000000E+00  0.00000000000E+00  0.35165071097E+03  0.35165071097E+03  0.00000000000E+00 0.  1.
          2   -1    0    0  501    0  0.00000000000E+00 -0.00000000000E+00 -0.35207560113E+02  0.35207560113E+02  0.00000000000E+00 0. -1.
          5    1    1    2  502    0  0.49009183547E+01 -0.11265971548E+02  0.19031111990E+03  0.19075307566E+03  0.41800000000E+01 0. -1.
         -5    1    1    2    0  502  0.79904272367E+01  0.33411230398E+02 -0.42917618333E+01  0.34871892174E+02  0.41800000000E+01 0. -1.
        -11    1    1    2    0    0 -0.51187398273E+02 -0.22518436714E+02  0.85966429391E+02  0.10255465234E+03  0.00000000000E+00 0.  1.
         11    1    1    2    0    0  0.38296052681E+02  0.37317786342E+00  0.44457363403E+02  0.58678650917E+02  0.00000000000E+00 0. -1.
</event>
<event>
 6    1  0.5317355E-006  0.8973596E+02  0.7561462E-02  0.1303492E+00
         -3   -1    0    0    0  501 -0.00000000000E+00  0.00000000000E+00  0.14359197096E+03  0.14359197096E+03  0.00000000000E+00 0.  1.
          3   -1    0    0  501    0  0.00000000000E+00 -0.00000000000E+00 -0.83680164216E+02  0.83680164216E+02  0.00000000000E+00 0. -1.
          5    1    1    2  502    0 -0.38636464918E+02 -0.38004978744E+02  0.47452334431E+02  0.72155050229E+02  0.41800000000E+01 0. -1.
         -5    1    1    2    0  502  0.29825201728E+02  0.47295323777E+02 -0.14349306818E+02  0.57877157113E+02  0.41800000000E+01 0. -1.
        -11    1    1    2    0    0  0.16007525798E+02  0.27358032901E+02  0.45518475873E+02  0.55467418294E+02  0.00000000000E+00 0.  1.
         11    1    1    2    0    0 -0.71962626086E+01 -0.36648377934E+02 -0.18709696744E+02  0.41772509537E+02  0.00000000000E+00 0. -1.
</event>
<event>
 6    1  0.5317355E-006  0.8693538E+02  0.7561462E-02  0.1310448E+00
         -1   -1    0    0    0  501 -0.00000000000E+00  0.00000000000E+00  0.51585990202E+02  0.51585990202E+02  0.00000000000E+00 0.  1.
          1   -1    0    0  501    0  0.00000000000E+00 -0.00000000000E+00 -0.36365474408E+03  0.36365474408E+03  0.00000000000E+00 0. -1.
          5    1    1    2  502    0 -0.39329949290E+02 -0.67856182419E+01 -0.93307024496E+02  0.10157048167E+03  0.41800000000E+01 0. -1.
         -5    1    1    2    0  502  0.15876993900E+02 -0.31423010171E+02  0.29235193882E+02  0.45952730766E+02  0.41800000000E+01 0. -1.
        -11    1    1    2    0    0 -0.13357603732E+02  0.55880719275E+02 -0.17347452030E+03  0.18274159230E+03  0.00000000000E+00 0. -1.
         11    1    1    2    0    0  0.36810559122E+02 -0.17672090861E+02 -0.74522402964E+02  0.84975929544E+02  0.00000000000E+00 0.  1.
</event>
<event>
 6    1  0.5317355E-006  0.1170901E+03  0.7561462E-02  0.1247976E+00
          4   -1    0    0  501    0  0.00000000000E+00  0.00000000000E+00  0.76802609023E+02  0.76802609023E+02  0.00000000000E+00 0. -1.
         -4   -1    0    0    0  501 -0.00000000000E+00 -0.00000000000E+00 -0.23954184321E+03  0.23954184321E+03  0.00000000000E+00 0.  1.
          5    1    1    2  502    0 -0.10170977195E+03 -0.29506063872E+02 -0.48853687249E+02  0.11670321621E+03  0.41800000000E+01 0.  1.
         -5    1    1    2    0  502  0.25136772531E+02  0.12833038817E+02 -0.60857867541E+02  0.67213813017E+02  0.41800000000E+01 0.  1.
        -11    1    1    2    0    0  0.37150267749E+02 -0.23032705416E+02  0.13263919463E+02  0.45679092287E+02  0.00000000000E+00 0. -1.
         11    1    1    2    0    0  0.39422731668E+02  0.39705730471E+02 -0.66291598863E+02  0.86748330728E+02  0.00000000000E+00 0.  1.
</event>
<event>
 6    1  0.5317355E-006  0.6947982E+02  0.7561462E-02  0.1361871E+00
         -1   -1    0    0    0  501 -0.00000000000E+00  0.00000000000E+00  0.17528568711E+03  0.17528568711E+03  0.00000000000E+00 0.  1.
          1   -1    0    0  501    0  0.00000000000E+00 -0.00000000000E+00 -0.73749401017E+02  0.73749401017E+02  0.00000000000E+00 0. -1.
          5    1    1    2  502    0 -0.23013267893E+02 -0.21039255067E+02 -0.19626229108E+02  0.37079940964E+02  0.41800000000E+01 0.  1.
         -5    1    1    2    0  502  0.49419030669E+02  0.45718977162E+02  0.85315886541E+02  0.10876000350E+03  0.41800000000E+01 0.  1.
        -11    1    1    2    0    0 -0.12765531633E+02 -0.22997363548E+02 -0.27688704579E+02  0.38190337643E+02  0.00000000000E+00 0. -1.
         11    1    1    2    0    0 -0.13640231143E+02 -0.16823585473E+01  0.63535333239E+02  0.65004806020E+02  0.00000000000E+00 0.  1.
</event>
<event>
 6    1  0.5317355E-006  0.1448819E+03  0.7561462E-02  0.1206907E+00
          1   -1    0    0  501    0  0.00000000000E+00  0.00000000000E+00  0.16240341159E+03  0.16240341159E+03  0.00000000000E+00 0. -1.
         -1   -1    0    0    0  501 -0.00000000000E+00 -0.00000000000E+00 -0.14356120002E+03  0.14356120002E+03  0.00000000000E+00 0.  1.
          5    1    1    2  502    0 -0.65861487814E+02 -0.10785464829E+03 -0.38988110048E+02  0.13231744352E+03  0.41800000000E+01 0.  1.
         -5    1    1    2    0  502  0.10443577109E+02  0.26806744159E+02  0.69684033782E+01  0.29894830337E+02  0.41800000000E+01 0.  1.
        -11    1    1    2    0    0 -0.11247171704E+02  0.64618005580E+02  0.20890980890E+02  0.68836172170E+02  0.00000000000E+00 0. -1.
         11    1    1    2    0    0  0.66665082408E+02  0.16429898552E+02  0.29970937351E+02  0.74916165576E+02  0.00000000000E+00 0.  1.
</event>
<event>
 6    1  0.5317355E-006  0.1089961E+03  0.7561462E-02  0.1262440E+00
         -1   -1    0    0    0  501 -0.00000000000E+00  0.00000000000E+00  0.48541553619E+02  0.48541553619E+02  0.00000000000E+00 0.  1.
          1   -1    0    0  501    0  0.00000000000E+00 -0.00000000000E+00 -0.36410575360E+03  0.36410575360E+03  0.00000000000E+00 0. -1.
          5    1    1    2  502    0 -0.28904758392E+02  0.28019621795E+02 -0.26756147499E+01  0.40561257100E+02  0.41800000000E+01 0. -1.
         -5    1    1    2    0  502  0.46276540253E+02 -0.70902924079E+02 -0.78729390916E+02  0.11569153908E+03  0.41800000000E+01 0. -1.
        -11    1    1    2    0    0 -0.47874036746E+02  0.39485819314E+02 -0.92088371855E+02  0.11104648374E+03  0.00000000000E+00 0. -1.
         11    1    1    2    0    0  0.30502254885E+02  0.33974829701E+01 -0.14207082246E+03  0.14534802729E+03  0.00000000000E+00 0.  1.
</event>
<event>
 6    1  0.5317355E-006  0.8681792E+02  0.7561462E-02  0.1310746E+00
          1   -1    0    0  501    0  0.00000000000E+00  0.00000000000E+00  0.37854409506E+02  0.37854409506E+02  0.00000000000E+00 0. -1.
         -1   -1    0    0    0  501 -0.00000000000E+00 -0.00000000000E+00 -0.59417477738E+03  0.59417477738E+03  0.00000000000E+00 0.  1.
          5    1    1    2  502    0 -0.41166694098E+02 -0.19892322608E+02 -0.11198988256E+03  0.12103556254E+03  0.41800000000E+01 0.  1.
         -5    1    1    2    0  502  0.50967616671E+02  0.62358984668E+02 -0.38087752492E+03  0.38932184925E+03  0.41800000000E+01 0.  1.
        -11    1    1    2    0    0  0.52022059864E+01 -0.13242887882E+02  0.24195903305E+02  0.28069178173E+02  0.00000000000E+00 0. -1.
         11    1    1    2    0    0 -0.15003128560E+02 -0.29223774178E+02 -0.87648863699E+02  0.93602596927E+02  0.00000000000E+00 0.  1.
</event>
<event>
 6    1  0.5317355E-006  0.1119395E+03  0.7561462E-02  0.1257020E+00
         -1   -1    0    0    0  501 -0.00000000000E+00  0.00000000000E+00  0.46429822267E+02  0.46429822267E+02  0.00000000000E+00 0.  1.
          1   -1    0    0  501    0  0.00000000000E+00 -0.00000000000E+00 -0.34968940494E+03  0.34968940494E+03  0.00000000000E+00 0. -1.
          5    1    1    2  502    0  0.69314501384E+02 -0.54041252450E+02 -0.15301124322E+03  0.17650742199E+03  0.41800000000E+01 0. -1.
         -5    1    1    2    0  502 -0.60266143407E+01  0.32630613997E+02 -0.18787927913E+01  0.33497452330E+02  0.41800000000E+01 0. -1.
        -11    1    1    2    0    0 -0.96480511066E+01  0.43408626918E+02 -0.28104532851E+02  0.52604738834E+02  0.00000000000E+00 0.  1.
         11    1    1    2    0    0 -0.53639835937E+02 -0.21997988464E+02 -0.12026501382E+03  0.13350961405E+03  0.00000000000E+00 0. -1.
</event>
<event>
 6    1  0.5317355E-006  0.1056580E+03  0.7561462E-02  0.1268829E+00
          1   -1    0    0  501    0  0.00000000000E+00  0.00000000000E+00  0.26642528840E+03  0.26642528840E+03  0.00000000000E+00 0. -1.
         -1   -1    0    0    0  501 -0.00000000000E+00 -0.00000000000E+00 -0.70274800969E+02  0.70274800969E+02  0.00000000000E+00 0.  1.
          5    1    1    2  502    0 -0.14017237954E+02  0.19857648236E+02  0.89850225831E+02  0.93173733612E+02  0.41800000000E+01 0. -1.
         -5    1    1    2    0  502 -0.54195909055E+02  0.33613448503E+02 -0.18395658560E+02  0.66505136135E+02  0.41800000000E+01 0.  1.
        -11    1    1    2    0    0 -0.12361616824E+02  0.13255558974E+02  0.34150010387E+02  0.38661901449E+02  0.00000000000E+00 0.  1.
         11    1    1    2    0    0  0.80574763832E+02 -0.66726655713E+02  0.90545909776E+02  0.13835931818E+03  0.00000000000E+00 0. -1.
</event>
<event>
 6    1  0.5317355E-006  0.7587805E+02  0.7561462E-02  0.1341173E+00
         -1   -1    0    0    0  501 -0.00000000000E+00  0.00000000000E+00  0.48836386303E+02  0.48836386303E+02  0.00000000000E+00 0.  1.
          1   -1    0    0  501    0  0.00000000000E+00 -0.00000000000E+00 -0.32823403401E+03  0.32823403401E+03  0.00000000000E+00 0. -1.
          5    1    1    2  502    0  0.44397423097E+01  0.10625090818E+01 -0.13190702274E+03  0.13205216880E+03  0.41800000000E+01 0. -1.
         -5    1    1    2    0  502  0.41061332191E+02 -0.13700495869E+02  0.20712276810E+02  0.48168531211E+02  0.41800000000E+01 0.  1.
        -11    1    1    2    0    0  0.10946407101E+01 -0.35247112755E+02 -0.63815385698E+02  0.72910634667E+02  0.00000000000E+00 0.  1.
         11    1    1    2    0    0 -0.46595715211E+02  0.47885099542E+02 -0.10438751608E+03  0.12393908563E+03  0.00000000000E+00 0. -1.
</event>
<event>
 6    1  0.5317355E-006  0.1828173E+03  0.7561462E-02  0.1165104E+00
          1   -1    0    0  501    0  0.00000000000E+00  0.00000000000E+00  0.18129911648E+03  0.18129911648E+03  0.00000000000E+00 0. -1.
         -1   -1    0    0    0  501 -0.00000000000E+00 -0.00000000000E+00 -0.21981424279E+03  0.21981424279E+03  0.00000000000E+00 0.  1.
          5    1    1    2  502    0 -0.67693512311E+02 -0.83905522816E+02  0.47087310165E+02  0.11771675984E+03  0.41800000000E+01 0.  1.
         -5    1    1    2    0  502 -0.81240536997E+02  0.17185446690E+02 -0.30527246408E+02  0.88570591072E+02  0.41800000000E+01 0.  1.
        -11    1    1    2    0    0  0.67141914510E+02 -0.28820816923E+01 -0.55916629243E+02  0.87424324446E+02  0.00000000000E+00 0. -1.
         11    1    1    2    0    0  0.81792134799E+02  0.69602157819E+02  0.84143918542E+00  0.10740168392E+03  0.00000000000E+00 0.  1.
</event>
<event>
 6    1  0.5317355E-006  0.1595061E+03  0.7561462E-02  0.1189255E+00
         -2   -1    0    0    0  501 -0.00000000000E+00  0.00000000000E+00  0.21415730961E+02  0.21415730961E+02  0.00000000000E+00 0.  1.
          2   -1    0    0  501    0  0.00000000000E+00 -0.00000000000E+00 -0.14546399438E+04  0.14546399438E+04  0.00000000000E+00 0. -1.
          5    1    1    2  502    0 -0.93484569954E+02  0.11305509656E+02 -0.44860580187E+03  0.45840137134E+03  0.41800000000E+01 0.  1.
         -5    1    1    2    0  502 -0.11589188371E+02  0.66178837214E+02 -0.11233212698E+03  0.13095772957E+03  0.41800000000E+01 0.  1.
        -11    1    1    2    0    0 -0.15932615838E+02 -0.11103243453E+02 -0.70870798814E+02  0.73483334078E+02  0.00000000000E+00 0.  1.
         11    1    1    2    0    0  0.12100637416E+03 -0.66381103418E+02 -0.80141548520E+03  0.81321323981E+03  0.00000000000E+00 0. -1.
</event>
<event>
 6    1  0.5317355E-006  0.8777399E+02  0.7561462E-02  0.1308334E+00
          2   -1    0    0  501    0  0.00000000000E+00  0.00000000000E+00  0.18700269874E+03  0.18700269874E+03  0.00000000000E+00 0. -1.
         -2   -1    0    0    0  501 -0.00000000000E+00 -0.00000000000E+00 -0.67478200072E+02  0.67478200072E+02  0.00000000000E+00 0.  1.
          5    1    1    2  502    0  0.56728614641E+02 -0.17073328219E+02 -0.11904776320E+02  0.60570870514E+02  0.41800000000E+01 0. -1.
         -5    1    1    2    0  502 -0.33478384471E+02 -0.65918000531E+01  0.76927632850E+02  0.84259047885E+02  0.41800000000E+01 0. -1.
        -11    1    1    2    0    0 -0.10292501453E+02 -0.27310469016E+02 -0.56708306621E+01  0.29731391230E+02  0.00000000000E+00 0.  1.
         11    1    1    2    0    0 -0.12957728718E+02  0.50975597288E+02  0.60172472802E+02  0.79919589185E+02  0.00000000000E+00 0. -1.
</event>
<event>
 6    1  0.5317355E-006  0.1091085E+03  0.7561462E-02  0.1262230E+00
         -1   -1    0    0    0  501 -0.00000000000E+00  0.00000000000E+00  0.22583686828E+02  0.22583686828E+02  0.00000000000E+00 0. -1.
          1   -1    0    0  501    0  0.00000000000E+00 -0.00000000000E+00 -0.62238018884E+03  0.62238018884E+03  0.00000000000E+00 0.  1.
          5    1    1    2  502    0 -0.36394986955E+02  0.17714515000E+02 -0.39161175511E+02  0.56475385652E+02  0.41800000000E+01 0.  1.
         -5    1    1    2    0  502  0.74853613353E+02 -0.23425835256E+02 -0.22637718451E+03  0.23961622494E+03  0.41800000000E+01 0.  1.
        -11    1    1    2    0    0 -0.58960400030E+02 -0.23349018693E+02 -0.23616647725E+03  0.24453243225E+03  0.00000000000E+00 0. -1.
         11    1    1    2    0    0  0.20501773632E+02  0.29060338948E+02 -0.98091664742E+02  0.10433983282E+03  0.00000000000E+00 0.  1.
</event>
<event>
 6    1  0.5317355E-006  0.1080346E+03  0.7561462E-02  0.1264253E+00
          1   -1    0    0  501    0  0.00000000000E+00  0.00000000000E+00  0.76231135157E+03  0.76231135157E+03  0.00000000000E+00 0. -1.
         -1   -1    0    0    0  501 -0.00000000000E+00 -0.00000000000E+00 -0.30192293000E+02  0.30192293000E+02  0.00000000000E+00 0.  1.
          5    1    1    2  502    0  0.29577623902E+02 -0.39133386025E+02  0.12833196641E+02  0.50876527727E+02  0.41800000000E+01 0.  1.
         -5    1    1    2    0  502  0.13372742058E+02 -0.44581571956E+02  0.25578927256E+03  0.26002302041E+03  0.41800000000E+01 0.  1.
        -11    1    1    2    0    0  0.48909540416E+01 -0.12078363395E+02  0.12451104580E+02  0.18023271040E+02  0.00000000000E+00 0.  1.
         11    1    1    2    0    0 -0.47841320002E+02  0.95793321376E+02  0.45104548480E+03  0.46358082539E+03  0.00000000000E+00 0. -1.
</event>
<event>
 6    1  0.5317355E-006  0.1131431E+03  0.7561462E-02  0.1254858E+00
         -3   -1    0    0    0  501 -0.00000000000E+00  0.00000000000E+00  0.42600012201E+03  0.42600012201E+03  0.00000000000E+00 0.  1.
          3   -1    0    0  501    0  0.00000000000E+00 -0.00000000000E+00 -0.43084404902E+02  0.43084404902E+02  0.00000000000E+00 0. -1.
          5    1    1    2  502    0 -0.48206976372E+02 -0.68752418291E+02  0.79045647409E+02  0.11539711594E+03  0.41800000000E+01 0. -1.
         -5    1    1    2    0  502 -0.14921210513E+02  0.22794706828E+02  0.18493470897E+03  0.18697743223E+03  0.41800000000E+01 0. -1.
        -11    1    1    2    0    0  0.21326525617E+02 -0.24650768496E+02  0.49240165438E+02  0.59051460394E+02  0.00000000000E+00 0.  1.
         11    1    1    2    0    0  0.41801661269E+02  0.70608479959E+02  0.69695195294E+02  0.10765851835E+03  0.00000000000E+00 0. -1.
</event>
<event>
 6    1  0.5317355E-006  0.1033210E+03  0.7561462E-02  0.1273463E+00
         -2   -1    0    0    0  501 -0.00000000000E+00  0.00000000000E+00  0.32215000112E+02  0.32215000112E+02  0.00000000000E+00 0. -1.
          2   -1    0    0  501    0  0.00000000000E+00 -0.00000000000E+00 -0.46479363852E+03  0.46479363852E+03  0.00000000000E+00 0.  1.
          5    1    1    2  502    0 -0.24193797492E+02 -0.98537613588E+01 -0.34115065144E+01  0.26674842581E+02  0.41800000000E+01 0.  1.
         -5    1    1    2    0  502  0.41369581928E+02  0.63159448387E+02 -0.25309230014E+03  0.26414719953E+03  0.41800000000E+01 0.  1.
        -11    1    1    2    0    0 -0.24742557941E+02 -0.76378760403E+02 -0.15249873064E+03  0.17234202059E+03  0.00000000000E+00 0.  1.
         11    1    1    2    0    0  0.75667735050E+01  0.23073073375E+02 -0.23576101116E+02  0.33844575932E+02  0.00000000000E+00 0. -1.
</event>
<event>
 6    1  0.5317355E-006  0.1093980E+03  0.7561462E-02  0.1261689E+00
          1   -1    0    0  501    0  0.00000000000E+00  0.00000000000E+00  0.22087477343E+03  0.22087477343E+03  0.00000000000E+00 0. -1.
         -1   -1    0    0    0  501 -0.00000000000E+00 -0.00000000000E+00 -0.85370055972E+02  0.85370055972E+02  0.00000000000E+00 0.  1.
          5    1    1    2  502    0 -0.47149273081E+02  0.31204606886E+02  0.13869089183E+02  0.58366132969E+02  0.41800000000E+01 0. -1.
         -5    1    1    2    0  502  0.83808592377E+01 -0.60198689863E+02 -0.26694637932E+02  0.66514638668E+02  0.41800000000E+01 0.  1.
        -11    1    1    2    0    0  0.62775270472E+01 -0.31710592593E+02  0.69812468094E+02  0.76933411011E+02  0.00000000000E+00 0.  1.
         11    1    1    2    0    0  0.32490886797E+02  0.60704675571E+02  0.78517798114E+02  0.10443064675E+03  0.00000000000E+00 0. -1.
</event>
<event>
 6    1  0.5317355E-006  0.9884493E+02  0.7561462E-02  0.1282744E+00
          1   -1    0    0  501    0  0.00000000000E+00  0.00000000000E+00  0.21725168797E+03  0.21725168797E+03  0.00000000000E+00 0. -1.
         -1   -1    0    0    0  501 -0.00000000000E+00 -0.00000000000E+00 -0.61727019290E+02  0.61727019290E+02  0.00000000000E+00 0.  1.
          5    1    1    2  502    0 -0.59265834364E+02  0.32242056541E+02 -0.40870333443E+01  0.67721234295E+02  0.41800000000E+01 0.  1.
         -5    1    1    2    0  502  0.38497762996E+02 -0.23556604611E+02  0.49817515959E+02  0.67351679065E+02  0.41800000000E+01 0.  1.
        -11    1    1    2    0    0 -0.13176654931E+02 -0.37809296648E+02  0.81982686076E+02  0.91237755148E+02  0.00000000000E+00 0. -1.
         11    1    1    2    0    0  0.33944726299E+02  0.29123844718E+02  0.27811499992E+02  0.52668038757E+02  0.00000000000E+00 0.  1.
</event>
<event>
 6    1  0.5317355E-006  0.1966607E+03  0.7561462E-02  0.1152587E+00
         -1   -1    0    0    0  501 -0.00000000000E+00  0.00000000000E+00  0.16914948595E+03  0.16914948595E+03  0.00000000000E+00 0.  1.
          1   -1    0    0  501    0  0.00000000000E+00 -0.00000000000E+00 -0.42175590360E+03  0.42175590360E+03  0.00000000000E+00 0. -1.
          5    1    1    2  502    0  0.15895833699E+02  0.12617714032E+03  0.86639242304E+02  0.15393888064E+03  0.41800000000E+01 0.  1.
         -5    1    1    2    0  502 -0.34832801264E+02  0.45379142504E+02 -0.32583315305E+02  0.65967684927E+02  0.41800000000E+01 0.  1.
        -11    1    1    2    0    0  0.36290470852E+02 -0.31263194861E-02 -0.49433134725E+02  0.61324000955E+02  0.00000000000E+00 0.  1.
         11    1    1    2    0    0 -0.17353503287E+02 -0.17155315650E+03 -0.25722920992E+03  0.30967482303E+03  0.00000000000E+00 0. -1.
</event>
<event>
 6    1  0.5317355E-006  0.1667424E+03  0.7561462E-02  0.1181288E+00
         -2   -1    0    0    0  501 -0.00000000000E+00  0.00000000000E+00  0.45885595305E+03  0.45885595305E+03  0.00000000000E+00 0.  1.
          2   -1    0    0  501    0  0.00000000000E+00 -0.00000000000E+00 -0.66242643059E+02  0.66242643059E+02  0.00000000000E+00 0. -1.
          5    1    1    2  502    0  0.17615334138E+02 -0.32654854269E+01  0.67312947938E+02  0.69781578887E+02  0.41800000000E+01 0. -1.
         -5    1    1    2    0  502 -0.14756954825E+03 -0.37380112334E+02  0.12596810884E+03  0.19763471662E+03  0.41800000000E+01 0. -1.
        -11    1    1    2    0    0  0.10918845558E+03 -0.84289239486E+01  0.14332927599E+03  0.18037862110E+03  0.00000000000E+00 0. -1.
         11    1    1    2    0    0  0.20765758524E+02  0.49074521709E+02  0.56002977211E+02  0.77303679502E+02  0.00000000000E+00 0.  1.
</event>
<event>
 6    1  0.5317355E-006  0.1093657E+03  0.7561462E-02  0.1261749E+00
         -2   -1    0    0    0  501 -0.00000000000E+00  0.00000000000E+00  0.23487448361E+03  0.23487448361E+03  0.00000000000E+00 0. -1.
          2   -1    0    0  501    0  0.00000000000E+00 -0.00000000000E+00 -0.57526739104E+02  0.57526739104E+02  0.00000000000E+00 0.  1.
          5    1    1    2  502    0  0.52221428622E+02  0.30857835915E+02  0.92595780763E+02  0.11077334815E+03  0.41800000000E+01 0. -1.
         -5    1    1    2    0  502 -0.58551404034E+02  0.12278817684E+02  0.20416475097E+02  0.63350936326E+02  0.41800000000E+01 0. -1.
        -11    1    1    2    0    0 -0.35471081321E+02 -0.43535883204E+02  0.27357527033E+02  0.62466030943E+02  0.00000000000E+00 0.  1.
         11    1    1    2    0    0  0.41801056733E+02  0.39922960548E+00  0.36977961613E+02  0.55810907297E+02  0.00000000000E+00 0. -1.
</event>
<event>
 6    1  0.5317355E-006  0.2182015E+03  0.7561462E-02  0.1135231E+00
         -1   -1    0    0    0  501 -0.00000000000E+00  0.00000000000E+00  0.13494486504E+03  0.13494486504E+03  0.00000000000E+00 0.  1.
          1   -1    0    0  501    0  0.00000000000E+00 -0.00000000000E+00 -0.39752861157E+03  0.39752861157E+03  0.00000000000E+00 0. -1.
          5    1    1    2  502    0 -0.25862773331E+01 -0.15714632665E+02 -0.50137277162E+01  0.17211867297E+02  0.41800000000E+01 0. -1.
         -5    1    1    2    0  502 -0.88935865893E+02  0.18725339040E+03 -0.46152673193E+02  0.21241695343E+03  0.41800000000E+01 0.  1.
        -11    1    1    2    0    0  0.39578183123E+02 -0.71808421276E+01 -0.18920394057E+02  0.44451978407E+02  0.00000000000E+00 0.  1.
         11    1    1    2    0    0  0.51943960103E+02 -0.16435791561E+03 -0.19249695156E+03  0.25839267748E+03  0.00000000000E+00 0. -1.
</event>
<event>
 6    1  0.5317355E-006  0.1089284E+03  0.7561462E-02  0.1262567E+00
          2   -1    0    0  501    0  0.00000000000E+00  0.00000000000E+00  0.28020534170E+03  0.28020534170E+03  0.00000000000E+00 0. -1.
         -2   -1    0    0    0  501 -0.00000000000E+00 -0.00000000000E+00 -0.68267569951E+02  0.68267569951E+02  0.00000000000E+00 0.  1.
          5    1    1    2  502    0  0.31310692997E+02 -0.10237945715E+02  0.12940849333E+03  0.13360091906E+03  0.41800000000E+01 0.  1.
         -5    1    1    2    0  502  0.36571079428E+02 -0.69868965521E+02  0.71661816040E+01  0.79296549435E+02  0.41800000000E+01 0.  1.
        -11    1    1    2    0    0 -0.49879367561E+02  0.66422160331E+02  0.76511562048E+02  0.11293305016E+03  0.00000000000E+00 0. -1.
         11    1    1    2    0    0 -0.18002404864E+02  0.13684750904E+02 -0.11484652314E+01  0.22642392996E+02  0.00000000000E+00 0.  1.
</event>
<event>
 6    1  0.5317355E-006  0.1225455E+03  0.7561462E-02  0.1238956E+00
         -1   -1    0    0    0  501 -0.00000000000E+00  0.00000000000E+00  0.16462741480E+03  0.16462741480E+03  0.00000000000E+00 0.  1.
          1   -1    0    0  501    0  0.00000000000E+00 -0.00000000000E+00 -0.16687827362E+03  0.16687827362E+03  0.00000000000E+00 0. -1.
          5    1    1    2  502    0  0.16054862504E+01  0.22078711472E+02  0.67913562565E+02  0.71552578337E+02  0.41800000000E+01 0. -1.
         -5    1    1    2    0  502  0.18583226969E+02  0.97579916914E+02 -0.35759082323E+02  0.10565680706E+03  0.41800000000E+01 0. -1.
        -11    1    1    2    0    0 -0.11178957522E+02 -0.10711708045E+03  0.91477109565E+01  0.10808662559E+03  0.00000000000E+00 0.  1.
         11    1    1    2    0    0 -0.90097556983E+01 -0.12541547937E+02 -0.43553050023E+02  0.46209677435E+02  0.00000000000E+00 0. -1.
</event>
<event>
 6    1  0.5317355E-006  0.9042476E+02  0.7561462E-02  0.1301826E+00
          1   -1    0    0  501    0  0.00000000000E+00  0.00000000000E+00  0.26463689031E+02  0.26463689031E+02  0.00000000000E+00 0. -1.
         -1   -1    0    0    0  501 -0.00000000000E+00 -0.00000000000E+00 -0.94860969777E+03  0.94860969777E+03  0.00000000000E+00 0.  1.
          5    1    1    2  502    0  0.31953367068E+02  0.12637897432E+02 -0.60531774714E+03  0.60630667284E+03  0.41800000000E+01 0. -1.
         -5    1    1    2    0  502 -0.38420802999E+02 -0.52046316700E+02 -0.21854183023E+03  0.22795390136E+03  0.41800000000E+01 0. -1.
        -11    1    1    2    0    0 -0.22943260815E+02 -0.90984831280E+01  0.28584513189E+01  0.24846455603E+02  0.00000000000E+00 0. -1.
         11    1    1    2    0    0  0.29410696747E+02  0.48506902396E+02 -0.10114488269E+03  0.11596635700E+03  0.00000000000E+00 0.  1.
</event>
<event>
 6    1  0.5317355E-006  0.1014694E+03  0.7561462E-02  0.1277236E+00
          2   -1    0    0  501    0  0.00000000000E+00  0.00000000000E+00  0.35695686121E+02  0.35695686121E+02  0.00000000000E+00 0.  1.
         -2   -1    0    0    0  501 -0.00000000000E+00 -0.00000000000E+00 -0.37126920854E+03  0.37126920854E+03  0.00000000000E+00 0. -1.
          5    1    1    2  502    0 -0.38054460392E+02  0.37018267998E+02 -0.47063909820E+02  0.71070233775E+02  0.41800000000E+01 0. -1.
         -5    1    1    2    0  502  0.13235593441E+02 -0.59440607697E+02 -0.18324998601E+03  0.19314863849E+03  0.41800000000E+01 0. -1.
        -11    1    1    2    0    0 -0.19227938275E+02 -0.19821524346E+02 -0.95230846866E+01  0.29211223522E+02  0.00000000000E+00 0.  1.
         11    1    1    2    0    0  0.44046805226E+02  0.42243864046E+02 -0.95736541900E+02  0.11353479887E+03  0.00000000000E+00 0. -1.
</event>
<event>
 6    1  0.5317355E-006  0.1129951E+03  0.7561462E-02  0.1255122E+00
          2   -1    0    0  501    0  0.00000000000E+00  0.00000000000E+00  0.20220739879E+03  0.20220739879E+03  0.00000000000E+00 0. -1.
         -2   -1    0    0    0  501 -0.00000000000E+00 -0.00000000000E+00 -0.95835076604E+02  0.95835076604E+02  0.00000000000E+00 0.  1.
          5    1    1    2  502    0  0.41775862940E+02 -0.51516460447E+02 -0.32959825757E+02  0.74182147012E+02  0.41800000000E+01 0. -1.
         -5    1    1    2    0  502 -0.45537804108E+02 -0.27705757061E+02  0.52996112509E+02  0.75281876427E+02  0.41800000000E+01 0. -1.
        -11    1    1    2    0    0  0.35292428742E+02  0.58543095677E+02  0.18256484241E+02  0.70754143305E+02  0.00000000000E+00 0.  1.
         11    1    1    2    0    0 -0.31530487573E+02  0.20679121831E+02  0.68079551197E+02  0.77824308654E+02  0.00000000000E+00 0. -1.
</event>
<event>
 6    1  0.5317355E-006  0.9015056E+02  0.7561462E-02  0.1302488E+00
          1   -1    0    0  501    0  0.00000000000E+00  0.00000000000E+00  0.44233690429E+03  0.44233690429E+03  0.00000000000E+00 0. -1.
         -1   -1    0    0    0  501 -0.00000000000E+00 -0.00000000000E+00 -0.48358334986E+02  0.48358334986E+02  0.00000000000E+00 0.  1.
          5    1    1    2  502    0 -0.40520049117E+02 -0.23006659855E+02  0.13649122591E+03  0.14428620145E+03  0.41800000000E+01 0. -1.
         -5    1    1    2    0  502 -0.28748984913E+02 -0.83749657596E+01 -0.25397037687E+02  0.39485770959E+02  0.41800000000E+01 0. -1.
        -11    1    1    2    0    0  0.31018394069E+02 -0.21700518557E+02  0.38744207729E+02  0.54167950938E+02  0.00000000000E+00 0.  1.
         11    1    1    2    0    0  0.38250639961E+02  0.53082144171E+02  0.24414017335E+03  0.25275531593E+03  0.00000000000E+00 0. -1.
</event>
<event>
 6    1  0.5317355E-006  0.1108329E+03  0.7561462E-02  0.1259035E+00
          1   -1    0    0  501    0  0.00000000000E+00  0.00000000000E+00  0.54307897400E+02  0.54307897400E+02  0.00000000000E+00 0. -1.
         -1   -1    0    0    0  501 -0.00000000000E+00 -0.00000000000E+00 -0.29212352940E+03  0.29212352940E+03  0.00000000000E+00 0.  1.
          5    1    1    2  502    0  0.28391769877E+02  0.37191059366E+02 -0.45546220499E+02  0.65430865005E+02  0.41800000000E+01 0.  1.
         -5    1    1    2    0  502 -0.28011864519E+02 -0.71771914075E+02 -0.16045889726E+03  0.17804606795E+03  0.41800000000E+01 0.  1.
        -11    1    1    2    0    0 -0.45733228665E+02  0.19746638460E+02 -0.20803693329E+02  0.53983808598E+02  0.00000000000E+00 0. -1.
         11    1    1    2    0    0  0.45353323307E+02  0.14834216250E+02 -0.11006820911E+02  0.48970685244E+02  0.00000000000E+00 0.  1.
</event>
<event>
 6    1  0.5317355E-006  0.7491227E+02  0.7561462E-02  0.1344143E+00
          4   -1    0    0  501    0  0.00000000000E+00  0.00000000000E+00  0.29453122683E+03  0.29453122683E+03  0.00000000000E+00 0. -1.
         -4   -1    0    0    0  501 -0.00000000000E+00 -0.00000000000E+00 -0.49256677604E+02  0.49256677604E+02  0.00000000000E+00 0.  1.
          5    1    1    2  502    0 -0.21100189638E+02  0.22414598997E+02  0.90456155332E+02  0.95642149121E+02  0.41800000000E+01 0.  1.
         -5    1    1    2    0  502  0.21421728279E+02 -0.27847369464E+02 -0.27190060536E+02  0.44622171849E+02  0.41800000000E+01 0.  1.
        -11    1    1    2    0    0 -0.40765890850E+02 -0.63357692122E+01  0.13115713921E+03  0.13749252705E+03  0.00000000000E+00 0. -1.
         11    1    1    2    0    0  0.40444352209E+02  0.11768539680E+02  0.50851315222E+02  0.66031056418E+02  0.00000000000E+00 0.  1.
</event>
<event>
 6    1  0.5317355E-006  0.1160012E+03  0.7561462E-02  0.1249844E+00
          1   -1    0    0  501    0  0.00000000000E+00  0.00000000000E+00  0.30901091458E+03  0.30901091458E+03  0.00000000000E+00 0. -1.
         -1   -1    0    0    0  501 -0.00000000000E+00 -0.00000000000E+00 -0.69897830224E+02  0.69897830224E+02  0.00000000000E+00 0.  1.
          5    1    1    2  502    0 -0.72532862674E+01 -0.10918632829E+03  0.20259498415E+02  0.11136509383E+03  0.41800000000E+01 0. -1.
         -5    1    1    2    0  502  0.11752774183E+02  0.29116778027E+02  0.34910643174E+02  0.47139578599E+02  0.41800000000E+01 0. -1.
        -11    1    1    2    0    0  0.18178898985E+02  0.22384383161E+02  0.14355792469E+03  0.14642544424E+03  0.00000000000E+00 0. -1.
         11    1    1    2    0    0 -0.22678386900E+02  0.57685167104E+02  0.40385018070E+02  0.73978628134E+02  0.00000000000E+00 0.  1.
</event>
<event>
 6    1  0.5317355E-006  0.1916666E+03  0.7561462E-02  0.1156967E+00
          1   -1    0    0  501    0  0.00000000000E+00  0.00000000000E+00  0.81907955345E+03  0.81907955345E+03  0.00000000000E+00 0. -1.
         -1   -1    0    0    0  501 -0.00000000000E+00 -0.00000000000E+00 -0.54639754534E+02  0.54639754534E+02  0.00000000000E+00 0.  1.
          5    1    1    2  502    0 -0.15888990973E+03  0.67778622849E+02  0.29772204788E+03  0.34423224039E+03  0.41800000000E+01 0. -1.
         -5    1    1    2    0  502  0.10381895844E+02  0.25446712397E+02  0.65960443148E+01  0.28570949123E+02  0.41800000000E+01 0. -1.
        -11    1    1    2    0    0  0.39054024117E+02 -0.53635170837E+02  0.83101794939E+02  0.10633840639E+03  0.00000000000E+00 0.  1.
         11    1    1    2    0    0  0.10945398977E+03 -0.39590164409E+02  0.37701991178E+03  0.39457771209E+03  0.00000000000E+00 0. -1.
</event>
<event>
 6    1  0.5317355E-006  0.5991981E+02  0.7561462E-02  0.1398169E+00
          2   -1    0    0  501    0  0.00000000000E+00  0.00000000000E+00  0.29389621661E+02  0.29389621661E+02  0.00000000000E+00 0. -1.
         -2   -1    0    0    0  501 -0.00000000000E+00 -0.00000000000E+00 -0.57206480647E+03  0.57206480647E+03  0.00000000000E+00 0.  1.
          5    1    1    2  502    0  0.57300392541E+01  0.25009793929E+01 -0.43573721588E+03  0.43580211329E+03  0.41800000000E+01 0.  1.
         -5    1    1    2    0  502  0.49772384006E+01 -0.26716280332E+02 -0.12302577486E+02  0.30122389508E+02  0.41800000000E+01 0.  1.
        -11    1    1    2    0    0 -0.26779176500E+02 -0.22778943838E+02 -0.86089304194E+01  0.36195555796E+02  0.00000000000E+00 0. -1.
         11    1    1    2    0    0  0.16071898846E+02  0.46994244776E+02 -0.86026461027E+02  0.99334369537E+02  0.00000000000E+00 0.  1.
</event>
<event>
 6    1  0.5317355E-006  0.1491717E+03  0.7561462E-02  0.1201494E+00
          1   -1    0    0  501    0  0.00000000000E+00  0.00000000000E+00  0.28851639412E+03  0.28851639412E+03  0.00000000000E+00 0. -1.
         -1   -1    0    0    0  501 -0.00000000000E+00 -0.00000000000E+00 -0.10389787235E+03  0.10389787235E+03  0.00000000000E+00 0.  1.
          5    1    1    2  502    0 -0.16986238316E+02 -0.10186144802E+02 -0.29035419905E+02  0.35395167002E+02  0.41800000000E+01 0.  1.
         -5    1    1    2    0  502  0.10760132442E+03 -0.71291037335E+02  0.58228240499E+02  0.14166318299E+03  0.41800000000E+01 0.  1.
        -11    1    1    2    0    0 -0.92557550840E+02  0.29788964464E+02  0.10534674257E+03  0.14336045058E+03  0.00000000000E+00 0.  1.
         11    1    1    2    0    0  0.19424647309E+01  0.51688217673E+02  0.50078958601E+02  0.71995465899E+02  0.00000000000E+00 0. -1.
</event>
<event>
 6    1  0.5317355E-006  0.1332169E+03  0.7561462E-02  0.1222759E+00
          1   -1    0    0  501    0  0.00000000000E+00  0.00000000000E+00  0.96392397455E+03  0.96392397455E+03  0.00000000000E+00 0. -1.
         -1   -1    0    0    0  501 -0.00000000000E+00 -0.00000000000E+00 -0.20442307261E+02  0.20442307261E+02  0.00000000000E+00 0.  1.
          5    1    1    2  502    0  0.46716346699E+02  0.66322951182E+02  0.23600659874E+03  0.24959514810E+03  0.41800000000E+01 0.  1.
         -5    1    1    2    0  502  0.34467698584E+02 -0.57615165734E+02  0.15455788648E+03  0.16856198338E+03  0.41800000000E+01 0.  1.
        -11    1    1    2    0    0 -0.46730339429E+02 -0.47100077753E+02  0.38046852897E+03  0.38621036170E+03  0.00000000000E+00 0.  1.
         11    1    1    2    0    0 -0.34453705854E+02  0.38392292304E+02  0.17244865310E+03  0.17999878864E+03  0.00000000000E+00 0. -1.
</event>
<event>
 6    1  0.5317355E-006  0.1810828E+03  0.7561462E-02  0.1166759E+00
         -1   -1    0    0    0  501 -0.00000000000E+00  0.00000000000E+00  0.42498897894E+02  0.42498897894E+02  0.00000000000E+00 0.  1.
          1   -1    0    0  501    0  0.00000000000E+00 -0.00000000000E+00 -0.80537723765E+03  0.80537723765E+03  0.00000000000E+00 0. -1.
          5    1    1    2  502    0  0.31877185557E+02 -0.10832006828E+02 -0.88356752732E+02  0.94646053718E+02  0.41800000000E+01 0. -1.
         -5    1    1    2    0  502 -0.19988368695E+02  0.15823489879E+03 -0.36338721305E+03  0.39686969787E+03  0.41800000000E+01 0. -1.
        -11    1    1    2    0    0 -0.46729006946E+02 -0.75448385844E+02 -0.20582930041E+03  0.22414673748E+03  0.00000000000E+00 0. -1.
         11    1    1    2    0    0  0.34840190083E+02 -0.71954506121E+02 -0.10530507357E+03  0.13221364648E+03  0.00000000000E+00 0.  1.
</event>
<event>
 6    1  0.5317355E-006  0.1034412E+03  0.7561462E-02  0.1273222E+00
          1   -1    0    0  501    0  0.00000000000E+00  0.00000000000E+00  0.86164247697E+02  0.86164247697E+02  0.00000000000E+00 0. -1.
         -1   -1    0    0    0  501 -0.00000000000E+00 -0.00000000000E+00 -0.19319325764E+03  0.19319325764E+03  0.00000000000E+00 0.  1.
          5    1    1    2  502    0  0.49704700924E+01 -0.75377776423E+02 -0.30324086917E+02  0.81507897769E+02  0.41800000000E+01 0. -1.
         -5    1    1    2    0  502 -0.53536467573E+02  0.31431563449E+02 -0.57855783420E+02  0.84963878302E+02  0.41800000000E+01 0. -1.
        -11    1    1    2    0    0  0.64526965812E+01  0.18977666464E+02 -0.50672624837E+02  0.54493155767E+02  0.00000000000E+00 0.  1.
         11    1    1    2    0    0  0.42113300899E+02  0.24968546510E+02  0.31823485231E+02  0.58392573498E+02  0.00000000000E+00 0. -1.
</event>
<event>
 6    1  0.5317355E-006  0.1336531E+03  0.7561462E-02  0.1222134E+00
          1   -1    0    0  501    0  0.00000000000E+00  0.00000000000E+00  0.65843845671E+02  0.65843845671E+02  0.00000000000E+00 0. -1.
         -1   -1    0    0    0  501 -0.00000000000E+00 -0.00000000000E+00 -0.30966398387E+03  0.30966398387E+03  0.00000000000E+00 0.  1.
          5    1    1    2  502    0  0.44831583932E+02 -0.12426527417E+02 -0.13633828970E+02  0.48658433944E+02  0.41800000000E+01 0. -1.
         -5    1    1    2    0  502  0.13212915958E+02  0.88578849991E+02 -0.14355841442E+03  0.16925508726E+03  0.41800000000E+01 0.  1.
        -11    1    1    2    0    0  0.24236702420E+02 -0.17542922246E+02 -0.26919770613E+02  0.40247309413E+02  0.00000000000E+00 0.  1.
         11    1    1    2    0    0 -0.82281202310E+02 -0.58609400328E+02 -0.59708124194E+02  0.11734699892E+03  0.00000000000E+00 0. -1.
</event>
<event>
 6    1  0.5317355E-006  0.1653585E+03  0.7561462E-02  0.1182777E+00
          2   -1    0    0  501    0  0.00000000000E+00  0.00000000000E+00  0.13767900833E+03  0.13767900833E+03  0.00000000000E+00 0. -1.
         -2   -1    0    0    0  501 -0.00000000000E+00 -0.00000000000E+00 -0.43404810187E+03  0.43404810187E+03  0.00000000000E+00 0.  1.
          5    1    1    2  502    0  0.42074052777E+02 -0.77473930369E+02 -0.66656263946E+02  0.11060273833E+03  0.41800000000E+01 0. -1.
         -5    1    1    2    0  502 -0.43586099148E+01 -0.68309242233E+02 -0.27250311693E+03  0.28099923700E+03  0.41800000000E+01 0. -1.
        -11    1    1    2    0    0  0.28340589680E+02  0.36903420361E+02  0.26800620571E+01  0.46607233241E+02  0.00000000000E+00 0. -1.
         11    1    1    2    0    0 -0.66056032543E+02  0.10887975224E+03  0.40110225284E+02  0.13351790163E+03  0.00000000000E+00 0.  1.
</event>
<event>
 6    1  0.5317355E-006  0.1180381E+03  0.7561462E-02  0.1246369E+00
         -4   -1    0    0    0  501 -0.00000000000E+00  0.00000000000E+00  0.52651804948E+02  0.52651804948E+02  0.00000000000E+00 0.  1.
          4   -1    0    0  501    0  0.00000000000E+00 -0.00000000000E+00 -0.29857491022E+03  0.29857491022E+03  0.00000000000E+00 0. -1.
          5    1    1    2  502    0 -0.34909412902E+02 -0.24614613810E+02 -0.25757985313E+02  0.50054895161E+02  0.41800000000E+01 0.  1.
         -5    1    1    2    0  502  0.88369633653E+02  0.29119383665E+02 -0.62849237081E+02  0.11235937726E+03  0.41800000000E+01 0.  1.
        -11    1    1    2    0    0 -0.76057131199E+02 -0.10142363835E+02 -0.14049892790E+03  0.16008592534E+03  0.00000000000E+00 0. -1.
         11    1    1    2    0    0  0.22596910448E+02  0.56375939797E+01 -0.16816954979E+02  0.28726517409E+02  0.00000000000E+00 0.  1.
</event>
<event>
 6    1  0.5317355E-006  0.1089480E+03  0.7561462E-02  0.1262531E+00
          1   -1    0    0  501    0  0.00000000000E+00  0.00000000000E+00  0.63184550681E+02  0.63184550681E+02  0.00000000000E+00 0. -1.
         -1   -1    0    0    0  501 -0.00000000000E+00 -0.00000000000E+00 -0.40025756263E+03  0.40025756263E+03  0.00000000000E+00 0.  1.
          5    1    1    2  502    0 -0.29882408917E+02 -0.97131037511E+01 -0.24175559960E+02  0.39865183388E+02  0.41800000000E+01 0. -1.
         -5    1    1    2    0  502  0.61545010161E+02 -0.51130268076E+02 -0.29834449112E+03  0.30891584675E+03  0.41800000000E+01 0.  1.
        -11    1    1    2    0    0 -0.30071018300E+02 -0.12607876714E+02 -0.24138940681E+02  0.40569855237E+02  0.00000000000E+00 0.  1.
         11    1    1    2    0    0 -0.15915829446E+01  0.73451248541E+02  0.95859798129E+01  0.74091227938E+02  0.00000000000E+00 0. -1.
</event>
<event>
 6    1  0.5317355E-006  0.8807611E+02  0.7561462E-02  0.1307579E+00
          3   -1    0    0  501    0  0.00000000000E+00  0.00000000000E+00  0.25033697355E+03  0.25033697355E+03  0.00000000000E+00 0. -1.
         -3   -1    0    0    0  501 -0.00000000000E+00 -0.00000000000E+00 -0.60352872083E+02  0.60352872083E+02  0.00000000000E+00 0.  1.
          5    1    1    2  502    0  0.25626387752E+02  0.30493655867E+02 -0.18044031311E+01  0.40091184418E+02  0.41800000000E+01 0. -1.
         -5    1    1    2    0  502 -0.67183625167E+02 -0.53446322553E+02  0.65645694375E+02  0.10815257036E+03  0.41800000000E+01 0. -1.
        -11    1    1    2    0    0  0.12796808081E+02 -0.83960841706E+00 -0.13073137742E+02  0.18313114693E+02  0.00000000000E+00 0.  1.
         11    1    1    2    0    0  0.28760429334E+02  0.23792275103E+02  0.13921594797E+03  0.14413297617E+03  0.00000000000E+00 0. -1.
</event>
<event>
 6    1  0.5317355E-006  0.1509205E+03  0.7561462E-02  0.1199346E+00
         -1   -1    0    0    0  501 -0.00000000000E+00  0.00000000000E+00  0.38676889694E+03  0.38676889694E+03  0.00000000000E+00 0.  1.
          1   -1    0    0  501    0  0.00000000000E+00 -0.00000000000E+00 -0.64389619275E+02  0.64389619275E+02  0.00000000000E+00 0. -1.
          5    1    1    2  502    0 -0.96324652689E+01 -0.89753752988E+02  0.15729030317E+03  0.18140075092E+03  0.41800000000E+01 0. -1.
         -5    1    1    2    0  502  0.70378821074E+02  0.18642616726E+01  0.71888870084E+02  0.10070817231E+03  0.41800000000E+01 0. -1.
        -11    1    1    2    0    0 -0.13104007185E+02  0.92185354707E+02  0.58697951184E+02  0.11006954211E+03  0.00000000000E+00 0. -1.
         11    1    1    2    0    0 -0.47642348620E+02 -0.42958633916E+01  0.34502153221E+02  0.58980050875E+02  0.00000000000E+00 0.  1.
</event>
<event>
 6    1  0.5317355E-006  0.8323659E+02  0.7561462E-02  0.1320110E+00
          2   -1    0    0  501    0  0.00000000000E+00  0.00000000000E+00  0.24916427299E+03  0.24916427299E+03  0.00000000000E+00 0. -1.
         -2   -1    0    0    0  501 -0.00000000000E+00 -0.00000000000E+00 -0.63486871555E+02  0.63486871555E+02  0.00000000000E+00 0.  1.
          5    1    1    2  502    0  0.64535753246E+01  0.40054195206E+02  0.95866552835E+02  0.10418183882E+03  0.41800000000E+01 0.  1.
         -5    1    1    2    0  502 -0.40481904589E+02  0.59551668607E+01 -0.27454389866E+02  0.49451638339E+02  0.41800000000E+01 0.  1.
        -11    1    1    2    0    0  0.43544361554E+02 -0.66323345773E+01  0.11154685003E+02  0.45437058473E+02  0.00000000000E+00 0.  1.
         11    1    1    2    0    0 -0.95160322901E+01 -0.39377027489E+02  0.10611055346E+03  0.11358060891E+03  0.00000000000E+00 0. -1.
</event>
<event>
 6    1  0.5317355E-006  0.1184947E+03  0.7561462E-02  0.1245601E+00
          1   -1    0    0  501    0  0.00000000000E+00  0.00000000000E+00  0.79240416401E+02  0.79240416401E+02  0.00000000000E+00 0. -1.
         -1   -1    0    0    0  501 -0.00000000000E+00 -0.00000000000E+00 -0.23447614574E+03  0.23447614574E+03  0.00000000000E+00 0.  1.
          5    1    1    2  502    0 -0.84318716308E+02  0.15839606057E+02 -0.79417119368E+02  0.11698329064E+03  0.41800000000E+01 0. -1.
         -5    1    1    2    0  502  0.44177258428E+02  0.16041921093E+01 -0.77876055829E+02  0.89645725307E+02  0.41800000000E+01 0.  1.
        -11    1    1    2    0    0  0.66988768116E+02  0.10651286621E+02 -0.30178279330E+01  0.67897365530E+02  0.00000000000E+00 0.  1.
         11    1    1    2    0    0 -0.26847310236E+02 -0.28095084787E+02  0.50752737952E+01  0.39190180660E+02  0.00000000000E+00 0. -1.
</event>
<event>
 6    1  0.5317355E-006  0.6080355E+02  0.7561462E-02  0.1394490E+00
          2   -1    0    0  501    0  0.00000000000E+00  0.00000000000E+00  0.63003383057E+03  0.63003383057E+03  0.00000000000E+00 0. -1.
         -2   -1    0    0    0  501 -0.00000000000E+00 -0.00000000000E+00 -0.12431177998E+02  0.12431177998E+02  0.00000000000E+00 0.  1.
          5    1    1    2  502    0  0.15620443659E+02  0.19855070680E+02  0.34816965382E+03  0.34911001466E+03  0.41800000000E+01 0. -1.
         -5    1    1    2    0  502 -0.37837633422E+02  0.13582414628E+01  0.35733426676E+02  0.52229125063E+02  0.41800000000E+01 0.  1.
        -11    1    1    2    0    0  0.26389108615E+02 -0.34812365353E+02  0.15020790240E+03  0.15643113430E+03  0.00000000000E+00 0. -1.
         11    1    1    2    0    0 -0.41719188520E+01  0.13599053210E+02  0.83491669680E+02  0.84694734554E+02  0.00000000000E+00 0.  1.
</event>
<event>
 6    1  0.5317355E-006  0.1224237E+03  0.7561462E-02  0.1239151E+00
          2   -1    0    0  501    0  0.00000000000E+00  0.00000000000E+00  0.38472195855E+02  0.38472195855E+02  0.00000000000E+00 0.  1.
         -2   -1    0    0    0  501 -0.00000000000E+00 -0.00000000000E+00 -0.44168899779E+03  0.44168899779E+03  0.00000000000E+00 0. -1.
          5    1    1    2  502    0 -0.36362210369E+02 -0.17989171916E+02 -0.85440061731E+02  0.94674691432E+02  0.41800000000E+01 0.  1.
         -5    1    1    2    0  502  0.71220979165E+02  0.67415519683E+02 -0.20248101390E+03  0.22501847381E+03  0.41800000000E+01 0.  1.
        -11    1    1    2    0    0 -0.14927408471E+02  0.24857827273E+02 -0.11295540358E+02  0.31117974426E+02  0.00000000000E+00 0.  1.
         11    1    1    2    0    0 -0.19931360325E+02 -0.74284175040E+02 -0.10400018594E+03  0.12935005397E+03  0.00000000000E+00 0. -1.
</event>
<event>
 6    1  0.5317355E-006  0.1256066E+03  0.7561462E-02  0.1234124E+00
          2   -1    0    0  501    0  0.00000000000E+00  0.00000000000E+00  0.10565066026E+04  0.10565066026E+04  0.00000000000E+00 0. -1.
         -2   -1    0    0    0  501 -0.00000000000E+00 -0.00000000000E+00 -0.16903860036E+02  0.16903860036E+02  0.00000000000E+00 0.  1.
          5    1    1    2  502    0  0.35516930852E+02 -0.36488332796E+01  0.15828506221E+03  0.16231574070E+03  0.41800000000E+01 0. -1.
         -5    1    1    2    0  502 -0.10928506523E+03 -0.31884707059E+01  0.50627679721E+03  0.51796434204E+03  0.41800000000E+01 0. -1.
        -11    1    1    2    0    0  0.35655924326E+02  0.41236135861E+02  0.10558850078E+03  0.11883053201E+03  0.00000000000E+00 0.  1.
         11    1    1    2    0    0  0.38112210052E+02 -0.34398831876E+02  0.26945238237E+03  0.27429984790E+03  0.00000000000E+00 0. -1.
</event>
<event>
 6    1  0.5317355E-006  0.1568651E+03  0.7561462E-02  0.1192282E+00
         -2   -1    0    0    0  501 -0.00000000000E+00  0.00000000000E+00  0.28854773561E+03  0.28854773561E+03  0.00000000000E+00 0.  1.
          2   -1    0    0  501    0  0.00000000000E+00 -0.00000000000E+00 -0.11008058717E+03  0.11008058717E+03  0.00000000000E+00 0. -1.
          5    1    1    2  502    0  0.12950139291E+03 -0.46836892986E+02  0.66646322982E+02  0.15304741121E+03  0.41800000000E+01 0. -1.
         -5    1    1    2    0  502 -0.94363192538E+01 -0.10851279610E+02  0.79602114176E+02  0.80998539318E+02  0.41800000000E+01 0. -1.
        -11    1    1    2    0    0 -0.13469828445E+03  0.57196262836E+02  0.25799836690E+02  0.14859566578E+03  0.00000000000E+00 0.  1.
         11    1    1    2    0    0  0.14633210789E+02  0.49190976013E+00  0.64188745901E+01  0.15986706484E+02  0.00000000000E+00 0. -1.
</event>
<event>
 6    1  0.5317355E-006  0.1573981E+03  0.7561462E-02  0.1191666E+00
          2   -1    0    0  501    0  0.00000000000E+00  0.00000000000E+00  0.41031151756E+03  0.41031151756E+03  0.00000000000E+00 0. -1.
         -2   -1    0    0    0  501 -0.00000000000E+00 -0.00000000000E+00 -0.67937707042E+02  0.67937707042E+02  0.00000000000E+00 0.  1.
          5    1    1    2  502    0  0.13134868130E+02 -0.81781128201E+02  0.98028364943E+02  0.12840447977E+03  0.41800000000E+01 0.  1.
         -5    1    1    2    0  502 -0.85380769237E+02 -0.19128686081E+02  0.44618328473E+02  0.98305900242E+02  0.41800000000E+01 0.  1.
        -11    1    1    2    0    0 -0.11558800317E+02  0.37308963476E+02  0.96689073198E+02  0.10428011074E+03  0.00000000000E+00 0. -1.
         11    1    1    2    0    0  0.83804701423E+02  0.63600850806E+02  0.10303804390E+03  0.14725873385E+03  0.00000000000E+00 0.  1.
</event>
<event>
 6    1  0.5317355E-006  0.1023813E+03  0.7561462E-02  0.1275367E+00
          2   -1    0    0  501    0  0.00000000000E+00  0.00000000000E+00  0.45289714839E+02  0.45289714839E+02  0.00000000000E+00 0. -1.
         -2   -1    0    0    0  501 -0.00000000000E+00 -0.00000000000E+00 -0.37677461260E+03  0.37677461260E+03  0.00000000000E+00 0.  1.
          5    1    1    2  502    0  0.43104821121E+02 -0.15878375882E+02 -0.13207376068E+02  0.47979741632E+02  0.41800000000E+01 0. -1.
         -5    1    1    2    0  502  0.12622083191E+02  0.58441279000E+02 -0.20146140761E+03  0.21018770476E+03  0.41800000000E+01 0. -1.
        -11    1    1    2    0    0 -0.65298449291E+02 -0.11635451894E+02 -0.11335983454E+03  0.13133820201E+03  0.00000000000E+00 0.  1.
         11    1    1    2    0    0  0.95715449790E+01 -0.30927451224E+02 -0.34562795459E+01  0.32558679040E+02  0.00000000000E+00 0. -1.
</event>
<event>
 6    1  0.5317355E-006  0.2009775E+03  0.7561462E-02  0.1148917E+00
         -2   -1    0    0    0  501 -0.00000000000E+00  0.00000000000E+00  0.27099659052E+02  0.27099659052E+02  0.00000000000E+00 0.  1.
          2   -1    0    0  501    0  0.00000000000E+00 -0.00000000000E+00 -0.17555878025E+04  0.17555878025E+04  0.00000000000E+00 0. -1.
          5    1    1    2  502    0  0.16558159107E+03 -0.10928413424E+03 -0.10072251402E+04  0.10265866942E+04  0.41800000000E+01 0. -1.
         -5    1    1    2    0  502 -0.20614533584E+02 -0.12492129876E+01 -0.70451862426E+02  0.73535412199E+02  0.41800000000E+01 0. -1.
        -11    1    1    2    0    0 -0.19607098501E+02  0.18196411017E+02 -0.21613425211E+02  0.34390228771E+02  0.00000000000E+00 0.  1.
         11    1    1    2    0    0 -0.12535995899E+03  0.92336936209E+02 -0.62919771560E+03  0.64817512636E+03  0.00000000000E+00 0. -1.
</event>
<event>
 6    1  0.5317355E-006  0.7553887E+02  0.7561462E-02  0.1342210E+00
          2   -1    0    0  501    0  0.00000000000E+00  0.00000000000E+00  0.23477230652E+03  0.23477230652E+03  0.00000000000E+00 0. -1.
         -2   -1    0    0    0  501 -0.00000000000E+00 -0.00000000000E+00 -0.65390306326E+02  0.65390306326E+02  0.00000000000E+00 0.  1.
          5    1    1    2  502    0  0.16721505307E+02  0.59843552768E+01  0.87210608035E+02  0.89098730640E+02  0.41800000000E+01 0. -1.
         -5    1    1    2    0  502  0.85815383313E+01 -0.43278513350E+02 -0.32206270768E+02  0.54784932187E+02  0.41800000000E+01 0. -1.
        -11    1    1    2    0    0 -0.43711760333E+02 -0.34057112597E+01  0.10026671443E+03  0.10943368258E+03  0.00000000000E+00 0.  1.
         11    1    1    2    0    0  0.18408716695E+02  0.40699869333E+02  0.14110948501E+02  0.46845267441E+02  0.00000000000E+00 0. -1.
</event>
<event>
 6    1  0.5317355E-006  0.1195870E+03  0.7561462E-02  0.1243780E+00
         -2   -1    0    0    0  501 -0.00000000000E+00  0.00000000000E+00  0.25774369905E+03  0.25774369905E+03  0.00000000000E+00 0. -1.
          2   -1    0    0  501    0  0.00000000000E+00 -0.00000000000E+00 -0.20900159409E+03  0.20900159409E+03  0.00000000000E+00 0.  1.
          5    1    1    2  502    0 -0.84565391813E+02  0.60887290168E+02  0.13051710812E+03  0.16706512355E+03  0.41800000000E+01 0. -1.
         -5    1    1    2    0  502  0.26130219903E+02 -0.21512960658E+02  0.88200595760E+02  0.94564334507E+02  0.41800000000E+01 0. -1.
        -11    1    1    2    0    0  0.23592413504E+02  0.20666072306E+02 -0.10660421915E+03  0.11112222127E+03  0.00000000000E+00 0.  1.
         11    1    1    2    0    0  0.34842758406E+02 -0.60040401815E+02 -0.63371379764E+02  0.93993613808E+02  0.00000000000E+00 0. -1.
</event>
<event>
 6    1  0.5317355E-006  0.1115094E+03  0.7561462E-02  0.1257800E+00
         -1   -1    0    0    0  501 -0.00000000000E+00  0.00000000000E+00  0.46269066757E+03  0.46269066757E+03  0.00000000000E+00 0.  1.
          1   -1    0    0  501    0  0.00000000000E+00 -0.00000000000E+00 -0.39505256583E+02  0.39505256583E+02  0.00000000000E+00 0. -1.
          5    1    1    2  502    0 -0.10442946338E+02 -0.52565208127E+01 -0.10490284692E+02  0.16254372095E+02  0.41800000000E+01 0. -1.
         -5    1    1    2    0  502  0.54784786207E+02  0.72187088174E+02  0.24645582233E+03  0.26262195883E+03  0.41800000000E+01 0. -1.
        -11    1    1    2    0    0 -0.18626803050E+02  0.21117129193E+02  0.62033635654E+02  0.68125346896E+02  0.00000000000E+00 0.  1.
         11    1    1    2    0    0 -0.25715036819E+02 -0.88047696554E+02  0.12518623770E+03  0.15519424634E+03  0.00000000000E+00 0. -1.
</event>
<event>
 6    1  0.5317355E-006  0.1593481E+03  0.7561462E-02  0.1189435E+00
          1   -1    0    0  501    0  0.00000000000E+00  0.00000000000E+00  0.27230287841E+03  0.27230287841E+03  0.00000000000E+00 0. -1.
         -1   -1    0    0    0  501 -0.00000000000E+00 -0.00000000000E+00 -0.10873466888E+03  0.10873466888E+03  0.00000000000E+00 0.  1.
          5    1    1    2  502    0  0.31876543582E+02  0.12301708153E+03  0.14996809136E+02  0.12803004750E+03  0.41800000000E+01 0. -1.
         -5    1    1    2    0  502 -0.13677502950E+02 -0.97166501672E+02  0.34258758703E+02  0.10401700862E+03  0.41800000000E+01 0.  1.
        -11    1    1    2    0    0  0.20232840371E+02  0.23353970919E+02  0.53805191846E+02  0.62046550724E+02  0.00000000000E+00 0. -1.
         11    1    1    2    0    0 -0.38431881003E+02 -0.49204550779E+02  0.60507449845E+02  0.86943940453E+02  0.00000000000E+00 0.  1.
</event>
<event>
 6    1  0.5317355E-006  0.1336817E+03  0.7561462E-02  0.1222093E+00
          2   -1    0    0  501    0  0.00000000000E+00  0.00000000000E+00  0.41572926403E+03  0.41572926403E+03  0.00000000000E+00 0. -1.
         -2   -1    0    0    0  501 -0.00000000000E+00 -0.00000000000E+00 -0.71562972615E+02  0.71562972615E+02  0.00000000000E+00 0.  1.
          5    1    1    2  502    0 -0.10793814200E+03  0.20897693661E+02  0.53787838845E+01  0.11015334682E+03  0.41800000000E+01 0.  1.
         -5    1    1    2    0  502  0.20388174967E+02 -0.25177745683E+02  0.34923210301E+02  0.47819447653E+02  0.41800000000E+01 0.  1.
        -11    1    1    2    0    0  0.89846563590E+02  0.33110733193E+02  0.25689016122E+03  0.27415557731E+03  0.00000000000E+00 0. -1.
         11    1    1    2    0    0 -0.22965965582E+01 -0.28830681171E+02  0.46974136013E+02  0.55163864864E+02  0.00000000000E+00 0.  1.
</event>
<event>
 6    1  0.5317355E-006  0.9732490E+02  0.7561462E-02  0.1286024E+00
         -2   -1    0    0    0  501 -0.00000000000E+00  0.00000000000E+00  0.93252660882E+02  0.93252660882E+02  0.00000000000E+00 0.  1.
          2   -1    0    0  501    0  0.00000000000E+00 -0.00000000000E+00 -0.14909248944E+03  0.14909248944E+03  0.00000000000E+00 0. -1.
          5    1    1    2  502    0  0.68165201612E+02 -0.61979710288E+02 -0.21361036728E+02  0.94666496124E+02  0.41800000000E+01 0.  1.
         -5    1    1    2    0  502 -0.27153439228E+02  0.32584098122E+02 -0.12184781603E+02  0.44328027421E+02  0.41800000000E+01 0.  1.
        -11    1    1    2    0    0  0.15182568198E+01  0.14742997458E+02 -0.48894088672E+02  0.51091026461E+02  0.00000000000E+00 0. -1.
         11    1    1    2    0    0 -0.42530019205E+02  0.14652614709E+02  0.26600078448E+02  0.52259600313E+02  0.00000000000E+00 0.  1.
</event>
<event>
 6    1  0.5317355E-006  0.1066158E+03  0.7561462E-02  0.1266968E+00
          2   -1    0    0  501    0  0.00000000000E+00  0.00000000000E+00  0.21920146156E+03  0.21920146156E+03  0.00000000000E+00 0.  1.
         -2   -1    0    0    0  501 -0.00000000000E+00 -0.00000000000E+00 -0.76527453773E+02  0.76527453773E+02  0.00000000000E+00 0. -1.
          5    1    1    2  502    0  0.87652227465E+01  0.82817772020E+02 -0.14653189884E+02  0.84662865921E+02  0.41800000000E+01 0.  1.
         -5    1    1    2    0  502  0.80056951716E+01 -0.35753170857E+02  0.36335816863E+02  0.51770110765E+02  0.41800000000E+01 0.  1.
        -11    1    1    2    0    0  0.83107719264E+01 -0.62808998770E+02  0.11142043801E+03  0.12817391803E+03  0.00000000000E+00 0. -1.
         11    1    1    2    0    0 -0.25081689845E+02  0.15744397606E+02  0.95709428017E+01  0.31122020621E+02  0.00000000000E+00 0.  1.
</event>
<event>
 6    1  0.5317355E-006  0.1134454E+03  0.7561462E-02  0.1254319E+00
         -2   -1    0    0    0  501 -0.00000000000E+00  0.00000000000E+00  0.31238933763E+02  0.31238933763E+02  0.00000000000E+00 0.  1.
          2   -1    0    0  501    0  0.00000000000E+00 -0.00000000000E+00 -0.68884341828E+03  0.68884341828E+03  0.00000000000E+00 0. -1.
          5    1    1    2  502    0 -0.37888394735E+01 -0.76068455310E+01  0.12262782142E+02  0.15494115959E+02  0.41800000000E+01 0. -1.
         -5    1    1    2    0  502 -0.82013721513E+02  0.34502640220E+02 -0.27513081785E+03  0.28919045978E+03  0.41800000000E+01 0. -1.
        -11    1    1    2    0    0  0.11552953896E+02 -0.49422450908E+02 -0.18235092253E+03  0.18928261501E+03  0.00000000000E+00 0. -1.
         11    1    1    2    0    0  0.74249607090E+02  0.22526656218E+02 -0.21238552627E+03  0.22611516129E+03  0.00000000000E+00 0.  1.
</event>
<event>
 6    1  0.5317355E-006  0.1070138E+03  0.7561462E-02  0.1266202E+00
          2   -1    0    0  501    0  0.00000000000E+00  0.00000000000E+00  0.29616813037E+03  0.29616813037E+03  0.00000000000E+00 0. -1.
         -2   -1    0    0    0  501 -0.00000000000E+00 -0.00000000000E+00 -0.45157233846E+02  0.45157233846E+02  0.00000000000E+00 0.  1.
          5    1    1    2  502    0  0.47592840786E+01 -0.46526912161E+02  0.58667059513E+02  0.75144531485E+02  0.41800000000E+01 0.  1.
         -5    1    1    2    0  502 -0.22010732761E+02  0.79705445579E+02  0.75117711659E+02  0.11179254634E+03  0.41800000000E+01 0.  1.
        -11    1    1    2    0    0  0.16468144833E+02 -0.57566910911E+02  0.36658854852E+02  0.70206984447E+02  0.00000000000E+00 0.  1.
         11    1    1    2    0    0  0.78330384950E+00  0.24388377493E+02  0.80567270500E+02  0.84181301947E+02  0.00000000000E+00 0. -1.
</event>
<event>
 6    1  0.5317355E-006  0.1273780E+03  0.7561462E-02  0.1231399E+00
         -2   -1    0    0    0  501 -0.00000000000E+00  0.00000000000E+00  0.12863590026E+03  0.12863590026E+03  0.00000000000E+00 0.  1.
          2   -1    0    0  501    0  0.00000000000E+00 -0.00000000000E+00 -0.20010992875E+03  0.20010992875E+03  0.00000000000E+00 0. -1.
          5    1    1    2  502    0  0.53870879826E+02 -0.90364191497E+02  0.46036659267E+02  0.11491129272E+03  0.41800000000E+01 0.  1.
         -5    1    1    2    0  502 -0.42313812541E+02 -0.19846061158E+01 -0.12915112091E+02  0.44482242676E+02  0.41800000000E+01 0.  1.
        -11    1    1    2    0    0  0.18969845216E+02  0.16498399081E+02  0.11262986317E+02  0.27548267831E+02  0.00000000000E+00 0.  1.
         11    1    1    2    0    0 -0.30526912500E+02  0.75850398531E+02 -0.11585856198E+03  0.14180402578E+03  0.00000000000E+00 0. -1.
</event>
<event>
 6    1  0.5317355E-006  0.1289097E+03  0.7561462E-02  0.1229083E+00
          2   -1    0    0  501    0  0.00000000000E+00  0.00000000000E+00  0.35692889981E+03  0.35692889981E+03  0.00000000000E+00 0. -1.
         -2   -1    0    0    0  501 -0.00000000000E+00 -0.00000000000E+00 -0.13800793017E+03  0.13800793017E+03  0.00000000000E+00 0.  1.
          5    1    1    2  502    0  0.15722595955E+02  0.30806243926E+02  0.46477347068E+01  0.35146813885E+02  0.41800000000E+01 0.  1.
         -5    1    1    2    0  502 -0.11029931090E+03 -0.27305993601E+02 -0.78886100243E+02  0.13839091185E+03  0.41800000000E+01 0.  1.
        -11    1    1    2    0    0  0.69103225575E+02  0.22696884031E+02  0.26628577011E+03  0.27604078629E+03  0.00000000000E+00 0. -1.
         11    1    1    2    0    0  0.25473489373E+02 -0.26197134356E+02  0.26873565062E+02  0.45358317963E+02  0.00000000000E+00 0.  1.
</event>
<event>
 6    1  0.5317355E-006  0.8367228E+02  0.7561462E-02  0.1318942E+00
          1   -1    0    0  501    0  0.00000000000E+00  0.00000000000E+00  0.30493261191E+03  0.30493261191E+03  0.00000000000E+00 0. -1.
         -1   -1    0    0    0  501 -0.00000000000E+00 -0.00000000000E+00 -0.64515108425E+02  0.64515108425E+02  0.00000000000E+00 0.  1.
          5    1    1    2  502    0  0.20305406507E+02 -0.19594675497E+01 -0.35909323393E+02  0.41510251180E+02  0.41800000000E+01 0. -1.
         -5    1    1    2    0  502  0.13719478116E+02  0.60016043699E+02  0.92916539241E+02  0.11153970255E+03  0.41800000000E+01 0. -1.
        -11    1    1    2    0    0  0.11361378400E+02 -0.30784521755E+00 -0.62790611102E+01  0.12984694692E+02  0.00000000000E+00 0.  1.
         11    1    1    2    0    0 -0.45386263023E+02 -0.57748730932E+02  0.18968934874E+03  0.20341307191E+03  0.00000000000E+00 0. -1.
</event>
<event>
 6    1  0.5317355E-006  0.1095105E+03  0.7561462E-02  0.1261479E+00
          1   -1    0    0  501    0  0.00000000000E+00  0.00000000000E+00  0.33390788844E+03  0.33390788844E+03  0.00000000000E+00 0. -1.
         -1   -1    0    0    0  501 -0.00000000000E+00 -0.00000000000E+00 -0.46182324395E+02  0.46182324395E+02  0.00000000000E+00 0.  1.
          5    1    1    2  502    0 -0.25080649534E+01 -0.74881565583E+02  0.65043948575E+02  0.99306227903E+02  0.41800000000E+01 0.  1.
         -5    1    1    2    0  502 -0.11127597647E+00  0.48919568096E+02  0.14430368266E+02  0.51174646587E+02  0.41800000000E+01 0.  1.
        -11    1    1    2    0    0 -0.11052709752E+02 -0.32768409474E+02  0.55573616272E+02  0.65455006515E+02  0.00000000000E+00 0. -1.
         11    1    1    2    0    0  0.13672050682E+02  0.58730406961E+02  0.15267763093E+03  0.16415433183E+03  0.00000000000E+00 0.  1.
</event>
<event>
 6    1  0.5317355E-006  0.9989652E+02  0.7561462E-02  0.1280514E+00
         -4   -1    0    0    0  501 -0.00000000000E+00  0.00000000000E+00  0.52999776025E+03  0.52999776025E+03  0.00000000000E+00 0.  1.
          4   -1    0    0  501    0  0.00000000000E+00 -0.00000000000E+00 -0.24045394994E+02  0.24045394994E+02  0.00000000000E+00 0. -1.
          5    1    1    2  502    0  0.44601401025E+02  0.37690177863E+02  0.14914074336E+03  0.16021943768E+03  0.41800000000E+01 0.  1.
         -5    1    1    2    0  502 -0.68936889552E+02 -0.12004158850E+02  0.12981517484E+03  0.14753252722E+03  0.41800000000E+01 0.  1.
        -11    1    1    2    0    0  0.66153867221E+01 -0.44684282040E+02  0.21100174149E+03  0.21578272246E+03  0.00000000000E+00 0.  1.
         11    1    1    2    0    0  0.17720101805E+02  0.18998263027E+02  0.15994705577E+02  0.30508467882E+02  0.00000000000E+00 0. -1.
</event>
<event>
 6    1  0.5317355E-006  0.1022425E+03  0.7561462E-02  0.1275650E+00
          1   -1    0    0  501    0  0.00000000000E+00  0.00000000000E+00  0.21061763058E+03  0.21061763058E+03  0.00000000000E+00 0. -1.
         -1   -1    0    0    0  501 -0.00000000000E+00 -0.00000000000E+00 -0.87871147812E+02  0.87871147812E+02  0.00000000000E+00 0.  1.
          5    1    1    2  502    0 -0.19004187893E+02  0.32473996319E+02 -0.32398009163E+02  0.49827933854E+02  0.41800000000E+01 0.  1.
         -5    1    1    2    0  502  0.48364877695E+01  0.39322028455E+02  0.10492301130E+03  0.11223156524E+03  0.41800000000E+01 0.  1.
        -11    1    1    2    0    0  0.39325167187E+02 -0.88327530625E+02  0.40073005062E+02  0.10466167959E+03  0.00000000000E+00 0. -1.
         11    1    1    2    0    0 -0.25157467064E+02  0.16531505851E+02  0.10148475569E+02  0.31767599707E+02  0.00000000000E+00 0.  1.
</event>
<event>
 6    1  0.5317355E-006  0.1265480E+03  0.7561462E-02  0.1232670E+00
         -1   -1    0    0    0  501 -0.00000000000E+00  0.00000000000E+00  0.14185810750E+03  0.14185810750E+03  0.00000000000E+00 0.  1.
          1   -1    0    0  501    0  0.00000000000E+00 -0.00000000000E+00 -0.17139078135E+03  0.17139078135E+03  0.00000000000E+00 0. -1.
          5    1    1    2  502    0 -0.59123879081E+01  0.31329929534E+02 -0.62490629437E+02  0.70278531451E+02  0.41800000000E+01 0.  1.
         -5    1    1    2    0  502 -0.78269408149E+02  0.43530827809E+02  0.42534166910E+02  0.99235381677E+02  0.41800000000E+01 0.  1.
        -11    1    1    2    0    0  0.47882177136E+01 -0.46847775110E+02 -0.31599717237E+02  0.56711402655E+02  0.00000000000E+00 0. -1.
         11    1    1    2    0    0  0.79393578344E+02 -0.28012982233E+02  0.22023505917E+02  0.87023573063E+02  0.00000000000E+00 0.  1.
</event>
<event>
 6    1  0.5317355E-006  0.9787197E+02  0.7561462E-02  0.1284836E+00
          2   -1    0    0  501    0  0.00000000000E+00  0.00000000000E+00  0.18901938103E+03  0.18901938103E+03  0.00000000000E+00 0. -1.
         -2   -1    0    0    0  501 -0.00000000000E+00 -0.00000000000E+00 -0.80249033950E+02  0.80249033950E+02  0.00000000000E+00 0.  1.
          5    1    1    2  502    0  0.68164989469E+01  0.56676776401E+02  0.20299475887E+02  0.60731069169E+02  0.41800000000E+01 0. -1.
         -5    1    1    2    0  502 -0.60318192617E+02 -0.50542261736E+02  0.20152122870E+02  0.81341164475E+02  0.41800000000E+01 0. -1.
        -11    1    1    2    0    0  0.41844315566E+02  0.66831762250E+01 -0.12785853129E+02  0.44261604466E+02  0.00000000000E+00 0.  1.
         11    1    1    2    0    0  0.11657378104E+02 -0.12817690890E+02  0.81104601451E+02  0.82934576870E+02  0.00000000000E+00 0. -1.
</event>
<event>
 6    1  0.7730974E-006  0.1472801E+03  0.7561462E-02  0.1203856E+00
          2   -1    0    0  501    0  0.00000000000E+00  0.00000000000E+00  0.88613280139E+02  0.88613280139E+02  0.00000000000E+00 0. -1.
         -2   -1    0    0    0  501 -0.00000000000E+00 -0.00000000000E+00 -0.39336824598E+03  0.39336824598E+03  0.00000000000E+00 0.  1.
          5    1    1    2  502    0  0.12310111386E+02 -0.57344606137E+02 -0.18436059908E+03  0.19351032424E+03  0.41800000000E+01 0.  1.
         -5    1    1    2    0  502  0.29179373368E+02 -0.82919841721E+02 -0.26336709589E+02  0.91859842441E+02  0.41800000000E+01 0.  1.
        -11    1    1    2    0    0 -0.13929142201E+02  0.83521011187E+02 -0.16074391954E+01  0.84689811506E+02  0.00000000000E+00 0. -1.
         11    1    1    2    0    0 -0.27560342554E+02  0.56743436672E+02 -0.92450217979E+02  0.11192154793E+03  0.00000000000E+00 0.  1.
</event>
<event>
 6    1  0.5317355E-006  0.9963169E+02  0.7561462E-02  0.1281072E+00
         -1   -1    0    0    0  501 -0.00000000000E+00  0.00000000000E+00  0.42291559026E+02  0.42291559026E+02  0.00000000000E+00 0.  1.
          1   -1    0    0  501    0  0.00000000000E+00 -0.00000000000E+00 -0.27657912782E+03  0.27657912782E+03  0.00000000000E+00 0. -1.
          5    1    1    2  502    0  0.30122776650E+02 -0.51094812081E+02 -0.12313133660E+03  0.13673646166E+03  0.41800000000E+01 0. -1.
         -5    1    1    2    0  502 -0.24871260689E+02  0.44247197761E+02 -0.23188179222E+02  0.55960326782E+02  0.41800000000E+01 0. -1.
        -11    1    1    2    0    0  0.41433597709E+02 -0.14370270703E+01 -0.52847363345E+02  0.67168831152E+02  0.00000000000E+00 0. -1.
         11    1    1    2    0    0 -0.46685113670E+02  0.82846413899E+01 -0.35120689631E+02  0.59005067253E+02  0.00000000000E+00 0.  1.
</event>
<event>
 6    1  0.5317355E-006  0.7949523E+02  0.7561462E-02  0.1330490E+00
         -4   -1    0    0    0  501 -0.00000000000E+00  0.00000000000E+00  0.35994219618E+03  0.35994219618E+03  0.00000000000E+00 0.  1.
          4   -1    0    0  501    0  0.00000000000E+00 -0.00000000000E+00 -0.37833131871E+02  0.37833131871E+02  0.00000000000E+00 0. -1.
          5    1    1    2  502    0 -0.32097839311E+02 -0.23475158851E+02  0.13630659582E+02  0.42244782543E+02  0.41800000000E+01 0.  1.
         -5    1    1    2    0  502  0.97220894155E+01  0.29093285655E+02  0.23495112653E+03  0.23698194563E+03  0.41800000000E+01 0.  1.
        -11    1    1    2    0    0 -0.26653259268E+02 -0.23822049564E+02  0.49335268168E+02  0.60924994545E+02  0.00000000000E+00 0.  1.
         11    1    1    2    0    0  0.49029009163E+02  0.18203922760E+02  0.24192010028E+02  0.57623605341E+02  0.00000000000E+00 0. -1.
</event>
<event>
 6    1  0.5317355E-006  0.1403517E+03  0.7561462E-02  0.1212857E+00
         -2   -1    0    0    0  501 -0.00000000000E+00  0.00000000000E+00  0.40216949217E+03  0.40216949217E+03  0.00000000000E+00 0.  1.
          2   -1    0    0  501    0  0.00000000000E+00 -0.00000000000E+00 -0.78471908852E+02  0.78471908852E+02  0.00000000000E+00 0. -1.
          5    1    1    2  502    0 -0.82997722129E+02  0.24337785515E+02  0.23258964111E+03  0.24818614634E+03  0.41800000000E+01 0.  1.
         -5    1    1    2    0  502 -0.42383724876E+02 -0.40178832906E+02  0.22418222241E+02  0.62695835878E+02  0.41800000000E+01 0.  1.
        -11    1    1    2    0    0  0.11849482826E+02  0.18530714396E+02 -0.16747768924E+02  0.27645711841E+02  0.00000000000E+00 0. -1.
         11    1    1    2    0    0  0.11353196418E+03 -0.26896670054E+01  0.85437488883E+02  0.14211370696E+03  0.00000000000E+00 0.  1.
</event>
<event>
 6    1  0.5317355E-006  0.1350429E+03  0.7561462E-02  0.1220159E+00
          2   -1    0    0  501    0  0.00000000000E+00  0.00000000000E+00  0.67833826173E+03  0.67833826173E+03  0.00000000000E+00 0. -1.
         -2   -1    0    0    0  501 -0.00000000000E+00 -0.00000000000E+00 -0.33541672996E+02  0.33541672996E+02  0.00000000000E+00 0.  1.
          5    1    1    2  502    0 -0.28018953397E+02  0.14127421385E+02  0.84065696205E+02  0.89828500282E+02  0.41800000000E+01 0. -1.
         -5    1    1    2    0  502  0.67851455661E+02 -0.90076440615E+02  0.12424165334E+03  0.16784232486E+03  0.41800000000E+01 0. -1.
        -11    1    1    2    0    0 -0.35136306338E+02 -0.12284149131E+02  0.13534653895E+03  0.14037145703E+03  0.00000000000E+00 0.  1.
         11    1    1    2    0    0 -0.46961959264E+01  0.88233168361E+02  0.30114270024E+03  0.31383765256E+03  0.00000000000E+00 0. -1.
</event>
<event>
 6    1  0.5317355E-006  0.1140886E+03  0.7561462E-02  0.1253180E+00
         -2   -1    0    0    0  501 -0.00000000000E+00  0.00000000000E+00  0.26975174822E+02  0.26975174822E+02  0.00000000000E+00 0.  1.
          2   -1    0    0  501    0  0.00000000000E+00 -0.00000000000E+00 -0.51833347962E+03  0.51833347962E+03  0.00000000000E+00 0. -1.
          5    1    1    2  502    0 -0.31661220896E+02 -0.29241214909E+02 -0.49031092150E+02  0.65414080712E+02  0.41800000000E+01 0. -1.
         -5    1    1    2    0  502  0.76433385786E+02  0.34663222170E+02 -0.19897048261E+03  0.21598686716E+03  0.41800000000E+01 0. -1.
        -11    1    1    2    0    0 -0.22261607117E+02 -0.47873122243E+02 -0.10665622975E+03  0.11900826160E+03  0.00000000000E+00 0.  1.
         11    1    1    2    0    0 -0.22510557773E+02  0.42451114982E+02 -0.13670050028E+03  0.14489944497E+03  0.00000000000E+00 0. -1.
</event>
<event>
 6    1  0.5317355E-006  0.2038008E+03  0.7561462E-02  0.1146571E+00
         -1   -1    0    0    0  501 -0.00000000000E+00  0.00000000000E+00  0.21194544122E+03  0.21194544122E+03  0.00000000000E+00 0.  1.
          1   -1    0    0  501    0  0.00000000000E+00 -0.00000000000E+00 -0.28242796949E+03  0.28242796949E+03  0.00000000000E+00 0. -1.
          5    1    1    2  502    0  0.91580959422E+01  0.87953680907E+02  0.66081872572E+01  0.88774214979E+02  0.41800000000E+01 0.  1.
         -5    1    1    2    0  502  0.11152586779E+03  0.41688918625E+02  0.86416634739E+02  0.14717775743E+03  0.41800000000E+01 0.  1.
        -11    1    1    2    0    0 -0.12631730488E+02 -0.80063101162E+02 -0.60932980995E+02  0.10140260823E+03  0.00000000000E+00 0.  1.
         11    1    1    2    0    0 -0.10805223324E+03 -0.49579498370E+02 -0.10257436927E+03  0.15701883008E+03  0.00000000000E+00 0. -1.
</event>
<event>
 6    1  0.5317355E-006  0.1699009E+03  0.7561462E-02  0.1177951E+00
         -1   -1    0    0    0  501 -0.00000000000E+00  0.00000000000E+00  0.31808281083E+02  0.31808281083E+02  0.00000000000E+00 0.  1.
          1   -1    0    0  501    0  0.00000000000E+00 -0.00000000000E+00 -0.10066224137E+04  0.10066224137E+04  0.00000000000E+00 0. -1.
          5    1    1    2  502    0  0.19701794068E+00 -0.74667666479E+02 -0.20553591010E+03  0.21871849938E+03  0.41800000000E+01 0. -1.
         -5    1    1    2    0  502 -0.86605052224E+02 -0.35741045497E+01 -0.13705288796E+03  0.16221644735E+03  0.41800000000E+01 0.  1.
        -11    1    1    2    0    0  0.10881293845E+03  0.13401011429E+02 -0.43792619538E+03  0.45144124233E+03  0.00000000000E+00 0. -1.
         11    1    1    2    0    0 -0.22404904168E+02  0.64840759600E+02 -0.19429913918E+03  0.20605450570E+03  0.00000000000E+00 0.  1.
</event>
<event>
 6    1  0.5317355E-006  0.9827998E+02  0.7561462E-02  0.1283955E+00
          4   -1    0    0  501    0  0.00000000000E+00  0.00000000000E+00  0.65649284714E+02  0.65649284714E+02  0.00000000000E+00 0.  1.
         -4   -1    0    0    0  501 -0.00000000000E+00 -0.00000000000E+00 -0.39788398327E+03  0.39788398327E+03  0.00000000000E+00 0. -1.
          5    1    1    2  502    0  0.20331374993E+02 -0.84287282241E+01 -0.22847982755E+03  0.22957550450E+03  0.41800000000E+01 0.  1.
         -5    1    1    2    0  502  0.70664903877E+02  0.27583666126E+02 -0.54523887856E+02  0.93513175670E+02  0.41800000000E+01 0.  1.
        -11    1    1    2    0    0 -0.84667389230E+02 -0.75973931534E+01  0.44949700055E+01  0.85126329283E+02  0.00000000000E+00 0.  1.
         11    1    1    2    0    0 -0.63288896396E+01 -0.11557544749E+02 -0.53725953158E+02  0.55318258535E+02  0.00000000000E+00 0. -1.
</event>
<event>
 6    1  0.5317355E-006  0.3773681E+03  0.7561462E-02  0.1051911E+00
         -1   -1    0    0    0  501 -0.00000000000E+00  0.00000000000E+00  0.11698387898E+03  0.11698387898E+03  0.00000000000E+00 0.  1.
          1   -1    0    0  501    0  0.00000000000E+00 -0.00000000000E+00 -0.12978794750E+04  0.12978794750E+04  0.00000000000E+00 0. -1.
          5    1    1    2  502    0  0.33080716742E+03  0.80956639732E+02 -0.43992855253E+03  0.55636495510E+03  0.41800000000E+01 0. -1.
         -5    1    1    2    0  502  0.31298287889E+02  0.12214480667E+02 -0.14594345786E+03  0.14981902968E+03  0.41800000000E+01 0. -1.
        -11    1    1    2    0    0 -0.22316416641E+03 -0.22195625977E+02 -0.40364917565E+03  0.46176568515E+03  0.00000000000E+00 0.  1.
         11    1    1    2    0    0 -0.13894128890E+03 -0.70975494421E+02 -0.19137440993E+03  0.24691368400E+03  0.00000000000E+00 0. -1.
</event>
<event>
 6    1  0.5317355E-006  0.1406612E+03  0.7561462E-02  0.1212442E+00
         -2   -1    0    0    0  501 -0.00000000000E+00  0.00000000000E+00  0.32919903976E+02  0.32919903976E+02  0.00000000000E+00 0.  1.
          2   -1    0    0  501    0  0.00000000000E+00 -0.00000000000E+00 -0.77370223623E+03  0.77370223623E+03  0.00000000000E+00 0. -1.
          5    1    1    2  502    0 -0.13613231457E+02 -0.67268296282E+02 -0.34867192769E+03  0.35538701343E+03  0.41800000000E+01 0. -1.
         -5    1    1    2    0  502 -0.79530939834E+02  0.18991796113E+02 -0.17627331892E+03  0.19435949699E+03  0.41800000000E+01 0. -1.
        -11    1    1    2    0    0 -0.56884659077E+01  0.29557150724E+02 -0.94976484224E+02  0.99631904322E+02  0.00000000000E+00 0. -1.
         11    1    1    2    0    0  0.98832637199E+02  0.18719349444E+02 -0.12086060142E+03  0.15724372545E+03  0.00000000000E+00 0.  1.
</event>
<event>
 6    1  0.5317355E-006  0.1340278E+03  0.7561462E-02  0.1221599E+00
         -1   -1    0    0    0  501 -0.00000000000E+00  0.00000000000E+00  0.63209915249E+02  0.63209915249E+02  0.00000000000E+00 0.  1.
          1   -1    0    0  501    0  0.00000000000E+00 -0.00000000000E+00 -0.49983206794E+03  0.49983206794E+03  0.00000000000E+00 0. -1.
          5    1    1    2  502    0 -0.98807770229E+02  0.19490551043E+02 -0.24698153085E+02  0.10378019177E+03  0.41800000000E+01 0.  1.
         -5    1    1    2    0  502 -0.32463607972E+02 -0.98332606047E+00 -0.13385625665E+03  0.13780356533E+03  0.41800000000E+01 0.  1.
        -11    1    1    2    0    0  0.24451133586E+02 -0.12651222865E+02 -0.15909837029E+03  0.16146269786E+03  0.00000000000E+00 0. -1.
         11    1    1    2    0    0  0.10682024461E+03 -0.58560021167E+01 -0.11896937267E+03  0.15999552823E+03  0.00000000000E+00 0.  1.
</event>
<event>
 6    1  0.5317355E-006  0.1049354E+03  0.7561462E-02  0.1270247E+00
          1   -1    0    0  501    0  0.00000000000E+00  0.00000000000E+00  0.39097469264E+02  0.39097469264E+02  0.00000000000E+00 0. -1.
         -1   -1    0    0    0  501 -0.00000000000E+00 -0.00000000000E+00 -0.41273706576E+03  0.41273706576E+03  0.00000000000E+00 0.  1.
          5    1    1    2  502    0 -0.10057753615E+02 -0.33792880015E+02 -0.17869487564E+03  0.18218794726E+03  0.41800000000E+01 0.  1.
         -5    1    1    2    0  502 -0.17048154189E+02  0.79147767661E+02 -0.10801651252E+03  0.13505572207E+03  0.41800000000E+01 0.  1.
        -11    1    1    2    0    0  0.15199939363E+02  0.20976031053E+02 -0.17302884441E+01  0.25962009427E+02  0.00000000000E+00 0. -1.
         11    1    1    2    0    0  0.11905968441E+02 -0.66330918698E+02 -0.85197919895E+02  0.10862885627E+03  0.00000000000E+00 0.  1.
</event>
<event>
 6    1  0.5467414E-006  0.1197620E+03  0.7561462E-02  0.1243490E+00
         -1   -1    0    0    0  501 -0.00000000000E+00  0.00000000000E+00  0.40292271124E+03  0.40292271124E+03  0.00000000000E+00 0.  1.
          1   -1    0    0  501    0  0.00000000000E+00 -0.00000000000E+00 -0.37656847656E+02  0.37656847656E+02  0.00000000000E+00 0. -1.
          5    1    1    2  502    0  0.69689614708E+02  0.53962839303E+01  0.13616796354E+03  0.15311743524E+03  0.41800000000E+01 0. -1.
         -5    1    1    2    0  502 -0.45739777056E+02  0.46735191127E+02  0.84225977355E+02  0.10671360249E+03  0.41800000000E+01 0. -1.
        -11    1    1    2    0    0  0.28868212485E+02  0.12277599271E+01  0.64978285722E+02  0.71112999528E+02  0.00000000000E+00 0.  1.
         11    1    1    2    0    0 -0.52818050137E+02 -0.53359234984E+02  0.79893636971E+02  0.10963552165E+03  0.00000000000E+00 0. -1.
</event>
<event>
 6    1  0.5317355E-006  0.8429880E+02  0.7561462E-02  0.1317277E+00
          2   -1    0    0  501    0  0.00000000000E+00  0.00000000000E+00  0.61953629514E+02  0.61953629514E+02  0.00000000000E+00 0. -1.
         -2   -1    0    0    0  501 -0.00000000000E+00 -0.00000000000E+00 -0.24343835988E+03  0.24343835988E+03  0.00000000000E+00 0.  1.
          5    1    1    2  502    0  0.21170269916E+02  0.79545227873E+01  0.13220316406E+02  0.26527418400E+02  0.41800000000E+01 0. -1.
         -5    1    1    2    0  502 -0.24960670089E+02 -0.44057670749E+02 -0.16930763098E+03  0.17676724728E+03  0.41800000000E+01 0. -1.
        -11    1    1    2    0    0 -0.18751206845E+01  0.65159424988E+02 -0.35092507010E+01  0.65280790305E+02  0.00000000000E+00 0. -1.
         11    1    1    2    0    0  0.56655208572E+01 -0.29056277026E+02 -0.21888165092E+02  0.36816533410E+02  0.00000000000E+00 0.  1.
</event>
<event>
 6    1  0.5317355E-006  0.1085577E+03  0.7561462E-02  0.1263264E+00
         -3   -1    0    0    0  501 -0.00000000000E+00  0.00000000000E+00  0.59764853575E+02  0.59764853575E+02  0.00000000000E+00 0.  1.
          3   -1    0    0  501    0  0.00000000000E+00 -0.00000000000E+00 -0.43385897013E+03  0.43385897013E+03  0.00000000000E+00 0. -1.
          5    1    1    2  502    0  0.10413946024E+02  0.62055500944E+02 -0.63606850683E+01  0.63381907385E+02  0.41800000000E+01 0.  1.
         -5    1    1    2    0  502  0.12684273060E+02 -0.62412689253E+02 -0.15755902188E+02  0.65741580576E+02  0.41800000000E+01 0.  1.
        -11    1    1    2    0    0  0.19212569992E+02 -0.31752545465E+02 -0.20234231163E+03  0.20571766591E+03  0.00000000000E+00 0.  1.
         11    1    1    2    0    0 -0.42310789076E+02  0.32109733774E+02 -0.14963521766E+03  0.15878266984E+03  0.00000000000E+00 0. -1.
</event>
<event>
 6    1  0.5317355E-006  0.1710514E+03  0.7561462E-02  0.1176756E+00
         -3   -1    0    0    0  501 -0.00000000000E+00  0.00000000000E+00  0.40544606767E+03  0.40544606767E+03  0.00000000000E+00 0.  1.
          3   -1    0    0  501    0  0.00000000000E+00 -0.00000000000E+00 -0.11539014826E+03  0.11539014826E+03  0.00000000000E+00 0. -1.
          5    1    1    2  502    0 -0.48886967976E+02 -0.31161642585E+02  0.18346448322E+03  0.19245174099E+03  0.41800000000E+01 0.  1.
         -5    1    1    2    0  502 -0.94016875259E+02  0.63279170618E+02  0.10591812346E+03  0.15517586006E+03  0.41800000000E+01 0.  1.
        -11    1    1    2    0    0  0.86945671352E+02  0.25144341516E+02  0.15377685911E+02  0.91805560295E+02  0.00000000000E+00 0. -1.
         11    1    1    2    0    0  0.55958171883E+02 -0.57261869549E+02 -0.14704373183E+02  0.81403054583E+02  0.00000000000E+00 0.  1.
</event>
<event>
 6    1  0.5317355E-006  0.1639103E+03  0.7561462E-02  0.1184352E+00
         -1   -1    0    0    0  501 -0.00000000000E+00  0.00000000000E+00  0.10429514886E+03  0.10429514886E+03  0.00000000000E+00 0.  1.
          1   -1    0    0  501    0  0.00000000000E+00 -0.00000000000E+00 -0.59633088517E+03  0.59633088517E+03  0.00000000000E+00 0. -1.
          5    1    1    2  502    0  0.78627216046E+01 -0.58030166937E+02 -0.11173418535E+02  0.59763202287E+02  0.41800000000E+01 0. -1.
         -5    1    1    2    0  502 -0.11602484711E+03 -0.12541587422E+02  0.18496497922E+02  0.11823133847E+03  0.41800000000E+01 0.  1.
        -11    1    1    2    0    0  0.10454477637E+03  0.26148532288E+02 -0.38790823536E+03  0.40259924871E+03  0.00000000000E+00 0. -1.
         11    1    1    2    0    0  0.36173491371E+01  0.44423222071E+02 -0.11145058034E+03  0.12003224456E+03  0.00000000000E+00 0.  1.
</event>
<event>
 6    1  0.5317355E-006  0.2241810E+03  0.7561462E-02  0.1130804E+00
         -2   -1    0    0    0  501 -0.00000000000E+00  0.00000000000E+00  0.64679919142E+02  0.64679919142E+02  0.00000000000E+00 0.  1.
          2   -1    0    0  501    0  0.00000000000E+00 -0.00000000000E+00 -0.11037755862E+04  0.11037755862E+04  0.00000000000E+00 0. -1.
          5    1    1    2  502    0 -0.13692037151E+03  0.99504289968E+02 -0.70458411515E+03  0.72464097288E+03  0.41800000000E+01 0. -1.
         -5    1    1    2    0  502  0.45872470769E+02 -0.13927757642E+03 -0.11487635677E+03  0.18632384875E+03  0.41800000000E+01 0.  1.
        -11    1    1    2    0    0  0.43911412412E+02  0.65345508448E+02 -0.10807018238E+03  0.13370643939E+03  0.00000000000E+00 0.  1.
         11    1    1    2    0    0  0.47136488331E+02 -0.25572221991E+02 -0.11156501277E+03  0.12378424433E+03  0.00000000000E+00 0. -1.
</event>
<event>
 6    1  0.5317355E-006  0.9848906E+02  0.7561462E-02  0.1283506E+00
          1   -1    0    0  501    0  0.00000000000E+00  0.00000000000E+00  0.41302302910E+02  0.41302302910E+02  0.00000000000E+00 0. -1.
         -1   -1    0    0    0  501 -0.00000000000E+00 -0.00000000000E+00 -0.39445838822E+03  0.39445838822E+03  0.00000000000E+00 0.  1.
          5    1    1    2  502    0  0.64818886138E+02  0.72464948989E+01 -0.15135016774E+03  0.16485856170E+03  0.41800000000E+01 0. -1.
         -5    1    1    2    0  502 -0.38490043033E+02 -0.59255444662E+02 -0.11267911639E+03  0.13306670059E+03  0.41800000000E+01 0. -1.
        -11    1    1    2    0    0 -0.13054093657E+02  0.90718837629E+01 -0.91461308511E+02  0.92832534118E+02  0.00000000000E+00 0.  1.
         11    1    1    2    0    0 -0.13274749447E+02  0.42937066000E+02  0.23345073326E+01  0.45002894730E+02  0.00000000000E+00 0. -1.
</event>
<event>
 6    1  0.5317355E-006  0.1929703E+03  0.7561462E-02  0.1155809E+00
          1   -1    0    0  501    0  0.00000000000E+00  0.00000000000E+00  0.43472131671E+03  0.43472131671E+03  0.00000000000E+00 0. -1.
         -1   -1    0    0    0  501 -0.00000000000E+00 -0.00000000000E+00 -0.90169476519E+02  0.90169476519E+02  0.00000000000E+00 0.  1.
          5    1    1    2  502    0 -0.33027514673E+02 -0.15795926743E+01  0.74442635276E+01  0.34149689574E+02  0.41800000000E+01 0.  1.
         -5    1    1    2    0  502  0.47210964691E+02 -0.16073389215E+03  0.14586673838E+03  0.22216848795E+03  0.41800000000E+01 0.  1.
        -11    1    1    2    0    0 -0.51509547184E+02  0.93124834902E+02  0.83867774595E+02  0.13549639088E+03  0.00000000000E+00 0.  1.
         11    1    1    2    0    0  0.37326097166E+02  0.69188649921E+02  0.10737306368E+03  0.13307622482E+03  0.00000000000E+00 0. -1.
</event>
<event>
 6    1  0.5317355E-006  0.9282322E+02  0.7561462E-02  0.1296155E+00
         -2   -1    0    0    0  501 -0.00000000000E+00  0.00000000000E+00  0.33708790542E+02  0.33708790542E+02  0.00000000000E+00 0.  1.
          2   -1    0    0  501    0  0.00000000000E+00 -0.00000000000E+00 -0.38461805842E+03  0.38461805842E+03  0.00000000000E+00 0. -1.
          5    1    1    2  502    0 -0.63271067857E+01 -0.63530152958E+02 -0.10865815208E+03  0.12609591202E+03  0.41800000000E+01 0. -1.
         -5    1    1    2    0  502  0.50577127373E+02  0.40014916156E+02 -0.47708052852E+02  0.80329135656E+02  0.41800000000E+01 0. -1.
        -11    1    1    2    0    0 -0.73322735648E+01  0.18349746327E+02 -0.74292709566E+01  0.21110885648E+02  0.00000000000E+00 0.  1.
         11    1    1    2    0    0 -0.36917747023E+02  0.51654904748E+01 -0.18711379199E+03  0.19079091564E+03  0.00000000000E+00 0. -1.
</event>
<event>
 6    1  0.5317355E-006  0.9553804E+02  0.7561462E-02  0.1289969E+00
          4   -1    0    0  501    0  0.00000000000E+00  0.00000000000E+00  0.20589534870E+03  0.20589534870E+03  0.00000000000E+00 0. -1.
         -4   -1    0    0    0  501 -0.00000000000E+00 -0.00000000000E+00 -0.58902134632E+02  0.58902134632E+02  0.00000000000E+00 0.  1.
          5    1    1    2  502    0 -0.47543163373E+02  0.24171041909E+02  0.76480336395E+02  0.93334376870E+02  0.41800000000E+01 0. -1.
         -5    1    1    2    0  502  0.48655340128E+02 -0.68827054209E+01 -0.85608456969E+01  0.50054712425E+02  0.41800000000E+01 0. -1.
        -11    1    1    2    0    0 -0.75848035130E+01  0.34878544972E+02  0.49706232277E+02  0.61194376138E+02  0.00000000000E+00 0. -1.
         11    1    1    2    0    0  0.64726267582E+01 -0.52166881460E+02  0.29367491089E+02  0.60214017897E+02  0.00000000000E+00 0.  1.
</event>
<event>
 6    1  0.5317355E-006  0.7621742E+02  0.7561462E-02  0.1340142E+00
         -4   -1    0    0    0  501 -0.00000000000E+00  0.00000000000E+00  0.11617469318E+03  0.11617469318E+03  0.00000000000E+00 0.  1.
          4   -1    0    0  501    0  0.00000000000E+00 -0.00000000000E+00 -0.12887170790E+03  0.12887170790E+03  0.00000000000E+00 0. -1.
          5    1    1    2  502    0  0.26596405212E+02  0.32880972659E+02  0.75272898042E+02  0.86440781538E+02  0.41800000000E+01 0.  1.
         -5    1    1    2    0  502 -0.36470554377E+02 -0.51943387868E+01 -0.32178858747E+02  0.49092095517E+02  0.41800000000E+01 0.  1.
        -11    1    1    2    0    0  0.33827635657E+02  0.29700312731E+01  0.79143347172E+01  0.34867846419E+02  0.00000000000E+00 0.  1.
         11    1    1    2    0    0 -0.23953486492E+02 -0.30656665145E+02 -0.63705388726E+02  0.74645677609E+02  0.00000000000E+00 0. -1.
</event>
<event>
 6    1  0.5317355E-006  0.1203638E+03  0.7561462E-02  0.1242498E+00
         -1   -1    0    0    0  501 -0.00000000000E+00  0.00000000000E+00  0.60906801625E+02  0.60906801625E+02  0.00000000000E+00 0.  1.
          1   -1    0    0  501    0  0.00000000000E+00 -0.00000000000E+00 -0.30683506195E+03  0.30683506195E+03  0.00000000000E+00 0. -1.
          5    1    1    2  502    0 -0.14359780386E+02 -0.77297936426E+02 -0.13200608659E+03  0.15370183332E+03  0.41800000000E+01 0. -1.
         -5    1    1    2    0  502  0.97229453356E+01  0.68278185308E+02 -0.60794461703E+01  0.69360495390E+02  0.41800000000E+01 0.  1.
        -11    1    1    2    0    0 -0.40334421666E+02  0.22199078641E+02 -0.34046541368E+02  0.57261083143E+02  0.00000000000E+00 0.  1.
         11    1    1    2    0    0  0.44971256716E+02 -0.13179327523E+02 -0.73796186194E+02  0.87418451721E+02  0.00000000000E+00 0. -1.
</event>
<event>
 6    1  0.5317355E-006  0.9597964E+02  0.7561462E-02  0.1288985E+00
         -2   -1    0    0    0  501 -0.00000000000E+00  0.00000000000E+00  0.58796363707E+03  0.58796363707E+03  0.00000000000E+00 0.  1.
          2   -1    0    0  501    0  0.00000000000E+00 -0.00000000000E+00 -0.29604372032E+02  0.29604372032E+02  0.00000000000E+00 0. -1.
          5    1    1    2  502    0  0.62604830110E+02  0.26780422445E+02  0.40598507492E+03  0.41167694766E+03  0.41800000000E+01 0.  1.
         -5    1    1    2    0  502 -0.39277619164E+02  0.10032538519E+02  0.58275069173E+02  0.71111456766E+02  0.41800000000E+01 0.  1.
        -11    1    1    2    0    0 -0.16622056138E+02 -0.58223292024E+02  0.31441206983E+02  0.68226050603E+02  0.00000000000E+00 0. -1.
         11    1    1    2    0    0 -0.67051548079E+01  0.21410331060E+02  0.62657913963E+02  0.66553554070E+02  0.00000000000E+00 0.  1.
</event>
<event>
 6    1  0.5317355E-006  0.1149153E+03  0.7561462E-02  0.1251729E+00
         -2   -1    0    0    0  501 -0.00000000000E+00  0.00000000000E+00  0.83255948899E+02  0.83255948899E+02  0.00000000000E+00 0.  1.
          2   -1    0    0  501    0  0.00000000000E+00 -0.00000000000E+00 -0.24748560417E+03  0.24748560417E+03  0.00000000000E+00 0. -1.
          5    1    1    2  502    0  0.73091159488E+02  0.31986468158E+02 -0.14547917136E+03  0.16597323109E+03  0.41800000000E+01 0. -1.
         -5    1    1    2    0  502  0.11893273449E+02  0.12911631230E+02  0.19825958515E+02  0.26808603197E+02  0.41800000000E+01 0.  1.
        -11    1    1    2    0    0 -0.45855188593E+02  0.24673380573E+02 -0.90447939138E+01  0.52851512057E+02  0.00000000000E+00 0.  1.
         11    1    1    2    0    0 -0.39129244344E+02 -0.69571479960E+02 -0.29531648509E+02  0.85108206716E+02  0.00000000000E+00 0. -1.
</event>
<event>
 6    1  0.5317355E-006  0.1078972E+03  0.7561462E-02  0.1264514E+00
          1   -1    0    0  501    0  0.00000000000E+00  0.00000000000E+00  0.22476646629E+03  0.22476646629E+03  0.00000000000E+00 0. -1.
         -1   -1    0    0    0  501 -0.00000000000E+00 -0.00000000000E+00 -0.10716044618E+03  0.10716044618E+03  0.00000000000E+00 0.  1.
          5    1    1    2  502    0  0.31271608084E+02 -0.62144368443E+02  0.11597990072E+03  0.13530944450E+03  0.41800000000E+01 0. -1.
         -5    1    1    2    0  502  0.14932604978E+02 -0.34963382650E+02 -0.31934784345E+02  0.49826937182E+02  0.41800000000E+01 0. -1.
        -11    1    1    2    0    0 -0.26215647525E+02  0.64245383720E+02 -0.27488202564E+02  0.74634648687E+02  0.00000000000E+00 0.  1.
         11    1    1    2    0    0 -0.19988565538E+02  0.32862367374E+02  0.61049106302E+02  0.72155882102E+02  0.00000000000E+00 0. -1.
</event>
<event>
 6    1  0.5317355E-006  0.1316239E+03  0.7561462E-02  0.1225066E+00
          2   -1    0    0  501    0  0.00000000000E+00  0.00000000000E+00  0.43077938568E+03  0.43077938568E+03  0.00000000000E+00 0.  1.
         -2   -1    0    0    0  501 -0.00000000000E+00 -0.00000000000E+00 -0.75169214646E+02  0.75169214646E+02  0.00000000000E+00 0. -1.
          5    1    1    2  502    0  0.16247578979E+02 -0.37120726863E+02 -0.30214919888E+02  0.50718300143E+02  0.41800000000E+01 0. -1.
         -5    1    1    2    0  502  0.84384771398E+02  0.27708418857E+02  0.74734380943E+02  0.11615182398E+03  0.41800000000E+01 0. -1.
        -11    1    1    2    0    0  0.15923923689E+02  0.59164401242E+01  0.25953301643E+02  0.31018534387E+02  0.00000000000E+00 0.  1.
         11    1    1    2    0    0 -0.11655627407E+03  0.34958678823E+01  0.28513740834E+03  0.30805994181E+03  0.00000000000E+00 0. -1.
</event>
<event>
 6    1  0.5317355E-006  0.9710129E+02  0.7561462E-02  0.1286512E+00
         -2   -1    0    0    0  501 -0.00000000000E+00  0.00000000000E+00  0.85796913923E+02  0.85796913923E+02  0.00000000000E+00 0.  1.
          2   -1    0    0  501    0  0.00000000000E+00 -0.00000000000E+00 -0.16081066987E+03  0.16081066987E+03  0.00000000000E+00 0. -1.
          5    1    1    2  502    0 -0.28883453238E+02  0.22590906755E+02  0.14550711306E+02  0.39671129786E+02  0.41800000000E+01 0. -1.
         -5    1    1    2    0  502  0.65127340837E+02 -0.47996736670E+02 -0.59169160330E+02  0.10031809004E+03  0.41800000000E+01 0. -1.
        -11    1    1    2    0    0  0.15799691993E+01 -0.18367028438E+02  0.21905741244E+02  0.28630500096E+02  0.00000000000E+00 0.  1.
         11    1    1    2    0    0 -0.37823856798E+02  0.43772858353E+02 -0.52301048165E+02  0.77987863867E+02  0.00000000000E+00 0. -1.
</event>
<event>
 6    1  0.5317355E-006  0.1087831E+03  0.7561462E-02  0.1262840E+00
         -1   -1    0    0    0  501 -0.00000000000E+00  0.00000000000E+00  0.73002920166E+02  0.73002920166E+02  0.00000000000E+00 0.  1.
          1   -1    0    0  501    0  0.00000000000E+00 -0.00000000000E+00 -0.23601537829E+03  0.23601537829E+03  0.00000000000E+00 0. -1.
          5    1    1    2  502    0  0.23677381802E+02 -0.20168678279E+01  0.24926232152E+02  0.34691146048E+02  0.41800000000E+01 0. -1.
         -5    1    1    2    0  502 -0.68613824724E+02 -0.47207171320E+02 -0.85564094089E+02  0.11947828491E+03  0.41800000000E+01 0. -1.
        -11    1    1    2    0    0  0.42825139299E+01 -0.25030127013E+02 -0.47802451522E+02  0.54128749804E+02  0.00000000000E+00 0. -1.
         11    1    1    2    0    0  0.40653928992E+02  0.74254166161E+02 -0.54572144661E+02  0.10072011769E+03  0.00000000000E+00 0.  1.
</event>
<event>
 6    1  0.5317355E-006  0.9782433E+02  0.7561462E-02  0.1284939E+00
          3   -1    0    0  501    0  0.00000000000E+00  0.00000000000E+00  0.19110865964E+02  0.19110865964E+02  0.00000000000E+00 0. -1.
         -3   -1    0    0    0  501 -0.00000000000E+00 -0.00000000000E+00 -0.76728369948E+03  0.76728369948E+03  0.00000000000E+00 0.  1.
          5    1    1    2  502    0 -0.64099028510E+02  0.27805535602E+01 -0.18495098721E+03  0.19580795950E+03  0.41800000000E+01 0. -1.
         -5    1    1    2    0  502  0.45494245049E+02 -0.81581680976E+01 -0.39986695034E+03  0.40255103081E+03  0.41800000000E+01 0. -1.
        -11    1    1    2    0    0 -0.19073831685E+02  0.33075401792E+02 -0.11318246420E+03  0.11944899941E+03  0.00000000000E+00 0.  1.
         11    1    1    2    0    0  0.37678615146E+02 -0.27697787255E+02 -0.50172431769E+02  0.68586575711E+02  0.00000000000E+00 0. -1.
</event>
<event>
 6    1  0.5317355E-006  0.1836653E+03  0.7561462E-02  0.1164302E+00
         -2   -1    0    0    0  501 -0.00000000000E+00  0.00000000000E+00  0.38077352277E+02  0.38077352277E+02  0.00000000000E+00 0.  1.
          2   -1    0    0  501    0  0.00000000000E+00 -0.00000000000E+00 -0.13593734126E+04  0.13593734126E+04  0.00000000000E+00 0. -1.
          5    1    1    2  502    0 -0.12313932463E+03 -0.29438716997E+02 -0.34678458368E+03  0.36919771289E+03  0.41800000000E+01 0.  1.
         -5    1    1    2    0  502 -0.47669235834E+02  0.15153840119E+02 -0.18980206055E+02  0.53662981069E+02  0.41800000000E+01 0.  1.
        -11    1    1    2    0    0  0.90526426995E+02 -0.34084729186E+02 -0.42773827102E+03  0.43853942952E+03  0.00000000000E+00 0.  1.
         11    1    1    2    0    0  0.80282133468E+02  0.48369606065E+02 -0.52779299957E+03  0.53605064140E+03  0.00000000000E+00 0. -1.
</event>
<event>
 6    1  0.5317355E-006  0.1858631E+03  0.7561462E-02  0.1162246E+00
         -1   -1    0    0    0  501 -0.00000000000E+00  0.00000000000E+00  0.68325502717E+03  0.68325502717E+03  0.00000000000E+00 0.  1.
          1   -1    0    0  501    0  0.00000000000E+00 -0.00000000000E+00 -0.60404641548E+02  0.60404641548E+02  0.00000000000E+00 0. -1.
          5    1    1    2  502    0 -0.16751901844E+03  0.69631017119E+02  0.37909276672E+03  0.42028549614E+03  0.41800000000E+01 0. -1.
         -5    1    1    2    0  502  0.97617157598E+01 -0.20806984862E+02  0.27786349889E+02  0.36301175653E+02  0.41800000000E+01 0. -1.
        -11    1    1    2    0    0  0.92814392042E+02 -0.16165626790E+02  0.18589329942E+03  0.20840383305E+03  0.00000000000E+00 0.  1.
         11    1    1    2    0    0  0.64942910641E+02 -0.32658405466E+02  0.30077969588E+02  0.78669163874E+02  0.00000000000E+00 0. -1.
</event>
<event>
 6    1  0.5317355E-006  0.8734928E+02  0.7561462E-02  0.1309401E+00
         -2   -1    0    0    0  501 -0.00000000000E+00  0.00000000000E+00  0.28920915660E+02  0.28920915660E+02  0.00000000000E+00 0.  1.
          2   -1    0    0  501    0  0.00000000000E+00 -0.00000000000E+00 -0.44390941493E+03  0.44390941493E+03  0.00000000000E+00 0. -1.
          5    1    1    2  502    0  0.26665790015E+02  0.37713050064E+02 -0.19572448966E+03  0.20114394536E+03  0.41800000000E+01 0. -1.
         -5    1    1    2    0  502 -0.34308976643E+02 -0.14288366619E+02 -0.47873604744E+01  0.37704834163E+02  0.41800000000E+01 0.  1.
        -11    1    1    2    0    0  0.24575974754E+02 -0.52108522809E+02 -0.10785729841E+03  0.12228030710E+03  0.00000000000E+00 0.  1.
         11    1    1    2    0    0 -0.16932788126E+02  0.28683839365E+02 -0.10661935073E+03  0.11170124397E+03  0.00000000000E+00 0. -1.
</event>
<event>
 6    1  0.5317355E-006  0.1822268E+03  0.7561462E-02  0.1165665E+00
          2   -1    0    0  501    0  0.00000000000E+00  0.00000000000E+00  0.69296285191E+03  0.69296285191E+03  0.00000000000E+00 0. -1.
         -2   -1    0    0    0  501 -0.00000000000E+00 -0.00000000000E+00 -0.51630224495E+02  0.51630224495E+02  0.00000000000E+00 0.  1.
          5    1    1    2  502    0 -0.61075544543E+02  0.13754171503E+02  0.12467612429E+03  0.13957438068E+03  0.41800000000E+01 0.  1.
         -5    1    1    2    0  502  0.16004485125E+02  0.13452589708E+03  0.21340116804E+03  0.25280603523E+03  0.41800000000E+01 0.  1.
        -11    1    1    2    0    0  0.49862459536E+02 -0.61123180324E+02  0.21073623860E+03  0.22501571123E+03  0.00000000000E+00 0.  1.
         11    1    1    2    0    0 -0.47914001172E+01 -0.87156888255E+02  0.92519096489E+02  0.12719694926E+03  0.00000000000E+00 0. -1.
</event>
<event>
 6    1  0.5317355E-006  0.1506946E+03  0.7561462E-02  0.1199622E+00
          3   -1    0    0  501    0  0.00000000000E+00  0.00000000000E+00  0.19293664684E+03  0.19293664684E+03  0.00000000000E+00 0. -1.
         -3   -1    0    0    0  501 -0.00000000000E+00 -0.00000000000E+00 -0.19129617029E+03  0.19129617029E+03  0.00000000000E+00 0.  1.
          5    1    1    2  502    0  0.47052214106E+02  0.44678653997E+02 -0.22354135924E+01  0.65058146678E+02  0.41800000000E+01 0. -1.
         -5    1    1    2    0  502  0.81781605077E+02 -0.66673516205E+02 -0.86190638229E+02  0.13630805996E+03  0.41800000000E+01 0. -1.
        -11    1    1    2    0    0 -0.11033544848E+03  0.17272543913E+02  0.24176148839E+02  0.11426608481E+03  0.00000000000E+00 0.  1.
         11    1    1    2    0    0 -0.18498370700E+02  0.47223182951E+01  0.65890379530E+02  0.68600525678E+02  0.00000000000E+00 0. -1.
</event>
<event>
 6    1  0.5317355E-006  0.1218675E+03  0.7561462E-02  0.1240048E+00
          1   -1    0    0  501    0  0.00000000000E+00  0.00000000000E+00  0.85060004779E+02  0.85060004779E+02  0.00000000000E+00 0. -1.
         -1   -1    0    0    0  501 -0.00000000000E+00 -0.00000000000E+00 -0.30658323676E+03  0.30658323676E+03  0.00000000000E+00 0.  1.
          5    1    1    2  502    0 -0.29755055890E+02 -0.43522956484E+02 -0.15131374949E+03  0.16029015652E+03  0.41800000000E+01 0.  1.
         -5    1    1    2    0  502 -0.35030012446E+02 -0.33460883397E+02  0.14387952649E+02  0.50707179680E+02  0.41800000000E+01 0.  1.
        -11    1    1    2    0    0  0.44967773414E+02 -0.15559097741E+02  0.79874741429E+01  0.48249206330E+02  0.00000000000E+00 0. -1.
         11    1    1    2    0    0  0.19817294922E+02  0.92542937621E+02 -0.92584909280E+02  0.13239669901E+03  0.00000000000E+00 0.  1.
</event>
<event>
 6    1  0.5317355E-006  0.1346779E+03  0.7561462E-02  0.1220675E+00
          1   -1    0    0  501    0  0.00000000000E+00  0.00000000000E+00  0.22565486492E+03  0.22565486492E+03  0.00000000000E+00 0. -1.
         -1   -1    0    0    0  501 -0.00000000000E+00 -0.00000000000E+00 -0.85823309808E+02  0.85823309808E+02  0.00000000000E+00 0.  1.
          5    1    1    2  502    0 -0.15041545948E+02 -0.31324133426E+02  0.16946201275E+02  0.38885673160E+02  0.41800000000E+01 0.  1.
         -5    1    1    2    0  502  0.78899541269E+02  0.81728059358E+02  0.30487065029E+02  0.11769259464E+03  0.41800000000E+01 0.  1.
        -11    1    1    2    0    0 -0.80106446128E+02 -0.61512204903E+02  0.89609001499E+02  0.13502061773E+03  0.00000000000E+00 0.  1.
         11    1    1    2    0    0  0.16248450808E+02  0.11108278972E+02  0.27892873130E+01  0.19879289200E+02  0.00000000000E+00 0. -1.
</event>
<event>
 6    1  0.6466318E-006  0.1886583E+03  0.7561462E-02  0.1159677E+00
         -1   -1    0    0    0  501 -0.00000000000E+00  0.00000000000E+00  0.10355068148E+03  0.10355068148E+03  0.00000000000E+00 0.  1.
          1   -1    0    0  501    0  0.00000000000E+00 -0.00000000000E+00 -0.41983433962E+03  0.41983433962E+03  0.00000000000E+00 0. -1.
          5    1    1    2  502    0  0.98387680771E+02  0.14888263173E+02 -0.24870810127E+02  0.10265391227E+03  0.41800000000E+01 0. -1.
         -5    1    1    2    0  502  0.46617229345E+02  0.88080239252E+02 -0.13206367844E+03  0.16549798241E+03  0.41800000000E+01 0. -1.
        -11    1    1    2    0    0 -0.65210217927E+02 -0.50501174906E+02 -0.13242764803E+03  0.15601225321E+03  0.00000000000E+00 0. -1.
         11    1    1    2    0    0 -0.79794692189E+02 -0.52467327519E+02 -0.26921521552E+02  0.99220873213E+02  0.00000000000E+00 0.  1.
</event>
<event>
 6    1  0.5317355E-006  0.1785523E+03  0.7561462E-02  0.1169212E+00
         -2   -1    0    0    0  501 -0.00000000000E+00  0.00000000000E+00  0.12129203074E+03  0.12129203074E+03  0.00000000000E+00 0. -1.
          2   -1    0    0  501    0  0.00000000000E+00 -0.00000000000E+00 -0.30075672754E+03  0.30075672754E+03  0.00000000000E+00 0.  1.
          5    1    1    2  502    0  0.53688533411E+02 -0.52175815299E+02 -0.56850461273E+02  0.94096873853E+02  0.41800000000E+01 0. -1.
         -5    1    1    2    0  502 -0.43303798173E+02 -0.87246770732E+02  0.13570136279E+02  0.98431900002E+02  0.41800000000E+01 0. -1.
        -11    1    1    2    0    0 -0.59961368119E+02  0.11425217611E+03 -0.91330064815E+02  0.15808259282E+03  0.00000000000E+00 0.  1.
         11    1    1    2    0    0  0.49576632882E+02  0.25170409917E+02 -0.44854306989E+02  0.71437391601E+02  0.00000000000E+00 0. -1.
</event>
<event>
 6    1  0.5317355E-006  0.1047956E+03  0.7561462E-02  0.1270523E+00
          1   -1    0    0  501    0  0.00000000000E+00  0.00000000000E+00  0.17556185786E+03  0.17556185786E+03  0.00000000000E+00 0. -1.
         -1   -1    0    0    0  501 -0.00000000000E+00 -0.00000000000E+00 -0.13905780158E+03  0.13905780158E+03  0.00000000000E+00 0.  1.
          5    1    1    2  502    0  0.28557574399E+02 -0.67319345630E+02 -0.92813601861E+02  0.11823394793E+03  0.41800000000E+01 0. -1.
         -5    1    1    2    0  502 -0.24630988389E+02 -0.10453655979E+02  0.31341908104E+02  0.41421638258E+02  0.41800000000E+01 0. -1.
        -11    1    1    2    0    0  0.22797109097E+02  0.79284890823E+02  0.98126071097E+02  0.12819722277E+03  0.00000000000E+00 0. -1.
         11    1    1    2    0    0 -0.26723695106E+02 -0.15118892140E+01 -0.15032105903E+00  0.26766850498E+02  0.00000000000E+00 0.  1.
</event>
<event>
 6    1  0.6653346E-006  0.2207814E+03  0.7561462E-02  0.1133302E+00
          3   -1    0    0  501    0  0.00000000000E+00  0.00000000000E+00  0.30760279270E+02  0.30760279270E+02  0.00000000000E+00 0. -1.
         -3   -1    0    0    0  501 -0.00000000000E+00 -0.00000000000E+00 -0.18961563856E+04  0.18961563856E+04  0.00000000000E+00 0.  1.
          5    1    1    2  502    0 -0.34827067805E+02 -0.55398592727E+02 -0.13519611465E+03  0.15025774703E+03  0.41800000000E+01 0.  1.
         -5    1    1    2    0  502 -0.14476638580E+03 -0.60311136584E+02 -0.94597794855E+03  0.95889858233E+03  0.41800000000E+01 0.  1.
        -11    1    1    2    0    0  0.49838161356E+02  0.59737694983E+02 -0.41883267448E+03  0.42599676494E+03  0.00000000000E+00 0.  1.
         11    1    1    2    0    0  0.12975529225E+03  0.55972034328E+02 -0.36538936865E+03  0.39176357056E+03  0.00000000000E+00 0. -1.
</event>
<event>
 6    1  0.5317355E-006  0.8685875E+02  0.7561462E-02  0.1310642E+00
         -1   -1    0    0    0  501 -0.00000000000E+00  0.00000000000E+00  0.27225578036E+03  0.27225578036E+03  0.00000000000E+00 0.  1.
          1   -1    0    0  501    0  0.00000000000E+00 -0.00000000000E+00 -0.50982442652E+02  0.50982442652E+02  0.00000000000E+00 0. -1.
          5    1    1    2  502    0 -0.15953934676E+01  0.57649524169E+02  0.16743871580E+03  0.17714177617E+03  0.41800000000E+01 0. -1.
         -5    1    1    2    0  502 -0.31003058478E+01 -0.14772504340E+02 -0.17058008660E+02  0.23157867783E+02  0.41800000000E+01 0. -1.
        -11    1    1    2    0    0  0.38356397351E+02  0.80444673182E+01  0.31605360232E+02  0.50347050237E+02  0.00000000000E+00 0.  1.
         11    1    1    2    0    0 -0.33660698035E+02 -0.50921487147E+02  0.39287270335E+02  0.72591528816E+02  0.00000000000E+00 0. -1.
</event>
<event>
 6    1  0.5317355E-006  0.1095306E+03  0.7561462E-02  0.1261442E+00
         -2   -1    0    0    0  501 -0.00000000000E+00  0.00000000000E+00  0.10642430199E+03  0.10642430199E+03  0.00000000000E+00 0.  1.
          2   -1    0    0  501    0  0.00000000000E+00 -0.00000000000E+00 -0.15427998284E+03  0.15427998284E+03  0.00000000000E+00 0. -1.
          5    1    1    2  502    0  0.66764394964E+02 -0.52523203006E+02  0.38785695122E+02  0.93477130011E+02  0.41800000000E+01 0. -1.
         -5    1    1    2    0  502 -0.36212766436E+02  0.12187830090E+02 -0.19043550834E+02  0.42895651103E+02  0.41800000000E+01 0. -1.
        -11    1    1    2    0    0 -0.50008761921E+02  0.52596213756E+02 -0.26549054261E+02  0.77279300285E+02  0.00000000000E+00 0.  1.
         11    1    1    2    0    0  0.19457133393E+02 -0.12260840840E+02 -0.41048770871E+02  0.47052203434E+02  0.00000000000E+00 0. -1.
</event>
<event>
 6    1  0.5317355E-006  0.1163233E+03  0.7561462E-02  0.1249289E+00
         -2   -1    0    0    0  501 -0.00000000000E+00  0.00000000000E+00  0.69212760904E+02  0.69212760904E+02  0.00000000000E+00 0. -1.
          2   -1    0    0  501    0  0.00000000000E+00 -0.00000000000E+00 -0.23949195862E+03  0.23949195862E+03  0.00000000000E+00 0.  1.
          5    1    1    2  502    0 -0.44237995460E+02  0.74565203853E+01  0.14619778469E+01  0.45080036799E+02  0.41800000000E+01 0.  1.
         -5    1    1    2    0  502  0.70342656622E+02 -0.51960298459E+02 -0.35283002522E+02  0.94394515855E+02  0.41800000000E+01 0.  1.
        -11    1    1    2    0    0 -0.53855846164E+02  0.47905208564E+02 -0.10074450516E+03  0.12387419624E+03  0.00000000000E+00 0.  1.
         11    1    1    2    0    0  0.27751185002E+02 -0.34014304904E+01 -0.35713667880E+02  0.45355970631E+02  0.00000000000E+00 0. -1.
</event>
<event>
 6    1  0.5317355E-006  0.9038353E+02  0.7561462E-02  0.1301926E+00
         -2   -1    0    0    0  501 -0.00000000000E+00  0.00000000000E+00  0.51490555471E+02  0.51490555471E+02  0.00000000000E+00 0.  1.
          2   -1    0    0  501    0  0.00000000000E+00 -0.00000000000E+00 -0.31164673976E+03  0.31164673976E+03  0.00000000000E+00 0. -1.
          5    1    1    2  502    0  0.29685785807E+02  0.63249803649E+02 -0.14112764765E+02  0.71403263721E+02  0.41800000000E+01 0. -1.
         -5    1    1    2    0  502 -0.19441947661E+02  0.11539524242E+01 -0.12549892403E+03  0.12706995423E+03  0.41800000000E+01 0. -1.
        -11    1    1    2    0    0 -0.37147460900E+02 -0.38716457209E+02 -0.19665579905E+02  0.57145716753E+02  0.00000000000E+00 0.  1.
         11    1    1    2    0    0  0.26903622755E+02 -0.25687298864E+02 -0.10087891558E+03  0.10751836052E+03  0.00000000000E+00 0. -1.
</event>
<event>
 6    1  0.5317355E-006  0.8420439E+02  0.7561462E-02  0.1317526E+00
         -2   -1    0    0    0  501 -0.00000000000E+00  0.00000000000E+00  0.72629057813E+02  0.72629057813E+02  0.00000000000E+00 0.  1.
          2   -1    0    0  501    0  0.00000000000E+00 -0.00000000000E+00 -0.21761569725E+03  0.21761569725E+03  0.00000000000E+00 0. -1.
          5    1    1    2  502    0 -0.24351123340E+02 -0.40456230706E+02 -0.96856603820E+02  0.10783486410E+03  0.41800000000E+01 0.  1.
         -5    1    1    2    0  502 -0.26824942517E+02  0.85088328496E+01  0.34231600763E+02  0.44511264511E+02  0.41800000000E+01 0.  1.
        -11    1    1    2    0    0  0.67722160578E+02  0.16028223086E+02 -0.21482125332E+02  0.72833211363E+02  0.00000000000E+00 0.  1.
         11    1    1    2    0    0 -0.16546094720E+02  0.15919174770E+02 -0.60879511046E+02  0.65065415092E+02  0.00000000000E+00 0. -1.
</event>
<event>
 6    1  0.5317355E-006  0.1097602E+03  0.7561462E-02  0.1261015E+00
         -3   -1    0    0    0  501 -0.00000000000E+00  0.00000000000E+00  0.23739412773E+02  0.23739412773E+02  0.00000000000E+00 0.  1.
          3   -1    0    0  501    0  0.00000000000E+00 -0.00000000000E+00 -0.67829400172E+03  0.67829400172E+03  0.00000000000E+00 0. -1.
          5    1    1    2  502    0  0.67547055892E+02 -0.53601576899E+02 -0.27979957971E+03  0.29281566046E+03  0.41800000000E+01 0.  1.
         -5    1    1    2    0  502 -0.24909513855E+02  0.96991143314E+01 -0.10251132055E+02  0.28932936383E+02  0.41800000000E+01 0.  1.
        -11    1    1    2    0    0 -0.55531953278E+02 -0.48121503474E+01 -0.22980521139E+03  0.23646858101E+03  0.00000000000E+00 0.  1.
         11    1    1    2    0    0  0.12894411242E+02  0.48714612915E+02 -0.13469866580E+03  0.14381623664E+03  0.00000000000E+00 0. -1.
</event>
<event>
 6    1  0.5317355E-006  0.7980180E+02  0.7561462E-02  0.1329615E+00
         -4   -1    0    0    0  501 -0.00000000000E+00  0.00000000000E+00  0.68087877431E+02  0.68087877431E+02  0.00000000000E+00 0.  1.
          4   -1    0    0  501    0  0.00000000000E+00 -0.00000000000E+00 -0.34287750946E+03  0.34287750946E+03  0.00000000000E+00 0. -1.
          5    1    1    2  502    0 -0.45050388473E+02 -0.17120902519E+02 -0.77801007419E+02  0.91614038007E+02  0.41800000000E+01 0. -1.
         -5    1    1    2    0  502  0.31978548753E+02 -0.59949499668E+00  0.48251495612E+02  0.58040211952E+02  0.41800000000E+01 0.  1.
        -11    1    1    2    0    0  0.11994090923E+02 -0.29445350613E+02 -0.16658505987E+03  0.16959206663E+03  0.00000000000E+00 0.  1.
         11    1    1    2    0    0  0.10777487974E+01  0.47165748128E+02 -0.78655060347E+02  0.91719070302E+02  0.00000000000E+00 0. -1.
</event>
<event>
 6    1  0.8965551E-006  0.3778807E+03  0.7561462E-02  0.1051720E+00
          1   -1    0    0  501    0  0.00000000000E+00  0.00000000000E+00  0.54603794024E+03  0.54603794024E+03  0.00000000000E+00 0. -1.
         -1   -1    0    0    0  501 -0.00000000000E+00 -0.00000000000E+00 -0.27250034367E+03  0.27250034367E+03  0.00000000000E+00 0.  1.
          5    1    1    2  502    0  0.12713131533E+03  0.21663614997E+03  0.54588142093E+02  0.25708156384E+03  0.41800000000E+01 0.  1.
         -5    1    1    2    0  502  0.12800750987E+03  0.47327031939E+02  0.35675003319E+02  0.14112387748E+03  0.41800000000E+01 0.  1.
        -11    1    1    2    0    0 -0.12535711942E+03 -0.14805058306E+03  0.14492069287E+03  0.24214745457E+03  0.00000000000E+00 0.  1.
         11    1    1    2    0    0 -0.12978170577E+03 -0.11591259885E+03  0.38353758283E+02  0.17818538801E+03  0.00000000000E+00 0. -1.
</event>
<event>
 6    1  0.5317355E-006  0.7363964E+02  0.7561462E-02  0.1348136E+00
         -1   -1    0    0    0  501 -0.00000000000E+00  0.00000000000E+00  0.32163209958E+03  0.32163209958E+03  0.00000000000E+00 0.  1.
          1   -1    0    0  501    0  0.00000000000E+00 -0.00000000000E+00 -0.41826259702E+02  0.41826259702E+02  0.00000000000E+00 0. -1.
          5    1    1    2  502    0 -0.36762517695E+02 -0.28077947248E+02  0.18366718111E+03  0.18944909513E+03  0.41800000000E+01 0. -1.
         -5    1    1    2    0  502  0.74958820057E+00  0.37535754854E+02  0.24299387064E+01  0.37853292816E+02  0.41800000000E+01 0. -1.
        -11    1    1    2    0    0  0.16989714078E+02  0.21082721333E+02  0.96346405730E+02  0.10007877607E+03  0.00000000000E+00 0.  1.
         11    1    1    2    0    0  0.19023215416E+02 -0.30540528938E+02 -0.26376856648E+01  0.36077195266E+02  0.00000000000E+00 0. -1.
</event>
<event>
 6    1  0.5317355E-006  0.1134638E+03  0.7561462E-02  0.1254287E+00
          1   -1    0    0  501    0  0.00000000000E+00  0.00000000000E+00  0.60147098080E+03  0.60147098080E+03  0.00000000000E+00 0. -1.
         -1   -1    0    0    0  501 -0.00000000000E+00 -0.00000000000E+00 -0.24140964010E+02  0.24140964010E+02  0.00000000000E+00 0.  1.
          5    1    1    2  502    0  0.12363354746E+02 -0.83783884694E+02  0.22554562069E+03  0.24095827707E+03  0.41800000000E+01 0.  1.
         -5    1    1    2    0  502 -0.10336468478E+02  0.38163823785E+02  0.41640348183E+02  0.57573527105E+02  0.41800000000E+01 0.  1.
        -11    1    1    2    0    0  0.44666815814E+02  0.26355189552E+02  0.18484538464E+03  0.19198316769E+03  0.00000000000E+00 0.  1.
         11    1    1    2    0    0 -0.46693702081E+02  0.19264871358E+02  0.12529866328E+03  0.13509697296E+03  0.00000000000E+00 0. -1.
</event>
<event>
 6    1  0.5317355E-006  0.1157645E+03  0.7561462E-02  0.1250252E+00
          1   -1    0    0  501    0  0.00000000000E+00  0.00000000000E+00  0.92108475531E+03  0.92108475531E+03  0.00000000000E+00 0. -1.
         -1   -1    0    0    0  501 -0.00000000000E+00 -0.00000000000E+00 -0.17398459296E+02  0.17398459296E+02  0.00000000000E+00 0.  1.
          5    1    1    2  502    0  0.16460092094E+02  0.30667638149E+02  0.52274424017E+02  0.62940658303E+02  0.41800000000E+01 0.  1.
         -5    1    1    2    0  502 -0.30542282796E+02 -0.74477102752E+02  0.42597557368E+03  0.43353469486E+03  0.41800000000E+01 0.  1.
        -11    1    1    2    0    0  0.46669686593E+02 -0.14670989156E+02  0.12565954221E+03  0.13484664667E+03  0.00000000000E+00 0. -1.
         11    1    1    2    0    0 -0.32587495891E+02  0.58480453759E+02  0.29977675610E+03  0.30716121477E+03  0.00000000000E+00 0.  1.
</event>
<event>
 6    1  0.5317355E-006  0.1624335E+03  0.7561462E-02  0.1185976E+00
         -3   -1    0    0    0  501 -0.00000000000E+00  0.00000000000E+00  0.56845496269E+03  0.56845496269E+03  0.00000000000E+00 0.  1.
          3   -1    0    0  501    0  0.00000000000E+00 -0.00000000000E+00 -0.64238451143E+02  0.64238451143E+02  0.00000000000E+00 0. -1.
          5    1    1    2  502    0 -0.32003734595E+01 -0.16088314651E+02  0.92169283926E+02  0.93710861473E+02  0.41800000000E+01 0.  1.
         -5    1    1    2    0  502  0.15393213055E+03 -0.89939552904E+01  0.11424203242E+03  0.19194974972E+03  0.41800000000E+01 0.  1.
        -11    1    1    2    0    0 -0.10882002686E+02 -0.24483998792E+01 -0.51025328235E+01  0.12265744399E+02  0.00000000000E+00 0. -1.
         11    1    1    2    0    0 -0.13984975440E+03  0.27530669820E+02  0.30290772803E+03  0.33476705824E+03  0.00000000000E+00 0.  1.
</event>
<event>
 6    1  0.5317355E-006  0.1089275E+03  0.7561462E-02  0.1262569E+00
          2   -1    0    0  501    0  0.00000000000E+00  0.00000000000E+00  0.13175527000E+03  0.13175527000E+03  0.00000000000E+00 0.  1.
         -2   -1    0    0    0  501 -0.00000000000E+00 -0.00000000000E+00 -0.93762861658E+02  0.93762861658E+02  0.00000000000E+00 0. -1.
          5    1    1    2  502    0  0.32758516524E+02 -0.54782251056E+02  0.20332833580E+02  0.67120130788E+02  0.41800000000E+01 0. -1.
         -5    1    1    2    0  502 -0.42376731251E+02  0.41629850487E+02 -0.59321345272E+01  0.59845588168E+02  0.41800000000E+01 0. -1.
        -11    1    1    2    0    0 -0.20925894198E+02 -0.32951158158E+02  0.16926956376E+01  0.39070923850E+02  0.00000000000E+00 0.  1.
         11    1    1    2    0    0  0.30544108925E+02  0.46103558727E+02  0.21899013653E+02  0.59481488854E+02  0.00000000000E+00 0. -1.
</event>
<event>
 6    1  0.5317355E-006  0.1390473E+03  0.7561462E-02  0.1214617E+00
          4   -1    0    0  501    0  0.00000000000E+00  0.00000000000E+00  0.41912839329E+03  0.41912839329E+03  0.00000000000E+00 0. -1.
         -4   -1    0    0    0  501 -0.00000000000E+00 -0.00000000000E+00 -0.51153067181E+02  0.51153067181E+02  0.00000000000E+00 0.  1.
          5    1    1    2  502    0 -0.93607046239E+02  0.85090396962E+02  0.17734436637E+03  0.21787875400E+03  0.41800000000E+01 0. -1.
         -5    1    1    2    0  502  0.14625771200E+02 -0.27296690994E+02  0.30122699753E+02  0.43403593893E+02  0.41800000000E+01 0. -1.
        -11    1    1    2    0    0  0.61625358698E+02 -0.17984328370E+01  0.36031619294E+02  0.71408660428E+02  0.00000000000E+00 0. -1.
         11    1    1    2    0    0  0.17355916342E+02 -0.55995273131E+02  0.12447664069E+03  0.13759045215E+03  0.00000000000E+00 0.  1.
</event>
<event>
 6    1  0.5317355E-006  0.1380201E+03  0.7561462E-02  0.1216018E+00
          1   -1    0    0  501    0  0.00000000000E+00  0.00000000000E+00  0.65857503824E+03  0.65857503824E+03  0.00000000000E+00 0. -1.
         -1   -1    0    0    0  501 -0.00000000000E+00 -0.00000000000E+00 -0.33234497311E+02  0.33234497311E+02  0.00000000000E+00 0.  1.
          5    1    1    2  502    0 -0.31531342514E+02  0.41721891895E+02  0.94947038128E+02  0.10847743670E+03  0.41800000000E+01 0.  1.
         -5    1    1    2    0  502  0.90125292466E+02 -0.12962509565E+00  0.11274341387E+03  0.14439922062E+03  0.41800000000E+01 0.  1.
        -11    1    1    2    0    0 -0.90746554272E+02 -0.15748525306E+02  0.31833968602E+03  0.33139569831E+03  0.00000000000E+00 0.  1.
         11    1    1    2    0    0  0.32152604319E+02 -0.25843741494E+02  0.99310402906E+02  0.10753717992E+03  0.00000000000E+00 0. -1.
</event>
<event>
 6    1  0.5317355E-006  0.1174430E+03  0.7561462E-02  0.1247376E+00
          2   -1    0    0  501    0  0.00000000000E+00  0.00000000000E+00  0.15703523512E+03  0.15703523512E+03  0.00000000000E+00 0. -1.
         -2   -1    0    0    0  501 -0.00000000000E+00 -0.00000000000E+00 -0.12455847358E+03  0.12455847358E+03  0.00000000000E+00 0.  1.
          5    1    1    2  502    0 -0.85993389665E+01  0.31347904111E+02 -0.29338206129E+02  0.43986844188E+02  0.41800000000E+01 0.  1.
         -5    1    1    2    0  502 -0.13515780911E+01 -0.10424448970E+03 -0.13604078555E+01  0.10434588399E+03  0.41800000000E+01 0.  1.
        -11    1    1    2    0    0 -0.11031966272E+02 -0.83673395058E+01 -0.13676264679E+02  0.19461676850E+02  0.00000000000E+00 0.  1.
         11    1    1    2    0    0  0.20982883330E+02  0.81263925098E+02  0.76851640201E+02  0.11379930367E+03  0.00000000000E+00 0. -1.
</event>
<event>
 6    1  0.5317355E-006  0.1087201E+03  0.7561462E-02  0.1262959E+00
         -1   -1    0    0    0  501 -0.00000000000E+00  0.00000000000E+00  0.81776699656E+02  0.81776699656E+02  0.00000000000E+00 0.  1.
          1   -1    0    0  501    0  0.00000000000E+00 -0.00000000000E+00 -0.29867975164E+03  0.29867975164E+03  0.00000000000E+00 0. -1.
          5    1    1    2  502    0  0.99641498492E+01 -0.20106122515E+02  0.38552128985E+02  0.44802672845E+02  0.41800000000E+01 0.  1.
         -5    1    1    2    0  502  0.24394409072E+02  0.82981637775E+02 -0.49566780402E+02  0.99776638154E+02  0.41800000000E+01 0.  1.
        -11    1    1    2    0    0  0.23884246669E+02 -0.37566692358E+02 -0.46840383636E+02  0.64619928449E+02  0.00000000000E+00 0.  1.
         11    1    1    2    0    0 -0.58242805589E+02 -0.25308822902E+02 -0.15904801693E+03  0.17125721185E+03  0.00000000000E+00 0. -1.
</event>
<event>
 6    1  0.5317355E-006  0.1139094E+03  0.7561462E-02  0.1253497E+00
         -2   -1    0    0    0  501 -0.00000000000E+00  0.00000000000E+00  0.51925606071E+02  0.51925606071E+02  0.00000000000E+00 0.  1.
          2   -1    0    0  501    0  0.00000000000E+00 -0.00000000000E+00 -0.42754160021E+03  0.42754160021E+03  0.00000000000E+00 0. -1.
          5    1    1    2  502    0  0.61567068878E+01 -0.41417580190E+02  0.16042084900E+02  0.45034896207E+02  0.41800000000E+01 0.  1.
         -5    1    1    2    0  502  0.49979343061E+02 -0.28491489155E+02 -0.14396345108E+03  0.15508915931E+03  0.41800000000E+01 0.  1.
        -11    1    1    2    0    0 -0.54425016639E+02 -0.35845025071E+01 -0.87861388168E+02  0.10341447977E+03  0.00000000000E+00 0.  1.
         11    1    1    2    0    0 -0.17110333104E+01  0.73493571852E+02 -0.15983323979E+03  0.17592867100E+03  0.00000000000E+00 0. -1.
</event>
<event>
 6    1  0.5317355E-006  0.1234287E+03  0.7561462E-02  0.1237546E+00
         -2   -1    0    0    0  501 -0.00000000000E+00  0.00000000000E+00  0.10364027906E+04  0.10364027906E+04  0.00000000000E+00 0.  1.
          2   -1    0    0  501    0  0.00000000000E+00 -0.00000000000E+00 -0.18224814547E+02  0.18224814547E+02  0.00000000000E+00 0. -1.
          5    1    1    2  502    0 -0.25494052727E+02 -0.39930445602E+02  0.44756036769E+03  0.45008015102E+03  0.41800000000E+01 0. -1.
         -5    1    1    2    0  502  0.73568787934E+02 -0.24102010196E+02  0.20503795852E+03  0.21920609090E+03  0.41800000000E+01 0. -1.
        -11    1    1    2    0    0 -0.12782947020E+02 -0.23853134070E+02  0.76823738920E+02  0.81450982813E+02  0.00000000000E+00 0. -1.
         11    1    1    2    0    0 -0.35291788186E+02  0.87885589869E+02  0.28875591096E+03  0.30389038045E+03  0.00000000000E+00 0.  1.
</event>
<event>
 6    1  0.5317355E-006  0.1361460E+03  0.7561462E-02  0.1218611E+00
         -1   -1    0    0    0  501 -0.00000000000E+00  0.00000000000E+00  0.37491749325E+02  0.37491749325E+02  0.00000000000E+00 0.  1.
          1   -1    0    0  501    0  0.00000000000E+00 -0.00000000000E+00 -0.64557756259E+03  0.64557756259E+03  0.00000000000E+00 0. -1.
          5    1    1    2  502    0 -0.64530092890E+02 -0.96694924973E+02 -0.13478697444E+03  0.17804224859E+03  0.41800000000E+01 0.  1.
         -5    1    1    2    0  502  0.70663483875E+00  0.14167954357E+02 -0.14441045107E+03  0.14516570202E+03  0.41800000000E+01 0.  1.
        -11    1    1    2    0    0  0.81639984812E+02  0.32147452621E+02 -0.24660218126E+03  0.26174640711E+03  0.00000000000E+00 0. -1.
         11    1    1    2    0    0 -0.17816526761E+02  0.50379517995E+02 -0.82286206491E+02  0.98114954201E+02  0.00000000000E+00 0.  1.
</event>
<event>
 6    1  0.5317355E-006  0.1225048E+03  0.7561462E-02  0.1239021E+00
         -2   -1    0    0    0  501 -0.00000000000E+00  0.00000000000E+00  0.14093582290E+03  0.14093582290E+03  0.00000000000E+00 0.  1.
          2   -1    0    0  501    0  0.00000000000E+00 -0.00000000000E+00 -0.12403940635E+03  0.12403940635E+03  0.00000000000E+00 0. -1.
          5    1    1    2  502    0 -0.27733292734E+02  0.30058557651E+02  0.21792239722E+02  0.46529845541E+02  0.41800000000E+01 0.  1.
         -5    1    1    2    0  502  0.10019559718E+03 -0.20677834071E+02  0.20929306233E+02  0.10450951524E+03  0.41800000000E+01 0.  1.
        -11    1    1    2    0    0 -0.81983427288E+02  0.72912803338E+01 -0.38565437022E+02  0.90894103502E+02  0.00000000000E+00 0. -1.
         11    1    1    2    0    0  0.95211228460E+01 -0.16672003913E+02  0.12740307623E+02  0.23041764973E+02  0.00000000000E+00 0.  1.
</event>
<event>
 6    1  0.5317355E-006  0.8664950E+02  0.7561462E-02  0.1311174E+00
          2   -1    0    0  501    0  0.00000000000E+00  0.00000000000E+00  0.13271246085E+03  0.13271246085E+03  0.00000000000E+00 0.  1.
         -2   -1    0    0    0  501 -0.00000000000E+00 -0.00000000000E+00 -0.15023322975E+03  0.15023322975E+03  0.00000000000E+00 0. -1.
          5    1    1    2  502    0 -0.31526812308E+02 -0.80284157237E+01  0.15859571003E+02  0.36433415236E+02  0.41800000000E+01 0.  1.
         -5    1    1    2    0  502  0.51397817884E+02 -0.89866014728E+01 -0.11155475431E+03  0.12322512041E+03  0.41800000000E+01 0.  1.
        -11    1    1    2    0    0 -0.75464669064E+01  0.51232088408E+02  0.68092072557E+02  0.85546515946E+02  0.00000000000E+00 0. -1.
         11    1    1    2    0    0 -0.12324538669E+02 -0.34217071212E+02  0.10082341847E+02  0.37740639009E+02  0.00000000000E+00 0.  1.
</event>
<event>
 6    1  0.5317355E-006  0.1466806E+03  0.7561462E-02  0.1204612E+00
          2   -1    0    0  501    0  0.00000000000E+00  0.00000000000E+00  0.12997552819E+04  0.12997552819E+04  0.00000000000E+00 0.  1.
         -2   -1    0    0    0  501 -0.00000000000E+00 -0.00000000000E+00 -0.18577626012E+02  0.18577626012E+02  0.00000000000E+00 0. -1.
          5    1    1    2  502    0 -0.10618825698E+03  0.55887114601E+02  0.35905756919E+03  0.37860153974E+03  0.41800000000E+01 0.  1.
         -5    1    1    2    0  502 -0.10388212440E+01 -0.29654670312E+02  0.29038349302E+03  0.29192554537E+03  0.41800000000E+01 0.  1.
        -11    1    1    2    0    0  0.10038390485E+03  0.15026954322E+02  0.45624174916E+03  0.46739626805E+03  0.00000000000E+00 0.  1.
         11    1    1    2    0    0  0.68431733753E+01 -0.41259398611E+02  0.17549484456E+03  0.18040955480E+03  0.00000000000E+00 0. -1.
</event>
<event>
 6    1  0.5317355E-006  0.1415157E+03  0.7561462E-02  0.1211304E+00
         -2   -1    0    0    0  501 -0.00000000000E+00  0.00000000000E+00  0.16299749874E+03  0.16299749874E+03  0.00000000000E+00 0. -1.
          2   -1    0    0  501    0  0.00000000000E+00 -0.00000000000E+00 -0.19320916355E+03  0.19320916355E+03  0.00000000000E+00 0.  1.
          5    1    1    2  502    0 -0.55661407913E+02 -0.77874606087E+02  0.42631652693E+02  0.10486933210E+03  0.41800000000E+01 0. -1.
         -5    1    1    2    0  502 -0.32452768233E+02 -0.28963969166E+02 -0.71747560284E+02  0.84007609671E+02  0.41800000000E+01 0. -1.
        -11    1    1    2    0    0  0.76169441697E+02  0.65399680766E+02 -0.41123927171E+02  0.10848999714E+03  0.00000000000E+00 0. -1.
         11    1    1    2    0    0  0.11944734449E+02  0.41438894487E+02  0.40028169954E+02  0.58839723378E+02  0.00000000000E+00 0.  1.
</event>
<event>
 6    1  0.5317355E-006  0.1245194E+03  0.7561462E-02  0.1235822E+00
         -1   -1    0    0    0  501 -0.00000000000E+00  0.00000000000E+00  0.12754899248E+03  0.12754899248E+03  0.00000000000E+00 0.  1.
          1   -1    0    0  501    0  0.00000000000E+00 -0.00000000000E+00 -0.12953235640E+03  0.12953235640E+03  0.00000000000E+00 0. -1.
          5    1    1    2  502    0 -0.56737626641E+02  0.44892654087E+02  0.16044512470E+02  0.74225382776E+02  0.41800000000E+01 0. -1.
         -5    1    1    2    0  502 -0.11065988010E+02 -0.67585211693E+02 -0.13266963439E+02  0.69883486240E+02  0.41800000000E+01 0. -1.
        -11    1    1    2    0    0  0.86452384502E+02  0.14820518062E+02  0.94776786770E+01  0.88224083644E+02  0.00000000000E+00 0.  1.
         11    1    1    2    0    0 -0.18648769850E+02  0.78720395431E+01 -0.14238591629E+02  0.24748396212E+02  0.00000000000E+00 0. -1.
</event>
<event>
 6    1  0.5317355E-006  0.9388299E+02  0.7561462E-02  0.1293712E+00
         -2   -1    0    0    0  501 -0.00000000000E+00  0.00000000000E+00  0.44343133770E+02  0.44343133770E+02  0.00000000000E+00 0.  1.
          2   -1    0    0  501    0  0.00000000000E+00 -0.00000000000E+00 -0.31695908976E+03  0.31695908976E+03  0.00000000000E+00 0. -1.
          5    1    1    2  502    0 -0.30675422502E+02 -0.74618680729E+02 -0.82923546266E+02  0.11577009970E+03  0.41800000000E+01 0. -1.
         -5    1    1    2    0  502  0.27845769185E+02  0.37955604196E+02 -0.24806010067E+02  0.53374387929E+02  0.41800000000E+01 0. -1.
        -11    1    1    2    0    0  0.10568132788E+01  0.48117575152E+02 -0.17196711278E+03  0.17857521040E+03  0.00000000000E+00 0. -1.
         11    1    1    2    0    0  0.17728400379E+01 -0.11454498619E+02  0.70807131263E+01  0.13582525494E+02  0.00000000000E+00 0.  1.
</event>
<event>
 6    1  0.5317355E-006  0.7525331E+02  0.7561462E-02  0.1343088E+00
          2   -1    0    0  501    0  0.00000000000E+00  0.00000000000E+00  0.10723740281E+03  0.10723740281E+03  0.00000000000E+00 0. -1.
         -2   -1    0    0    0  501 -0.00000000000E+00 -0.00000000000E+00 -0.12879265994E+03  0.12879265994E+03  0.00000000000E+00 0.  1.
          5    1    1    2  502    0 -0.11534549471E+02 -0.19165180503E+02 -0.77618745099E+02  0.80885672192E+02  0.41800000000E+01 0.  1.
         -5    1    1    2    0  502  0.41320334658E+02 -0.10664128414E+02  0.37622537220E+02  0.57044030344E+02  0.41800000000E+01 0.  1.
        -11    1    1    2    0    0 -0.49182807099E+01  0.51592586179E+02 -0.11970076159E+02  0.53190855953E+02  0.00000000000E+00 0.  1.
         11    1    1    2    0    0 -0.24867504477E+02 -0.21763277262E+02  0.30411026902E+02  0.44909504265E+02  0.00000000000E+00 0. -1.
</event>
<event>
 6    1  0.5317355E-006  0.1518494E+03  0.7561462E-02  0.1198219E+00
         -2   -1    0    0    0  501 -0.00000000000E+00  0.00000000000E+00  0.91041347131E+03  0.91041347131E+03  0.00000000000E+00 0. -1.
          2   -1    0    0  501    0  0.00000000000E+00 -0.00000000000E+00 -0.44727809802E+02  0.44727809802E+02  0.00000000000E+00 0.  1.
          5    1    1    2  502    0  0.41992114147E+02 -0.39149498749E+02  0.17175410850E+03  0.18114349861E+03  0.41800000000E+01 0. -1.
         -5    1    1    2    0  502  0.74970464381E+02  0.90768626995E+02  0.54558077230E+03  0.55815353235E+03  0.41800000000E+01 0. -1.
        -11    1    1    2    0    0 -0.98796219067E+02 -0.47884602676E+02  0.59096972761E+02  0.12468392144E+03  0.00000000000E+00 0.  1.
         11    1    1    2    0    0 -0.18166359461E+02 -0.37345255694E+01  0.89253807945E+02  0.91160328707E+02  0.00000000000E+00 0. -1.
</event>
<event>
 6    1  0.5317355E-006  0.1361451E+03  0.7561462E-02  0.1218612E+00
         -1   -1    0    0    0  501 -0.00000000000E+00  0.00000000000E+00  0.64176332215E+02  0.64176332215E+02  0.00000000000E+00 0.  1.
          1   -1    0    0  501    0  0.00000000000E+00 -0.00000000000E+00 -0.43736998773E+03  0.43736998773E+03  0.00000000000E+00 0. -1.
          5    1    1    2  502    0 -0.35303289039E+01 -0.49297599988E+02 -0.10262726453E+02  0.50650888847E+02  0.41800000000E+01 0.  1.
         -5    1    1    2    0  502  0.98738166504E+02  0.37785837873E+02 -0.63266455396E+02  0.12327656649E+03  0.41800000000E+01 0.  1.
        -11    1    1    2    0    0 -0.35630903364E+02 -0.28069389862E+02 -0.48230581139E+02  0.66209069460E+02  0.00000000000E+00 0.  1.
         11    1    1    2    0    0 -0.59576934236E+02  0.39581151977E+02 -0.25143389253E+03  0.26140979514E+03  0.00000000000E+00 0. -1.
</event>
<event>
 6    1  0.5317355E-006  0.1000992E+03  0.7561462E-02  0.1280088E+00
         -2   -1    0    0    0  501 -0.00000000000E+00  0.00000000000E+00  0.46544575728E+02  0.46544575728E+02  0.00000000000E+00 0.  1.
          2   -1    0    0  501    0  0.00000000000E+00 -0.00000000000E+00 -0.24538632011E+03  0.24538632011E+03  0.00000000000E+00 0. -1.
          5    1    1    2  502    0 -0.30711109240E+02 -0.71892875174E+02 -0.39511531290E+02  0.87694875770E+02  0.41800000000E+01 0.  1.
         -5    1    1    2    0  502  0.77391561913E+01  0.49317826799E+02 -0.38735274605E+02  0.63324848815E+02  0.41800000000E+01 0.  1.
        -11    1    1    2    0    0  0.36751301290E+02 -0.85862239709E+01 -0.75335048267E+02  0.84260019499E+02  0.00000000000E+00 0.  1.
         11    1    1    2    0    0 -0.13779348242E+02  0.31161272346E+02 -0.45259890217E+02  0.56651151751E+02  0.00000000000E+00 0. -1.
</event>
<event>
 6    1  0.5317355E-006  0.1392132E+03  0.7561462E-02  0.1214392E+00
         -1   -1    0    0    0  501 -0.00000000000E+00  0.00000000000E+00  0.39117708920E+03  0.39117708920E+03  0.00000000000E+00 0.  1.
          1   -1    0    0  501    0  0.00000000000E+00 -0.00000000000E+00 -0.84396244786E+02  0.84396244786E+02  0.00000000000E+00 0. -1.
          5    1    1    2  502    0  0.47296986231E+02  0.28702359268E+00  0.14361303414E+03  0.15125892788E+03  0.41800000000E+01 0.  1.
         -5    1    1    2    0  502 -0.94871745656E+01  0.11193651130E+03  0.12784989846E+03  0.17024352551E+03  0.41800000000E+01 0.  1.
        -11    1    1    2    0    0 -0.33977904416E+02 -0.95277579909E+02 -0.13687592287E+02  0.10207676231E+03  0.00000000000E+00 0. -1.
         11    1    1    2    0    0 -0.38319072498E+01 -0.16945954981E+02  0.49005504096E+02  0.51994118274E+02  0.00000000000E+00 0.  1.
</event>
<event>
 6    1  0.5317355E-006  0.1043078E+03  0.7561462E-02  0.1271489E+00
         -2   -1    0    0    0  501 -0.00000000000E+00  0.00000000000E+00  0.42831569453E+02  0.42831569453E+02  0.00000000000E+00 0.  1.
          2   -1    0    0  501    0  0.00000000000E+00 -0.00000000000E+00 -0.39268174164E+03  0.39268174164E+03  0.00000000000E+00 0. -1.
          5    1    1    2  502    0 -0.66401902646E+02 -0.48716763843E+02 -0.38501687594E+02  0.91007626614E+02  0.41800000000E+01 0. -1.
         -5    1    1    2    0  502  0.17586856412E+02  0.38171574408E+02 -0.70848670082E+02  0.82482562179E+02  0.41800000000E+01 0. -1.
        -11    1    1    2    0    0 -0.14681248719E+02  0.14055444438E+02 -0.95104685200E+01  0.22439777044E+02  0.00000000000E+00 0.  1.
         11    1    1    2    0    0  0.63496294953E+02 -0.35102550028E+01 -0.23098934599E+03  0.23958334526E+03  0.00000000000E+00 0. -1.
</event>
<event>
 6    1  0.5317355E-006  0.1444476E+03  0.7561462E-02  0.1207467E+00
         -2   -1    0    0    0  501 -0.00000000000E+00  0.00000000000E+00  0.50885132581E+02  0.50885132581E+02  0.00000000000E+00 0.  1.
          2   -1    0    0  501    0  0.00000000000E+00 -0.00000000000E+00 -0.51037479423E+03  0.51037479423E+03  0.00000000000E+00 0. -1.
          5    1    1    2  502    0 -0.14562776521E+02  0.48158850353E+02 -0.35305834233E+02  0.61606198213E+02  0.41800000000E+01 0.  1.
         -5    1    1    2    0  502  0.11257720260E+03  0.20090050813E+02 -0.19999636362E+03  0.23041973558E+03  0.41800000000E+01 0.  1.
        -11    1    1    2    0    0 -0.83427717664E+02 -0.40747602791E+02 -0.21874171334E+03  0.23763099201E+03  0.00000000000E+00 0. -1.
         11    1    1    2    0    0 -0.14586708412E+02 -0.27501298375E+02 -0.54457504604E+01  0.31603001008E+02  0.00000000000E+00 0.  1.
</event>
<event>
 6    1  0.5317355E-006  0.1354420E+03  0.7561462E-02  0.1219597E+00
         -1   -1    0    0    0  501 -0.00000000000E+00  0.00000000000E+00  0.25435664024E+02  0.25435664024E+02  0.00000000000E+00 0.  1.
          1   -1    0    0  501    0  0.00000000000E+00 -0.00000000000E+00 -0.93577803289E+03  0.93577803289E+03  0.00000000000E+00 0. -1.
          5    1    1    2  502    0 -0.10181765413E+02 -0.83728615498E+02 -0.48525135927E+03  0.49254492533E+03  0.41800000000E+01 0. -1.
         -5    1    1    2    0  502 -0.44328190020E+02  0.68906259697E+02 -0.12076121556E+03  0.14599248145E+03  0.41800000000E+01 0.  1.
        -11    1    1    2    0    0  0.44484968533E+02  0.50521481104E+02 -0.22941705409E+03  0.23908893154E+03  0.00000000000E+00 0.  1.
         11    1    1    2    0    0  0.10024986900E+02 -0.35699125302E+02 -0.74912739937E+02  0.83587358581E+02  0.00000000000E+00 0. -1.
</event>
<event>
 6    1  0.5317355E-006  0.1151570E+03  0.7561462E-02  0.1251307E+00
         -1   -1    0    0    0  501 -0.00000000000E+00  0.00000000000E+00  0.19895409071E+03  0.19895409071E+03  0.00000000000E+00 0.  1.
          1   -1    0    0  501    0  0.00000000000E+00 -0.00000000000E+00 -0.75635164826E+02  0.75635164826E+02  0.00000000000E+00 0. -1.
          5    1    1    2  502    0 -0.65000002156E+02 -0.75711074113E+01  0.51128829940E+02  0.83150174977E+02  0.41800000000E+01 0.  1.
         -5    1    1    2    0  502  0.42928706619E+02  0.54927045359E+02  0.46241092697E+02  0.83758970968E+02  0.41800000000E+01 0.  1.
        -11    1    1    2    0    0  0.29856758504E+02 -0.67228452444E+02  0.38390505833E+02  0.82975428800E+02  0.00000000000E+00 0.  1.
         11    1    1    2    0    0 -0.77854629671E+01  0.19872514497E+02 -0.12441502591E+02  0.24704680787E+02  0.00000000000E+00 0. -1.
</event>
<event>
 6    1  0.5317355E-006  0.1864496E+03  0.7561462E-02  0.1161703E+00
          2   -1    0    0  501    0  0.00000000000E+00  0.00000000000E+00  0.50347096316E+03  0.50347096316E+03  0.00000000000E+00 0. -1.
         -2   -1    0    0    0  501 -0.00000000000E+00 -0.00000000000E+00 -0.80061406268E+02  0.80061406268E+02  0.00000000000E+00 0.  1.
          5    1    1    2  502    0 -0.33309861666E+02  0.11778379760E+03  0.95580735500E+02  0.15535674836E+03  0.41800000000E+01 0. -1.
         -5    1    1    2    0  502 -0.80521715318E+02 -0.45956528374E+01  0.52449629318E+02  0.96297988963E+02  0.41800000000E+01 0. -1.
        -11    1    1    2    0    0  0.49837869851E+02 -0.87517325812E+02  0.93722486742E+02  0.13757543425E+03  0.00000000000E+00 0.  1.
         11    1    1    2    0    0  0.63993707132E+02 -0.25670818955E+02  0.18165670533E+03  0.19430219785E+03  0.00000000000E+00 0. -1.
</event>
<event>
 6    1  0.5317355E-006  0.1267503E+03  0.7561462E-02  0.1232359E+00
          1   -1    0    0  501    0  0.00000000000E+00  0.00000000000E+00  0.62599172505E+03  0.62599172505E+03  0.00000000000E+00 0. -1.
         -1   -1    0    0    0  501 -0.00000000000E+00 -0.00000000000E+00 -0.42314579054E+02  0.42314579054E+02  0.00000000000E+00 0.  1.
          5    1    1    2  502    0 -0.17728131219E+02  0.25485923497E+02  0.68297536072E+02  0.75138836606E+02  0.41800000000E+01 0. -1.
         -5    1    1    2    0  502  0.96212796731E+02 -0.42475091854E+02  0.59598462672E+02  0.12095654110E+03  0.41800000000E+01 0. -1.
        -11    1    1    2    0    0 -0.53736402196E+01 -0.29694136885E+02  0.61551931445E+02  0.68551134485E+02  0.00000000000E+00 0.  1.
         11    1    1    2    0    0 -0.73111025292E+02  0.46683305243E+02  0.39422921580E+03  0.40365979191E+03  0.00000000000E+00 0. -1.
</event>
<event>
 6    1  0.5317355E-006  0.1171106E+03  0.7561462E-02  0.1247941E+00
          1   -1    0    0  501    0  0.00000000000E+00  0.00000000000E+00  0.57598141838E+03  0.57598141838E+03  0.00000000000E+00 0. -1.
         -1   -1    0    0    0  501 -0.00000000000E+00 -0.00000000000E+00 -0.36509211135E+02  0.36509211135E+02  0.00000000000E+00 0.  1.
          5    1    1    2  502    0 -0.65384475377E+02  0.17717545524E+02  0.23975687654E+03  0.24917839651E+03  0.41800000000E+01 0. -1.
         -5    1    1    2    0  502  0.46690159263E+02 -0.53871795242E+02  0.31887163757E+02  0.78207447900E+02  0.41800000000E+01 0.  1.
        -11    1    1    2    0    0 -0.32247018320E+02 -0.38212254677E+00  0.12559492445E+03  0.12966919933E+03  0.00000000000E+00 0.  1.
         11    1    1    2    0    0  0.50941334434E+02  0.36536372265E+02  0.14223324250E+03  0.15543558577E+03  0.00000000000E+00 0. -1.
</event>
<event>
 6    1  0.5317355E-006  0.5358262E+02  0.7561462E-02  0.1426923E+00
         -2   -1    0    0    0  501 -0.00000000000E+00  0.00000000000E+00  0.18774278042E+02  0.18774278042E+02  0.00000000000E+00 0.  1.
          2   -1    0    0  501    0  0.00000000000E+00 -0.00000000000E+00 -0.30353140798E+03  0.30353140798E+03  0.00000000000E+00 0. -1.
          5    1    1    2  502    0  0.32223386790E+02  0.14098508679E+02 -0.15506602647E+03  0.15905992446E+03  0.41800000000E+01 0. -1.
         -5    1    1    2    0  502 -0.40364745009E+02 -0.15022146166E+02 -0.16625342466E+02  0.46355710837E+02  0.41800000000E+01 0.  1.
        -11    1    1    2    0    0 -0.35299011307E+01  0.11923692342E+02 -0.33725125189E+02  0.35944661774E+02  0.00000000000E+00 0. -1.
         11    1    1    2    0    0  0.11671259350E+02 -0.11000054855E+02 -0.79340635820E+02  0.80945388960E+02  0.00000000000E+00 0.  1.
</event>
<event>
 6    1  0.5317355E-006  0.8544206E+02  0.7561462E-02  0.1314281E+00
         -2   -1    0    0    0  501 -0.00000000000E+00  0.00000000000E+00  0.25154234894E+02  0.25154234894E+02  0.00000000000E+00 0.  1.
          2   -1    0    0  501    0  0.00000000000E+00 -0.00000000000E+00 -0.55094740970E+03  0.55094740970E+03  0.00000000000E+00 0. -1.
          5    1    1    2  502    0  0.14901545719E+02 -0.38251778479E+02 -0.82387867563E+01  0.42078553074E+02  0.41800000000E+01 0. -1.
         -5    1    1    2    0  502 -0.20274239786E+02  0.33355487126E+02 -0.17875337228E+03  0.18301331597E+03  0.41800000000E+01 0. -1.
        -11    1    1    2    0    0 -0.24638873533E+02 -0.33527793331E+02 -0.18692882909E+03  0.19150345730E+03  0.00000000000E+00 0. -1.
         11    1    1    2    0    0  0.30011567600E+02  0.38424084685E+02 -0.15187218668E+03  0.15950631825E+03  0.00000000000E+00 0.  1.
</event>
<event>
 6    1  0.5317355E-006  0.2039776E+03  0.7561462E-02  0.1146426E+00
         -2   -1    0    0    0  501 -0.00000000000E+00  0.00000000000E+00  0.13402718323E+03  0.13402718323E+03  0.00000000000E+00 0. -1.
          2   -1    0    0  501    0  0.00000000000E+00 -0.00000000000E+00 -0.31955235777E+03  0.31955235777E+03  0.00000000000E+00 0.  1.
          5    1    1    2  502    0  0.14115351329E+03  0.37559633364E+02 -0.30677578203E+02  0.14931050391E+03  0.41800000000E+01 0. -1.
         -5    1    1    2    0  502  0.28037695522E+02 -0.55161300229E+02 -0.37951302006E+02  0.72709388233E+02  0.41800000000E+01 0. -1.
        -11    1    1    2    0    0 -0.96096696131E+02 -0.42600958680E+02 -0.64692101584E+02  0.12342805473E+03  0.00000000000E+00 0.  1.
         11    1    1    2    0    0 -0.73094512685E+02  0.60202625545E+02 -0.52204192748E+02  0.10813159412E+03  0.00000000000E+00 0. -1.
</event>
<event>
 6    1  0.5317355E-006  0.1645120E+03  0.7561462E-02  0.1183695E+00
         -2   -1    0    0    0  501 -0.00000000000E+00  0.00000000000E+00  0.42816568702E+03  0.42816568702E+03  0.00000000000E+00 0.  1.
          2   -1    0    0  501    0  0.00000000000E+00 -0.00000000000E+00 -0.94428186243E+02  0.94428186243E+02  0.00000000000E+00 0. -1.
          5    1    1    2  502    0 -0.17680874551E+02 -0.35586050299E+02 -0.75213948290E+01  0.40657398846E+02  0.41800000000E+01 0. -1.
         -5    1    1    2    0  502 -0.59796483135E+02 -0.10808280850E+03  0.23837122794E+03  0.26850666211E+03  0.41800000000E+01 0. -1.
        -11    1    1    2    0    0  0.50721827994E+02  0.65420871891E+02  0.17652341579E+01  0.82799217181E+02  0.00000000000E+00 0. -1.
         11    1    1    2    0    0  0.26755529691E+02  0.78247986906E+02  0.10112243350E+03  0.13063059512E+03  0.00000000000E+00 0.  1.
</event>
<event>
 6    1  0.5317355E-006  0.1025256E+03  0.7561462E-02  0.1275073E+00
         -1   -1    0    0    0  501 -0.00000000000E+00  0.00000000000E+00  0.11386990792E+02  0.11386990792E+02  0.00000000000E+00 0.  1.
          1   -1    0    0  501    0  0.00000000000E+00 -0.00000000000E+00 -0.10805915365E+04  0.10805915365E+04  0.00000000000E+00 0. -1.
          5    1    1    2  502    0  0.54818173054E+02  0.29252914373E+02 -0.49188001151E+03  0.49580659860E+03  0.41800000000E+01 0. -1.
         -5    1    1    2    0  502 -0.30573402210E+02 -0.38785874833E+02 -0.13141647490E+03  0.14045226693E+03  0.41800000000E+01 0. -1.
        -11    1    1    2    0    0  0.26760750877E+02  0.28220180540E+02 -0.15667501610E+03  0.16142978984E+03  0.00000000000E+00 0.  1.
         11    1    1    2    0    0 -0.51005521721E+02 -0.18687220081E+02 -0.28923304322E+03  0.29428987195E+03  0.00000000000E+00 0. -1.
</event>
<event>
 6    1  0.5317355E-006  0.1080231E+03  0.7561462E-02  0.1264275E+00
         -4   -1    0    0    0  501 -0.00000000000E+00  0.00000000000E+00  0.83316203124E+02  0.83316203124E+02  0.00000000000E+00 0. -1.
          4   -1    0    0  501    0  0.00000000000E+00 -0.00000000000E+00 -0.20587834192E+03  0.20587834192E+03  0.00000000000E+00 0.  1.
          5    1    1    2  502    0  0.24900988567E+02  0.91865105881E+02 -0.13286366734E+02  0.96193850381E+02  0.41800000000E+01 0.  1.
         -5    1    1    2    0  502 -0.20562903253E+02 -0.34903834647E+02  0.76454952047E+01  0.41437141072E+02  0.41800000000E+01 0.  1.
        -11    1    1    2    0    0  0.95309301474E+01  0.87205366805E+01 -0.66140520732E+02  0.67390317347E+02  0.00000000000E+00 0.  1.
         11    1    1    2    0    0 -0.13869015461E+02 -0.65681807915E+02 -0.50780746531E+02  0.84173236240E+02  0.00000000000E+00 0. -1.
</event>
<event>
 6    1  0.5317355E-006  0.1285448E+03  0.7561462E-02  0.1229631E+00
          2   -1    0    0  501    0  0.00000000000E+00  0.00000000000E+00  0.75274156538E+03  0.75274156538E+03  0.00000000000E+00 0. -1.
         -2   -1    0    0    0  501 -0.00000000000E+00 -0.00000000000E+00 -0.39267908955E+02  0.39267908955E+02  0.00000000000E+00 0.  1.
          5    1    1    2  502    0  0.11051751033E+03  0.67327432214E+01  0.16712796564E+03  0.20052101940E+03  0.41800000000E+01 0. -1.
         -5    1    1    2    0  502 -0.88749000169E+01 -0.49145174029E-01 -0.12362484282E+02  0.15781941679E+02  0.41800000000E+01 0.  1.
        -11    1    1    2    0    0 -0.41467300159E+02  0.42040362628E+02  0.19035825754E+03  0.19930678685E+03  0.00000000000E+00 0.  1.
         11    1    1    2    0    0 -0.60175310154E+02 -0.48723960675E+02  0.36834991752E+03  0.37639972640E+03  0.00000000000E+00 0. -1.
</event>
<event>
 6    1  0.5317355E-006  0.1129420E+03  0.7561462E-02  0.1255217E+00
          1   -1    0    0  501    0  0.00000000000E+00  0.00000000000E+00  0.36744669310E+03  0.36744669310E+03  0.00000000000E+00 0.  1.
         -1   -1    0    0    0  501 -0.00000000000E+00 -0.00000000000E+00 -0.40983636599E+02  0.40983636599E+02  0.00000000000E+00 0. -1.
          5    1    1    2  502    0  0.45601824047E+02 -0.85815491896E+02  0.11883965061E+03  0.15357135137E+03  0.41800000000E+01 0.  1.
         -5    1    1    2    0  502 -0.22700669686E+02  0.33126485214E+02  0.47869353616E+02  0.62622933838E+02  0.41800000000E+01 0.  1.
        -11    1    1    2    0    0 -0.40495460085E+02  0.57192986614E+02  0.64423491076E+02  0.95190893512E+02  0.00000000000E+00 0. -1.
         11    1    1    2    0    0  0.17594305723E+02 -0.45039799324E+01  0.95330561202E+02  0.97045150977E+02  0.00000000000E+00 0.  1.
</event>
<event>
 6    1  0.5317355E-006  0.1708288E+03  0.7561462E-02  0.1176986E+00
          1   -1    0    0  501    0  0.00000000000E+00  0.00000000000E+00  0.51824136804E+03  0.51824136804E+03  0.00000000000E+00 0. -1.
         -1   -1    0    0    0  501 -0.00000000000E+00 -0.00000000000E+00 -0.67104530223E+02  0.67104530223E+02  0.00000000000E+00 0.  1.
          5    1    1    2  502    0 -0.14629116247E+03  0.47108659431E+02  0.15370675984E+03  0.21740186391E+03  0.41800000000E+01 0. -1.
         -5    1    1    2    0  502 -0.47806225910E+01 -0.35323985302E+02  0.81699142760E+02  0.89234862121E+02  0.41800000000E+01 0. -1.
        -11    1    1    2    0    0  0.55949922400E+02  0.15381486487E+01  0.17849307336E+02  0.58748255209E+02  0.00000000000E+00 0.  1.
         11    1    1    2    0    0  0.95121862666E+02 -0.13322822777E+02  0.19788162788E+03  0.21996091702E+03  0.00000000000E+00 0. -1.
</event>
<event>
 6    1  0.5317355E-006  0.8855606E+02  0.7561462E-02  0.1306387E+00
          2   -1    0    0  501    0  0.00000000000E+00  0.00000000000E+00  0.29712593853E+02  0.29712593853E+02  0.00000000000E+00 0. -1.
         -2   -1    0    0    0  501 -0.00000000000E+00 -0.00000000000E+00 -0.42745607703E+03  0.42745607703E+03  0.00000000000E+00 0.  1.
          5    1    1    2  502    0 -0.57852941352E+01  0.39230386295E+02 -0.18912386214E+03  0.19328166097E+03  0.41800000000E+01 0.  1.
         -5    1    1    2    0  502  0.17404726594E+02 -0.62056441086E+02 -0.67898330985E+02  0.93710096247E+02  0.41800000000E+01 0.  1.
        -11    1    1    2    0    0 -0.22541706555E+02  0.43655618766E+02 -0.13801838291E+03  0.14650261296E+03  0.00000000000E+00 0.  1.
         11    1    1    2    0    0  0.10922274097E+02 -0.20829563976E+02 -0.27029071469E+01  0.23674300706E+02  0.00000000000E+00 0. -1.
</event>
<event>
 6    1  0.5317355E-006  0.1114179E+03  0.7561462E-02  0.1257967E+00
         -2   -1    0    0    0  501 -0.00000000000E+00  0.00000000000E+00  0.12110718958E+03  0.12110718958E+03  0.00000000000E+00 0.  1.
          2   -1    0    0  501    0  0.00000000000E+00 -0.00000000000E+00 -0.21923381714E+03  0.21923381714E+03  0.00000000000E+00 0. -1.
          5    1    1    2  502    0 -0.34023565535E+02 -0.38506520753E+02 -0.82719632691E+01  0.52213532044E+02  0.41800000000E+01 0. -1.
         -5    1    1    2    0  502  0.65757731733E+02  0.35981041123E+02  0.69265103206E+02  0.10214617724E+03  0.41800000000E+01 0.  1.
        -11    1    1    2    0    0  0.26766977132E+02  0.21896525059E+02 -0.60717150960E+02  0.69874897460E+02  0.00000000000E+00 0.  1.
         11    1    1    2    0    0 -0.58501143330E+02 -0.19371045429E+02 -0.98402616546E+02  0.11610639997E+03  0.00000000000E+00 0. -1.
</event>
<event>
 6    1  0.8158067E-006  0.1341968E+03  0.7561462E-02  0.1221358E+00
         -1   -1    0    0    0  501 -0.00000000000E+00  0.00000000000E+00  0.21294038944E+03  0.21294038944E+03  0.00000000000E+00 0.  1.
          1   -1    0    0  501    0  0.00000000000E+00 -0.00000000000E+00 -0.11994099025E+03  0.11994099025E+03  0.00000000000E+00 0. -1.
          5    1    1    2  502    0 -0.62151691436E+02 -0.10775378052E+03  0.92830494976E+02  0.15526971102E+03  0.41800000000E+01 0.  1.
         -5    1    1    2    0  502  0.17237587512E+02  0.13972885620E+01 -0.22695362088E+02  0.28838146592E+02  0.41800000000E+01 0.  1.
        -11    1    1    2    0    0  0.53045789628E+00  0.66448794467E+02  0.50046125362E+02  0.83188570943E+02  0.00000000000E+00 0.  1.
         11    1    1    2    0    0  0.44383646027E+02  0.39907697487E+02 -0.27181859054E+02  0.65584951133E+02  0.00000000000E+00 0. -1.
</event>
<event>
 6    1  0.5317355E-006  0.1108087E+03  0.7561462E-02  0.1259080E+00
          1   -1    0    0  501    0  0.00000000000E+00  0.00000000000E+00  0.17129053118E+03  0.17129053118E+03  0.00000000000E+00 0. -1.
         -1   -1    0    0    0  501 -0.00000000000E+00 -0.00000000000E+00 -0.11836012474E+03  0.11836012474E+03  0.00000000000E+00 0.  1.
          5    1    1    2  502    0 -0.21217594116E+02 -0.93334839956E+02 -0.45877074048E+02  0.10622502988E+03  0.41800000000E+01 0.  1.
         -5    1    1    2    0  502  0.24707058562E+02  0.10236651431E+02  0.35157883247E+02  0.44370901836E+02  0.41800000000E+01 0.  1.
        -11    1    1    2    0    0  0.21734216557E+02  0.62515449025E+02  0.79000399664E+02  0.10306124724E+03  0.00000000000E+00 0. -1.
         11    1    1    2    0    0 -0.25223681003E+02  0.20582739501E+02 -0.15350802428E+02  0.35993476963E+02  0.00000000000E+00 0.  1.
</event>
<event>
 6    1  0.5317355E-006  0.1341766E+03  0.7561462E-02  0.1221387E+00
         -1   -1    0    0    0  501 -0.00000000000E+00  0.00000000000E+00  0.14415781766E+03  0.14415781766E+03  0.00000000000E+00 0.  1.
          1   -1    0    0  501    0  0.00000000000E+00 -0.00000000000E+00 -0.14764886979E+03  0.14764886979E+03  0.00000000000E+00 0. -1.
          5    1    1    2  502    0  0.32135421828E+02  0.12506495690E+02  0.87759987862E+00  0.34746803479E+02  0.41800000000E+01 0. -1.
         -5    1    1    2    0  502 -0.66565974284E+02 -0.10536105761E+03  0.14470344491E+02  0.12553423701E+03  0.41800000000E+01 0. -1.
        -11    1    1    2    0    0  0.19244481256E+02  0.51655315646E+01  0.25285584510E+02  0.32193066943E+02  0.00000000000E+00 0.  1.
         11    1    1    2    0    0  0.15186071200E+02  0.87689030352E+02 -0.44124581010E+02  0.99332580012E+02  0.00000000000E+00 0. -1.
</event>
<event>
 6    1  0.5317355E-006  0.1579582E+03  0.7561462E-02  0.1191021E+00
         -1   -1    0    0    0  501 -0.00000000000E+00  0.00000000000E+00  0.98558991268E+02  0.98558991268E+02  0.00000000000E+00 0.  1.
          1   -1    0    0  501    0  0.00000000000E+00 -0.00000000000E+00 -0.25627539702E+03  0.25627539702E+03  0.00000000000E+00 0. -1.
          5    1    1    2  502    0  0.12702352312E+03 -0.63268637285E+02 -0.66240855469E+02  0.15666275633E+03  0.41800000000E+01 0.  1.
         -5    1    1    2    0  502 -0.26839331653E+02  0.56707618894E+01 -0.68241028031E+01  0.28575304777E+02  0.41800000000E+01 0.  1.
        -11    1    1    2    0    0 -0.11182547383E+03  0.29301339371E+02 -0.59649645433E+02  0.13008299384E+03  0.00000000000E+00 0. -1.
         11    1    1    2    0    0  0.11641282362E+02  0.28296536025E+02 -0.25001802044E+02  0.39513333338E+02  0.00000000000E+00 0.  1.
</event>
<event>
 6    1  0.5317355E-006  0.2068970E+03  0.7561462E-02  0.1144047E+00
          2   -1    0    0  501    0  0.00000000000E+00  0.00000000000E+00  0.81340667909E+03  0.81340667909E+03  0.00000000000E+00 0. -1.
         -2   -1    0    0    0  501 -0.00000000000E+00 -0.00000000000E+00 -0.57709211350E+02  0.57709211350E+02  0.00000000000E+00 0.  1.
          5    1    1    2  502    0 -0.20567547517E+02  0.14332039559E+03  0.19335789960E+03  0.24159575646E+03  0.41800000000E+01 0. -1.
         -5    1    1    2    0  502 -0.75234399644E+02  0.12220327842E+02  0.11421571665E+03  0.13737632122E+03  0.41800000000E+01 0. -1.
        -11    1    1    2    0    0  0.59270733702E+01 -0.64178873116E+02  0.82383934812E+02  0.10460005100E+03  0.00000000000E+00 0.  1.
         11    1    1    2    0    0  0.89874873791E+02 -0.91361850311E+02  0.36573991668E+03  0.38754376177E+03  0.00000000000E+00 0. -1.
</event>
<event>
 6    1  0.5317355E-006  0.1202975E+03  0.7561462E-02  0.1242607E+00
          4   -1    0    0  501    0  0.00000000000E+00  0.00000000000E+00  0.85284381897E+02  0.85284381897E+02  0.00000000000E+00 0. -1.
         -4   -1    0    0    0  501 -0.00000000000E+00 -0.00000000000E+00 -0.23525198003E+03  0.23525198003E+03  0.00000000000E+00 0.  1.
          5    1    1    2  502    0 -0.33038017187E+02 -0.31240598114E+02 -0.18510117347E+02  0.49270502274E+02  0.41800000000E+01 0. -1.
         -5    1    1    2    0  502  0.10258725377E+03 -0.24330336793E+02 -0.90901671701E+02  0.13927202247E+03  0.41800000000E+01 0. -1.
        -11    1    1    2    0    0 -0.24260976356E+02  0.14400053418E+02 -0.61208952240E+02  0.67398014411E+02  0.00000000000E+00 0.  1.
         11    1    1    2    0    0 -0.45288260228E+02  0.41170881489E+02  0.20653143158E+02  0.64595822770E+02  0.00000000000E+00 0. -1.
</event>
<event>
 6    1  0.5317355E-006  0.9390342E+02  0.7561462E-02  0.1293665E+00
          2   -1    0    0  501    0  0.00000000000E+00  0.00000000000E+00  0.10535780071E+03  0.10535780071E+03  0.00000000000E+00 0. -1.
         -2   -1    0    0    0  501 -0.00000000000E+00 -0.00000000000E+00 -0.29543119208E+03  0.29543119208E+03  0.00000000000E+00 0.  1.
          5    1    1    2  502    0 -0.19648325201E+02 -0.51590088058E+01 -0.19791590488E+03  0.19899962277E+03  0.41800000000E+01 0.  1.
         -5    1    1    2    0  502  0.53188784056E+02 -0.39982747342E+02 -0.46572305886E+02  0.81327233507E+02  0.41800000000E+01 0.  1.
        -11    1    1    2    0    0  0.20245342276E+02 -0.10669697419E+02 -0.42220040247E+01  0.23271047352E+02  0.00000000000E+00 0.  1.
         11    1    1    2    0    0 -0.53785801131E+02  0.55811453566E+02  0.58636823422E+02  0.97191089167E+02  0.00000000000E+00 0. -1.
</event>
<event>
 6    1  0.5317355E-006  0.1587900E+03  0.7561462E-02  0.1190070E+00
          1   -1    0    0  501    0  0.00000000000E+00  0.00000000000E+00  0.43727208932E+03  0.43727208932E+03  0.00000000000E+00 0. -1.
         -1   -1    0    0    0  501 -0.00000000000E+00 -0.00000000000E+00 -0.83272336742E+02  0.83272336742E+02  0.00000000000E+00 0.  1.
          5    1    1    2  502    0  0.79461121267E+02  0.64184887928E+02  0.58269084441E+02  0.11767127191E+03  0.41800000000E+01 0. -1.
         -5    1    1    2    0  502 -0.38841911368E+02  0.50409684593E+02 -0.67573932606E+01  0.64132403223E+02  0.41800000000E+01 0. -1.
        -11    1    1    2    0    0  0.21932870541E+02 -0.10732541506E+01  0.32110390224E+02  0.38900897740E+02  0.00000000000E+00 0. -1.
         11    1    1    2    0    0 -0.62552080439E+02 -0.11352131837E+03  0.27037767117E+03  0.29983985319E+03  0.00000000000E+00 0.  1.
</event>
<event>
 6    1  0.5317355E-006  0.1275490E+03  0.7561462E-02  0.1231139E+00
          2   -1    0    0  501    0  0.00000000000E+00  0.00000000000E+00  0.34867945315E+02  0.34867945315E+02  0.00000000000E+00 0. -1.
         -2   -1    0    0    0  501 -0.00000000000E+00 -0.00000000000E+00 -0.51581301084E+03  0.51581301084E+03  0.00000000000E+00 0.  1.
          5    1    1    2  502    0 -0.19405940701E+02 -0.31251552426E+02 -0.83601506521E+02  0.91432676632E+02  0.41800000000E+01 0. -1.
         -5    1    1    2    0  502  0.73851090195E+02  0.77211272037E+02 -0.23513091538E+03  0.25830134305E+03  0.41800000000E+01 0. -1.
        -11    1    1    2    0    0  0.50260100915E+01  0.20999683962E+02 -0.88200674468E+01  0.23324688502E+02  0.00000000000E+00 0. -1.
         11    1    1    2    0    0 -0.59471159585E+02 -0.66959403574E+02 -0.15339257618E+03  0.17762224798E+03  0.00000000000E+00 0.  1.
</event>
<event>
 6    1  0.5317355E-006  0.8881606E+02  0.7561462E-02  0.1305744E+00
         -2   -1    0    0    0  501 -0.00000000000E+00  0.00000000000E+00  0.18557929157E+02  0.18557929157E+02  0.00000000000E+00 0.  1.
          2   -1    0    0  501    0  0.00000000000E+00 -0.00000000000E+00 -0.77524971018E+03  0.77524971018E+03  0.00000000000E+00 0. -1.
          5    1    1    2  502    0 -0.29079509788E+00 -0.16355581600E+02  0.23472355344E+01  0.17046158685E+02  0.41800000000E+01 0. -1.
         -5    1    1    2    0  502 -0.42263281766E+02  0.41520438340E+02 -0.36419371537E+03  0.36900496813E+03  0.41800000000E+01 0. -1.
        -11    1    1    2    0    0  0.59655813375E+01  0.32510169225E+02 -0.11155518001E+03  0.11634886098E+03  0.00000000000E+00 0.  1.
         11    1    1    2    0    0  0.36588495527E+02 -0.57675025965E+02 -0.28329012117E+03  0.29140765155E+03  0.00000000000E+00 0. -1.
</event>
<event>
 6    1  0.5317355E-006  0.1761891E+03  0.7561462E-02  0.1171543E+00
          2   -1    0    0  501    0  0.00000000000E+00  0.00000000000E+00  0.11860451012E+04  0.11860451012E+04  0.00000000000E+00 0. -1.
         -2   -1    0    0    0  501 -0.00000000000E+00 -0.00000000000E+00 -0.34542816584E+02  0.34542816584E+02  0.00000000000E+00 0.  1.
          5    1    1    2  502    0 -0.51616313284E+01 -0.11078580995E+02 -0.25514258635E+01  0.13166608097E+02  0.41800000000E+01 0. -1.
         -5    1    1    2    0  502  0.15856526285E+02 -0.15928534408E+03  0.58569214853E+03  0.60718696915E+03  0.41800000000E+01 0. -1.
        -11    1    1    2    0    0  0.18669357375E+02  0.11649498737E+03  0.46768185921E+03  0.48233385577E+03  0.00000000000E+00 0. -1.
         11    1    1    2    0    0 -0.29364252332E+02  0.53868937702E+02  0.10067970276E+03  0.11790048479E+03  0.00000000000E+00 0.  1.
</event>
<event>
 6    1  0.5317355E-006  0.1853542E+03  0.7561462E-02  0.1162720E+00
          2   -1    0    0  501    0  0.00000000000E+00  0.00000000000E+00  0.97902717272E+03  0.97902717272E+03  0.00000000000E+00 0. -1.
         -2   -1    0    0    0  501 -0.00000000000E+00 -0.00000000000E+00 -0.87019927910E+02  0.87019927910E+02  0.00000000000E+00 0.  1.
          5    1    1    2  502    0  0.34452053748E+02 -0.32178996797E+02 -0.30000552803E+02  0.56035144426E+02  0.41800000000E+01 0.  1.
         -5    1    1    2    0  502  0.13281464854E+03 -0.18351773048E+01  0.10189548248E+03  0.16746122086E+03  0.41800000000E+01 0.  1.
        -11    1    1    2    0    0 -0.11123754833E+03 -0.19586394852E+02  0.41565035033E+03  0.43072338310E+03  0.00000000000E+00 0. -1.
         11    1    1    2    0    0 -0.56029153960E+02  0.53600568954E+02  0.40446196480E+03  0.41182735224E+03  0.00000000000E+00 0.  1.
</event>
<event>
 6    1  0.5317355E-006  0.1341194E+03  0.7561462E-02  0.1221468E+00
         -3   -1    0    0    0  501 -0.00000000000E+00  0.00000000000E+00  0.17551450077E+03  0.17551450077E+03  0.00000000000E+00 0.  1.
          3   -1    0    0  501    0  0.00000000000E+00 -0.00000000000E+00 -0.23224879809E+03  0.23224879809E+03  0.00000000000E+00 0. -1.
          5    1    1    2  502    0  0.58802515432E+02  0.14526269122E+02  0.23682033718E+02  0.65169467059E+02  0.41800000000E+01 0. -1.
         -5    1    1    2    0  502 -0.46838898775E+02  0.76466672662E+02  0.90511836647E+02  0.12747901568E+03  0.41800000000E+01 0. -1.
        -11    1    1    2    0    0  0.58190140248E+01 -0.98342009359E+02 -0.95258847204E+02  0.13703743904E+03  0.00000000000E+00 0.  1.
         11    1    1    2    0    0 -0.17782630681E+02  0.73490675747E+01 -0.75669320481E+02  0.78077377071E+02  0.00000000000E+00 0. -1.
</event>
<event>
 6    1  0.5317355E-006  0.1267900E+03  0.7561462E-02  0.1232298E+00
         -2   -1    0    0    0  501 -0.00000000000E+00  0.00000000000E+00  0.40405330087E+02  0.40405330087E+02  0.00000000000E+00 0.  1.
          2   -1    0    0  501    0  0.00000000000E+00 -0.00000000000E+00 -0.50258911900E+03  0.50258911900E+03  0.00000000000E+00 0. -1.
          5    1    1    2  502    0  0.98309383595E+02 -0.51367950877E+02 -0.13847714734E+03  0.17747336142E+03  0.41800000000E+01 0. -1.
         -5    1    1    2    0  502 -0.27439056881E+02 -0.41315644261E+01 -0.12194194329E+03  0.12512905978E+03  0.41800000000E+01 0. -1.
        -11    1    1    2    0    0 -0.26527703059E+02 -0.15563506426E+02 -0.11796070548E+03  0.12190434692E+03  0.00000000000E+00 0.  1.
         11    1    1    2    0    0 -0.44342623655E+02  0.71063021729E+02 -0.83803992807E+02  0.11848768096E+03  0.00000000000E+00 0. -1.
</event>
<event>
 6    1  0.1857919E-005  0.2097110E+03  0.7561462E-02  0.1141795E+00
          2   -1    0    0  501    0  0.00000000000E+00  0.00000000000E+00  0.77180239609E+03  0.77180239609E+03  0.00000000000E+00 0.  1.
         -2   -1    0    0    0  501 -0.00000000000E+00 -0.00000000000E+00 -0.71088147149E+02  0.71088147149E+02  0.00000000000E+00 0. -1.
          5    1    1    2  502    0  0.11809322377E+03  0.59684538112E+01  0.66189592654E+02  0.13557347276E+03  0.41800000000E+01 0.  1.
         -5    1    1    2    0  502  0.83313333369E+02  0.22556185640E+02  0.22493124711E+03  0.24095939773E+03  0.41800000000E+01 0.  1.
        -11    1    1    2    0    0 -0.93377290453E+02  0.21220018841E+02  0.24697436368E+03  0.26488854994E+03  0.00000000000E+00 0.  1.
         11    1    1    2    0    0 -0.10802926668E+03 -0.49744658292E+02  0.16261904550E+03  0.20146912282E+03  0.00000000000E+00 0. -1.
</event>
<event>
 6    1  0.5317355E-006  0.1217673E+03  0.7561462E-02  0.1240210E+00
          2   -1    0    0  501    0  0.00000000000E+00  0.00000000000E+00  0.20561245593E+03  0.20561245593E+03  0.00000000000E+00 0. -1.
         -2   -1    0    0    0  501 -0.00000000000E+00 -0.00000000000E+00 -0.12788433851E+03  0.12788433851E+03  0.00000000000E+00 0.  1.
          5    1    1    2  502    0  0.47672045287E+02 -0.77068900770E+02 -0.49520600429E+02  0.10335376933E+03  0.41800000000E+01 0.  1.
         -5    1    1    2    0  502 -0.25382400976E+02  0.33851988062E+02 -0.11272912415E+02  0.43986069720E+02  0.41800000000E+01 0.  1.
        -11    1    1    2    0    0  0.38558250558E+02  0.27783011367E+02  0.19057348086E+02  0.51203680754E+02  0.00000000000E+00 0.  1.
         11    1    1    2    0    0 -0.60847894869E+02  0.15433901340E+02  0.11946428218E+03  0.13495327464E+03  0.00000000000E+00 0. -1.
</event>
<event>
 6    1  0.5317355E-006  0.1289884E+03  0.7561462E-02  0.1228965E+00
         -2   -1    0    0    0  501 -0.00000000000E+00  0.00000000000E+00  0.35790429373E+02  0.35790429373E+02  0.00000000000E+00 0.  1.
          2   -1    0    0  501    0  0.00000000000E+00 -0.00000000000E+00 -0.62032701554E+03  0.62032701554E+03  0.00000000000E+00 0. -1.
          5    1    1    2  502    0  0.80842404169E+02 -0.44290447220E+02 -0.11268194388E+03  0.14564281960E+03  0.41800000000E+01 0. -1.
         -5    1    1    2    0  502 -0.25041929215E+02 -0.43240247629E+02 -0.20706964917E+03  0.21305428707E+03  0.41800000000E+01 0. -1.
        -11    1    1    2    0    0 -0.52525204917E+02  0.35433690659E+02 -0.64379377752E+02  0.90328001555E+02  0.00000000000E+00 0.  1.
         11    1    1    2    0    0 -0.32752700365E+01  0.52097004190E+02 -0.20040561538E+03  0.20709233669E+03  0.00000000000E+00 0. -1.
</event>
<event>
 6    1  0.5317355E-006  0.1451559E+03  0.7561462E-02  0.1206555E+00
         -2   -1    0    0    0  501 -0.00000000000E+00  0.00000000000E+00  0.31117322912E+02  0.31117322912E+02  0.00000000000E+00 0.  1.
          2   -1    0    0  501    0  0.00000000000E+00 -0.00000000000E+00 -0.78716340252E+03  0.78716340252E+03  0.00000000000E+00 0. -1.
          5    1    1    2  502    0 -0.32962709817E+02  0.17458179036E+02 -0.10145343303E+03  0.10817393275E+03  0.41800000000E+01 0.  1.
         -5    1    1    2    0  502  0.10709173363E+03  0.49079968264E+02 -0.16981333511E+03  0.20671604649E+03  0.41800000000E+01 0.  1.
        -11    1    1    2    0    0 -0.95518866656E+02 -0.49677670950E+02 -0.40614787248E+03  0.42017593839E+03  0.00000000000E+00 0.  1.
         11    1    1    2    0    0  0.21389842842E+02 -0.16860476350E+02 -0.78631438985E+02  0.83214807795E+02  0.00000000000E+00 0. -1.
</event>
<event>
 6    1  0.5317355E-006  0.1255880E+03  0.7561462E-02  0.1234153E+00
         -2   -1    0    0    0  501 -0.00000000000E+00  0.00000000000E+00  0.36143729173E+02  0.36143729173E+02  0.00000000000E+00 0.  1.
          2   -1    0    0  501    0  0.00000000000E+00 -0.00000000000E+00 -0.68937560751E+03  0.68937560751E+03  0.00000000000E+00 0. -1.
          5    1    1    2  502    0 -0.11778944275E+03 -0.15728892329E+02 -0.13392942082E+03  0.17909861261E+03  0.41800000000E+01 0. -1.
         -5    1    1    2    0  502  0.72114734684E+01 -0.10303243712E+02 -0.15541041385E+03  0.15597445725E+03  0.41800000000E+01 0. -1.
        -11    1    1    2    0    0  0.41492989460E+02  0.27734884714E+02 -0.26586564693E+03  0.27050958249E+03  0.00000000000E+00 0. -1.
         11    1    1    2    0    0  0.69084979825E+02 -0.17027486724E+01 -0.98026396734E+02  0.11993668433E+03  0.00000000000E+00 0.  1.
</event>
<event>
 6    1  0.5394570E-006  0.2104607E+03  0.7561462E-02  0.1141202E+00
         -2   -1    0    0    0  501 -0.00000000000E+00  0.00000000000E+00  0.30825379025E+03  0.30825379025E+03  0.00000000000E+00 0.  1.
          2   -1    0    0  501    0  0.00000000000E+00 -0.00000000000E+00 -0.15932756384E+03  0.15932756384E+03  0.00000000000E+00 0. -1.
          5    1    1    2  502    0  0.23958413470E+02  0.34779133103E+01 -0.92156663015E+01  0.26239328543E+02  0.41800000000E+01 0. -1.
         -5    1    1    2    0  502 -0.25495407528E+02 -0.19658627911E+03  0.88440952707E+02  0.21710701384E+03  0.41800000000E+01 0. -1.
        -11    1    1    2    0    0 -0.10840168374E+02  0.17892258925E+03  0.31985714131E+02  0.18208209166E+03  0.00000000000E+00 0.  1.
         11    1    1    2    0    0  0.12377162432E+02  0.14185776554E+02  0.37715225878E+02  0.42152920057E+02  0.00000000000E+00 0. -1.
</event>
<event>
 6    1  0.5317355E-006  0.1270735E+03  0.7561462E-02  0.1231864E+00
         -1   -1    0    0    0  501 -0.00000000000E+00  0.00000000000E+00  0.11358564293E+03  0.11358564293E+03  0.00000000000E+00 0.  1.
          1   -1    0    0  501    0  0.00000000000E+00 -0.00000000000E+00 -0.29313914287E+03  0.29313914287E+03  0.00000000000E+00 0. -1.
          5    1    1    2  502    0  0.87240108198E+02 -0.68023640426E+02  0.35882370685E+02  0.11637469253E+03  0.41800000000E+01 0.  1.
         -5    1    1    2    0  502 -0.33587527564E+02  0.12680686611E+02  0.83584811810E+01  0.37097957201E+02  0.41800000000E+01 0.  1.
        -11    1    1    2    0    0  0.96313763040E+01  0.41387985954E+02 -0.14570616673E+03  0.15177620305E+03  0.00000000000E+00 0. -1.
         11    1    1    2    0    0 -0.63283956937E+02  0.13954967862E+02 -0.78088185080E+02  0.10147593302E+03  0.00000000000E+00 0.  1.
</event>
<event>
 6    1  0.5317355E-006  0.1502272E+03  0.7561462E-02  0.1200194E+00
         -1   -1    0    0    0  501 -0.00000000000E+00  0.00000000000E+00  0.48362616309E+03  0.48362616309E+03  0.00000000000E+00 0.  1.
          1   -1    0    0  501    0  0.00000000000E+00 -0.00000000000E+00 -0.70667877277E+02  0.70667877277E+02  0.00000000000E+00 0. -1.
          5    1    1    2  502    0 -0.30614852606E+02  0.11032486609E+03  0.10179650970E+03  0.15326071599E+03  0.41800000000E+01 0. -1.
         -5    1    1    2    0  502 -0.41617116941E+02  0.98861930164E+01  0.18278229428E+03  0.18776730476E+03  0.41800000000E+01 0. -1.
        -11    1    1    2    0    0  0.31454993123E+02 -0.78529264850E+02  0.15201164825E+02  0.85949621537E+02  0.00000000000E+00 0. -1.
         11    1    1    2    0    0  0.40776976424E+02 -0.41681794260E+02  0.11317831701E+03  0.12731639808E+03  0.00000000000E+00 0.  1.
</event>
<event>
 6    1  0.5317355E-006  0.9646316E+02  0.7561462E-02  0.1287914E+00
         -1   -1    0    0    0  501 -0.00000000000E+00  0.00000000000E+00  0.37287846231E+02  0.37287846231E+02  0.00000000000E+00 0.  1.
          1   -1    0    0  501    0  0.00000000000E+00 -0.00000000000E+00 -0.32742498468E+03  0.32742498468E+03  0.00000000000E+00 0. -1.
          5    1    1    2  502    0 -0.30881296526E+02 -0.38267452004E+02 -0.11061631692E+03  0.12112594407E+03  0.41800000000E+01 0.  1.
         -5    1    1    2    0  502  0.49722256253E+02  0.45677530886E+02 -0.53641625089E+02  0.86334442356E+02  0.41800000000E+01 0.  1.
        -11    1    1    2    0    0  0.17006326985E+02  0.23216427125E+02 -0.98744921181E+02  0.10285318228E+03  0.00000000000E+00 0. -1.
         11    1    1    2    0    0 -0.35847286712E+02 -0.30626506007E+02 -0.27134275265E+02  0.54399262210E+02  0.00000000000E+00 0.  1.
</event>
<event>
 6    1  0.5317355E-006  0.1356832E+03  0.7561462E-02  0.1219258E+00
          2   -1    0    0  501    0  0.00000000000E+00  0.00000000000E+00  0.70984343925E+03  0.70984343925E+03  0.00000000000E+00 0. -1.
         -2   -1    0    0    0  501 -0.00000000000E+00 -0.00000000000E+00 -0.33223766120E+02  0.33223766120E+02  0.00000000000E+00 0.  1.
          5    1    1    2  502    0  0.11667987824E+03 -0.69452399483E+01  0.37140173617E+03  0.38938304068E+03  0.41800000000E+01 0.  1.
         -5    1    1    2    0  502 -0.95562374063E+01 -0.84610380229E+01 -0.35971775205E+01  0.13904061418E+02  0.41800000000E+01 0.  1.
        -11    1    1    2    0    0 -0.40924531171E+02  0.51337125141E+02  0.16125572238E+03  0.17410837335E+03  0.00000000000E+00 0. -1.
         11    1    1    2    0    0 -0.66199109658E+02 -0.35930847170E+02  0.14755939211E+03  0.16567172993E+03  0.00000000000E+00 0.  1.
</event>
<event>
 6    1  0.5317355E-006  0.1250326E+03  0.7561462E-02  0.1235018E+00
         -2   -1    0    0    0  501 -0.00000000000E+00  0.00000000000E+00  0.45211817523E+02  0.45211817523E+02  0.00000000000E+00 0.  1.
          2   -1    0    0  501    0  0.00000000000E+00 -0.00000000000E+00 -0.45279658827E+03  0.45279658827E+03  0.00000000000E+00 0. -1.
          5    1    1    2  502    0  0.10325134265E+03  0.34427559533E+02 -0.20176454308E+03  0.22928693783E+03  0.41800000000E+01 0.  1.
         -5    1    1    2    0  502 -0.13169979121E+02 -0.16556013084E+02  0.41676783258E+01  0.21963420997E+02  0.41800000000E+01 0.  1.
        -11    1    1    2    0    0 -0.51722362903E+00 -0.29287505118E+02 -0.10135222108E+03  0.10550022841E+03  0.00000000000E+00 0. -1.
         11    1    1    2    0    0 -0.89564139899E+02  0.11415958669E+02 -0.10863568492E+03  0.14125781856E+03  0.00000000000E+00 0.  1.
</event>
<event>
 6    1  0.5317355E-006  0.5874968E+02  0.7561462E-02  0.1403155E+00
         -1   -1    0    0    0  501 -0.00000000000E+00  0.00000000000E+00  0.25873744328E+03  0.25873744328E+03  0.00000000000E+00 0.  1.
          1   -1    0    0  501    0  0.00000000000E+00 -0.00000000000E+00 -0.45551622065E+02  0.45551622065E+02  0.00000000000E+00 0. -1.
          5    1    1    2  502    0  0.17825784662E+02  0.89840536191E+00  0.14376827202E+03  0.14493223992E+03  0.41800000000E+01 0.  1.
         -5    1    1    2    0  502 -0.34311388375E+02 -0.28649056452E+01 -0.12768270244E+02  0.36959169114E+02  0.41800000000E+01 0.  1.
        -11    1    1    2    0    0 -0.87557650494E+00 -0.28983980915E+02  0.81929389827E+02  0.86909508694E+02  0.00000000000E+00 0.  1.
         11    1    1    2    0    0  0.17361180218E+02  0.30950481199E+02  0.25642961669E+00  0.35488147615E+02  0.00000000000E+00 0. -1.
</event>
<event>
 6    1  0.5317355E-006  0.1271175E+03  0.7561462E-02  0.1231797E+00
         -2   -1    0    0    0  501 -0.00000000000E+00  0.00000000000E+00  0.18226558998E+03  0.18226558998E+03  0.00000000000E+00 0. -1.
          2   -1    0    0  501    0  0.00000000000E+00 -0.00000000000E+00 -0.10821167693E+03  0.10821167693E+03  0.00000000000E+00 0.  1.
          5    1    1    2  502    0  0.94394931975E+02  0.12735000588E+02  0.63870691263E+02  0.11475853356E+03  0.41800000000E+01 0. -1.
         -5    1    1    2    0  502 -0.22402831375E+02 -0.46667507319E+02  0.20533983201E+02  0.55846754240E+02  0.41800000000E+01 0. -1.
        -11    1    1    2    0    0 -0.65109440412E+02 -0.69695649320E+01 -0.32223902050E+02  0.72980777808E+02  0.00000000000E+00 0.  1.
         11    1    1    2    0    0 -0.68826601879E+01  0.40902071663E+02  0.21873140640E+02  0.46891201296E+02  0.00000000000E+00 0. -1.
</event>
<event>
 6    1  0.5317355E-006  0.1052373E+03  0.7561462E-02  0.1269653E+00
         -2   -1    0    0    0  501 -0.00000000000E+00  0.00000000000E+00  0.63684819272E+02  0.63684819272E+02  0.00000000000E+00 0.  1.
          2   -1    0    0  501    0  0.00000000000E+00 -0.00000000000E+00 -0.23273751603E+03  0.23273751603E+03  0.00000000000E+00 0. -1.
          5    1    1    2  502    0  0.50404593584E+02  0.21249757834E+02 -0.10963679015E+02  0.55945061622E+02  0.41800000000E+01 0. -1.
         -5    1    1    2    0  502 -0.23073088343E+02 -0.68512111039E+02 -0.78883203719E+02  0.10708085260E+03  0.41800000000E+01 0.  1.
        -11    1    1    2    0    0 -0.38861254341E+02  0.56397959987E+02 -0.18515720139E+02  0.70948987815E+02  0.00000000000E+00 0.  1.
         11    1    1    2    0    0  0.11529749100E+02 -0.91356067820E+01 -0.60690093882E+02  0.62447433262E+02  0.00000000000E+00 0. -1.
</event>
<event>
 6    1  0.5317355E-006  0.8534182E+02  0.7561462E-02  0.1314541E+00
         -1   -1    0    0    0  501 -0.00000000000E+00  0.00000000000E+00  0.83622897336E+03  0.83622897336E+03  0.00000000000E+00 0.  1.
          1   -1    0    0  501    0  0.00000000000E+00 -0.00000000000E+00 -0.15701274204E+02  0.15701274204E+02  0.00000000000E+00 0. -1.
          5    1    1    2  502    0  0.26506938145E+02  0.14002328508E+02  0.47646650471E+03  0.47742694256E+03  0.41800000000E+01 0.  1.
         -5    1    1    2    0  502 -0.46068761799E+02 -0.25085296606E+02  0.10128104289E+03  0.11413555523E+03  0.41800000000E+01 0.  1.
        -11    1    1    2    0    0  0.38642822860E+02  0.38396430841E+02  0.19242780180E+03  0.19999003116E+03  0.00000000000E+00 0.  1.
         11    1    1    2    0    0 -0.19080999207E+02 -0.27313462744E+02  0.50352349758E+02  0.60377718605E+02  0.00000000000E+00 0. -1.
</event>
<event>
 6    1  0.5317355E-006  0.1776990E+03  0.7561462E-02  0.1170049E+00
          1   -1    0    0  501    0  0.00000000000E+00  0.00000000000E+00  0.12265881111E+04  0.12265881111E+04  0.00000000000E+00 0. -1.
         -1   -1    0    0    0  501 -0.00000000000E+00 -0.00000000000E+00 -0.29510523815E+02  0.29510523815E+02  0.00000000000E+00 0.  1.
          5    1    1    2  502    0  0.27890643938E+02 -0.44632104372E+02  0.22828806163E+03  0.23431351699E+03  0.41800000000E+01 0.  1.
         -5    1    1    2    0  502  0.12080714658E+03  0.48001201572E+02  0.24643530993E+03  0.27865088623E+03  0.41800000000E+01 0.  1.
        -11    1    1    2    0    0 -0.66454474378E+02 -0.45102823465E+02  0.39229769508E+03  0.40043469307E+03  0.00000000000E+00 0. -1.
         11    1    1    2    0    0 -0.82243316136E+02  0.41733726265E+02  0.33005652069E+03  0.34269953867E+03  0.00000000000E+00 0.  1.
</event>
<event>
 6    1  0.5317355E-006  0.1254436E+03  0.7561462E-02  0.1234378E+00
         -2   -1    0    0    0  501 -0.00000000000E+00  0.00000000000E+00  0.73412926443E+03  0.73412926443E+03  0.00000000000E+00 0.  1.
          2   -1    0    0  501    0  0.00000000000E+00 -0.00000000000E+00 -0.31392988522E+02  0.31392988522E+02  0.00000000000E+00 0. -1.
          5    1    1    2  502    0 -0.52007139888E+01  0.23728999833E+02 -0.12395802445E+01  0.24680393397E+02  0.41800000000E+01 0. -1.
         -5    1    1    2    0  502 -0.68287032515E+02 -0.52076689225E+02  0.34060961006E+03  0.35129400683E+03  0.41800000000E+01 0.  1.
        -11    1    1    2    0    0 -0.20796014357E+02 -0.24529670379E+02  0.76113526551E+02  0.82628372041E+02  0.00000000000E+00 0.  1.
         11    1    1    2    0    0  0.94283760861E+02  0.52877359771E+02  0.28725271955E+03  0.30691948069E+03  0.00000000000E+00 0. -1.
</event>
<event>
 6    1  0.5317355E-006  0.1083353E+03  0.7561462E-02  0.1263684E+00
          2   -1    0    0  501    0  0.00000000000E+00  0.00000000000E+00  0.10691378277E+03  0.10691378277E+03  0.00000000000E+00 0. -1.
         -2   -1    0    0    0  501 -0.00000000000E+00 -0.00000000000E+00 -0.14155512480E+03  0.14155512480E+03  0.00000000000E+00 0.  1.
          5    1    1    2  502    0  0.38856252605E+02  0.19273585181E+02  0.39649730078E+01  0.43754689614E+02  0.41800000000E+01 0. -1.
         -5    1    1    2    0  502 -0.76587728232E+02 -0.57192291132E+01 -0.66690594006E+02  0.10180126436E+03  0.41800000000E+01 0. -1.
        -11    1    1    2    0    0  0.66375201163E+02 -0.65786006093E+01  0.78603113652E+01  0.67161966992E+02  0.00000000000E+00 0.  1.
         11    1    1    2    0    0 -0.28643725536E+02 -0.69757554586E+01  0.20223967601E+02  0.35750986593E+02  0.00000000000E+00 0. -1.
</event>
<event>
 6    1  0.5317355E-006  0.1509043E+03  0.7561462E-02  0.1199366E+00
          2   -1    0    0  501    0  0.00000000000E+00  0.00000000000E+00  0.14855546487E+03  0.14855546487E+03  0.00000000000E+00 0. -1.
         -2   -1    0    0    0  501 -0.00000000000E+00 -0.00000000000E+00 -0.28852383459E+03  0.28852383459E+03  0.00000000000E+00 0.  1.
          5    1    1    2  502    0  0.11501915784E+03  0.72371326949E+02 -0.21129570969E+03  0.25125756698E+03  0.41800000000E+01 0. -1.
         -5    1    1    2    0  502 -0.50720636827E+01 -0.15980243439E+02  0.66805019405E+01  0.18525536876E+02  0.41800000000E+01 0. -1.
        -11    1    1    2    0    0  0.12805285332E+02 -0.13333985248E+02 -0.57812959050E+01  0.19369921976E+02  0.00000000000E+00 0.  1.
         11    1    1    2    0    0 -0.12275237949E+03 -0.43057098262E+02  0.70428133923E+02  0.14792627362E+03  0.00000000000E+00 0. -1.
</event>
<event>
 6    1  0.5317355E-006  0.8045175E+02  0.7561462E-02  0.1327774E+00
          1   -1    0    0  501    0  0.00000000000E+00  0.00000000000E+00  0.25165961639E+03  0.25165961639E+03  0.00000000000E+00 0. -1.
         -1   -1    0    0    0  501 -0.00000000000E+00 -0.00000000000E+00 -0.52735266202E+02  0.52735266202E+02  0.00000000000E+00 0.  1.
          5    1    1    2  502    0 -0.91582362697E+01 -0.38114763793E+02  0.12977348641E+03  0.13562904809E+03  0.41800000000E+01 0. -1.
         -5    1    1    2    0  502  0.25284728890E+02 -0.16741416099E+01 -0.22898899566E+02  0.34408607448E+02  0.41800000000E+01 0. -1.
        -11    1    1    2    0    0 -0.44638274111E+02  0.48568983328E+02  0.75434981280E+02  0.10020957069E+03  0.00000000000E+00 0. -1.
         11    1    1    2    0    0  0.28511781491E+02 -0.87800779251E+01  0.16614782064E+02  0.34147656364E+02  0.00000000000E+00 0.  1.
</event>
<event>
 6    1  0.5317355E-006  0.1579166E+03  0.7561462E-02  0.1191069E+00
         -2   -1    0    0    0  501 -0.00000000000E+00  0.00000000000E+00  0.34481712523E+02  0.34481712523E+02  0.00000000000E+00 0.  1.
          2   -1    0    0  501    0  0.00000000000E+00 -0.00000000000E+00 -0.76366836523E+03  0.76366836523E+03  0.00000000000E+00 0. -1.
          5    1    1    2  502    0 -0.63256981500E+02  0.11778209608E+03 -0.23025916052E+03  0.26629085840E+03  0.41800000000E+01 0. -1.
         -5    1    1    2    0  502  0.35114166458E+02 -0.28913921543E+01 -0.10071287388E+03  0.10677977430E+03  0.41800000000E+01 0. -1.
        -11    1    1    2    0    0  0.42280722845E+02 -0.13736250203E+02 -0.89978695458E+02  0.10036189382E+03  0.00000000000E+00 0.  1.
         11    1    1    2    0    0 -0.14137907803E+02 -0.10115445372E+03 -0.30823592285E+03  0.32471755123E+03  0.00000000000E+00 0. -1.
</event>
<event>
 6    1  0.5317355E-006  0.1341693E+03  0.7561462E-02  0.1221397E+00
         -2   -1    0    0    0  501 -0.00000000000E+00  0.00000000000E+00  0.15546153575E+03  0.15546153575E+03  0.00000000000E+00 0. -1.
          2   -1    0    0  501    0  0.00000000000E+00 -0.00000000000E+00 -0.11993368050E+03  0.11993368050E+03  0.00000000000E+00 0.  1.
          5    1    1    2  502    0  0.38090325383E+02  0.22512102476E+02  0.24459757892E+02  0.50728885281E+02  0.41800000000E+01 0.  1.
         -5    1    1    2    0  502 -0.18356020926E+02 -0.95373229171E+02 -0.11479248811E+01  0.97220298695E+02  0.41800000000E+01 0.  1.
        -11    1    1    2    0    0  0.41910212282E+02  0.27088170161E+02  0.81014133485E+01  0.50555590734E+02  0.00000000000E+00 0. -1.
         11    1    1    2    0    0 -0.61644516738E+02  0.45772956533E+02  0.41146088876E+01  0.76890441538E+02  0.00000000000E+00 0.  1.
</event>
<event>
 6    1  0.5317355E-006  0.1093036E+03  0.7561462E-02  0.1261865E+00
         -2   -1    0    0    0  501 -0.00000000000E+00  0.00000000000E+00  0.58021413975E+02  0.58021413975E+02  0.00000000000E+00 0.  1.
          2   -1    0    0  501    0  0.00000000000E+00 -0.00000000000E+00 -0.21803211357E+03  0.21803211357E+03  0.00000000000E+00 0. -1.
          5    1    1    2  502    0  0.34931851718E+02 -0.33140821707E+02 -0.14017480703E+02  0.50324054816E+02  0.41800000000E+01 0. -1.
         -5    1    1    2    0  502 -0.40955660201E+02  0.61918363280E+02 -0.77705174719E+02  0.10754913478E+03  0.41800000000E+01 0. -1.
        -11    1    1    2    0    0  0.34831529020E+01 -0.62251699062E+02 -0.50203096051E+02  0.80048468088E+02  0.00000000000E+00 0.  1.
         11    1    1    2    0    0  0.25406555806E+01  0.33474157489E+02 -0.18084948117E+02  0.38131869856E+02  0.00000000000E+00 0. -1.
</event>
<event>
 6    1  0.5317355E-006  0.1074497E+03  0.7561462E-02  0.1265367E+00
          2   -1    0    0  501    0  0.00000000000E+00  0.00000000000E+00  0.52084953093E+02  0.52084953093E+02  0.00000000000E+00 0. -1.
         -2   -1    0    0    0  501 -0.00000000000E+00 -0.00000000000E+00 -0.40542075703E+03  0.40542075703E+03  0.00000000000E+00 0.  1.
          5    1    1    2  502    0  0.90175203424E+02 -0.27283956892E+02 -0.10826219419E+03  0.14357630970E+03  0.41800000000E+01 0. -1.
         -5    1    1    2    0  502 -0.23192061027E+02 -0.17773495593E+02 -0.16487708079E+03  0.16749833733E+03  0.41800000000E+01 0. -1.
        -11    1    1    2    0    0 -0.28866436248E+02 -0.37943277689E+01 -0.79284921152E+02  0.84461629081E+02  0.00000000000E+00 0.  1.
         11    1    1    2    0    0 -0.38116706150E+02  0.48851780254E+02 -0.91160779710E+00  0.61969434001E+02  0.00000000000E+00 0. -1.
</event>
<event>
 6    1  0.5317355E-006  0.1079447E+03  0.7561462E-02  0.1264424E+00
          1   -1    0    0  501    0  0.00000000000E+00  0.00000000000E+00  0.37265961874E+02  0.37265961874E+02  0.00000000000E+00 0. -1.
         -1   -1    0    0    0  501 -0.00000000000E+00 -0.00000000000E+00 -0.90697369854E+03  0.90697369854E+03  0.00000000000E+00 0.  1.
          5    1    1    2  502    0  0.77751835004E+02  0.37416017288E+02 -0.64665141785E+03  0.65239622532E+03  0.41800000000E+01 0. -1.
         -5    1    1    2    0  502  0.33333110481E+01 -0.47444756107E+02 -0.12986829374E+03  0.13836676611E+03  0.41800000000E+01 0. -1.
        -11    1    1    2    0    0 -0.71111974551E+02  0.78064909738E+01 -0.11151755047E+03  0.13249157818E+03  0.00000000000E+00 0.  1.
         11    1    1    2    0    0 -0.99731715005E+01  0.22222478457E+01  0.18329525393E+02  0.20985090812E+02  0.00000000000E+00 0. -1.
</event>
<event>
 6    1  0.5317355E-006  0.8716267E+02  0.7561462E-02  0.1309872E+00
         -2   -1    0    0    0  501 -0.00000000000E+00  0.00000000000E+00  0.19785484343E+03  0.19785484343E+03  0.00000000000E+00 0. -1.
          2   -1    0    0  501    0  0.00000000000E+00 -0.00000000000E+00 -0.95717473796E+02  0.95717473796E+02  0.00000000000E+00 0.  1.
          5    1    1    2  502    0  0.40694341550E+02 -0.58400495049E+02  0.25572833869E+02  0.75750178140E+02  0.41800000000E+01 0.  1.
         -5    1    1    2    0  502 -0.43277458143E+02  0.49143847097E+01  0.10106738547E+03  0.11013254907E+03  0.41800000000E+01 0.  1.
        -11    1    1    2    0    0 -0.73147963253E+01  0.46691456111E+02  0.27255594848E+02  0.54556995606E+02  0.00000000000E+00 0. -1.
         11    1    1    2    0    0  0.98979129179E+01  0.67946542276E+01 -0.51758444549E+02  0.53132594406E+02  0.00000000000E+00 0.  1.
</event>
<event>
 6    1  0.5317355E-006  0.2360465E+03  0.7561462E-02  0.1122455E+00
         -1   -1    0    0    0  501 -0.00000000000E+00  0.00000000000E+00  0.30130979728E+03  0.30130979728E+03  0.00000000000E+00 0.  1.
          1   -1    0    0  501    0  0.00000000000E+00 -0.00000000000E+00 -0.19768575979E+03  0.19768575979E+03  0.00000000000E+00 0. -1.
          5    1    1    2  502    0 -0.47546366864E+02 -0.30265507218E+02  0.15737822867E+02  0.58666936154E+02  0.41800000000E+01 0.  1.
         -5    1    1    2    0  502  0.53287601609E+02 -0.17884476451E+03  0.83829157419E+02  0.20462115803E+03  0.41800000000E+01 0.  1.
        -11    1    1    2    0    0 -0.42760354394E+02  0.51122027868E+02 -0.24380601702E+02  0.70967058419E+02  0.00000000000E+00 0.  1.
         11    1    1    2    0    0  0.37019119650E+02  0.15798824386E+03  0.28437658907E+02  0.16474040446E+03  0.00000000000E+00 0. -1.
</event>
<event>
 6    1  0.5317355E-006  0.1367013E+03  0.7561462E-02  0.1217838E+00
          2   -1    0    0  501    0  0.00000000000E+00  0.00000000000E+00  0.44384208286E+03  0.44384208286E+03  0.00000000000E+00 0. -1.
         -2   -1    0    0    0  501 -0.00000000000E+00 -0.00000000000E+00 -0.51001967606E+02  0.51001967606E+02  0.00000000000E+00 0.  1.
          5    1    1    2  502    0  0.11673705774E+03  0.54705487593E+02  0.14334150294E+03  0.19283280294E+03  0.41800000000E+01 0. -1.
         -5    1    1    2    0  502 -0.16847404032E+02 -0.28298998529E+02  0.42096271223E+02  0.53611909043E+02  0.41800000000E+01 0. -1.
        -11    1    1    2    0    0 -0.70144875556E+02 -0.37415830409E+02  0.65534178364E+02  0.10302900789E+03  0.00000000000E+00 0.  1.
         11    1    1    2    0    0 -0.29744778152E+02  0.11009341345E+02  0.14186816273E+03  0.14537033060E+03  0.00000000000E+00 0. -1.
</event>
<event>
 6    1  0.5317355E-006  0.2387360E+03  0.7561462E-02  0.1120638E+00
          2   -1    0    0  501    0  0.00000000000E+00  0.00000000000E+00  0.47899526206E+02  0.47899526206E+02  0.00000000000E+00 0. -1.
         -2   -1    0    0    0  501 -0.00000000000E+00 -0.00000000000E+00 -0.15837556627E+04  0.15837556627E+04  0.00000000000E+00 0.  1.
          5    1    1    2  502    0  0.25162434179E+02 -0.13037902901E+02 -0.23028633920E+03  0.23206121052E+03  0.41800000000E+01 0.  1.
         -5    1    1    2    0  502  0.10107409504E+03  0.19678978809E+03 -0.90678336126E+03  0.93338937751E+03  0.41800000000E+01 0.  1.
        -11    1    1    2    0    0 -0.47504364174E+02 -0.10938964224E+03 -0.28586603686E+03  0.30974529775E+03  0.00000000000E+00 0.  1.
         11    1    1    2    0    0 -0.78732165049E+02 -0.74362242941E+02 -0.11292039919E+03  0.15645930315E+03  0.00000000000E+00 0. -1.
</event>
<event>
 6    1  0.5317355E-006  0.1103969E+03  0.7561462E-02  0.1259837E+00
          1   -1    0    0  501    0  0.00000000000E+00  0.00000000000E+00  0.45816128868E+03  0.45816128868E+03  0.00000000000E+00 0.  1.
         -1   -1    0    0    0  501 -0.00000000000E+00 -0.00000000000E+00 -0.48711283761E+02  0.48711283761E+02  0.00000000000E+00 0. -1.
          5    1    1    2  502    0  0.57200669366E+02  0.35654251263E+02  0.48303953806E+02  0.83029431904E+02  0.41800000000E+01 0.  1.
         -5    1    1    2    0  502 -0.58964246555E+02  0.18392716284E+01  0.97794233528E+01  0.59943930577E+02  0.41800000000E+01 0.  1.
        -11    1    1    2    0    0  0.37136889437E+02  0.64666910909E+01  0.16047786457E+03  0.16484572081E+03  0.00000000000E+00 0.  1.
         11    1    1    2    0    0 -0.35373312248E+02 -0.43960213983E+02  0.19088876319E+03  0.19905348916E+03  0.00000000000E+00 0. -1.
</event>
<event>
 6    1  0.5317355E-006  0.1411379E+03  0.7561462E-02  0.1211806E+00
         -2   -1    0    0    0  501 -0.00000000000E+00  0.00000000000E+00  0.71151334865E+02  0.71151334865E+02  0.00000000000E+00 0.  1.
          2   -1    0    0  501    0  0.00000000000E+00 -0.00000000000E+00 -0.39150828554E+03  0.39150828554E+03  0.00000000000E+00 0. -1.
          5    1    1    2  502    0  0.12880559442E+02  0.10225226212E+03 -0.94817730899E+01  0.10357997075E+03  0.41800000000E+01 0.  1.
         -5    1    1    2    0  502  0.37101878665E+02 -0.46570786452E+01 -0.72920668595E+02  0.82055676771E+02  0.41800000000E+01 0.  1.
        -11    1    1    2    0    0 -0.75786233432E+02 -0.80446726355E+02 -0.19346902774E+03  0.22281268737E+03  0.00000000000E+00 0. -1.
         11    1    1    2    0    0  0.25803795325E+02 -0.17148457118E+02 -0.44485481253E+02  0.54211285513E+02  0.00000000000E+00 0.  1.
</event>
<event>
 6    1  0.5317355E-006  0.1166855E+03  0.7561462E-02  0.1248667E+00
         -2   -1    0    0    0  501 -0.00000000000E+00  0.00000000000E+00  0.21368657962E+03  0.21368657962E+03  0.00000000000E+00 0.  1.
          2   -1    0    0  501    0  0.00000000000E+00 -0.00000000000E+00 -0.12743856496E+03  0.12743856496E+03  0.00000000000E+00 0. -1.
          5    1    1    2  502    0 -0.25293333213E+02 -0.42239099435E+02  0.41537001305E+01  0.49584471873E+02  0.41800000000E+01 0. -1.
         -5    1    1    2    0  502 -0.57464716596E+02  0.49309367819E+02  0.13650385922E+03  0.15615499796E+03  0.41800000000E+01 0. -1.
        -11    1    1    2    0    0  0.71357478041E+02  0.23795987153E+02 -0.41780889704E+01  0.75336545610E+02  0.00000000000E+00 0.  1.
         11    1    1    2    0    0  0.11400571768E+02 -0.30866255536E+02 -0.50231455717E+02  0.60049129143E+02  0.00000000000E+00 0. -1.
</event>
<event>
 6    1  0.5317355E-006  0.2347596E+03  0.7561462E-02  0.1123334E+00
          2   -1    0    0  501    0  0.00000000000E+00  0.00000000000E+00  0.85709310174E+03  0.85709310174E+03  0.00000000000E+00 0. -1.
         -2   -1    0    0    0  501 -0.00000000000E+00 -0.00000000000E+00 -0.77587578479E+02  0.77587578479E+02  0.00000000000E+00 0.  1.
          5    1    1    2  502    0  0.72110919853E+02 -0.15124161257E+02  0.74116817232E+02  0.10459206477E+03  0.41800000000E+01 0.  1.
         -5    1    1    2    0  502  0.10284894109E+03  0.14370051712E+03  0.17098732293E+03  0.24593064125E+03  0.41800000000E+01 0.  1.
        -11    1    1    2    0    0 -0.86866625871E+02 -0.46381518600E+02  0.35232246214E+03  0.36582533166E+03  0.00000000000E+00 0.  1.
         11    1    1    2    0    0 -0.88093235070E+02 -0.82194837267E+02  0.18207892096E+03  0.21833264254E+03  0.00000000000E+00 0. -1.
</event>
<event>
 6    1  0.5317355E-006  0.1270850E+03  0.7561462E-02  0.1231846E+00
         -2   -1    0    0    0  501 -0.00000000000E+00  0.00000000000E+00  0.35465401346E+03  0.35465401346E+03  0.00000000000E+00 0. -1.
          2   -1    0    0  501    0  0.00000000000E+00 -0.00000000000E+00 -0.63091305146E+02  0.63091305146E+02  0.00000000000E+00 0.  1.
          5    1    1    2  502    0  0.72868429442E+02  0.14545090694E+02  0.30958409839E+02  0.80605602860E+02  0.41800000000E+01 0. -1.
         -5    1    1    2    0  502  0.71985980124E+00  0.53613519905E+02  0.15967983144E+03  0.16849346778E+03  0.41800000000E+01 0. -1.
        -11    1    1    2    0    0 -0.49630159066E+02  0.41383284380E+01  0.11369325326E+02  0.51083656971E+02  0.00000000000E+00 0.  1.
         11    1    1    2    0    0 -0.23958130177E+02 -0.72296939037E+02  0.89555141708E+02  0.11756259100E+03  0.00000000000E+00 0. -1.
</event>
<event>
 6    1  0.5317355E-006  0.1380398E+03  0.7561462E-02  0.1215991E+00
          2   -1    0    0  501    0  0.00000000000E+00  0.00000000000E+00  0.36593953976E+02  0.36593953976E+02  0.00000000000E+00 0. -1.
         -2   -1    0    0    0  501 -0.00000000000E+00 -0.00000000000E+00 -0.55672226056E+03  0.55672226056E+03  0.00000000000E+00 0.  1.
          5    1    1    2  502    0 -0.91560954873E+02  0.29735521603E+02 -0.16922220553E+03  0.19473375914E+03  0.41800000000E+01 0. -1.
         -5    1    1    2    0  502  0.34364179187E+01 -0.58953428534E+02 -0.91489862846E+02  0.10897331374E+03  0.41800000000E+01 0. -1.
        -11    1    1    2    0    0  0.69301204818E+02 -0.16361021130E+02 -0.20055736010E+03  0.21282291863E+03  0.00000000000E+00 0.  1.
         11    1    1    2    0    0  0.18823332136E+02  0.45578928062E+02 -0.58858878103E+02  0.76786223032E+02  0.00000000000E+00 0. -1.
</event>
<event>
 6    1  0.5317355E-006  0.8515790E+02  0.7561462E-02  0.1315020E+00
         -2   -1    0    0    0  501 -0.00000000000E+00  0.00000000000E+00  0.14410949405E+02  0.14410949405E+02  0.00000000000E+00 0.  1.
          2   -1    0    0  501    0  0.00000000000E+00 -0.00000000000E+00 -0.88004646828E+03  0.88004646828E+03  0.00000000000E+00 0. -1.
          5    1    1    2  502    0  0.14596221992E+02  0.40417732756E+02 -0.58530092333E+02  0.72731608851E+02  0.41800000000E+01 0.  1.
         -5    1    1    2    0  502  0.14135020179E+02 -0.31246393947E+02 -0.46875887790E+03  0.47003031172E+03  0.41800000000E+01 0.  1.
        -11    1    1    2    0    0  0.16239108685E+02  0.29242041638E+02 -0.80885663837E+02  0.87528831046E+02  0.00000000000E+00 0.  1.
         11    1    1    2    0    0 -0.44970350855E+02 -0.38413380448E+02 -0.25746088481E+03  0.26416666607E+03  0.00000000000E+00 0. -1.
</event>
<event>
 6    1  0.5317355E-006  0.1148095E+03  0.7561462E-02  0.1251914E+00
         -1   -1    0    0    0  501 -0.00000000000E+00  0.00000000000E+00  0.17575397735E+03  0.17575397735E+03  0.00000000000E+00 0. -1.
          1   -1    0    0  501    0  0.00000000000E+00 -0.00000000000E+00 -0.10492750132E+03  0.10492750132E+03  0.00000000000E+00 0.  1.
          5    1    1    2  502    0 -0.36494055038E+02 -0.88921598032E+02  0.75746837476E+02  0.12244967308E+03  0.41800000000E+01 0. -1.
         -5    1    1    2    0  502  0.18460194490E+01  0.41423394228E+02  0.25128971299E+02  0.48664596739E+02  0.41800000000E+01 0. -1.
        -11    1    1    2    0    0 -0.79509286049E+01  0.48476580120E+02 -0.42732326646E+02  0.65109506421E+02  0.00000000000E+00 0.  1.
         11    1    1    2    0    0  0.42598964194E+02 -0.97837631654E+00  0.12682993907E+02  0.44457702426E+02  0.00000000000E+00 0. -1.
</event>
<event>
 6    1  0.5317355E-006  0.9108552E+02  0.7561462E-02  0.1300244E+00
          1   -1    0    0  501    0  0.00000000000E+00  0.00000000000E+00  0.63685410258E+02  0.63685410258E+02  0.00000000000E+00 0. -1.
         -1   -1    0    0    0  501 -0.00000000000E+00 -0.00000000000E+00 -0.26890947426E+03  0.26890947426E+03  0.00000000000E+00 0.  1.
          5    1    1    2  502    0  0.31737201886E+02  0.53826164930E+02 -0.25552307699E+02  0.67637998517E+02  0.41800000000E+01 0. -1.
         -5    1    1    2    0  502 -0.38931168265E+02 -0.17490592465E+00 -0.14773999592E+03  0.15284058770E+03  0.41800000000E+01 0. -1.
        -11    1    1    2    0    0 -0.26335156053E+02 -0.24005770789E+02  0.22118983785E+02  0.41941231732E+02  0.00000000000E+00 0. -1.
         11    1    1    2    0    0  0.33529122431E+02 -0.29645488216E+02 -0.54050744170E+02  0.70175066569E+02  0.00000000000E+00 0.  1.
</event>
<event>
 6    1  0.5317355E-006  0.1129737E+03  0.7561462E-02  0.1255160E+00
         -1   -1    0    0    0  501 -0.00000000000E+00  0.00000000000E+00  0.43888389356E+02  0.43888389356E+02  0.00000000000E+00 0.  1.
          1   -1    0    0  501    0  0.00000000000E+00 -0.00000000000E+00 -0.35124940051E+03  0.35124940051E+03  0.00000000000E+00 0. -1.
          5    1    1    2  502    0 -0.26021217992E+01 -0.40732449329E+02 -0.58624886867E+02  0.71555944731E+02  0.41800000000E+01 0.  1.
         -5    1    1    2    0  502 -0.24952771870E+02  0.92167455615E+02 -0.90012322444E+02  0.13129040822E+03  0.41800000000E+01 0.  1.
        -11    1    1    2    0    0 -0.21465594532E+02 -0.27222382742E+02 -0.13651557982E+02  0.37258487705E+02  0.00000000000E+00 0.  1.
         11    1    1    2    0    0  0.49020488200E+02 -0.24212623543E+02 -0.14507224386E+03  0.15503294921E+03  0.00000000000E+00 0. -1.
</event>
<event>
 6    1  0.5317355E-006  0.2064083E+03  0.7561462E-02  0.1144442E+00
          2   -1    0    0  501    0  0.00000000000E+00  0.00000000000E+00  0.85403217457E+02  0.85403217457E+02  0.00000000000E+00 0.  1.
         -2   -1    0    0    0  501 -0.00000000000E+00 -0.00000000000E+00 -0.55006195356E+03  0.55006195356E+03  0.00000000000E+00 0. -1.
          5    1    1    2  502    0 -0.13199640778E+03  0.13947930548E+02 -0.23934482108E+03  0.27371702945E+03  0.41800000000E+01 0.  1.
         -5    1    1    2    0  502 -0.41148093715E+02  0.65698757404E+02 -0.41564847049E+02  0.88060213780E+02  0.41800000000E+01 0.  1.
        -11    1    1    2    0    0  0.85406755017E+02 -0.23236882769E+01 -0.68660902469E+02  0.10960854373E+03  0.00000000000E+00 0.  1.
         11    1    1    2    0    0  0.87737746473E+02 -0.77322999675E+02 -0.11508816550E+03  0.16407938406E+03  0.00000000000E+00 0. -1.
</event>
<event>
 6    1  0.5317355E-006  0.1608993E+03  0.7561462E-02  0.1187685E+00
          2   -1    0    0  501    0  0.00000000000E+00  0.00000000000E+00  0.52387179758E+03  0.52387179758E+03  0.00000000000E+00 0. -1.
         -2   -1    0    0    0  501 -0.00000000000E+00 -0.00000000000E+00 -0.69736247181E+02  0.69736247181E+02  0.00000000000E+00 0.  1.
          5    1    1    2  502    0  0.21778467810E+02  0.18820770191E+02  0.11102939611E+03  0.11477596548E+03  0.41800000000E+01 0. -1.
         -5    1    1    2    0  502 -0.12204797688E+03 -0.97498364650E+02  0.85023043062E+02  0.17789893204E+03  0.41800000000E+01 0.  1.
        -11    1    1    2    0    0  0.14585814388E+02  0.39736499557E+02  0.24050002183E+02  0.48684062931E+02  0.00000000000E+00 0. -1.
         11    1    1    2    0    0  0.85683694684E+02  0.38941094901E+02  0.23403310905E+03  0.25224908431E+03  0.00000000000E+00 0.  1.
</event>
<event>
 6    1  0.5317355E-006  0.1097897E+03  0.7561462E-02  0.1260960E+00
          2   -1    0    0  501    0  0.00000000000E+00  0.00000000000E+00  0.21524506278E+03  0.21524506278E+03  0.00000000000E+00 0. -1.
         -2   -1    0    0    0  501 -0.00000000000E+00 -0.00000000000E+00 -0.11400763476E+03  0.11400763476E+03  0.00000000000E+00 0.  1.
          5    1    1    2  502    0  0.27087457330E+02  0.15387028206E+02 -0.37952449815E+02  0.49278309920E+02  0.41800000000E+01 0.  1.
         -5    1    1    2    0  502 -0.73198817210E+02 -0.66350835791E+02 -0.18166136654E+01  0.98900317170E+02  0.41800000000E+01 0.  1.
        -11    1    1    2    0    0  0.49587605488E+02  0.13164911931E+02  0.13262294627E+03  0.14220088397E+03  0.00000000000E+00 0. -1.
         11    1    1    2    0    0 -0.34762456084E+01  0.37798895654E+02  0.83835452232E+01  0.38873186474E+02  0.00000000000E+00 0.  1.
</event>
<event>
 6    1  0.5317355E-006  0.1436284E+03  0.7561462E-02  0.1208528E+00
          1   -1    0    0  501    0  0.00000000000E+00  0.00000000000E+00  0.79101695066E+02  0.79101695066E+02  0.00000000000E+00 0.  1.
         -1   -1    0    0    0  501 -0.00000000000E+00 -0.00000000000E+00 -0.44863680658E+03  0.44863680658E+03  0.00000000000E+00 0. -1.
          5    1    1    2  502    0 -0.30043207276E+01 -0.39909821655E+02 -0.21075872258E+03  0.21456591377E+03  0.41800000000E+01 0. -1.
         -5    1    1    2    0  502 -0.82174479531E+02 -0.62982893882E+02 -0.88774265281E+02  0.13644717873E+03  0.41800000000E+01 0. -1.
        -11    1    1    2    0    0  0.83611442378E+02  0.66133592466E+02 -0.85644114049E+02  0.13674589435E+03  0.00000000000E+00 0. -1.
         11    1    1    2    0    0  0.15673578802E+01  0.36759123072E+02  0.15641990400E+02  0.39979514797E+02  0.00000000000E+00 0.  1.
</event>
<event>
 6    1  0.5317355E-006  0.1771841E+03  0.7561462E-02  0.1170556E+00
         -1   -1    0    0    0  501 -0.00000000000E+00  0.00000000000E+00  0.48889814036E+02  0.48889814036E+02  0.00000000000E+00 0.  1.
          1   -1    0    0  501    0  0.00000000000E+00 -0.00000000000E+00 -0.80083582360E+03  0.80083582360E+03  0.00000000000E+00 0. -1.
          5    1    1    2  502    0 -0.32107563907E+02 -0.11296267993E+03 -0.24171301960E+03  0.26876405816E+03  0.41800000000E+01 0.  1.
         -5    1    1    2    0  502  0.56794344794E+02 -0.44715066648E+02 -0.56411312193E+02  0.91786400568E+02  0.41800000000E+01 0.  1.
        -11    1    1    2    0    0 -0.14352227964E+02  0.12875688417E+02 -0.90270758461E+01  0.21289854346E+02  0.00000000000E+00 0.  1.
         11    1    1    2    0    0 -0.10334552922E+02  0.14480205816E+03 -0.44479460193E+03  0.46788532456E+03  0.00000000000E+00 0. -1.
</event>
<event>
 6    1  0.5317355E-006  0.9734612E+02  0.7561462E-02  0.1285978E+00
         -2   -1    0    0    0  501 -0.00000000000E+00  0.00000000000E+00  0.17717930530E+03  0.17717930530E+03  0.00000000000E+00 0.  1.
          2   -1    0    0  501    0  0.00000000000E+00 -0.00000000000E+00 -0.71190686187E+02  0.71190686187E+02  0.00000000000E+00 0. -1.
          5    1    1    2  502    0 -0.55760699161E+02  0.48361238773E+02  0.36076823858E+02  0.82262230740E+02  0.41800000000E+01 0. -1.
         -5    1    1    2    0  502  0.50655042902E+02 -0.19520631424E+02  0.31554993091E+02  0.62929948447E+02  0.41800000000E+01 0. -1.
        -11    1    1    2    0    0 -0.14375814803E+02 -0.40934869294E+02  0.58379613099E+02  0.72735870112E+02  0.00000000000E+00 0.  1.
         11    1    1    2    0    0  0.19481471062E+02  0.12094261945E+02 -0.20022810933E+02  0.30441942191E+02  0.00000000000E+00 0. -1.
</event>
<event>
 6    1  0.5317355E-006  0.1174375E+03  0.7561462E-02  0.1247385E+00
         -2   -1    0    0    0  501 -0.00000000000E+00  0.00000000000E+00  0.49193030978E+02  0.49193030978E+02  0.00000000000E+00 0.  1.
          2   -1    0    0  501    0  0.00000000000E+00 -0.00000000000E+00 -0.40924003810E+03  0.40924003810E+03  0.00000000000E+00 0. -1.
          5    1    1    2  502    0  0.10129131061E+02 -0.83433555464E+02 -0.29579132061E+02  0.89197280939E+02  0.41800000000E+01 0. -1.
         -5    1    1    2    0  502  0.23406150761E+02  0.32874977144E+01 -0.12693590812E+03  0.12918534245E+03  0.41800000000E+01 0. -1.
        -11    1    1    2    0    0  0.32062589226E+02  0.32444047187E+02 -0.84240909618E+02  0.95797477414E+02  0.00000000000E+00 0. -1.
         11    1    1    2    0    0 -0.65597871047E+02  0.47702010563E+02 -0.11929105732E+03  0.14425296827E+03  0.00000000000E+00 0.  1.
</event>
<event>
 6    1  0.5317355E-006  0.1551360E+03  0.7561462E-02  0.1194300E+00
         -1   -1    0    0    0  501 -0.00000000000E+00  0.00000000000E+00  0.69106423231E+02  0.69106423231E+02  0.00000000000E+00 0.  1.
          1   -1    0    0  501    0  0.00000000000E+00 -0.00000000000E+00 -0.44381979635E+03  0.44381979635E+03  0.00000000000E+00 0. -1.
          5    1    1    2  502    0  0.13516163478E+02  0.19778065619E+02 -0.35023337467E+02  0.42637602209E+02  0.41800000000E+01 0. -1.
         -5    1    1    2    0  502 -0.53204218919E+02 -0.13837577447E+03 -0.82232580127E+02  0.16958246815E+03  0.41800000000E+01 0. -1.
        -11    1    1    2    0    0  0.49182602319E+02  0.56856371643E+02 -0.68549575164E+02  0.10173799498E+03  0.00000000000E+00 0.  1.
         11    1    1    2    0    0 -0.94945468790E+01  0.61741337203E+02 -0.18890788036E+03  0.19896815424E+03  0.00000000000E+00 0. -1.
</event>
<event>
 6    1  0.5317355E-006  0.1167114E+03  0.7561462E-02  0.1248623E+00
         -1   -1    0    0    0  501 -0.00000000000E+00  0.00000000000E+00  0.36506768560E+03  0.36506768560E+03  0.00000000000E+00 0.  1.
          1   -1    0    0  501    0  0.00000000000E+00 -0.00000000000E+00 -0.43112017822E+02  0.43112017822E+02  0.00000000000E+00 0. -1.
          5    1    1    2  502    0 -0.91076016010E+02 -0.62639621634E+01  0.18068091245E+03  0.20247751094E+03  0.41800000000E+01 0. -1.
         -5    1    1    2    0  502  0.40336530983E+02 -0.17895405147E+02  0.61076305011E+02  0.75465678894E+02  0.41800000000E+01 0. -1.
        -11    1    1    2    0    0  0.24646103268E+02 -0.29261245984E+02  0.51674125034E+02  0.64295148501E+02  0.00000000000E+00 0.  1.
         11    1    1    2    0    0  0.26093381760E+02  0.53420613294E+02  0.28524325288E+02  0.65941365087E+02  0.00000000000E+00 0. -1.
</event>
<event>
 6    1  0.5317355E-006  0.1358311E+03  0.7561462E-02  0.1219051E+00
          1   -1    0    0  501    0  0.00000000000E+00  0.00000000000E+00  0.47830151550E+02  0.47830151550E+02  0.00000000000E+00 0. -1.
         -1   -1    0    0    0  501 -0.00000000000E+00 -0.00000000000E+00 -0.75555652061E+03  0.75555652061E+03  0.00000000000E+00 0.  1.
          5    1    1    2  502    0 -0.41647473721E+02  0.10507892602E+03 -0.28129107068E+03  0.30318019660E+03  0.41800000000E+01 0. -1.
         -5    1    1    2    0  502  0.25805780762E+01 -0.39389529087E+02 -0.36350540794E+03  0.36566630742E+03  0.41800000000E+01 0.  1.
        -11    1    1    2    0    0  0.64162127696E+02 -0.20832446400E+02 -0.37766534886E+02  0.77311581349E+02  0.00000000000E+00 0.  1.
         11    1    1    2    0    0 -0.25095232051E+02 -0.44856950538E+02 -0.25163355549E+02  0.57228586788E+02  0.00000000000E+00 0. -1.
</event>
<event>
 6    1  0.5317355E-006  0.1115398E+03  0.7561462E-02  0.1257745E+00
         -1   -1    0    0    0  501 -0.00000000000E+00  0.00000000000E+00  0.60001490713E+03  0.60001490713E+03  0.00000000000E+00 0. -1.
          1   -1    0    0  501    0  0.00000000000E+00 -0.00000000000E+00 -0.25140671646E+02  0.25140671646E+02  0.00000000000E+00 0.  1.
          5    1    1    2  502    0  0.27772589733E+02 -0.39695652671E+02  0.86246314674E+02  0.99009902415E+02  0.41800000000E+01 0.  1.
         -5    1    1    2    0  502  0.53933427584E+01  0.74151732513E+02  0.32792372358E+03  0.33627222375E+03  0.41800000000E+01 0.  1.
        -11    1    1    2    0    0  0.28126636810E+02  0.27922883312E+01  0.33395498323E+02  0.43751158620E+02  0.00000000000E+00 0.  1.
         11    1    1    2    0    0 -0.61292569301E+02 -0.37248368174E+02  0.12730869891E+03  0.14612229399E+03  0.00000000000E+00 0. -1.
</event>
<event>
 6    1  0.5317355E-006  0.1076713E+03  0.7561462E-02  0.1264944E+00
         -1   -1    0    0    0  501 -0.00000000000E+00  0.00000000000E+00  0.27757610689E+02  0.27757610689E+02  0.00000000000E+00 0.  1.
          1   -1    0    0  501    0  0.00000000000E+00 -0.00000000000E+00 -0.52124018928E+03  0.52124018928E+03  0.00000000000E+00 0. -1.
          5    1    1    2  502    0  0.32929246323E+02  0.52872054005E+02 -0.93368594542E+02  0.11231632208E+03  0.41800000000E+01 0.  1.
         -5    1    1    2    0  502 -0.31083280060E+02 -0.53091788475E+02 -0.66593798786E+02  0.90758551881E+02  0.41800000000E+01 0.  1.
        -11    1    1    2    0    0 -0.15537124105E+02  0.43323428144E+02 -0.14934404396E+03  0.15627528634E+03  0.00000000000E+00 0.  1.
         11    1    1    2    0    0  0.13691157842E+02 -0.43103693673E+02 -0.18417614130E+03  0.18964763968E+03  0.00000000000E+00 0. -1.
</event>
<event>
 6    1  0.5317355E-006  0.1888232E+03  0.7561462E-02  0.1159527E+00
         -1   -1    0    0    0  501 -0.00000000000E+00  0.00000000000E+00  0.33657431466E+02  0.33657431466E+02  0.00000000000E+00 0.  1.
          1   -1    0    0  501    0  0.00000000000E+00 -0.00000000000E+00 -0.11914493985E+04  0.11914493985E+04  0.00000000000E+00 0. -1.
          5    1    1    2  502    0 -0.44973507671E+02  0.12938295464E+03 -0.26175769004E+03  0.29546087057E+03  0.41800000000E+01 0. -1.
         -5    1    1    2    0  502  0.68947650245E+01 -0.29114294489E+02 -0.59942154066E+02  0.67124616665E+02  0.41800000000E+01 0.  1.
        -11    1    1    2    0    0  0.10876050379E+03 -0.85118775143E+02 -0.49857742465E+03  0.51735239579E+03  0.00000000000E+00 0.  1.
         11    1    1    2    0    0 -0.70681761145E+02 -0.15149885004E+02 -0.33751469826E+03  0.34516894692E+03  0.00000000000E+00 0. -1.
</event>
<event>
 6    1  0.5317355E-006  0.9730146E+02  0.7561462E-02  0.1286075E+00
          2   -1    0    0  501    0  0.00000000000E+00  0.00000000000E+00  0.39979443291E+02  0.39979443291E+02  0.00000000000E+00 0.  1.
         -2   -1    0    0    0  501 -0.00000000000E+00 -0.00000000000E+00 -0.35089260444E+03  0.35089260444E+03  0.00000000000E+00 0. -1.
          5    1    1    2  502    0  0.38417495168E+02  0.43740306453E+02 -0.99225519480E+02  0.11511861040E+03  0.41800000000E+01 0.  1.
         -5    1    1    2    0  502 -0.66681233075E+02 -0.24506652535E+02 -0.13488649706E+03  0.15250836814E+03  0.41800000000E+01 0.  1.
        -11    1    1    2    0    0 -0.29411214190E+01 -0.31430813036E+02 -0.83331602059E+02  0.89110617241E+02  0.00000000000E+00 0. -1.
         11    1    1    2    0    0  0.31204859326E+02  0.12197159118E+02  0.65304574454E+01  0.34134451960E+02  0.00000000000E+00 0.  1.
</event>
<event>
 6    1  0.5317355E-006  0.8517299E+02  0.7561462E-02  0.1314981E+00
         -1   -1    0    0    0  501 -0.00000000000E+00  0.00000000000E+00  0.44433038151E+03  0.44433038151E+03  0.00000000000E+00 0.  1.
          1   -1    0    0  501    0  0.00000000000E+00 -0.00000000000E+00 -0.39791493963E+02  0.39791493963E+02  0.00000000000E+00 0. -1.
          5    1    1    2  502    0 -0.68001637380E+01  0.54331502007E+02  0.23235535542E+03  0.23875644061E+03  0.41800000000E+01 0.  1.
         -5    1    1    2    0  502  0.40673466549E+02  0.10396191589E+02  0.96287481654E+01  0.43273512359E+02  0.41800000000E+01 0.  1.
        -11    1    1    2    0    0 -0.25574841242E+02 -0.53315803926E+02  0.17409517475E+03  0.18386347469E+03  0.00000000000E+00 0.  1.
         11    1    1    2    0    0 -0.82984615694E+01 -0.11411889671E+02 -0.11540390793E+02  0.18228447820E+02  0.00000000000E+00 0. -1.
</event>
<event>
 6    1  0.5317355E-006  0.1138829E+03  0.7561462E-02  0.1253544E+00
          3   -1    0    0  501    0  0.00000000000E+00  0.00000000000E+00  0.56059316981E+03  0.56059316981E+03  0.00000000000E+00 0. -1.
         -3   -1    0    0    0  501 -0.00000000000E+00 -0.00000000000E+00 -0.28118350995E+02  0.28118350995E+02  0.00000000000E+00 0.  1.
          5    1    1    2  502    0  0.26702247441E+02 -0.34911979193E+02  0.82788374303E+02  0.93825602206E+02  0.41800000000E+01 0. -1.
         -5    1    1    2    0  502 -0.34139806114E+02  0.81338589899E+02  0.11859416007E+03  0.14786324686E+03  0.41800000000E+01 0. -1.
        -11    1    1    2    0    0  0.44234759425E+02 -0.36068030596E+02  0.12498647788E+03  0.13740173370E+03  0.00000000000E+00 0.  1.
         11    1    1    2    0    0 -0.36797200752E+02 -0.10358580110E+02  0.20610580656E+03  0.20962093804E+03  0.00000000000E+00 0. -1.
</event>
<event>
 6    1  0.5317355E-006  0.8567181E+02  0.7561462E-02  0.1313685E+00
          2   -1    0    0  501    0  0.00000000000E+00  0.00000000000E+00  0.22920732482E+03  0.22920732482E+03  0.00000000000E+00 0. -1.
         -2   -1    0    0    0  501 -0.00000000000E+00 -0.00000000000E+00 -0.53657756541E+02  0.53657756541E+02  0.00000000000E+00 0.  1.
          5    1    1    2  502    0 -0.57096429656E+02 -0.44372245964E+02  0.37707736350E+02  0.81659318342E+02  0.41800000000E+01 0. -1.
         -5    1    1    2    0  502  0.44500288922E+02  0.24539071110E+02  0.60386540022E+02  0.79034475647E+02  0.41800000000E+01 0. -1.
        -11    1    1    2    0    0 -0.12461112660E+02  0.19160478105E+02  0.90898274604E+02  0.93727795109E+02  0.00000000000E+00 0. -1.
         11    1    1    2    0    0  0.25057253393E+02  0.67269674957E+00 -0.13442982694E+02  0.28443492265E+02  0.00000000000E+00 0.  1.
</event>
<event>
 6    1  0.5317355E-006  0.8882647E+02  0.7561462E-02  0.1305719E+00
          2   -1    0    0  501    0  0.00000000000E+00  0.00000000000E+00  0.46130433108E+03  0.46130433108E+03  0.00000000000E+00 0. -1.
         -2   -1    0    0    0  501 -0.00000000000E+00 -0.00000000000E+00 -0.43790591068E+02  0.43790591068E+02  0.00000000000E+00 0.  1.
          5    1    1    2  502    0  0.10945541002E+02 -0.44912841648E+02  0.75998018911E+02  0.89051330653E+02  0.41800000000E+01 0. -1.
         -5    1    1    2    0  502 -0.16636114515E+02  0.27202909633E+02 -0.20948810474E+02  0.38380771995E+02  0.41800000000E+01 0.  1.
        -11    1    1    2    0    0 -0.26995922088E+02 -0.30563581859E+02  0.86809507168E+02  0.95910389845E+02  0.00000000000E+00 0.  1.
         11    1    1    2    0    0  0.32686495601E+02  0.48273513874E+02  0.27565502441E+03  0.28175242965E+03  0.00000000000E+00 0. -1.
</event>
<event>
 6    1  0.5317355E-006  0.1081181E+03  0.7561462E-02  0.1264095E+00
         -2   -1    0    0    0  501 -0.00000000000E+00  0.00000000000E+00  0.43893817781E+03  0.43893817781E+03  0.00000000000E+00 0.  1.
          2   -1    0    0  501    0  0.00000000000E+00 -0.00000000000E+00 -0.42406429897E+02  0.42406429897E+02  0.00000000000E+00 0. -1.
          5    1    1    2  502    0  0.85774455916E+02  0.30020676798E+01  0.47034531345E+02  0.97959120233E+02  0.41800000000E+01 0.  1.
         -5    1    1    2    0  502 -0.52324961899E+01 -0.59172323552E+01  0.14360082618E+03  0.14387863752E+03  0.41800000000E+01 0.  1.
        -11    1    1    2    0    0 -0.99697685388E+02  0.11539296675E+02  0.18070759434E+03  0.20670756757E+03  0.00000000000E+00 0.  1.
         11    1    1    2    0    0  0.19155725662E+02 -0.86241319998E+01  0.25188796049E+02  0.32799282382E+02  0.00000000000E+00 0. -1.
</event>
<event>
 6    1  0.5317355E-006  0.1578616E+03  0.7561462E-02  0.1191132E+00
          1   -1    0    0  501    0  0.00000000000E+00  0.00000000000E+00  0.36883398007E+03  0.36883398007E+03  0.00000000000E+00 0. -1.
         -1   -1    0    0    0  501 -0.00000000000E+00 -0.00000000000E+00 -0.80877522981E+02  0.80877522981E+02  0.00000000000E+00 0.  1.
          5    1    1    2  502    0  0.47235609536E+02  0.67964066231E+02  0.31050893578E+02  0.88498290938E+02  0.41800000000E+01 0. -1.
         -5    1    1    2    0  502 -0.67150548786E+02  0.63168459518E+02  0.99712131940E+02  0.13586549281E+03  0.41800000000E+01 0. -1.
        -11    1    1    2    0    0  0.29919948938E+01 -0.12058697924E+03  0.16460850701E+03  0.20407384001E+03  0.00000000000E+00 0. -1.
         11    1    1    2    0    0  0.16922944356E+02 -0.10545546505E+02 -0.74150754329E+01  0.21273879299E+02  0.00000000000E+00 0.  1.
</event>
<event>
 6    1  0.5317355E-006  0.1054788E+03  0.7561462E-02  0.1269179E+00
          1   -1    0    0  501    0  0.00000000000E+00  0.00000000000E+00  0.13348401230E+03  0.13348401230E+03  0.00000000000E+00 0.  1.
         -1   -1    0    0    0  501 -0.00000000000E+00 -0.00000000000E+00 -0.14606429623E+03  0.14606429623E+03  0.00000000000E+00 0. -1.
          5    1    1    2  502    0  0.36060464348E+02 -0.87287292858E+02 -0.35378320926E+02  0.10093823148E+03  0.41800000000E+01 0.  1.
         -5    1    1    2    0  502 -0.42787692698E+02  0.20093646855E+02 -0.12704866773E+02  0.49126645826E+02  0.41800000000E+01 0.  1.
        -11    1    1    2    0    0  0.10979554721E+02  0.41707465622E+02  0.72499140477E+02  0.84357505181E+02  0.00000000000E+00 0.  1.
         11    1    1    2    0    0 -0.42523263703E+01  0.25486180381E+02 -0.36996236707E+02  0.45125926034E+02  0.00000000000E+00 0. -1.
</event>
<event>
 6    1  0.5317355E-006  0.9223548E+02  0.7561462E-02  0.1297527E+00
          1   -1    0    0  501    0  0.00000000000E+00  0.00000000000E+00  0.76547158621E+02  0.76547158621E+02  0.00000000000E+00 0. -1.
         -1   -1    0    0    0  501 -0.00000000000E+00 -0.00000000000E+00 -0.23763545815E+03  0.23763545815E+03  0.00000000000E+00 0.  1.
          5    1    1    2  502    0 -0.22458098455E+02 -0.30130656963E+02 -0.93178708748E+01  0.38942493409E+02  0.41800000000E+01 0. -1.
         -5    1    1    2    0  502  0.29149200204E+02  0.46063737192E+02 -0.16820519199E+03  0.17686718963E+03  0.41800000000E+01 0.  1.
        -11    1    1    2    0    0 -0.43221680620E+02  0.13276793386E+02 -0.74985052441E+01  0.45832461194E+02  0.00000000000E+00 0. -1.
         11    1    1    2    0    0  0.36530578872E+02 -0.29209873615E+02  0.23933268579E+02  0.52540472535E+02  0.00000000000E+00 0.  1.
</event>
<event>
 6    1  0.5317355E-006  0.7260334E+02  0.7561462E-02  0.1351458E+00
          1   -1    0    0  501    0  0.00000000000E+00  0.00000000000E+00  0.48500596057E+03  0.48500596057E+03  0.00000000000E+00 0. -1.
         -1   -1    0    0    0  501 -0.00000000000E+00 -0.00000000000E+00 -0.37428464949E+02  0.37428464949E+02  0.00000000000E+00 0.  1.
          5    1    1    2  502    0  0.24752873586E+02  0.16805951950E+02  0.12802917351E+03  0.13154499778E+03  0.41800000000E+01 0.  1.
         -5    1    1    2    0  502 -0.15829381114E+02  0.12001216227E+02 -0.25779672143E+02  0.32812534087E+02  0.41800000000E+01 0.  1.
        -11    1    1    2    0    0  0.37978870239E+02  0.28903818294E+01  0.13876153476E+03  0.14389410141E+03  0.00000000000E+00 0.  1.
         11    1    1    2    0    0 -0.46902362711E+02 -0.31697550006E+02  0.20656645950E+03  0.21418279224E+03  0.00000000000E+00 0. -1.
</event>
<event>
 6    1  0.5317355E-006  0.9754675E+02  0.7561462E-02  0.1285541E+00
         -1   -1    0    0    0  501 -0.00000000000E+00  0.00000000000E+00  0.85235055877E+02  0.85235055877E+02  0.00000000000E+00 0.  1.
          1   -1    0    0  501    0  0.00000000000E+00 -0.00000000000E+00 -0.16620060492E+03  0.16620060492E+03  0.00000000000E+00 0. -1.
          5    1    1    2  502    0  0.54262678597E+02 -0.52598850548E+02 -0.40508702432E+02  0.85845819585E+02  0.41800000000E+01 0. -1.
         -5    1    1    2    0  502 -0.22450061357E+02  0.29717643847E+02  0.26622075545E+02  0.45971196603E+02  0.41800000000E+01 0. -1.
        -11    1    1    2    0    0 -0.64432376661E+01 -0.26037208539E+02  0.65898587412E+01  0.27620242185E+02  0.00000000000E+00 0.  1.
         11    1    1    2    0    0 -0.25369379574E+02  0.48918415240E+02 -0.73668780894E+02  0.91998402421E+02  0.00000000000E+00 0. -1.
</event>
<event>
 6    1  0.5317355E-006  0.1003186E+03  0.7561462E-02  0.1279627E+00
          2   -1    0    0  501    0  0.00000000000E+00  0.00000000000E+00  0.54470951415E+03  0.54470951415E+03  0.00000000000E+00 0. -1.
         -2   -1    0    0    0  501 -0.00000000000E+00 -0.00000000000E+00 -0.30773963349E+02  0.30773963349E+02  0.00000000000E+00 0.  1.
          5    1    1    2  502    0 -0.31080160006E+01 -0.20779830176E+02  0.14103572999E+03  0.14265346346E+03  0.41800000000E+01 0.  1.
         -5    1    1    2    0  502  0.10616282260E+02  0.73230530625E+02  0.41695280750E+02  0.85037549949E+02  0.41800000000E+01 0.  1.
        -11    1    1    2    0    0  0.41032253314E+02 -0.14619913406E+02  0.11402342979E+03  0.12206035483E+03  0.00000000000E+00 0.  1.
         11    1    1    2    0    0 -0.48540519574E+02 -0.37830787043E+02  0.21718111027E+03  0.22573210925E+03  0.00000000000E+00 0. -1.
</event>
<event>
 6    1  0.5317355E-006  0.2411498E+03  0.7561462E-02  0.1119029E+00
         -1   -1    0    0    0  501 -0.00000000000E+00  0.00000000000E+00  0.64065989347E+03  0.64065989347E+03  0.00000000000E+00 0.  1.
          1   -1    0    0  501    0  0.00000000000E+00 -0.00000000000E+00 -0.10036931002E+03  0.10036931002E+03  0.00000000000E+00 0. -1.
          5    1    1    2  502    0  0.47561517307E+02 -0.10941842510E+03  0.21092636428E+03  0.24236726930E+03  0.41800000000E+01 0.  1.
         -5    1    1    2    0  502  0.12799302352E+03 -0.17276798202E+02  0.17675163921E+03  0.21895048799E+03  0.41800000000E+01 0.  1.
        -11    1    1    2    0    0 -0.13217888545E+03  0.42257583131E+02  0.10124275056E+03  0.17177617888E+03  0.00000000000E+00 0. -1.
         11    1    1    2    0    0 -0.43375655383E+02  0.84437640174E+02  0.51369829401E+02  0.10793526732E+03  0.00000000000E+00 0.  1.
</event>
<event>
 6    1  0.5317355E-006  0.8715784E+02  0.7561462E-02  0.1309884E+00
          1   -1    0    0  501    0  0.00000000000E+00  0.00000000000E+00  0.42865174048E+03  0.42865174048E+03  0.00000000000E+00 0. -1.
         -1   -1    0    0    0  501 -0.00000000000E+00 -0.00000000000E+00 -0.30073375563E+02  0.30073375563E+02  0.00000000000E+00 0.  1.
          5    1    1    2  502    0  0.22504699471E+02  0.52444879885E+02  0.27312021058E+02  0.63406197006E+02  0.41800000000E+01 0.  1.
         -5    1    1    2    0  502 -0.68638616572E+01 -0.26050290358E+02  0.17034431161E+03  0.17251199125E+03  0.41800000000E+01 0.  1.
        -11    1    1    2    0    0 -0.91851640475E+01 -0.57415737879E+02  0.16480090104E+03  0.17475774998E+03  0.00000000000E+00 0. -1.
         11    1    1    2    0    0 -0.64556737661E+01  0.31021148352E+02  0.36121131213E+02  0.48049177818E+02  0.00000000000E+00 0.  1.
</event>
<event>
 6    1  0.5317355E-006  0.1117496E+03  0.7561462E-02  0.1257364E+00
          2   -1    0    0  501    0  0.00000000000E+00  0.00000000000E+00  0.32393622561E+03  0.32393622561E+03  0.00000000000E+00 0. -1.
         -2   -1    0    0    0  501 -0.00000000000E+00 -0.00000000000E+00 -0.53921395830E+02  0.53921395830E+02  0.00000000000E+00 0.  1.
          5    1    1    2  502    0 -0.34360656237E+02  0.78569764550E+01  0.94008421885E+02  0.10048603167E+03  0.41800000000E+01 0. -1.
         -5    1    1    2    0  502  0.17164060109E+02 -0.73123885943E+02  0.10540784005E+02  0.75962412957E+02  0.41800000000E+01 0. -1.
        -11    1    1    2    0    0  0.47695885035E+02  0.66983769267E+02  0.10235792945E+03  0.13129687169E+03  0.00000000000E+00 0.  1.
         11    1    1    2    0    0 -0.30499288907E+02 -0.17168597792E+01  0.63107694439E+02  0.70112305117E+02  0.00000000000E+00 0. -1.
</event>
<event>
 6    1  0.5317355E-006  0.1247359E+03  0.7561462E-02  0.1235483E+00
          1   -1    0    0  501    0  0.00000000000E+00  0.00000000000E+00  0.55610981292E+03  0.55610981292E+03  0.00000000000E+00 0. -1.
         -1   -1    0    0    0  501 -0.00000000000E+00 -0.00000000000E+00 -0.54397782082E+02  0.54397782082E+02  0.00000000000E+00 0.  1.
          5    1    1    2  502    0  0.29573018171E+02  0.10092134830E+02  0.98866128889E+02  0.10377089395E+03  0.41800000000E+01 0. -1.
         -5    1    1    2    0  502 -0.37379272753E+01  0.84847494337E+02  0.27972107915E+01  0.85078588280E+02  0.41800000000E+01 0. -1.
        -11    1    1    2    0    0 -0.58987308286E+02 -0.51775669360E+02  0.22122893506E+03  0.23473914071E+03  0.00000000000E+00 0. -1.
         11    1    1    2    0    0  0.33152217391E+02 -0.43163959806E+02  0.17881975609E+03  0.18691897205E+03  0.00000000000E+00 0.  1.
</event>
<event>
 6    1  0.5317355E-006  0.1165921E+03  0.7561462E-02  0.1248827E+00
          2   -1    0    0  501    0  0.00000000000E+00  0.00000000000E+00  0.21124475324E+03  0.21124475324E+03  0.00000000000E+00 0. -1.
         -2   -1    0    0    0  501 -0.00000000000E+00 -0.00000000000E+00 -0.86524224569E+02  0.86524224569E+02  0.00000000000E+00 0.  1.
          5    1    1    2  502    0 -0.20760341642E+02  0.22307756810E+01 -0.23775535015E+02  0.31917340279E+02  0.41800000000E+01 0.  1.
         -5    1    1    2    0  502  0.99843234005E+02  0.89385249271E+01  0.74349760389E+02  0.12487564965E+03  0.41800000000E+01 0.  1.
        -11    1    1    2    0    0 -0.14581213035E+01 -0.31327056104E+02  0.46615345124E+02  0.56182746131E+02  0.00000000000E+00 0. -1.
         11    1    1    2    0    0 -0.77624771060E+02  0.20157755496E+02  0.27530958170E+02  0.84793241750E+02  0.00000000000E+00 0.  1.
</event>
<event>
 6    1  0.5317355E-006  0.1030363E+03  0.7561462E-02  0.1274038E+00
          2   -1    0    0  501    0  0.00000000000E+00  0.00000000000E+00  0.14093698816E+03  0.14093698816E+03  0.00000000000E+00 0. -1.
         -2   -1    0    0    0  501 -0.00000000000E+00 -0.00000000000E+00 -0.10283361746E+03  0.10283361746E+03  0.00000000000E+00 0.  1.
          5    1    1    2  502    0  0.64878878935E+02  0.10053103770E+02  0.47633900829E+02  0.81220654611E+02  0.41800000000E+01 0. -1.
         -5    1    1    2    0  502 -0.30707248173E+02 -0.46828977342E+02 -0.13627067861E+02  0.57784579152E+02  0.41800000000E+01 0. -1.
        -11    1    1    2    0    0  0.10405673957E+02 -0.13431487109E+02 -0.26102678735E+02  0.31145348507E+02  0.00000000000E+00 0.  1.
         11    1    1    2    0    0 -0.44577304718E+02  0.50207360681E+02  0.30199216466E+02  0.73620023347E+02  0.00000000000E+00 0. -1.
</event>
<event>
 6    1  0.5317355E-006  0.1386406E+03  0.7561462E-02  0.1215170E+00
         -2   -1    0    0    0  501 -0.00000000000E+00  0.00000000000E+00  0.63063689300E+02  0.63063689300E+02  0.00000000000E+00 0.  1.
          2   -1    0    0  501    0  0.00000000000E+00 -0.00000000000E+00 -0.60620823908E+03  0.60620823908E+03  0.00000000000E+00 0. -1.
          5    1    1    2  502    0 -0.97713899796E+01  0.87438116057E+02 -0.12426976332E+03  0.15231989587E+03  0.41800000000E+01 0. -1.
         -5    1    1    2    0  502  0.61940769082E+02 -0.11901083704E+02  0.14978537432E+02  0.64962478797E+02  0.41800000000E+01 0.  1.
        -11    1    1    2    0    0  0.32923034057E+01 -0.70191729622E+02 -0.21707340797E+03  0.22816349974E+03  0.00000000000E+00 0.  1.
         11    1    1    2    0    0 -0.55461682508E+02 -0.53453027315E+01 -0.21677991592E+03  0.22382605397E+03  0.00000000000E+00 0. -1.
</event>
<event>
 6    1  0.5317355E-006  0.1227010E+03  0.7561462E-02  0.1238707E+00
         -3   -1    0    0    0  501 -0.00000000000E+00  0.00000000000E+00  0.26797595569E+03  0.26797595569E+03  0.00000000000E+00 0.  1.
          3   -1    0    0  501    0  0.00000000000E+00 -0.00000000000E+00 -0.64310566121E+02  0.64310566121E+02  0.00000000000E+00 0. -1.
          5    1    1    2  502    0 -0.36748905945E+02  0.13555681234E+02  0.44246938050E+02  0.59241054250E+02  0.41800000000E+01 0. -1.
         -5    1    1    2    0  502  0.10225013727E+03  0.21148177798E+02  0.71745262825E+02  0.12675642443E+03  0.41800000000E+01 0. -1.
        -11    1    1    2    0    0  0.12781910024E+02 -0.16970901250E+02  0.56183834090E+02  0.60066728944E+02  0.00000000000E+00 0.  1.
         11    1    1    2    0    0 -0.78283141346E+02 -0.17732957783E+02  0.31489354603E+02  0.86222314189E+02  0.00000000000E+00 0. -1.
</event>
<event>
 6    1  0.5317355E-006  0.2848192E+03  0.7561462E-02  0.1093086E+00
         -1   -1    0    0    0  501 -0.00000000000E+00  0.00000000000E+00  0.12601741950E+03  0.12601741950E+03  0.00000000000E+00 0.  1.
          1   -1    0    0  501    0  0.00000000000E+00 -0.00000000000E+00 -0.71805089277E+03  0.71805089277E+03  0.00000000000E+00 0. -1.
          5    1    1    2  502    0 -0.63833706230E+02 -0.16652515785E+02 -0.15793377374E+02  0.67962868553E+02  0.41800000000E+01 0. -1.
         -5    1    1    2    0  502 -0.21365690076E+03  0.57579036346E+02 -0.29709602820E+03  0.37047015945E+03  0.41800000000E+01 0. -1.
        -11    1    1    2    0    0  0.23240664497E+03 -0.22430508945E+02 -0.17879870152E+03  0.29408323996E+03  0.00000000000E+00 0.  1.
         11    1    1    2    0    0  0.45083962023E+02 -0.18496011616E+02 -0.10034536617E+03  0.11155204431E+03  0.00000000000E+00 0. -1.
</event>
<event>
 6    1  0.5317355E-006  0.1145831E+03  0.7561462E-02  0.1252311E+00
          2   -1    0    0  501    0  0.00000000000E+00  0.00000000000E+00  0.93001111737E+02  0.93001111737E+02  0.00000000000E+00 0. -1.
         -2   -1    0    0    0  501 -0.00000000000E+00 -0.00000000000E+00 -0.17033007676E+03  0.17033007676E+03  0.00000000000E+00 0.  1.
          5    1    1    2  502    0  0.65004929557E+02 -0.53678060985E+01 -0.63819572969E+02  0.91350229901E+02  0.41800000000E+01 0.  1.
         -5    1    1    2    0  502 -0.19411888178E+02  0.51388769158E+02  0.16114329947E+02  0.57400096062E+02  0.41800000000E+01 0.  1.
        -11    1    1    2    0    0 -0.36480697572E+02 -0.72255460237E+02 -0.31239899595E+02  0.86761881930E+02  0.00000000000E+00 0.  1.
         11    1    1    2    0    0 -0.91123438070E+01  0.26234497177E+02  0.16161775948E+01  0.27818980603E+02  0.00000000000E+00 0. -1.
</event>
<event>
 6    1  0.5317355E-006  0.1764959E+03  0.7561462E-02  0.1171238E+00
         -2   -1    0    0    0  501 -0.00000000000E+00  0.00000000000E+00  0.39186853849E+03  0.39186853849E+03  0.00000000000E+00 0.  1.
          2   -1    0    0  501    0  0.00000000000E+00 -0.00000000000E+00 -0.11868878911E+03  0.11868878911E+03  0.00000000000E+00 0. -1.
          5    1    1    2  502    0 -0.11139529833E+03  0.15222285327E+02  0.36791458638E+02  0.11837108722E+03  0.41800000000E+01 0. -1.
         -5    1    1    2    0  502  0.21707700667E+01 -0.81850132420E+02  0.21760647797E+03  0.23253861631E+03  0.41800000000E+01 0.  1.
        -11    1    1    2    0    0  0.80494768038E+02 -0.56767437920E+01  0.77473742235E+01  0.81065744362E+02  0.00000000000E+00 0.  1.
         11    1    1    2    0    0  0.28729760224E+02  0.72304590886E+02  0.11034438551E+02  0.78581879717E+02  0.00000000000E+00 0. -1.
</event>
<event>
 6    1  0.5317355E-006  0.1974032E+03  0.7561462E-02  0.1151949E+00
         -2   -1    0    0    0  501 -0.00000000000E+00  0.00000000000E+00  0.41539483078E+03  0.41539483078E+03  0.00000000000E+00 0.  1.
          2   -1    0    0  501    0  0.00000000000E+00 -0.00000000000E+00 -0.97762647900E+02  0.97762647900E+02  0.00000000000E+00 0. -1.
          5    1    1    2  502    0 -0.13118432478E+03 -0.44852606009E+02  0.11720959424E+03  0.18159472656E+03  0.41800000000E+01 0. -1.
         -5    1    1    2    0  502 -0.34941881766E+02  0.57460134002E+02  0.88025103586E+02  0.11085347700E+03  0.41800000000E+01 0. -1.
        -11    1    1    2    0    0  0.11305498418E+03  0.34036617869E+02  0.82240969582E+02  0.14388710117E+03  0.00000000000E+00 0.  1.
         11    1    1    2    0    0  0.53071222359E+02 -0.46644145862E+02  0.30156515472E+02  0.76822173956E+02  0.00000000000E+00 0. -1.
</event>
<event>
 6    1  0.5317355E-006  0.1478955E+03  0.7561462E-02  0.1203083E+00
          1   -1    0    0  501    0  0.00000000000E+00  0.00000000000E+00  0.20288168445E+03  0.20288168445E+03  0.00000000000E+00 0. -1.
         -1   -1    0    0    0  501 -0.00000000000E+00 -0.00000000000E+00 -0.15555602205E+03  0.15555602205E+03  0.00000000000E+00 0.  1.
          5    1    1    2  502    0  0.33885445532E+02  0.11855753551E+02 -0.14610393869E+02  0.38983564744E+02  0.41800000000E+01 0. -1.
         -5    1    1    2    0  502  0.81777947040E+01 -0.13104732816E+03 -0.34561809791E+02  0.13583913148E+03  0.41800000000E+01 0.  1.
        -11    1    1    2    0    0 -0.14582951808E+02  0.16711906350E+02 -0.17225213431E+02  0.28083060286E+02  0.00000000000E+00 0.  1.
         11    1    1    2    0    0 -0.27480288428E+02  0.10247966826E+03  0.11372307950E+03  0.15553194999E+03  0.00000000000E+00 0. -1.
</event>
<event>
 6    1  0.5317355E-006  0.2304994E+03  0.7561462E-02  0.1126289E+00
         -1   -1    0    0    0  501 -0.00000000000E+00  0.00000000000E+00  0.14154024124E+03  0.14154024124E+03  0.00000000000E+00 0.  1.
          1   -1    0    0  501    0  0.00000000000E+00 -0.00000000000E+00 -0.41962329557E+03  0.41962329557E+03  0.00000000000E+00 0. -1.
          5    1    1    2  502    0 -0.85558360619E+02  0.69679515367E+02 -0.62530350772E+02  0.12689753781E+03  0.41800000000E+01 0.  1.
         -5    1    1    2    0  502 -0.12093333510E+03 -0.37060663039E+02 -0.83599559345E+01  0.12682951371E+03  0.41800000000E+01 0.  1.
        -11    1    1    2    0    0  0.33594430783E+02 -0.38410860361E+02 -0.27351707116E+02  0.57897287116E+02  0.00000000000E+00 0.  1.
         11    1    1    2    0    0  0.17289726494E+03  0.57920080336E+01 -0.17984104050E+03  0.24953919818E+03  0.00000000000E+00 0. -1.
</event>
<event>
 6    1  0.5317355E-006  0.1209787E+03  0.7561462E-02  0.1241491E+00
          1   -1    0    0  501    0  0.00000000000E+00  0.00000000000E+00  0.62662140801E+03  0.62662140801E+03  0.00000000000E+00 0. -1.
         -1   -1    0    0    0  501 -0.00000000000E+00 -0.00000000000E+00 -0.36155969491E+02  0.36155969491E+02  0.00000000000E+00 0.  1.
          5    1    1    2  502    0  0.15208266051E+01  0.75352219444E+02  0.23101531300E+03  0.24303460069E+03  0.41800000000E+01 0.  1.
         -5    1    1    2    0  502  0.60119713629E+02  0.69430683206E+01  0.39977209095E+02  0.72651468062E+02  0.41800000000E+01 0.  1.
        -11    1    1    2    0    0 -0.19394007255E+02 -0.46701543989E+02  0.26401590645E+03  0.26881510484E+03  0.00000000000E+00 0. -1.
         11    1    1    2    0    0 -0.42246532979E+02 -0.35593743776E+02  0.55457009966E+02  0.78276203913E+02  0.00000000000E+00 0.  1.
</event>
<event>
 6    1  0.5317355E-006  0.1900299E+03  0.7561462E-02  0.1158434E+00
          1   -1    0    0  501    0  0.00000000000E+00  0.00000000000E+00  0.12829931229E+04  0.12829931229E+04  0.00000000000E+00 0. -1.
         -1   -1    0    0    0  501 -0.00000000000E+00 -0.00000000000E+00 -0.34600145822E+02  0.34600145822E+02  0.00000000000E+00 0.  1.
          5    1    1    2  502    0 -0.15951982279E+00  0.81765538970E+02  0.95504652963E+02  0.12579443528E+03  0.41800000000E+01 0.  1.
         -5    1    1    2    0  502 -0.41782677150E+02  0.10096760788E+03  0.47934115709E+03  0.49165604566E+03  0.41800000000E+01 0.  1.
        -11    1    1    2    0    0  0.89715103483E+00 -0.47562895137E+02  0.12645741745E+03  0.13510926061E+03  0.00000000000E+00 0.  1.
         11    1    1    2    0    0  0.41045045938E+02 -0.13517025171E+03  0.54708974954E+03  0.56503352714E+03  0.00000000000E+00 0. -1.
</event>
<event>
 6    1  0.5317355E-006  0.1266733E+03  0.7561462E-02  0.1232477E+00
         -2   -1    0    0    0  501 -0.00000000000E+00  0.00000000000E+00  0.24207553572E+03  0.24207553572E+03  0.00000000000E+00 0. -1.
          2   -1    0    0  501    0  0.00000000000E+00 -0.00000000000E+00 -0.13764130833E+03  0.13764130833E+03  0.00000000000E+00 0.  1.
          5    1    1    2  502    0 -0.42832739065E+02  0.45004436357E+02  0.14726135320E+03  0.15988565093E+03  0.41800000000E+01 0. -1.
         -5    1    1    2    0  502 -0.57286503835E+02  0.26028270570E+02 -0.85325849268E+01  0.63635617354E+02  0.41800000000E+01 0. -1.
        -11    1    1    2    0    0  0.62684090485E+02 -0.64633614473E+02 -0.61883977721E+02  0.10925395196E+03  0.00000000000E+00 0.  1.
         11    1    1    2    0    0  0.37435152415E+02 -0.63990924546E+01  0.27589436837E+02  0.46941623806E+02  0.00000000000E+00 0. -1.
</event>
<event>
 6    1  0.5317355E-006  0.1844616E+03  0.7561462E-02  0.1163554E+00
          1   -1    0    0  501    0  0.00000000000E+00  0.00000000000E+00  0.39927248506E+03  0.39927248506E+03  0.00000000000E+00 0. -1.
         -1   -1    0    0    0  501 -0.00000000000E+00 -0.00000000000E+00 -0.11485559580E+03  0.11485559580E+03  0.00000000000E+00 0.  1.
          5    1    1    2  502    0 -0.20677401766E+02 -0.61513657229E+01  0.78779574768E+01  0.23343711317E+02  0.41800000000E+01 0. -1.
         -5    1    1    2    0  502  0.14936366454E+03  0.10564718210E+03  0.36618501060E+02  0.18662587814E+03  0.41800000000E+01 0. -1.
        -11    1    1    2    0    0 -0.71059096215E+02 -0.41983547381E+02  0.47511254612E+02  0.95233044267E+02  0.00000000000E+00 0.  1.
         11    1    1    2    0    0 -0.57627166555E+02 -0.57512269001E+02  0.19240917611E+03  0.20892544714E+03  0.00000000000E+00 0. -1.
</event>
<event>
 6    1  0.5317355E-006  0.1189008E+03  0.7561462E-02  0.1244921E+00
          2   -1    0    0  501    0  0.00000000000E+00  0.00000000000E+00  0.28516329589E+03  0.28516329589E+03  0.00000000000E+00 0. -1.
         -2   -1    0    0    0  501 -0.00000000000E+00 -0.00000000000E+00 -0.72722183023E+02  0.72722183023E+02  0.00000000000E+00 0.  1.
          5    1    1    2  502    0  0.23760990154E+01 -0.25415494681E+02 -0.23630979821E+02  0.35035536584E+02  0.41800000000E+01 0.  1.
         -5    1    1    2    0  502 -0.28511832037E+02  0.87905102585E+02  0.65154250295E+02  0.11314937189E+03  0.41800000000E+01 0.  1.
        -11    1    1    2    0    0 -0.11591452965E+02 -0.77838994333E+02  0.13001276581E+03  0.15197562335E+03  0.00000000000E+00 0. -1.
         11    1    1    2    0    0  0.37727185986E+02  0.15349386429E+02  0.40905076588E+02  0.57724947093E+02  0.00000000000E+00 0.  1.
</event>
<event>
 6    1  0.5317355E-006  0.1438762E+03  0.7561462E-02  0.1208206E+00
         -2   -1    0    0    0  501 -0.00000000000E+00  0.00000000000E+00  0.19763222420E+03  0.19763222420E+03  0.00000000000E+00 0.  1.
          2   -1    0    0  501    0  0.00000000000E+00 -0.00000000000E+00 -0.11872954069E+03  0.11872954069E+03  0.00000000000E+00 0. -1.
          5    1    1    2  502    0 -0.87910142531E+02 -0.85250197204E+02  0.83925882325E+02  0.14851537095E+03  0.41800000000E+01 0. -1.
         -5    1    1    2    0  502  0.47437988077E+01  0.25378105968E+02 -0.11622165598E+02  0.28619906059E+02  0.41800000000E+01 0. -1.
        -11    1    1    2    0    0 -0.11846860461E+02  0.40374753553E+02  0.19773474326E+01  0.42123375103E+02  0.00000000000E+00 0. -1.
         11    1    1    2    0    0  0.95013204184E+02  0.19497337682E+02  0.46216193496E+01  0.97103112779E+02  0.00000000000E+00 0.  1.
</event>
<event>
 6    1  0.5317355E-006  0.1031168E+03  0.7561462E-02  0.1273875E+00
         -2   -1    0    0    0  501 -0.00000000000E+00  0.00000000000E+00  0.22040141638E+03  0.22040141638E+03  0.00000000000E+00 0. -1.
          2   -1    0    0  501    0  0.00000000000E+00 -0.00000000000E+00 -0.85226904139E+02  0.85226904139E+02  0.00000000000E+00 0.  1.
          5    1    1    2  502    0  0.85654994554E+02 -0.13966084990E+02  0.10858441542E+03  0.13906788736E+03  0.41800000000E+01 0.  1.
         -5    1    1    2    0  502 -0.42004868595E+02  0.16412474465E+02  0.46409477517E+02  0.64846667664E+02  0.41800000000E+01 0.  1.
        -11    1    1    2    0    0 -0.58805956772E+02 -0.30854259115E+01 -0.43763967423E+02  0.73368557635E+02  0.00000000000E+00 0.  1.
         11    1    1    2    0    0  0.15155830813E+02  0.63903643636E+00  0.23944586722E+02  0.28345207857E+02  0.00000000000E+00 0. -1.
</event>
<event>
 6    1  0.5317355E-006  0.9865621E+02  0.7561462E-02  0.1283147E+00
          1   -1    0    0  501    0  0.00000000000E+00  0.00000000000E+00  0.73746058711E+02  0.73746058711E+02  0.00000000000E+00 0. -1.
         -1   -1    0    0    0  501 -0.00000000000E+00 -0.00000000000E+00 -0.17195746644E+03  0.17195746644E+03  0.00000000000E+00 0.  1.
          5    1    1    2  502    0  0.34426267747E+02 -0.43052046451E+02 -0.12344585347E+02  0.56643691635E+02  0.41800000000E+01 0. -1.
         -5    1    1    2    0  502 -0.17730373317E+02  0.67165059823E+02 -0.53163188385E+02  0.87574587629E+02  0.41800000000E+01 0. -1.
        -11    1    1    2    0    0 -0.26669427029E+02 -0.43277087086E+02 -0.51853951998E+02  0.72615404306E+02  0.00000000000E+00 0.  1.
         11    1    1    2    0    0  0.99735325984E+01  0.19164073714E+02  0.19150317997E+02  0.28869841586E+02  0.00000000000E+00 0. -1.
</event>
<event>
 6    1  0.5317355E-006  0.1593016E+03  0.7561462E-02  0.1189487E+00
         -1   -1    0    0    0  501 -0.00000000000E+00  0.00000000000E+00  0.18169291455E+03  0.18169291455E+03  0.00000000000E+00 0.  1.
          1   -1    0    0  501    0  0.00000000000E+00 -0.00000000000E+00 -0.25567366326E+03  0.25567366326E+03  0.00000000000E+00 0. -1.
          5    1    1    2  502    0  0.19784347180E+02  0.99044990850E+02  0.10150759773E+03  0.14325709547E+03  0.41800000000E+01 0.  1.
         -5    1    1    2    0  502  0.40935734179E+02  0.40871545900E+02 -0.31569263144E+02  0.66032631119E+02  0.41800000000E+01 0.  1.
        -11    1    1    2    0    0 -0.45871896840E+02 -0.47942365385E+02 -0.13358398482E+02  0.67684179306E+02  0.00000000000E+00 0.  1.
         11    1    1    2    0    0 -0.14848184519E+02 -0.91974171366E+02 -0.13056068482E+03  0.16039267191E+03  0.00000000000E+00 0. -1.
</event>
<event>
 6    1  0.5317355E-006  0.1440970E+03  0.7561462E-02  0.1207920E+00
         -2   -1    0    0    0  501 -0.00000000000E+00  0.00000000000E+00  0.89036882654E+03  0.89036882654E+03  0.00000000000E+00 0.  1.
          2   -1    0    0  501    0  0.00000000000E+00 -0.00000000000E+00 -0.31930604160E+02  0.31930604160E+02  0.00000000000E+00 0. -1.
          5    1    1    2  502    0  0.80193868960E+02  0.46710712608E+02  0.41098520748E+03  0.42135407968E+03  0.41800000000E+01 0. -1.
         -5    1    1    2    0  502 -0.27371723942E+02  0.64943374324E+02  0.13650452062E+03  0.15368086963E+03  0.41800000000E+01 0. -1.
        -11    1    1    2    0    0 -0.39264865078E+02 -0.63420500530E+02  0.27669275221E+03  0.28657070444E+03  0.00000000000E+00 0.  1.
         11    1    1    2    0    0 -0.13557279940E+02 -0.48233586402E+02  0.34255742067E+02  0.60693776955E+02  0.00000000000E+00 0. -1.
</event>
<event>
 6    1  0.5317355E-006  0.1129396E+03  0.7561462E-02  0.1255221E+00
          1   -1    0    0  501    0  0.00000000000E+00  0.00000000000E+00  0.13072290393E+03  0.13072290393E+03  0.00000000000E+00 0. -1.
         -1   -1    0    0    0  501 -0.00000000000E+00 -0.00000000000E+00 -0.18624715850E+03  0.18624715850E+03  0.00000000000E+00 0.  1.
          5    1    1    2  502    0 -0.76089602212E+02 -0.62554788677E+02 -0.10139806170E+03  0.14142760857E+03  0.41800000000E+01 0.  1.
         -5    1    1    2    0  502  0.31950662859E+02  0.21335173157E+02 -0.22585547956E+02  0.44761745355E+02  0.41800000000E+01 0.  1.
        -11    1    1    2    0    0 -0.15782653936E+02  0.19079273334E+02 -0.12432126049E+02  0.27706832990E+02  0.00000000000E+00 0.  1.
         11    1    1    2    0    0  0.59921593290E+02  0.22140342185E+02  0.80891481128E+02  0.10307387551E+03  0.00000000000E+00 0. -1.
</event>
<event>
 6    1  0.5317355E-006  0.1363795E+03  0.7561462E-02  0.1218285E+00
         -2   -1    0    0    0  501 -0.00000000000E+00  0.00000000000E+00  0.22147243807E+03  0.22147243807E+03  0.00000000000E+00 0.  1.
          2   -1    0    0  501    0  0.00000000000E+00 -0.00000000000E+00 -0.86339763827E+02  0.86339763827E+02  0.00000000000E+00 0. -1.
          5    1    1    2  502    0 -0.20940364128E+02  0.30899544265E+02  0.32501081330E+02  0.49669642371E+02  0.41800000000E+01 0. -1.
         -5    1    1    2    0  502  0.10691194002E+03 -0.30895164694E+02  0.37802942118E+02  0.11760616036E+03  0.41800000000E+01 0. -1.
        -11    1    1    2    0    0  0.72153708498E+01 -0.26086360038E+02  0.76016866233E+01  0.28113082293E+02  0.00000000000E+00 0. -1.
         11    1    1    2    0    0 -0.93186946746E+02  0.26081980467E+02  0.57226964169E+02  0.11242331687E+03  0.00000000000E+00 0.  1.
</event>
<event>
 6    1  0.5317355E-006  0.1164705E+03  0.7561462E-02  0.1249036E+00
          2   -1    0    0  501    0  0.00000000000E+00  0.00000000000E+00  0.55986931524E+02  0.55986931524E+02  0.00000000000E+00 0.  1.
         -2   -1    0    0    0  501 -0.00000000000E+00 -0.00000000000E+00 -0.32904481960E+03  0.32904481960E+03  0.00000000000E+00 0. -1.
          5    1    1    2  502    0  0.39581614494E+00 -0.34540777196E+02 -0.92930755935E+02  0.99231143087E+02  0.41800000000E+01 0. -1.
         -5    1    1    2    0  502  0.78208006732E+02  0.55894028970E+02 -0.54579666921E+02  0.11062118799E+03  0.41800000000E+01 0. -1.
        -11    1    1    2    0    0 -0.43882262386E+02  0.19749279825E+02 -0.10857425569E+03  0.11876049850E+03  0.00000000000E+00 0. -1.
         11    1    1    2    0    0 -0.34721560491E+02 -0.41102531598E+02 -0.16973209534E+02  0.56418921548E+02  0.00000000000E+00 0.  1.
</event>
<event>
 6    1  0.5317355E-006  0.1620595E+03  0.7561462E-02  0.1186391E+00
         -2   -1    0    0    0  501 -0.00000000000E+00  0.00000000000E+00  0.62303012473E+02  0.62303012473E+02  0.00000000000E+00 0. -1.
          2   -1    0    0  501    0  0.00000000000E+00 -0.00000000000E+00 -0.59069152104E+03  0.59069152104E+03  0.00000000000E+00 0.  1.
          5    1    1    2  502    0  0.61170838651E+01 -0.18138644768E+02  0.91295615137E+01  0.21615976556E+02  0.41800000000E+01 0.  1.
         -5    1    1    2    0  502  0.61560583746E+02  0.13418329551E+03 -0.14297612571E+03  0.20555901145E+03  0.41800000000E+01 0.  1.
        -11    1    1    2    0    0 -0.95129871307E+00 -0.81853917224E+02 -0.16230488871E+03  0.18177966232E+03  0.00000000000E+00 0. -1.
         11    1    1    2    0    0 -0.66726368898E+02 -0.34190733517E+02 -0.23223705566E+03  0.24403988319E+03  0.00000000000E+00 0.  1.
</event>
<event>
 6    1  0.5317355E-006  0.1120595E+03  0.7561462E-02  0.1256803E+00
         -1   -1    0    0    0  501 -0.00000000000E+00  0.00000000000E+00  0.95819938599E+02  0.95819938599E+02  0.00000000000E+00 0.  1.
          1   -1    0    0  501    0  0.00000000000E+00 -0.00000000000E+00 -0.16810159094E+03  0.16810159094E+03  0.00000000000E+00 0. -1.
          5    1    1    2  502    0  0.35654844321E+02 -0.30799582539E+02  0.32731177718E+02  0.57521166565E+02  0.41800000000E+01 0.  1.
         -5    1    1    2    0  502  0.16955589070E+02  0.67837619095E+02 -0.45928905159E+02  0.83763782713E+02  0.41800000000E+01 0.  1.
        -11    1    1    2    0    0 -0.57773254341E+02  0.10697363764E+02 -0.39410043087E+02  0.70748385175E+02  0.00000000000E+00 0. -1.
         11    1    1    2    0    0  0.51628209502E+01 -0.47735400321E+02 -0.19673881816E+02  0.51888195090E+02  0.00000000000E+00 0.  1.
</event>
<event>
 6    1  0.5317355E-006  0.1253357E+03  0.7561462E-02  0.1234546E+00
          1   -1    0    0  501    0  0.00000000000E+00  0.00000000000E+00  0.37936332071E+03  0.37936332071E+03  0.00000000000E+00 0. -1.
         -1   -1    0    0    0  501 -0.00000000000E+00 -0.00000000000E+00 -0.11250462428E+03  0.11250462428E+03  0.00000000000E+00 0.  1.
          5    1    1    2  502    0 -0.16353919395E+02 -0.61731499248E+02  0.24867587514E+02  0.68659289159E+02  0.41800000000E+01 0. -1.
         -5    1    1    2    0  502  0.68918425542E+02  0.59982086752E+02 -0.55612760744E+02  0.10704135494E+03  0.41800000000E+01 0.  1.
        -11    1    1    2    0    0 -0.51848276371E+02 -0.32345577166E+02  0.11325073140E+03  0.12868647282E+03  0.00000000000E+00 0. -1.
         11    1    1    2    0    0 -0.71622977659E+00  0.34094989662E+02  0.18435313826E+03  0.18748082806E+03  0.00000000000E+00 0.  1.
</event>
<event>
 6    1  0.5317355E-006  0.9115928E+02  0.7561462E-02  0.1300068E+00
         -2   -1    0    0    0  501 -0.00000000000E+00  0.00000000000E+00  0.15482048341E+03  0.15482048341E+03  0.00000000000E+00 0.  1.
          2   -1    0    0  501    0  0.00000000000E+00 -0.00000000000E+00 -0.28672232192E+03  0.28672232192E+03  0.00000000000E+00 0. -1.
          5    1    1    2  502    0  0.83680612385E+00 -0.22042277359E+02 -0.19093456184E+02  0.29471930794E+02  0.41800000000E+01 0.  1.
         -5    1    1    2    0  502 -0.49053292195E+02  0.45291646886E+02  0.12951638917E+03  0.14577217229E+03  0.41800000000E+01 0.  1.
        -11    1    1    2    0    0  0.48849422267E+01 -0.44460209529E+02 -0.18971916440E+03  0.19492032791E+03  0.00000000000E+00 0. -1.
         11    1    1    2    0    0  0.43331543845E+02  0.21210840001E+02 -0.52605607088E+02  0.71378374334E+02  0.00000000000E+00 0.  1.
</event>
<event>
 6    1  0.5317355E-006  0.1384939E+03  0.7561462E-02  0.1215370E+00
         -3   -1    0    0    0  501 -0.00000000000E+00  0.00000000000E+00  0.42911626047E+02  0.42911626047E+02  0.00000000000E+00 0.  1.
          3   -1    0    0  501    0  0.00000000000E+00 -0.00000000000E+00 -0.84416051563E+03  0.84416051563E+03  0.00000000000E+00 0. -1.
          5    1    1    2  502    0  0.20655823210E+02  0.91277905369E+02 -0.39815702295E+02  0.10178939822E+03  0.41800000000E+01 0.  1.
         -5    1    1    2    0  502  0.44726382284E+02 -0.23049411412E+01 -0.12453115766E+03  0.13240560281E+03  0.41800000000E+01 0.  1.
        -11    1    1    2    0    0  0.19904173831E+02 -0.10850073517E+02 -0.53230020917E+02  0.57856160934E+02  0.00000000000E+00 0.  1.
         11    1    1    2    0    0 -0.85286379325E+02 -0.78122890710E+02 -0.58367200870E+03  0.59502097971E+03  0.00000000000E+00 0. -1.
</event>
<event>
 6    1  0.5317355E-006  0.1052468E+03  0.7561462E-02  0.1269634E+00
         -1   -1    0    0    0  501 -0.00000000000E+00  0.00000000000E+00  0.34739987277E+02  0.34739987277E+02  0.00000000000E+00 0.  1.
          1   -1    0    0  501    0  0.00000000000E+00 -0.00000000000E+00 -0.45464021407E+03  0.45464021407E+03  0.00000000000E+00 0. -1.
          5    1    1    2  502    0  0.76536399752E+02 -0.11786552140E+02 -0.24134780681E+03  0.25350143895E+03  0.41800000000E+01 0. -1.
         -5    1    1    2    0  502 -0.12816798222E+02  0.26173191167E+02 -0.42432394889E+01  0.29745314487E+02  0.41800000000E+01 0. -1.
        -11    1    1    2    0    0 -0.60523814133E+02  0.23907046227E+02 -0.14094970871E+03  0.15524657588E+03  0.00000000000E+00 0.  1.
         11    1    1    2    0    0 -0.31957873974E+01 -0.38293685255E+02 -0.33359471784E+02  0.50886872032E+02  0.00000000000E+00 0. -1.
</event>
<event>
 6    1  0.8404148E-006  0.3826111E+03  0.7561462E-02  0.1049973E+00
          2   -1    0    0  501    0  0.00000000000E+00  0.00000000000E+00  0.17360529923E+04  0.17360529923E+04  0.00000000000E+00 0. -1.
         -2   -1    0    0    0  501 -0.00000000000E+00 -0.00000000000E+00 -0.89920701797E+02  0.89920701797E+02  0.00000000000E+00 0.  1.
          5    1    1    2  502    0  0.58014232377E+02 -0.22872067195E+03  0.35141216505E+03  0.42330459374E+03  0.41800000000E+01 0.  1.
         -5    1    1    2    0  502  0.11674399454E+03 -0.99538118427E+02  0.30477459276E+03  0.34123602106E+03  0.41800000000E+01 0.  1.
        -11    1    1    2    0    0 -0.63780393846E+02  0.17701624227E+03  0.39326398257E+03  0.43595785192E+03  0.00000000000E+00 0.  1.
         11    1    1    2    0    0 -0.11097783307E+03  0.15124254811E+03  0.59668155009E+03  0.62547522734E+03  0.00000000000E+00 0. -1.
</event>
<event>
 6    1  0.5317355E-006  0.1534330E+03  0.7561462E-02  0.1196317E+00
          1   -1    0    0  501    0  0.00000000000E+00  0.00000000000E+00  0.66704444961E+02  0.66704444961E+02  0.00000000000E+00 0. -1.
         -1   -1    0    0    0  501 -0.00000000000E+00 -0.00000000000E+00 -0.39949638493E+03  0.39949638493E+03  0.00000000000E+00 0.  1.
          5    1    1    2  502    0  0.31603166154E+02  0.40954619884E+02 -0.13037014903E+03  0.14032066547E+03  0.41800000000E+01 0. -1.
         -5    1    1    2    0  502  0.84623731750E+02 -0.64184705644E+02 -0.88952004188E+02  0.13860297206E+03  0.41800000000E+01 0. -1.
        -11    1    1    2    0    0 -0.49001147389E+02 -0.34608722205E+02 -0.51798035467E+02  0.79258517374E+02  0.00000000000E+00 0.  1.
         11    1    1    2    0    0 -0.67225750514E+02  0.57838807966E+02 -0.61671751280E+02  0.10801867498E+03  0.00000000000E+00 0. -1.
</event>
<event>
 6    1  0.5317355E-006  0.1989589E+03  0.7561462E-02  0.1150620E+00
          1   -1    0    0  501    0  0.00000000000E+00  0.00000000000E+00  0.23407533134E+03  0.23407533134E+03  0.00000000000E+00 0. -1.
         -1   -1    0    0    0  501 -0.00000000000E+00 -0.00000000000E+00 -0.24448865928E+03  0.24448865928E+03  0.00000000000E+00 0.  1.
          5    1    1    2  502    0 -0.20806876274E+02  0.40779510184E+01  0.20713151622E+01  0.21709871748E+02  0.41800000000E+01 0.  1.
         -5    1    1    2    0  502  0.92452947805E+02 -0.16135005293E+03 -0.13203297804E+03  0.22810428937E+03  0.41800000000E+01 0.  1.
        -11    1    1    2    0    0 -0.86016286736E+02  0.10318180381E+03  0.60295165283E+02  0.14724399200E+03  0.00000000000E+00 0.  1.
         11    1    1    2    0    0  0.14370215205E+02  0.54090298101E+02  0.59253169657E+02  0.81505837510E+02  0.00000000000E+00 0. -1.
</event>
<event>
 6    1  0.5317355E-006  0.1462353E+03  0.7561462E-02  0.1205177E+00
         -1   -1    0    0    0  501 -0.00000000000E+00  0.00000000000E+00  0.57729478459E+02  0.57729478459E+02  0.00000000000E+00 0.  1.
          1   -1    0    0  501    0  0.00000000000E+00 -0.00000000000E+00 -0.48847458276E+03  0.48847458276E+03  0.00000000000E+00 0. -1.
          5    1    1    2  502    0  0.17059901768E+02  0.13394533338E+02 -0.56577439146E+02  0.60736585284E+02  0.41800000000E+01 0. -1.
         -5    1    1    2    0  502 -0.11770807124E+03 -0.49780928069E+02 -0.61730828723E+02  0.14199119145E+03  0.41800000000E+01 0. -1.
        -11    1    1    2    0    0  0.56628642504E+02 -0.29051195177E+02 -0.13113966276E+03  0.14576826212E+03  0.00000000000E+00 0.  1.
         11    1    1    2    0    0  0.44019526964E+02  0.65437589908E+02 -0.18129717367E+03  0.19770802237E+03  0.00000000000E+00 0. -1.
</event>
<event>
 6    1  0.5317355E-006  0.1111305E+03  0.7561462E-02  0.1258491E+00
          2   -1    0    0  501    0  0.00000000000E+00  0.00000000000E+00  0.97367199223E+02  0.97367199223E+02  0.00000000000E+00 0.  1.
         -2   -1    0    0    0  501 -0.00000000000E+00 -0.00000000000E+00 -0.19684599976E+03  0.19684599976E+03  0.00000000000E+00 0. -1.
          5    1    1    2  502    0 -0.13531548805E+02 -0.51788808512E+02 -0.91493282159E+02  0.10608334733E+03  0.41800000000E+01 0. -1.
         -5    1    1    2    0  502  0.64882900455E+02  0.29499856533E+02 -0.31376323333E+02  0.77987039774E+02  0.41800000000E+01 0. -1.
        -11    1    1    2    0    0 -0.64249207836E+01 -0.28587434264E+02  0.30016881821E+02  0.41946802013E+02  0.00000000000E+00 0.  1.
         11    1    1    2    0    0 -0.44926430866E+02  0.50876386243E+02 -0.66260768687E+01  0.68196009870E+02  0.00000000000E+00 0. -1.
</event>
<event>
 6    1  0.5317355E-006  0.9318112E+02  0.7561462E-02  0.1295326E+00
         -4   -1    0    0    0  501 -0.00000000000E+00  0.00000000000E+00  0.48524965293E+02  0.48524965293E+02  0.00000000000E+00 0. -1.
          4   -1    0    0  501    0  0.00000000000E+00 -0.00000000000E+00 -0.24661220034E+03  0.24661220034E+03  0.00000000000E+00 0.  1.
          5    1    1    2  502    0  0.53756982539E+02 -0.30382166173E+02 -0.90435146829E+02  0.10958502350E+03  0.41800000000E+01 0.  1.
         -5    1    1    2    0  502 -0.43457881602E+02  0.28585099015E+02 -0.14865445457E+02  0.54260014999E+02  0.41800000000E+01 0.  1.
        -11    1    1    2    0    0 -0.19101655297E+02  0.33948604356E+02 -0.89726368411E+02  0.97817187452E+02  0.00000000000E+00 0.  1.
         11    1    1    2    0    0  0.88025543603E+01 -0.32151537198E+02 -0.30602743447E+01  0.33474939679E+02  0.00000000000E+00 0. -1.
</event>
<event>
 6    1  0.5317355E-006  0.1379624E+03  0.7561462E-02  0.1216097E+00
          2   -1    0    0  501    0  0.00000000000E+00  0.00000000000E+00  0.94711682739E+03  0.94711682739E+03  0.00000000000E+00 0. -1.
         -2   -1    0    0    0  501 -0.00000000000E+00 -0.00000000000E+00 -0.32703254086E+02  0.32703254086E+02  0.00000000000E+00 0.  1.
          5    1    1    2  502    0 -0.41853751329E+01  0.84481708403E+02  0.51642609960E+03  0.52332405369E+03  0.41800000000E+01 0. -1.
         -5    1    1    2    0  502 -0.33420500236E+02  0.45096222088E+02  0.62367638235E+02  0.84010676593E+02  0.41800000000E+01 0. -1.
        -11    1    1    2    0    0  0.84941537685E+01 -0.33414431284E+02  0.17080821188E+02  0.38476347523E+02  0.00000000000E+00 0.  1.
         11    1    1    2    0    0  0.29111721601E+02 -0.96163499207E+02  0.31853901428E+03  0.33400900367E+03  0.00000000000E+00 0. -1.
</event>
<event>
 6    1  0.5317355E-006  0.1687382E+03  0.7561462E-02  0.1179170E+00
          2   -1    0    0  501    0  0.00000000000E+00  0.00000000000E+00  0.49627862303E+03  0.49627862303E+03  0.00000000000E+00 0. -1.
         -2   -1    0    0    0  501 -0.00000000000E+00 -0.00000000000E+00 -0.62540056350E+02  0.62540056350E+02  0.00000000000E+00 0.  1.
          5    1    1    2  502    0  0.87462077706E+02 -0.66179777402E+02  0.71948039624E+02  0.13123784050E+03  0.41800000000E+01 0.  1.
         -5    1    1    2    0  502 -0.30824257982E+02 -0.57447032377E+02  0.11089010382E+03  0.12870269591E+03  0.41800000000E+01 0.  1.
        -11    1    1    2    0    0  0.10066644822E+02 -0.92748105936E+01  0.22487101576E+02  0.26325447514E+02  0.00000000000E+00 0.  1.
         11    1    1    2    0    0 -0.66704464546E+02  0.13290162037E+03  0.22841332166E+03  0.27255269546E+03  0.00000000000E+00 0. -1.
</event>
<event>
 6    1  0.5317355E-006  0.9065514E+02  0.7561462E-02  0.1301273E+00
          1   -1    0    0  501    0  0.00000000000E+00  0.00000000000E+00  0.11780262600E+03  0.11780262600E+03  0.00000000000E+00 0. -1.
         -1   -1    0    0    0  501 -0.00000000000E+00 -0.00000000000E+00 -0.12101410838E+03  0.12101410838E+03  0.00000000000E+00 0.  1.
          5    1    1    2  502    0  0.36817043038E+02 -0.13494077806E+02  0.11743088677E+02  0.41145562647E+02  0.41800000000E+01 0.  1.
         -5    1    1    2    0  502 -0.88945357757E+02  0.89985785634E+01 -0.36671696292E+02  0.96718854375E+02  0.41800000000E+01 0.  1.
        -11    1    1    2    0    0  0.25199155459E+02  0.34008694951E+01 -0.31988456511E+02  0.40863488582E+02  0.00000000000E+00 0.  1.
         11    1    1    2    0    0  0.26929159260E+02  0.10946297472E+01  0.53705581746E+02  0.60088828774E+02  0.00000000000E+00 0. -1.
</event>
<event>
 6    1  0.5317355E-006  0.8144082E+02  0.7561462E-02  0.1325012E+00
         -2   -1    0    0    0  501 -0.00000000000E+00  0.00000000000E+00  0.10205818097E+03  0.10205818097E+03  0.00000000000E+00 0.  1.
          2   -1    0    0  501    0  0.00000000000E+00 -0.00000000000E+00 -0.17853356356E+03  0.17853356356E+03  0.00000000000E+00 0. -1.
          5    1    1    2  502    0 -0.29082512731E+02 -0.19648969402E+02  0.63243060751E+02  0.72450201369E+02  0.41800000000E+01 0. -1.
         -5    1    1    2    0  502 -0.34100889213E+02  0.21684284205E+02 -0.54483102439E+02  0.67962928703E+02  0.41800000000E+01 0. -1.
        -11    1    1    2    0    0  0.60134844516E+02 -0.23989806314E+02 -0.14903311141E+02  0.66436578892E+02  0.00000000000E+00 0.  1.
         11    1    1    2    0    0  0.30485574284E+01  0.21954491512E+02 -0.70332029761E+02  0.73742035571E+02  0.00000000000E+00 0. -1.
</event>
<event>
 6    1  0.5317355E-006  0.2172849E+03  0.7561462E-02  0.1135924E+00
          1   -1    0    0  501    0  0.00000000000E+00  0.00000000000E+00  0.76683030270E+03  0.76683030270E+03  0.00000000000E+00 0. -1.
         -1   -1    0    0    0  501 -0.00000000000E+00 -0.00000000000E+00 -0.77701613195E+02  0.77701613195E+02  0.00000000000E+00 0.  1.
          5    1    1    2  502    0  0.14553832685E+03 -0.12620764158E+03  0.14127705010E+03  0.23892771012E+03  0.41800000000E+01 0. -1.
         -5    1    1    2    0  502  0.19613617169E+02 -0.66758010163E+00  0.10538524942E+03  0.10727843603E+03  0.41800000000E+01 0. -1.
        -11    1    1    2    0    0 -0.54516411497E+02  0.89958147261E+02  0.14773625207E+03  0.18135740282E+03  0.00000000000E+00 0.  1.
         11    1    1    2    0    0 -0.11063553252E+03  0.36917074422E+02  0.29473013791E+03  0.31696836693E+03  0.00000000000E+00 0. -1.
</event>
<event>
 6    1  0.5317355E-006  0.1099750E+03  0.7561462E-02  0.1260616E+00
          2   -1    0    0  501    0  0.00000000000E+00  0.00000000000E+00  0.38703401985E+03  0.38703401985E+03  0.00000000000E+00 0.  1.
         -2   -1    0    0    0  501 -0.00000000000E+00 -0.00000000000E+00 -0.42944091965E+02  0.42944091965E+02  0.00000000000E+00 0. -1.
          5    1    1    2  502    0 -0.58655479338E+02 -0.73030431685E+02  0.87523162994E+02  0.12826412464E+03  0.41800000000E+01 0. -1.
         -5    1    1    2    0  502  0.34182683118E+02  0.24568387538E+02  0.31570395714E+02  0.52784692638E+02  0.41800000000E+01 0. -1.
        -11    1    1    2    0    0  0.38079450818E+02  0.50773901399E+01  0.18314914491E+03  0.18713480100E+03  0.00000000000E+00 0.  1.
         11    1    1    2    0    0 -0.13606654598E+02  0.43384654007E+02  0.41847224268E+02  0.61794493538E+02  0.00000000000E+00 0. -1.
</event>
<event>
 6    1  0.5317355E-006  0.1137625E+03  0.7561462E-02  0.1253757E+00
         -2   -1    0    0    0  501 -0.00000000000E+00  0.00000000000E+00  0.66825168782E+02  0.66825168782E+02  0.00000000000E+00 0.  1.
          2   -1    0    0  501    0  0.00000000000E+00 -0.00000000000E+00 -0.32522509570E+03  0.32522509570E+03  0.00000000000E+00 0. -1.
          5    1    1    2  502    0  0.27909089099E+02 -0.10990385301E+03 -0.30359244279E+02  0.11746033489E+03  0.41800000000E+01 0.  1.
         -5    1    1    2    0  502 -0.64497250568E+01  0.28618833359E+02 -0.37587946929E+02  0.47864002449E+02  0.41800000000E+01 0.  1.
        -11    1    1    2    0    0 -0.17099589758E+02  0.50171312734E+02 -0.25522336430E+02  0.58829807480E+02  0.00000000000E+00 0.  1.
         11    1    1    2    0    0 -0.43597742848E+01  0.31113706915E+02 -0.16493039928E+03  0.16789611966E+03  0.00000000000E+00 0. -1.
</event>
<event>
 6    1  0.5317355E-006  0.1178353E+03  0.7561462E-02  0.1246711E+00
          2   -1    0    0  501    0  0.00000000000E+00  0.00000000000E+00  0.83438155319E+03  0.83438155319E+03  0.00000000000E+00 0. -1.
         -2   -1    0    0    0  501 -0.00000000000E+00 -0.00000000000E+00 -0.22548146970E+02  0.22548146970E+02  0.00000000000E+00 0.  1.
          5    1    1    2  502    0 -0.53523173300E+02 -0.64241340277E+02  0.11868872734E+03  0.14524519365E+03  0.41800000000E+01 0.  1.
         -5    1    1    2    0  502 -0.15910592139E+02  0.39172174268E+02  0.20774154370E+03  0.21204157036E+03  0.41800000000E+01 0.  1.
        -11    1    1    2    0    0  0.78772242626E+02  0.42634780482E+02  0.45179561349E+03  0.46058882649E+03  0.00000000000E+00 0. -1.
         11    1    1    2    0    0 -0.93384771872E+01 -0.17565614473E+02  0.33607521689E+02  0.39054109669E+02  0.00000000000E+00 0.  1.
</event>
<event>
 6    1  0.5317355E-006  0.1266324E+03  0.7561462E-02  0.1232540E+00
          2   -1    0    0  501    0  0.00000000000E+00  0.00000000000E+00  0.86388092998E+03  0.86388092998E+03  0.00000000000E+00 0. -1.
         -2   -1    0    0    0  501 -0.00000000000E+00 -0.00000000000E+00 -0.22432110812E+02  0.22432110812E+02  0.00000000000E+00 0.  1.
          5    1    1    2  502    0 -0.83265001117E+01  0.24753225319E+02  0.16882890042E+03  0.17088804167E+03  0.41800000000E+01 0.  1.
         -5    1    1    2    0  502  0.55611042783E+02 -0.89039239080E+02  0.18419344293E+03  0.21205016150E+03  0.41800000000E+01 0.  1.
        -11    1    1    2    0    0 -0.25406150332E+02  0.86751711093E+02  0.36498932532E+03  0.37601667443E+03  0.00000000000E+00 0. -1.
         11    1    1    2    0    0 -0.21878392340E+02 -0.22465697333E+02  0.12343715050E+03  0.12735816319E+03  0.00000000000E+00 0.  1.
</event>
<event>
 6    1  0.5317355E-006  0.8622179E+02  0.7561462E-02  0.1312268E+00
         -1   -1    0    0    0  501 -0.00000000000E+00  0.00000000000E+00  0.10035364448E+03  0.10035364448E+03  0.00000000000E+00 0.  1.
          1   -1    0    0  501    0  0.00000000000E+00 -0.00000000000E+00 -0.13361758921E+03  0.13361758921E+03  0.00000000000E+00 0. -1.
          5    1    1    2  502    0 -0.33289431760E+02 -0.71604983275E+01  0.50049314845E+02  0.60678376047E+02  0.41800000000E+01 0.  1.
         -5    1    1    2    0  502  0.24741016366E+02  0.23436635145E+02 -0.56252339020E+02  0.65902896772E+02  0.41800000000E+01 0.  1.
        -11    1    1    2    0    0  0.50195368838E+02  0.14235263419E+02 -0.16202746811E+02  0.54632836112E+02  0.00000000000E+00 0. -1.
         11    1    1    2    0    0 -0.41646953444E+02 -0.30511400236E+02 -0.10858173742E+02  0.52757124757E+02  0.00000000000E+00 0.  1.
</event>
<event>
 6    1  0.5317355E-006  0.1727363E+03  0.7561462E-02  0.1175024E+00
         -1   -1    0    0    0  501 -0.00000000000E+00  0.00000000000E+00  0.67884500478E+02  0.67884500478E+02  0.00000000000E+00 0.  1.
          1   -1    0    0  501    0  0.00000000000E+00 -0.00000000000E+00 -0.54973931131E+03  0.54973931131E+03  0.00000000000E+00 0. -1.
          5    1    1    2  502    0  0.43428479878E+02 -0.12955022522E+03 -0.18952517220E+03  0.23368045921E+03  0.41800000000E+01 0. -1.
         -5    1    1    2    0  502  0.51549183579E+02  0.50607393707E+01 -0.18452957557E+02  0.55144477994E+02  0.41800000000E+01 0. -1.
        -11    1    1    2    0    0 -0.86903843403E+02  0.10962954098E+03 -0.27815565529E+03  0.31135427221E+03  0.00000000000E+00 0. -1.
         11    1    1    2    0    0 -0.80738200534E+01  0.14859944866E+02  0.42789742132E+01  0.17444602374E+02  0.00000000000E+00 0.  1.
</event>
<event>
 6    1  0.5317355E-006  0.1182830E+03  0.7561462E-02  0.1245957E+00
          2   -1    0    0  501    0  0.00000000000E+00  0.00000000000E+00  0.15706427179E+03  0.15706427179E+03  0.00000000000E+00 0. -1.
         -2   -1    0    0    0  501 -0.00000000000E+00 -0.00000000000E+00 -0.10641538865E+03  0.10641538865E+03  0.00000000000E+00 0.  1.
          5    1    1    2  502    0  0.89972309367E+02 -0.18074125882E+02 -0.64799009100E+01  0.92093170186E+02  0.41800000000E+01 0. -1.
         -5    1    1    2    0  502 -0.34318053451E+02 -0.27369621977E+02  0.31812294329E+02  0.54372046774E+02  0.41800000000E+01 0. -1.
        -11    1    1    2    0    0 -0.15211845681E+02  0.56636780381E+02 -0.13136984938E+02  0.60097466787E+02  0.00000000000E+00 0.  1.
         11    1    1    2    0    0 -0.40442410234E+02 -0.11193032522E+02  0.38453474657E+02  0.56916976692E+02  0.00000000000E+00 0. -1.
</event>
<event>
 6    1  0.5317355E-006  0.9406917E+02  0.7561462E-02  0.1293286E+00
         -1   -1    0    0    0  501 -0.00000000000E+00  0.00000000000E+00  0.10880029681E+03  0.10880029681E+03  0.00000000000E+00 0.  1.
          1   -1    0    0  501    0  0.00000000000E+00 -0.00000000000E+00 -0.14132072539E+03  0.14132072539E+03  0.00000000000E+00 0. -1.
          5    1    1    2  502    0  0.15877760033E+02 -0.78905036524E+01 -0.43479226856E+02  0.47141053017E+02  0.41800000000E+01 0.  1.
         -5    1    1    2    0  502 -0.70773690401E+02  0.78723857225E+01  0.54763401787E+02  0.89929929864E+02  0.41800000000E+01 0.  1.
        -11    1    1    2    0    0 -0.34847463078E+01  0.31886832516E+02 -0.32352608235E+02  0.45558806003E+02  0.00000000000E+00 0. -1.
         11    1    1    2    0    0  0.58380676676E+02 -0.31868714586E+02 -0.11451995281E+02  0.67491233315E+02  0.00000000000E+00 0.  1.
</event>
<event>
 6    1  0.5317355E-006  0.1004317E+03  0.7561462E-02  0.1279391E+00
         -2   -1    0    0    0  501 -0.00000000000E+00  0.00000000000E+00  0.32491663199E+03  0.32491663199E+03  0.00000000000E+00 0.  1.
          2   -1    0    0  501    0  0.00000000000E+00 -0.00000000000E+00 -0.43031289322E+02  0.43031289322E+02  0.00000000000E+00 0. -1.
          5    1    1    2  502    0  0.51829093110E+02  0.69933526425E+02  0.83265050701E+02  0.12053005467E+03  0.41800000000E+01 0. -1.
         -5    1    1    2    0  502 -0.30433033905E+02 -0.27441625190E+02  0.85119316319E+02  0.94562057700E+02  0.41800000000E+01 0. -1.
        -11    1    1    2    0    0 -0.15971184532E+02 -0.55860678119E+02  0.12268966203E+03  0.13575068053E+03  0.00000000000E+00 0.  1.
         11    1    1    2    0    0 -0.54248746725E+01  0.13368776884E+02 -0.91886863805E+01  0.17105128412E+02  0.00000000000E+00 0. -1.
</event>
<event>
 6    1  0.5317355E-006  0.9121362E+02  0.7561462E-02  0.1299939E+00
         -2   -1    0    0    0  501 -0.00000000000E+00  0.00000000000E+00  0.12903807496E+04  0.12903807496E+04  0.00000000000E+00 0.  1.
          2   -1    0    0  501    0  0.00000000000E+00 -0.00000000000E+00 -0.14405175384E+02  0.14405175384E+02  0.00000000000E+00 0. -1.
          5    1    1    2  502    0 -0.37161801074E+02  0.21522944943E+02  0.15828071576E+03  0.16405637445E+03  0.41800000000E+01 0.  1.
         -5    1    1    2    0  502  0.56406263387E+02 -0.50995327113E+01  0.91983032782E+03  0.92158177942E+03  0.41800000000E+01 0.  1.
        -11    1    1    2    0    0 -0.47685459831E+02 -0.23528689355E+02  0.69667503073E+02  0.87641675511E+02  0.00000000000E+00 0. -1.
         11    1    1    2    0    0  0.28440997517E+02  0.71052771227E+01  0.12819702756E+03  0.13150609559E+03  0.00000000000E+00 0.  1.
</event>
<event>
 6    1  0.5317355E-006  0.1157900E+03  0.7561462E-02  0.1250208E+00
          1   -1    0    0  501    0  0.00000000000E+00  0.00000000000E+00  0.14085935952E+03  0.14085935952E+03  0.00000000000E+00 0. -1.
         -1   -1    0    0    0  501 -0.00000000000E+00 -0.00000000000E+00 -0.14367688298E+03  0.14367688298E+03  0.00000000000E+00 0.  1.
          5    1    1    2  502    0  0.69789872117E+01 -0.23906840822E+02  0.26008836613E+02  0.36251555588E+02  0.41800000000E+01 0.  1.
         -5    1    1    2    0  502  0.45973848127E+02  0.86750117786E+02 -0.66981379727E+02  0.11892499854E+03  0.41800000000E+01 0.  1.
        -11    1    1    2    0    0 -0.70402358488E+02 -0.51846769069E+02  0.16711136213E+01  0.87449254796E+02  0.00000000000E+00 0.  1.
         11    1    1    2    0    0  0.17449523150E+02 -0.10996507894E+02  0.36483906029E+02  0.41910433583E+02  0.00000000000E+00 0. -1.
</event>
<event>
 6    1  0.5317355E-006  0.1744407E+03  0.7561462E-02  0.1173294E+00
          1   -1    0    0  501    0  0.00000000000E+00  0.00000000000E+00  0.18158512891E+04  0.18158512891E+04  0.00000000000E+00 0. -1.
         -1   -1    0    0    0  501 -0.00000000000E+00 -0.00000000000E+00 -0.18340693353E+02  0.18340693353E+02  0.00000000000E+00 0.  1.
          5    1    1    2  502    0 -0.12707653012E+03 -0.58150139090E+02  0.66909824854E+03  0.68354942892E+03  0.41800000000E+01 0.  1.
         -5    1    1    2    0  502  0.18157257105E+02 -0.35802528346E+02  0.43651877682E+03  0.43838068153E+03  0.41800000000E+01 0.  1.
        -11    1    1    2    0    0  0.11306923148E+03  0.48441729433E+02  0.48174424684E+03  0.49720093686E+03  0.00000000000E+00 0.  1.
         11    1    1    2    0    0 -0.41499584669E+01  0.45510938003E+02  0.21014932353E+03  0.21506093512E+03  0.00000000000E+00 0. -1.
</event>
<event>
 6    1  0.5317355E-006  0.1737534E+03  0.7561462E-02  0.1173989E+00
         -2   -1    0    0    0  501 -0.00000000000E+00  0.00000000000E+00  0.70355181848E+02  0.70355181848E+02  0.00000000000E+00 0.  1.
          2   -1    0    0  501    0  0.00000000000E+00 -0.00000000000E+00 -0.49072750306E+03  0.49072750306E+03  0.00000000000E+00 0. -1.
          5    1    1    2  502    0  0.15280502971E+03 -0.29824376722E+02 -0.14275662290E+03  0.21127185410E+03  0.41800000000E+01 0. -1.
         -5    1    1    2    0  502 -0.19055401919E+01  0.39116194716E+02 -0.51628576189E+02  0.64936045859E+02  0.41800000000E+01 0. -1.
        -11    1    1    2    0    0 -0.58988987459E+02  0.56548221572E+01 -0.26883725678E+02  0.65072362500E+02  0.00000000000E+00 0.  1.
         11    1    1    2    0    0 -0.91910502059E+02 -0.14946640151E+02 -0.19910339644E+03  0.21980242245E+03  0.00000000000E+00 0. -1.
</event>
<event>
 6    1  0.5317355E-006  0.1130773E+03  0.7561462E-02  0.1254975E+00
          2   -1    0    0  501    0  0.00000000000E+00  0.00000000000E+00  0.86480474521E+03  0.86480474521E+03  0.00000000000E+00 0. -1.
         -2   -1    0    0    0  501 -0.00000000000E+00 -0.00000000000E+00 -0.23653137165E+02  0.23653137165E+02  0.00000000000E+00 0.  1.
          5    1    1    2  502    0 -0.56250074190E+02 -0.34294712052E+02  0.35300288414E+03  0.35912213344E+03  0.41800000000E+01 0.  1.
         -5    1    1    2    0  502  0.36047381304E+02 -0.56457189866E+02  0.10445535974E+03  0.12415805477E+03  0.41800000000E+01 0.  1.
        -11    1    1    2    0    0  0.13534243334E+02  0.67235559164E+02  0.37165558259E+03  0.37793077174E+03  0.00000000000E+00 0. -1.
         11    1    1    2    0    0  0.66684495524E+01  0.23516342753E+02  0.12037781582E+02  0.27246922419E+02  0.00000000000E+00 0.  1.
</event>
<event>
 6    1  0.5317355E-006  0.1907012E+03  0.7561462E-02  0.1157830E+00
         -2   -1    0    0    0  501 -0.00000000000E+00  0.00000000000E+00  0.61104153541E+02  0.61104153541E+02  0.00000000000E+00 0.  1.
          2   -1    0    0  501    0  0.00000000000E+00 -0.00000000000E+00 -0.10069405920E+04  0.10069405920E+04  0.00000000000E+00 0. -1.
          5    1    1    2  502    0  0.88905906519E+02  0.11974938477E+03 -0.98915021922E+02  0.17901348924E+03  0.41800000000E+01 0.  1.
         -5    1    1    2    0  502  0.53989492356E+02 -0.19977084998E+02 -0.89517706980E+02  0.10651216584E+03  0.41800000000E+01 0.  1.
        -11    1    1    2    0    0 -0.89322959557E+02 -0.67255847463E+02 -0.63744738880E+03  0.64717935196E+03  0.00000000000E+00 0. -1.
         11    1    1    2    0    0 -0.53572439317E+02 -0.32516452308E+02 -0.11995632072E+03  0.13533973846E+03  0.00000000000E+00 0.  1.
</event>
<event>
 6    1  0.5317355E-006  0.1092722E+03  0.7561462E-02  0.1261924E+00
          2   -1    0    0  501    0  0.00000000000E+00  0.00000000000E+00  0.19207768402E+03  0.19207768402E+03  0.00000000000E+00 0. -1.
         -2   -1    0    0    0  501 -0.00000000000E+00 -0.00000000000E+00 -0.81701384010E+02  0.81701384010E+02  0.00000000000E+00 0.  1.
          5    1    1    2  502    0 -0.18630195097E+02 -0.90447687260E+02  0.23267690389E+02  0.95324320696E+02  0.41800000000E+01 0. -1.
         -5    1    1    2    0  502  0.25465209237E+02  0.35882733500E+02  0.10489333355E+02  0.45426269483E+02  0.41800000000E+01 0. -1.
        -11    1    1    2    0    0 -0.26519522009E+02  0.29737425002E+01 -0.11483292882E+02  0.29051578398E+02  0.00000000000E+00 0.  1.
         11    1    1    2    0    0  0.19684507868E+02  0.51591211260E+02  0.88102569146E+02  0.10397689945E+03  0.00000000000E+00 0. -1.
</event>
<event>
 6    1  0.5317355E-006  0.1118432E+03  0.7561462E-02  0.1257194E+00
          2   -1    0    0  501    0  0.00000000000E+00  0.00000000000E+00  0.71047637860E+03  0.71047637860E+03  0.00000000000E+00 0. -1.
         -2   -1    0    0    0  501 -0.00000000000E+00 -0.00000000000E+00 -0.20005851949E+02  0.20005851949E+02  0.00000000000E+00 0.  1.
          5    1    1    2  502    0 -0.23834240977E+02  0.69125764579E+02  0.17443616531E+03  0.18918744816E+03  0.41800000000E+01 0.  1.
         -5    1    1    2    0  502  0.51322463178E+02 -0.30871148506E+02  0.17035257690E+03  0.18062252322E+03  0.41800000000E+01 0.  1.
        -11    1    1    2    0    0 -0.51506564321E+02 -0.41537283742E+02  0.31336014972E+03  0.32026997290E+03  0.00000000000E+00 0. -1.
         11    1    1    2    0    0  0.24018342120E+02  0.32826676686E+01  0.32321634715E+02  0.40402286271E+02  0.00000000000E+00 0.  1.
</event>
<event>
 6    1  0.5317355E-006  0.1244266E+03  0.7561462E-02  0.1235968E+00
         -3   -1    0    0    0  501 -0.00000000000E+00  0.00000000000E+00  0.25764340491E+03  0.25764340491E+03  0.00000000000E+00 0.  1.
          3   -1    0    0  501    0  0.00000000000E+00 -0.00000000000E+00 -0.73747448168E+02  0.73747448168E+02  0.00000000000E+00 0. -1.
          5    1    1    2  502    0 -0.49504192630E+02  0.65320481012E+02  0.10757988486E+03  0.13530829374E+03  0.41800000000E+01 0.  1.
         -5    1    1    2    0  502  0.49757855065E+02  0.18613448015E+02  0.65703136613E+01  0.53693072265E+02  0.41800000000E+01 0.  1.
        -11    1    1    2    0    0 -0.28432435517E+02 -0.39635326863E+01  0.46197509805E+02  0.54390466931E+02  0.00000000000E+00 0.  1.
         11    1    1    2    0    0  0.28178773082E+02 -0.79970396341E+02  0.23548248417E+02  0.87999020147E+02  0.00000000000E+00 0. -1.
</event>
<event>
 6    1  0.5317355E-006  0.1766793E+03  0.7561462E-02  0.1171056E+00
         -2   -1    0    0    0  501 -0.00000000000E+00  0.00000000000E+00  0.55211209102E+02  0.55211209102E+02  0.00000000000E+00 0. -1.
          2   -1    0    0  501    0  0.00000000000E+00 -0.00000000000E+00 -0.81864636365E+03  0.81864636365E+03  0.00000000000E+00 0.  1.
          5    1    1    2  502    0  0.82186975080E+01 -0.12754685710E+03 -0.17212132740E+03  0.21442707733E+03  0.41800000000E+01 0. -1.
         -5    1    1    2    0  502 -0.61263541996E+02 -0.20401233810E+02 -0.32866566016E+02  0.72574895663E+02  0.41800000000E+01 0. -1.
        -11    1    1    2    0    0  0.10050509353E+02  0.78161457976E+02 -0.40787796656E+03  0.41542106574E+03  0.00000000000E+00 0.  1.
         11    1    1    2    0    0  0.42994335135E+02  0.69786632933E+02 -0.15056929457E+03  0.17143453403E+03  0.00000000000E+00 0. -1.
</event>
<event>
 6    1  0.5317355E-006  0.1264046E+03  0.7561462E-02  0.1232890E+00
         -1   -1    0    0    0  501 -0.00000000000E+00  0.00000000000E+00  0.77135943656E+03  0.77135943656E+03  0.00000000000E+00 0.  1.
          1   -1    0    0  501    0  0.00000000000E+00 -0.00000000000E+00 -0.33197982297E+02  0.33197982297E+02  0.00000000000E+00 0. -1.
          5    1    1    2  502    0 -0.47018658517E+02 -0.37729447409E+02  0.17467367045E+03  0.18483135285E+03  0.41800000000E+01 0. -1.
         -5    1    1    2    0  502 -0.17676083294E+02  0.74938422409E+02  0.45358330889E+03  0.46009075363E+03  0.41800000000E+01 0. -1.
        -11    1    1    2    0    0  0.47933446381E+02 -0.66231113334E+02  0.84527121961E+02  0.11759681119E+03  0.00000000000E+00 0.  1.
         11    1    1    2    0    0  0.16761295430E+02  0.29022138334E+02  0.25377352966E+02  0.42038501181E+02  0.00000000000E+00 0. -1.
</event>
<event>
 6    1  0.5317355E-006  0.1227176E+03  0.7561462E-02  0.1238680E+00
         -2   -1    0    0    0  501 -0.00000000000E+00  0.00000000000E+00  0.99905501392E+02  0.99905501392E+02  0.00000000000E+00 0. -1.
          2   -1    0    0  501    0  0.00000000000E+00 -0.00000000000E+00 -0.22396626514E+03  0.22396626514E+03  0.00000000000E+00 0.  1.
          5    1    1    2  502    0 -0.11493837120E+02 -0.31620433701E+02 -0.34844311059E+02  0.48616443025E+02  0.41800000000E+01 0.  1.
         -5    1    1    2    0  502 -0.57520135869E+02  0.76222288368E+02  0.32807691683E+02  0.10105553081E+03  0.41800000000E+01 0.  1.
        -11    1    1    2    0    0  0.33035803006E+02 -0.66201259393E+02 -0.45309557602E+02  0.86757864402E+02  0.00000000000E+00 0. -1.
         11    1    1    2    0    0  0.35978169983E+02  0.21599404727E+02 -0.76714586768E+02  0.87441928289E+02  0.00000000000E+00 0.  1.
</event>
<event>
 6    1  0.5317355E-006  0.2153206E+03  0.7561462E-02  0.1137421E+00
          2   -1    0    0  501    0  0.00000000000E+00  0.00000000000E+00  0.19129506196E+04  0.19129506196E+04  0.00000000000E+00 0. -1.
         -2   -1    0    0    0  501 -0.00000000000E+00 -0.00000000000E+00 -0.26717880614E+02  0.26717880614E+02  0.00000000000E+00 0.  1.
          5    1    1    2  502    0 -0.44591624707E+02 -0.54569014160E+02  0.43449509775E+03  0.44019274490E+03  0.41800000000E+01 0.  1.
         -5    1    1    2    0  502 -0.15316298399E+03  0.33221337766E+02  0.54597597912E+03  0.56804031470E+03  0.41800000000E+01 0.  1.
        -11    1    1    2    0    0  0.17766026440E+03  0.32005409670E+02  0.87351976090E+03  0.89197773990E+03  0.00000000000E+00 0. -1.
         11    1    1    2    0    0  0.20094344294E+02 -0.10657733276E+02  0.32241901219E+02  0.39457700711E+02  0.00000000000E+00 0.  1.
</event>
<event>
 6    1  0.5317355E-006  0.1086444E+03  0.7561462E-02  0.1263101E+00
          1   -1    0    0  501    0  0.00000000000E+00  0.00000000000E+00  0.77743620954E+02  0.77743620954E+02  0.00000000000E+00 0.  1.
         -1   -1    0    0    0  501 -0.00000000000E+00 -0.00000000000E+00 -0.18304273009E+03  0.18304273009E+03  0.00000000000E+00 0. -1.
          5    1    1    2  502    0 -0.20674357819E+01  0.73715639386E+02 -0.83222039261E+02  0.11127286282E+03  0.41800000000E+01 0. -1.
         -5    1    1    2    0  502 -0.37049310670E+01 -0.49768134513E+02 -0.25063711687E+02  0.56002283619E+02  0.41800000000E+01 0. -1.
        -11    1    1    2    0    0 -0.18341407421E+02  0.29484572845E+02  0.33854137159E+01  0.34888512265E+02  0.00000000000E+00 0. -1.
         11    1    1    2    0    0  0.24113774270E+02 -0.53432077718E+02 -0.39877190681E+00  0.58622692346E+02  0.00000000000E+00 0.  1.
</event>
<event>
 6    1  0.5317355E-006  0.1009155E+03  0.7561462E-02  0.1278382E+00
          1   -1    0    0  501    0  0.00000000000E+00  0.00000000000E+00  0.10592520909E+03  0.10592520909E+03  0.00000000000E+00 0. -1.
         -1   -1    0    0    0  501 -0.00000000000E+00 -0.00000000000E+00 -0.14102274550E+03  0.14102274550E+03  0.00000000000E+00 0.  1.
          5    1    1    2  502    0 -0.22183598678E+02 -0.78155602798E+02  0.24054183879E+01  0.81385924684E+02  0.41800000000E+01 0.  1.
         -5    1    1    2    0  502  0.56298141080E+01  0.32862966932E+02 -0.51278393900E+02  0.61307548340E+02  0.41800000000E+01 0.  1.
        -11    1    1    2    0    0 -0.89628999596E+01 -0.17189767722E+02 -0.20790082821E+02  0.28426206812E+02  0.00000000000E+00 0.  1.
         11    1    1    2    0    0  0.25516684530E+02  0.62482403588E+02  0.34565521919E+02  0.75828274760E+02  0.00000000000E+00 0. -1.
</event>
<event>
 6    1  0.5317355E-006  0.6273046E+02  0.7561462E-02  0.1386718E+00
         -1   -1    0    0    0  501 -0.00000000000E+00  0.00000000000E+00  0.48792394643E+03  0.48792394643E+03  0.00000000000E+00 0.  1.
          1   -1    0    0  501    0  0.00000000000E+00 -0.00000000000E+00 -0.25992085026E+02  0.25992085026E+02  0.00000000000E+00 0. -1.
          5    1    1    2  502    0 -0.18197691861E+02  0.22612124016E+02  0.27831337143E+03  0.27985401419E+03  0.41800000000E+01 0. -1.
         -5    1    1    2    0  502  0.55699795364E+01 -0.45894092305E+02  0.33755545917E+02  0.57395136212E+02  0.41800000000E+01 0. -1.
        -11    1    1    2    0    0 -0.11267627302E+02  0.23233302063E+02  0.15056310819E+03  0.15276123624E+03  0.00000000000E+00 0.  1.
         11    1    1    2    0    0  0.23895339627E+02  0.48666225958E-01 -0.70016413014E+00  0.23905644817E+02  0.00000000000E+00 0. -1.
</event>
<event>
 6    1  0.5317355E-006  0.1222263E+03  0.7561462E-02  0.1239469E+00
         -1   -1    0    0    0  501 -0.00000000000E+00  0.00000000000E+00  0.27404720485E+02  0.27404720485E+02  0.00000000000E+00 0.  1.
          1   -1    0    0  501    0  0.00000000000E+00 -0.00000000000E+00 -0.75362966731E+03  0.75362966731E+03  0.00000000000E+00 0. -1.
          5    1    1    2  502    0 -0.37530017131E+02  0.67703958552E+02 -0.91897938105E+02  0.12022907975E+03  0.41800000000E+01 0. -1.
         -5    1    1    2    0  502  0.24246601510E+02  0.31306177181E+02 -0.30730960781E+03  0.30987843079E+03  0.41800000000E+01 0. -1.
        -11    1    1    2    0    0  0.44068662440E+02 -0.35702297651E+02 -0.13610517277E+03  0.14744937816E+03  0.00000000000E+00 0.  1.
         11    1    1    2    0    0 -0.30785246819E+02 -0.63307838081E+02 -0.19091222815E+03  0.20347749910E+03  0.00000000000E+00 0. -1.
</event>
<event>
 6    1  0.5317355E-006  0.2831405E+03  0.7561462E-02  0.1093986E+00
         -3   -1    0    0    0  501 -0.00000000000E+00  0.00000000000E+00  0.10576270866E+04  0.10576270866E+04  0.00000000000E+00 0.  1.
          3   -1    0    0  501    0  0.00000000000E+00 -0.00000000000E+00 -0.79632976295E+02  0.79632976295E+02  0.00000000000E+00 0. -1.
          5    1    1    2  502    0  0.16766855814E+03 -0.19133649679E+03  0.46430767962E+03  0.52945395848E+03  0.41800000000E+01 0. -1.
         -5    1    1    2    0  502 -0.20164537273E+02 -0.31360605764E+02  0.10905589843E+03  0.11532891025E+03  0.41800000000E+01 0. -1.
        -11    1    1    2    0    0  0.31870570072E+00  0.36870947723E+02  0.24470890351E+02  0.44253732429E+02  0.00000000000E+00 0. -1.
         11    1    1    2    0    0 -0.14782272657E+03  0.18582615483E+03  0.38015964186E+03  0.44822346169E+03  0.00000000000E+00 0.  1.
</event>
<event>
 6    1  0.5317355E-006  0.1374962E+03  0.7561462E-02  0.1216738E+00
          2   -1    0    0  501    0  0.00000000000E+00  0.00000000000E+00  0.63386196058E+03  0.63386196058E+03  0.00000000000E+00 0. -1.
         -2   -1    0    0    0  501 -0.00000000000E+00 -0.00000000000E+00 -0.49091013888E+02  0.49091013888E+02  0.00000000000E+00 0.  1.
          5    1    1    2  502    0  0.29882928141E+02 -0.34830165429E+01 -0.76914799027E+01  0.31332922966E+02  0.41800000000E+01 0. -1.
         -5    1    1    2    0  502 -0.34442178292E+02 -0.10659445405E+03  0.15381018302E+03  0.19032521136E+03  0.41800000000E+01 0. -1.
        -11    1    1    2    0    0 -0.33735527832E+02  0.66059658801E+02  0.15669791379E+03  0.17336724185E+03  0.00000000000E+00 0.  1.
         11    1    1    2    0    0  0.38294777983E+02  0.44017811789E+02  0.28195432978E+03  0.28792759829E+03  0.00000000000E+00 0. -1.
</event>
<event>
 6    1  0.5317355E-006  0.1843001E+03  0.7561462E-02  0.1163705E+00
          2   -1    0    0  501    0  0.00000000000E+00  0.00000000000E+00  0.37709651177E+03  0.37709651177E+03  0.00000000000E+00 0.  1.
         -2   -1    0    0    0  501 -0.00000000000E+00 -0.00000000000E+00 -0.11425528618E+03  0.11425528618E+03  0.00000000000E+00 0. -1.
          5    1    1    2  502    0  0.12726407811E+03 -0.58847645366E+02  0.10738315583E+03  0.17665731091E+03  0.41800000000E+01 0.  1.
         -5    1    1    2    0  502  0.43797713365E+02  0.32974108365E+02 -0.13422268054E+02  0.56596476906E+02  0.41800000000E+01 0.  1.
        -11    1    1    2    0    0 -0.10021637487E+03  0.20534142709E+02  0.15499020683E+03  0.18570658853E+03  0.00000000000E+00 0.  1.
         11    1    1    2    0    0 -0.70845416598E+02  0.53393942915E+01  0.13890130981E+02  0.72391421612E+02  0.00000000000E+00 0. -1.
</event>
<event>
 6    1  0.5317355E-006  0.1518120E+03  0.7561462E-02  0.1198264E+00
         -1   -1    0    0    0  501 -0.00000000000E+00  0.00000000000E+00  0.73980658985E+02  0.73980658985E+02  0.00000000000E+00 0.  1.
          1   -1    0    0  501    0  0.00000000000E+00 -0.00000000000E+00 -0.42141108023E+03  0.42141108023E+03  0.00000000000E+00 0. -1.
          5    1    1    2  502    0 -0.98892922177E+02  0.68221945269E+02 -0.72951502937E+02  0.14061805735E+03  0.41800000000E+01 0. -1.
         -5    1    1    2    0  502  0.34800407168E+02  0.26205937723E+02 -0.15725187879E-01  0.43764050981E+02  0.41800000000E+01 0. -1.
        -11    1    1    2    0    0  0.75229048058E+02 -0.42227591720E+02 -0.12158812105E+03  0.14908470865E+03  0.00000000000E+00 0.  1.
         11    1    1    2    0    0 -0.11136533049E+02 -0.52200291273E+02 -0.15287507207E+03  0.16192492223E+03  0.00000000000E+00 0. -1.
</event>
<event>
 6    1  0.5317355E-006  0.1115569E+03  0.7561462E-02  0.1257714E+00
         -2   -1    0    0    0  501 -0.00000000000E+00  0.00000000000E+00  0.26028997709E+03  0.26028997709E+03  0.00000000000E+00 0.  1.
          2   -1    0    0  501    0  0.00000000000E+00 -0.00000000000E+00 -0.83373559298E+02  0.83373559298E+02  0.00000000000E+00 0. -1.
          5    1    1    2  502    0 -0.15366464621E+02  0.77512734498E+02  0.98681262008E+02  0.12649037954E+03  0.41800000000E+01 0.  1.
         -5    1    1    2    0  502  0.95564162837E+01 -0.45055717342E+02  0.10592057492E+03  0.11557674225E+03  0.41800000000E+01 0.  1.
        -11    1    1    2    0    0 -0.12985664170E+02  0.29904580940E+02 -0.83539812426E+01  0.33655615248E+02  0.00000000000E+00 0.  1.
         11    1    1    2    0    0  0.18795712507E+02 -0.62361598095E+02 -0.19331437893E+02  0.67940799353E+02  0.00000000000E+00 0. -1.
</event>
<event>
 6    1  0.5317355E-006  0.6817541E+02  0.7561462E-02  0.1366410E+00
         -3   -1    0    0    0  501 -0.00000000000E+00  0.00000000000E+00  0.89631873003E+02  0.89631873003E+02  0.00000000000E+00 0.  1.
          3   -1    0    0  501    0  0.00000000000E+00 -0.00000000000E+00 -0.19202486116E+03  0.19202486116E+03  0.00000000000E+00 0. -1.
          5    1    1    2  502    0 -0.90690807625E+01  0.79200980714E+01  0.61333050313E+02  0.62643368684E+02  0.41800000000E+01 0.  1.
         -5    1    1    2    0  502  0.19234281523E+02 -0.43745720607E+02 -0.48852230154E+02  0.68466476821E+02  0.41800000000E+01 0.  1.
        -11    1    1    2    0    0 -0.12416009703E+02  0.54972202112E+02 -0.11823332373E+03  0.13097793380E+03  0.00000000000E+00 0. -1.
         11    1    1    2    0    0  0.22508089427E+01 -0.19146579576E+02  0.33595154172E+01  0.19568954857E+02  0.00000000000E+00 0.  1.
</event>
<event>
 6    1  0.5317355E-006  0.8874861E+02  0.7561462E-02  0.1305911E+00
          1   -1    0    0  501    0  0.00000000000E+00  0.00000000000E+00  0.16864650265E+03  0.16864650265E+03  0.00000000000E+00 0. -1.
         -1   -1    0    0    0  501 -0.00000000000E+00 -0.00000000000E+00 -0.19304335624E+03  0.19304335624E+03  0.00000000000E+00 0.  1.
          5    1    1    2  502    0 -0.37729420537E+02 -0.30331731284E+02 -0.12151887897E+03  0.13087334887E+03  0.41800000000E+01 0.  1.
         -5    1    1    2    0  502  0.31979052079E+02  0.51182785467E+02 -0.32349048538E+02  0.68602264112E+02  0.41800000000E+01 0.  1.
        -11    1    1    2    0    0  0.33204644407E+02  0.11561696297E+01  0.59168425773E+01  0.33747506049E+02  0.00000000000E+00 0.  1.
         11    1    1    2    0    0 -0.27454275950E+02 -0.22007223812E+02  0.12355423134E+03  0.12846673986E+03  0.00000000000E+00 0. -1.
</event>
<event>
 6    1  0.5317355E-006  0.2763118E+03  0.7561462E-02  0.1097721E+00
          1   -1    0    0  501    0  0.00000000000E+00  0.00000000000E+00  0.12176565993E+04  0.12176565993E+04  0.00000000000E+00 0. -1.
         -1   -1    0    0    0  501 -0.00000000000E+00 -0.00000000000E+00 -0.72080479666E+02  0.72080479666E+02  0.00000000000E+00 0.  1.
          5    1    1    2  502    0 -0.34063635229E+02 -0.11427295319E+03  0.17666935684E+03  0.21318577139E+03  0.41800000000E+01 0. -1.
         -5    1    1    2    0  502  0.66204900878E+02  0.25908870409E+03  0.39639714031E+03  0.47818219408E+03  0.41800000000E+01 0.  1.
        -11    1    1    2    0    0  0.44036704845E+00 -0.13011815441E+03  0.51024336343E+03  0.52657308890E+03  0.00000000000E+00 0.  1.
         11    1    1    2    0    0 -0.32581632698E+02 -0.14697596489E+02  0.62266259064E+02  0.71796024609E+02  0.00000000000E+00 0. -1.
</event>
<event>
 6    1  0.5317355E-006  0.1414743E+03  0.7561462E-02  0.1211359E+00
          1   -1    0    0  501    0  0.00000000000E+00  0.00000000000E+00  0.49340588464E+03  0.49340588464E+03  0.00000000000E+00 0. -1.
         -1   -1    0    0    0  501 -0.00000000000E+00 -0.00000000000E+00 -0.60767325362E+02  0.60767325362E+02  0.00000000000E+00 0.  1.
          5    1    1    2  502    0  0.88694821157E+02  0.92779294125E+02  0.71466090370E+02  0.14696817067E+03  0.41800000000E+01 0.  1.
         -5    1    1    2    0  502 -0.19885809549E+02  0.15331679699E+02  0.92062409349E+02  0.95516833275E+02  0.41800000000E+01 0.  1.
        -11    1    1    2    0    0 -0.45740423330E+02 -0.57685645756E+02  0.58883423854E+02  0.94271298164E+02  0.00000000000E+00 0.  1.
         11    1    1    2    0    0 -0.23068588278E+02 -0.50425328068E+02  0.21022663571E+03  0.21741690789E+03  0.00000000000E+00 0. -1.
</event>
<event>
 6    1  0.5317355E-006  0.8127474E+02  0.7561462E-02  0.1325472E+00
         -1   -1    0    0    0  501 -0.00000000000E+00  0.00000000000E+00  0.31915479087E+03  0.31915479087E+03  0.00000000000E+00 0.  1.
          1   -1    0    0  501    0  0.00000000000E+00 -0.00000000000E+00 -0.49770118384E+02  0.49770118384E+02  0.00000000000E+00 0. -1.
          5    1    1    2  502    0  0.13361553698E+02 -0.21811679788E+01  0.18909067846E+03  0.18962079446E+03  0.41800000000E+01 0. -1.
         -5    1    1    2    0  502  0.28499959657E+02 -0.39835280119E+02  0.58961513400E+01  0.49510950741E+02  0.41800000000E+01 0. -1.
        -11    1    1    2    0    0 -0.94958462654E+01  0.60976578425E+02  0.22343659626E+02  0.65631953637E+02  0.00000000000E+00 0. -1.
         11    1    1    2    0    0 -0.32365667090E+02 -0.18960130327E+02  0.52054183066E+02  0.64161210422E+02  0.00000000000E+00 0.  1.
</event>
<event>
 6    1  0.5317355E-006  0.1005070E+03  0.7561462E-02  0.1279233E+00
         -2   -1    0    0    0  501 -0.00000000000E+00  0.00000000000E+00  0.10702022856E+03  0.10702022856E+03  0.00000000000E+00 0.  1.
          2   -1    0    0  501    0  0.00000000000E+00 -0.00000000000E+00 -0.11509521491E+03  0.11509521491E+03  0.00000000000E+00 0. -1.
          5    1    1    2  502    0  0.55763553580E+02  0.35731570039E+02  0.11571478862E-01  0.66361069455E+02  0.41800000000E+01 0. -1.
         -5    1    1    2    0  502 -0.56971089621E+02 -0.16939946916E+02  0.11547561115E+02  0.60691724492E+02  0.41800000000E+01 0. -1.
        -11    1    1    2    0    0  0.36753206987E+02 -0.13388404053E+02 -0.38134029107E+02  0.54628305510E+02  0.00000000000E+00 0. -1.
         11    1    1    2    0    0 -0.35545670946E+02 -0.54032190698E+01  0.18499910168E+02  0.40434344011E+02  0.00000000000E+00 0.  1.
</event>
<event>
 6    1  0.5317355E-006  0.1381599E+03  0.7561462E-02  0.1215827E+00
         -4   -1    0    0    0  501 -0.00000000000E+00  0.00000000000E+00  0.37028690341E+03  0.37028690341E+03  0.00000000000E+00 0. -1.
          4   -1    0    0  501    0  0.00000000000E+00 -0.00000000000E+00 -0.73258911564E+02  0.73258911564E+02  0.00000000000E+00 0.  1.
          5    1    1    2  502    0 -0.42830981139E+02 -0.42070046713E+02  0.18188248562E+03  0.19158051245E+03  0.41800000000E+01 0. -1.
         -5    1    1    2    0  502 -0.59413078884E+02 -0.19543669437E+02  0.47869922757E+01  0.62866975851E+02  0.41800000000E+01 0. -1.
        -11    1    1    2    0    0  0.95884808837E+02  0.85663355816E+02  0.94956256611E+02  0.15983991293E+03  0.00000000000E+00 0.  1.
         11    1    1    2    0    0  0.63592511856E+01 -0.24049639665E+02  0.15402257337E+02  0.29258413743E+02  0.00000000000E+00 0. -1.
</event>
<event>
 6    1  0.5317355E-006  0.1318909E+03  0.7561462E-02  0.1224677E+00
          1   -1    0    0  501    0  0.00000000000E+00  0.00000000000E+00  0.82582041752E+02  0.82582041752E+02  0.00000000000E+00 0. -1.
         -1   -1    0    0    0  501 -0.00000000000E+00 -0.00000000000E+00 -0.28552064574E+03  0.28552064574E+03  0.00000000000E+00 0.  1.
          5    1    1    2  502    0 -0.24881053832E+00  0.18426371649E+02  0.19441403881E+02  0.27111504268E+02  0.41800000000E+01 0. -1.
         -5    1    1    2    0  502 -0.10116955645E+03 -0.63229869100E+01 -0.14734550042E+03  0.17889502008E+03  0.41800000000E+01 0. -1.
        -11    1    1    2    0    0 -0.18916712423E+02  0.95087943986E+01 -0.14571542748E+02  0.25701926735E+02  0.00000000000E+00 0.  1.
         11    1    1    2    0    0  0.12033507941E+03 -0.21612179138E+02 -0.60462964696E+02  0.13639423640E+03  0.00000000000E+00 0. -1.
</event>
<event>
 6    1  0.5317355E-006  0.9006579E+02  0.7561462E-02  0.1302692E+00
         -2   -1    0    0    0  501 -0.00000000000E+00  0.00000000000E+00  0.29431330685E+03  0.29431330685E+03  0.00000000000E+00 0. -1.
          2   -1    0    0  501    0  0.00000000000E+00 -0.00000000000E+00 -0.40043608735E+02  0.40043608735E+02  0.00000000000E+00 0.  1.
          5    1    1    2  502    0  0.43236122742E+02 -0.52724429102E+02  0.89543534164E+02  0.11262657166E+03  0.41800000000E+01 0.  1.
         -5    1    1    2    0  502 -0.35243216144E+02  0.43957901946E+02  0.61610280072E+02  0.83592346768E+02  0.41800000000E+01 0.  1.
        -11    1    1    2    0    0 -0.30167079483E+02  0.12823666872E+02  0.10982981179E+03  0.11461713081E+03  0.00000000000E+00 0. -1.
         11    1    1    2    0    0  0.22174172885E+02 -0.40571397152E+01 -0.67139279094E+01  0.23520866348E+02  0.00000000000E+00 0.  1.
</event>
<event>
 6    1  0.5317355E-006  0.1526247E+03  0.7561462E-02  0.1197284E+00
          1   -1    0    0  501    0  0.00000000000E+00  0.00000000000E+00  0.12185786428E+04  0.12185786428E+04  0.00000000000E+00 0. -1.
         -1   -1    0    0    0  501 -0.00000000000E+00 -0.00000000000E+00 -0.21461620466E+02  0.21461620466E+02  0.00000000000E+00 0.  1.
          5    1    1    2  502    0 -0.45651677471E+02 -0.86087080937E+02  0.45767506328E+03  0.46795191752E+03  0.41800000000E+01 0. -1.
         -5    1    1    2    0  502  0.66027080566E+02 -0.18448151873E+02  0.13234826046E+03  0.14910883315E+03  0.41800000000E+01 0.  1.
        -11    1    1    2    0    0  0.29742499243E+02  0.88722975330E+01  0.11035927195E+03  0.11464075554E+03  0.00000000000E+00 0.  1.
         11    1    1    2    0    0 -0.50117902338E+02  0.95662935278E+02  0.49673442664E+03  0.50833875706E+03  0.00000000000E+00 0. -1.
</event>
<event>
 6    1  0.5317355E-006  0.3051001E+03  0.7561462E-02  0.1082719E+00
         -1   -1    0    0    0  501 -0.00000000000E+00  0.00000000000E+00  0.15594150556E+03  0.15594150556E+03  0.00000000000E+00 0.  1.
          1   -1    0    0  501    0  0.00000000000E+00 -0.00000000000E+00 -0.65449197890E+03  0.65449197890E+03  0.00000000000E+00 0. -1.
          5    1    1    2  502    0 -0.25210729408E+03  0.85082984371E+02 -0.12863184164E+03  0.29556864692E+03  0.41800000000E+01 0. -1.
         -5    1    1    2    0  502 -0.39307754554E+01  0.45896859438E+02 -0.99758949394E+01  0.47317687832E+02  0.41800000000E+01 0. -1.
        -11    1    1    2    0    0  0.35553962292E+02 -0.53295891884E+02 -0.66011620696E+02  0.91989512409E+02  0.00000000000E+00 0.  1.
         11    1    1    2    0    0  0.22048410725E+03 -0.77683951925E+02 -0.29393111607E+03  0.37555763730E+03  0.00000000000E+00 0. -1.
</event>
<event>
 6    1  0.5317355E-006  0.1232806E+03  0.7561462E-02  0.1237781E+00
          3   -1    0    0  501    0  0.00000000000E+00  0.00000000000E+00  0.33523128661E+03  0.33523128661E+03  0.00000000000E+00 0. -1.
         -3   -1    0    0    0  501 -0.00000000000E+00 -0.00000000000E+00 -0.67595607264E+02  0.67595607264E+02  0.00000000000E+00 0.  1.
          5    1    1    2  502    0  0.80209883223E+02  0.34211050888E+02  0.22151268999E+02  0.90067599545E+02  0.41800000000E+01 0.  1.
         -5    1    1    2    0  502 -0.11943259024E+02 -0.55111844850E+02  0.20502269828E+02  0.60147920554E+02  0.41800000000E+01 0.  1.
        -11    1    1    2    0    0 -0.68034603176E+02 -0.12617826313E+02  0.19748533747E+03  0.20925672100E+03  0.00000000000E+00 0. -1.
         11    1    1    2    0    0 -0.23202102294E+00  0.33518620274E+02  0.27496803050E+02  0.43354652770E+02  0.00000000000E+00 0.  1.
</event>
<event>
 6    1  0.5317355E-006  0.9122691E+02  0.7561462E-02  0.1299907E+00
         -1   -1    0    0    0  501 -0.00000000000E+00  0.00000000000E+00  0.32326813011E+03  0.32326813011E+03  0.00000000000E+00 0.  1.
          1   -1    0    0  501    0  0.00000000000E+00 -0.00000000000E+00 -0.52214627259E+02  0.52214627259E+02  0.00000000000E+00 0. -1.
          5    1    1    2  502    0  0.19818348834E+02  0.59134044015E+02  0.21722400825E+03  0.22603836903E+03  0.41800000000E+01 0. -1.
         -5    1    1    2    0  502 -0.10656985986E+01 -0.70425768313E+01 -0.15579269210E+02  0.17632913288E+02  0.41800000000E+01 0. -1.
        -11    1    1    2    0    0 -0.46036324031E+02  0.70349168025E+01  0.23715210343E+02  0.52261308694E+02  0.00000000000E+00 0. -1.
         11    1    1    2    0    0  0.27283673795E+02 -0.59126383986E+02  0.45693553463E+02  0.79550166355E+02  0.00000000000E+00 0.  1.
</event>
<event>
 6    1  0.5317355E-006  0.1712485E+03  0.7561462E-02  0.1176552E+00
         -2   -1    0    0    0  501 -0.00000000000E+00  0.00000000000E+00  0.12163547751E+03  0.12163547751E+03  0.00000000000E+00 0.  1.
          2   -1    0    0  501    0  0.00000000000E+00 -0.00000000000E+00 -0.33087416642E+03  0.33087416642E+03  0.00000000000E+00 0. -1.
          5    1    1    2  502    0  0.43557142902E+02  0.52046583627E+02 -0.46470164953E+02  0.82359092976E+02  0.41800000000E+01 0.  1.
         -5    1    1    2    0  502  0.10858958951E+03 -0.55818396590E+02 -0.99882797511E+01  0.12257499941E+03  0.41800000000E+01 0.  1.
        -11    1    1    2    0    0 -0.53368318397E+02  0.44351703460E+01  0.12531863529E+02  0.54999052246E+02  0.00000000000E+00 0.  1.
         11    1    1    2    0    0 -0.98778414014E+02 -0.66335738350E+00 -0.16531210774E+03  0.19257649930E+03  0.00000000000E+00 0. -1.
</event>
<event>
 6    1  0.5317355E-006  0.1096885E+03  0.7561462E-02  0.1261148E+00
         -1   -1    0    0    0  501 -0.00000000000E+00  0.00000000000E+00  0.27623736743E+03  0.27623736743E+03  0.00000000000E+00 0.  1.
          1   -1    0    0  501    0  0.00000000000E+00 -0.00000000000E+00 -0.49875457661E+02  0.49875457661E+02  0.00000000000E+00 0. -1.
          5    1    1    2  502    0 -0.38824813261E+02  0.31355885478E+02  0.44405183180E+02  0.66931684367E+02  0.41800000000E+01 0. -1.
         -5    1    1    2    0  502  0.48361131669E+02 -0.54788858853E+02  0.12982939945E+03  0.14904282429E+03  0.41800000000E+01 0. -1.
        -11    1    1    2    0    0 -0.32580864150E+02 -0.25917473681E+02  0.30163500959E+02  0.51410747329E+02  0.00000000000E+00 0.  1.
         11    1    1    2    0    0  0.23044545742E+02  0.49350447056E+02  0.21963826187E+02  0.58727569112E+02  0.00000000000E+00 0. -1.
</event>
<event>
 6    1  0.5317355E-006  0.1471528E+03  0.7561462E-02  0.1204016E+00
         -2   -1    0    0    0  501 -0.00000000000E+00  0.00000000000E+00  0.13461985661E+03  0.13461985661E+03  0.00000000000E+00 0.  1.
          2   -1    0    0  501    0  0.00000000000E+00 -0.00000000000E+00 -0.19018418344E+03  0.19018418344E+03  0.00000000000E+00 0. -1.
          5    1    1    2  502    0  0.13763514323E+02 -0.80777849115E+02  0.15434531495E+02  0.83487678113E+02  0.41800000000E+01 0. -1.
         -5    1    1    2    0  502  0.72579294981E+02  0.29322326598E+02  0.17957794068E+02  0.80420816117E+02  0.41800000000E+01 0. -1.
        -11    1    1    2    0    0 -0.82275804429E+02  0.25010680246E-01 -0.58925599479E+02  0.10120046884E+03  0.00000000000E+00 0. -1.
         11    1    1    2    0    0 -0.40670048751E+01  0.51430511837E+02 -0.30031052916E+02  0.59695076980E+02  0.00000000000E+00 0.  1.
</event>
<event>
 6    1  0.5317355E-006  0.1024688E+03  0.7561462E-02  0.1275189E+00
         -2   -1    0    0    0  501 -0.00000000000E+00  0.00000000000E+00  0.32893270864E+03  0.32893270864E+03  0.00000000000E+00 0.  1.
          2   -1    0    0  501    0  0.00000000000E+00 -0.00000000000E+00 -0.46564737709E+02  0.46564737709E+02  0.00000000000E+00 0. -1.
          5    1    1    2  502    0 -0.19485782532E+02 -0.29438192202E+02  0.14744226005E+02  0.38485938750E+02  0.41800000000E+01 0.  1.
         -5    1    1    2    0  502  0.75694969450E+02  0.43127437811E+02  0.18098431979E+03  0.20090420777E+03  0.41800000000E+01 0.  1.
        -11    1    1    2    0    0  0.12153848277E+02 -0.54193504209E+01  0.61306152044E+02  0.62733800023E+02  0.00000000000E+00 0.  1.
         11    1    1    2    0    0 -0.68363035195E+02 -0.82698951884E+01  0.25333273094E+02  0.73373499802E+02  0.00000000000E+00 0. -1.
</event>
<event>
 6    1  0.5317355E-006  0.1309233E+03  0.7561462E-02  0.1226092E+00
          1   -1    0    0  501    0  0.00000000000E+00  0.00000000000E+00  0.11259224031E+03  0.11259224031E+03  0.00000000000E+00 0. -1.
         -1   -1    0    0    0  501 -0.00000000000E+00 -0.00000000000E+00 -0.17719458781E+03  0.17719458781E+03  0.00000000000E+00 0.  1.
          5    1    1    2  502    0 -0.40796752042E+02 -0.36609245559E+02 -0.22906213505E+02  0.59554839054E+02  0.41800000000E+01 0. -1.
         -5    1    1    2    0  502 -0.25878143453E+02  0.94294263737E+02 -0.29787835224E+02  0.10230285436E+03  0.41800000000E+01 0. -1.
        -11    1    1    2    0    0  0.79457052796E+02 -0.52349888713E+02 -0.34680666307E+02  0.10127528180E+03  0.00000000000E+00 0.  1.
         11    1    1    2    0    0 -0.12782157300E+02 -0.53351294643E+01  0.22772367543E+02  0.26653852914E+02  0.00000000000E+00 0. -1.
</event>
<event>
 6    1  0.5317355E-006  0.9895631E+02  0.7561462E-02  0.1282506E+00
         -2   -1    0    0    0  501 -0.00000000000E+00  0.00000000000E+00  0.29208462086E+03  0.29208462086E+03  0.00000000000E+00 0.  1.
          2   -1    0    0  501    0  0.00000000000E+00 -0.00000000000E+00 -0.18207982718E+03  0.18207982718E+03  0.00000000000E+00 0. -1.
          5    1    1    2  502    0  0.16631457729E+02  0.25023828818E+02  0.11401169361E+02  0.32407660478E+02  0.41800000000E+01 0. -1.
         -5    1    1    2    0  502 -0.19163339134E+01 -0.79287204107E+02  0.24648857060E+03  0.25896760590E+03  0.41800000000E+01 0.  1.
        -11    1    1    2    0    0  0.63884832694E+01 -0.14704242712E+02 -0.86815047308E+02  0.88282953685E+02  0.00000000000E+00 0.  1.
         11    1    1    2    0    0 -0.21103607085E+02  0.68967618001E+02 -0.61069898971E+02  0.94506227970E+02  0.00000000000E+00 0. -1.
</event>
<event>
 6    1  0.5317355E-006  0.1599567E+03  0.7561462E-02  0.1188746E+00
         -2   -1    0    0    0  501 -0.00000000000E+00  0.00000000000E+00  0.43356574910E+02  0.43356574910E+02  0.00000000000E+00 0.  1.
          2   -1    0    0  501    0  0.00000000000E+00 -0.00000000000E+00 -0.60424398199E+03  0.60424398199E+03  0.00000000000E+00 0. -1.
          5    1    1    2  502    0  0.53967525004E+01 -0.41650956589E+02 -0.53382046092E+02  0.68051762411E+02  0.41800000000E+01 0.  1.
         -5    1    1    2    0  502  0.10930626109E+03  0.67529123757E+02 -0.21798106452E+03  0.25306374327E+03  0.41800000000E+01 0.  1.
        -11    1    1    2    0    0 -0.73644841581E+02  0.30247666960E+02 -0.12967891047E+03  0.15216801198E+03  0.00000000000E+00 0.  1.
         11    1    1    2    0    0 -0.41058172009E+02 -0.56125834129E+02 -0.15984538600E+03  0.17431703925E+03  0.00000000000E+00 0. -1.
</event>
<event>
 6    1  0.5317355E-006  0.1133233E+03  0.7561462E-02  0.1254536E+00
          2   -1    0    0  501    0  0.00000000000E+00  0.00000000000E+00  0.18996680652E+03  0.18996680652E+03  0.00000000000E+00 0. -1.
         -2   -1    0    0    0  501 -0.00000000000E+00 -0.00000000000E+00 -0.10870323414E+03  0.10870323414E+03  0.00000000000E+00 0.  1.
          5    1    1    2  502    0 -0.36922069244E+02  0.84231174907E+02  0.38570451615E+02  0.99816241972E+02  0.41800000000E+01 0.  1.
         -5    1    1    2    0  502 -0.96953016321E+00 -0.14619249810E+02 -0.46000883727E+02  0.48458396150E+02  0.41800000000E+01 0.  1.
        -11    1    1    2    0    0 -0.11444509911E+02 -0.69066794974E+02  0.38008115809E+02  0.79660629187E+02  0.00000000000E+00 0.  1.
         11    1    1    2    0    0  0.49336109318E+02 -0.54513012301E+00  0.50685888687E+02  0.70734773354E+02  0.00000000000E+00 0. -1.
</event>
<event>
 6    1  0.5317355E-006  0.1351130E+03  0.7561462E-02  0.1220060E+00
          1   -1    0    0  501    0  0.00000000000E+00  0.00000000000E+00  0.10276647060E+04  0.10276647060E+04  0.00000000000E+00 0. -1.
         -1   -1    0    0    0  501 -0.00000000000E+00 -0.00000000000E+00 -0.20315843575E+02  0.20315843575E+02  0.00000000000E+00 0.  1.
          5    1    1    2  502    0 -0.31448423632E+02  0.93169820570E+01  0.59466444069E+02  0.68040722173E+02  0.41800000000E+01 0.  1.
         -5    1    1    2    0  502  0.88434080824E+02 -0.75857266891E+02  0.35602183566E+03  0.37462505449E+03  0.41800000000E+01 0.  1.
        -11    1    1    2    0    0  0.12809983178E+02 -0.10541030675E+02  0.33832916025E+02  0.37681231449E+02  0.00000000000E+00 0.  1.
         11    1    1    2    0    0 -0.69795640370E+02  0.77081315509E+02  0.55802766671E+03  0.56763354150E+03  0.00000000000E+00 0. -1.
</event>
<event>
 6    1  0.5317355E-006  0.1166235E+03  0.7561462E-02  0.1248773E+00
          2   -1    0    0  501    0  0.00000000000E+00  0.00000000000E+00  0.16282980750E+03  0.16282980750E+03  0.00000000000E+00 0. -1.
         -2   -1    0    0    0  501 -0.00000000000E+00 -0.00000000000E+00 -0.91120763553E+02  0.91120763553E+02  0.00000000000E+00 0.  1.
          5    1    1    2  502    0 -0.38197255344E+02 -0.20761314885E+02  0.21014882333E+02  0.48468135832E+02  0.41800000000E+01 0.  1.
         -5    1    1    2    0  502  0.54621182426E+02  0.66210068923E+02 -0.77095763232E+01  0.86279526908E+02  0.41800000000E+01 0.  1.
        -11    1    1    2    0    0 -0.20092176749E+02  0.25572414003E+02  0.22428652130E+02  0.39505548481E+02  0.00000000000E+00 0. -1.
         11    1    1    2    0    0  0.36682496673E+01 -0.71021168040E+02  0.35975085811E+02  0.79697359834E+02  0.00000000000E+00 0.  1.
</event>
<event>
 6    1  0.5317355E-006  0.9363890E+02  0.7561462E-02  0.1294271E+00
          1   -1    0    0  501    0  0.00000000000E+00  0.00000000000E+00  0.69912690579E+02  0.69912690579E+02  0.00000000000E+00 0. -1.
         -1   -1    0    0    0  501 -0.00000000000E+00 -0.00000000000E+00 -0.32174583695E+03  0.32174583695E+03  0.00000000000E+00 0.  1.
          5    1    1    2  502    0 -0.11294817334E+02 -0.56318398041E+02 -0.22747783551E+03  0.23465500826E+03  0.41800000000E+01 0. -1.
         -5    1    1    2    0  502  0.11030682667E+02 -0.26638739103E+02  0.89309621725E+01  0.30471837267E+02  0.41800000000E+01 0. -1.
        -11    1    1    2    0    0  0.28526638941E+02  0.43416372436E+02 -0.52879392417E+02  0.74128136811E+02  0.00000000000E+00 0.  1.
         11    1    1    2    0    0 -0.28262504274E+02  0.39540764708E+02  0.19593119377E+02  0.52403545190E+02  0.00000000000E+00 0. -1.
</event>
<event>
 6    1  0.5317355E-006  0.7431493E+02  0.7561462E-02  0.1346006E+00
          2   -1    0    0  501    0  0.00000000000E+00  0.00000000000E+00  0.52063653301E+02  0.52063653301E+02  0.00000000000E+00 0. -1.
         -2   -1    0    0    0  501 -0.00000000000E+00 -0.00000000000E+00 -0.53684923092E+03  0.53684923092E+03  0.00000000000E+00 0.  1.
          5    1    1    2  502    0 -0.19379208634E+02 -0.39842978235E+02 -0.43770742031E+03  0.43996394720E+03  0.41800000000E+01 0.  1.
         -5    1    1    2    0  502  0.70808515629E+01 -0.27316350864E+02 -0.10571373485E+02  0.30422817436E+02  0.41800000000E+01 0.  1.
        -11    1    1    2    0    0  0.23349003212E+02  0.40629547315E+02 -0.63620176961E+02  0.79015586960E+02  0.00000000000E+00 0.  1.
         11    1    1    2    0    0 -0.11050646142E+02  0.26529781784E+02  0.27113393131E+02  0.39510532630E+02  0.00000000000E+00 0. -1.
</event>
<event>
 6    1  0.5317355E-006  0.1136698E+03  0.7561462E-02  0.1253921E+00
         -1   -1    0    0    0  501 -0.00000000000E+00  0.00000000000E+00  0.49062970224E+03  0.49062970224E+03  0.00000000000E+00 0.  1.
          1   -1    0    0  501    0  0.00000000000E+00 -0.00000000000E+00 -0.42288994702E+02  0.42288994702E+02  0.00000000000E+00 0. -1.
          5    1    1    2  502    0 -0.26714386859E+02 -0.53862573697E+01 -0.13974334935E+00  0.27571038463E+02  0.41800000000E+01 0. -1.
         -5    1    1    2    0  502 -0.44387108934E+02  0.59650763348E+02  0.30394052233E+03  0.31293089096E+03  0.41800000000E+01 0. -1.
        -11    1    1    2    0    0  0.86604763713E+02 -0.21776528804E+02  0.11649294991E+03  0.14678286577E+03  0.00000000000E+00 0.  1.
         11    1    1    2    0    0 -0.15503267920E+02 -0.32487977174E+02  0.28046978650E+02  0.45633901745E+02  0.00000000000E+00 0. -1.
</event>
<event>
 6    1  0.5317355E-006  0.2228857E+03  0.7561462E-02  0.1131750E+00
          3   -1    0    0  501    0  0.00000000000E+00  0.00000000000E+00  0.52814001298E+02  0.52814001298E+02  0.00000000000E+00 0. -1.
         -3   -1    0    0    0  501 -0.00000000000E+00 -0.00000000000E+00 -0.97347684455E+03  0.97347684455E+03  0.00000000000E+00 0.  1.
          5    1    1    2  502    0 -0.73200208402E+02  0.88659642732E+02 -0.21874198951E+03  0.24715244918E+03  0.41800000000E+01 0. -1.
         -5    1    1    2    0  502 -0.11130076062E+03 -0.94887629080E+01 -0.30852696169E+03  0.32815279128E+03  0.41800000000E+01 0.  1.
        -11    1    1    2    0    0  0.17071954951E+03 -0.97041263401E+02 -0.33402695631E+03  0.38747410098E+03  0.00000000000E+00 0.  1.
         11    1    1    2    0    0  0.13781419517E+02  0.17870383578E+02 -0.59366935736E+02  0.63511504405E+02  0.00000000000E+00 0. -1.
</event>
<event>
 6    1  0.5317355E-006  0.1064529E+03  0.7561462E-02  0.1267283E+00
          1   -1    0    0  501    0  0.00000000000E+00  0.00000000000E+00  0.17373870881E+03  0.17373870881E+03  0.00000000000E+00 0. -1.
         -1   -1    0    0    0  501 -0.00000000000E+00 -0.00000000000E+00 -0.10369828083E+03  0.10369828083E+03  0.00000000000E+00 0.  1.
          5    1    1    2  502    0  0.61448837483E+02 -0.40586631128E+02  0.53428254805E+02  0.91078455552E+02  0.41800000000E+01 0. -1.
         -5    1    1    2    0  502 -0.17257287700E+02  0.37609474621E+02 -0.52372292461E+02  0.66877619408E+02  0.41800000000E+01 0.  1.
        -11    1    1    2    0    0  0.57964064707E+01  0.36764534194E+02  0.26308387114E+02  0.45578070768E+02  0.00000000000E+00 0. -1.
         11    1    1    2    0    0 -0.49987956253E+02 -0.33787377687E+02  0.42676078515E+02  0.73902843915E+02  0.00000000000E+00 0.  1.
</event>
<event>
 6    1  0.5317355E-006  0.1025334E+03  0.7561462E-02  0.1275057E+00
         -2   -1    0    0    0  501 -0.00000000000E+00  0.00000000000E+00  0.10281721223E+03  0.10281721223E+03  0.00000000000E+00 0.  1.
          2   -1    0    0  501    0  0.00000000000E+00 -0.00000000000E+00 -0.16009161212E+03  0.16009161212E+03  0.00000000000E+00 0. -1.
          5    1    1    2  502    0 -0.87053799943E+02 -0.15905180196E+02  0.39421006962E+01  0.88681178384E+02  0.41800000000E+01 0. -1.
         -5    1    1    2    0  502  0.24235490320E+02 -0.53996478779E+00 -0.56708788373E+02  0.61814315751E+02  0.41800000000E+01 0. -1.
        -11    1    1    2    0    0  0.19816216251E+02  0.38682201717E+02  0.30131435634E+02  0.52885712338E+02  0.00000000000E+00 0.  1.
         11    1    1    2    0    0  0.43002093372E+02 -0.22237056733E+02 -0.34639147844E+02  0.59527617875E+02  0.00000000000E+00 0. -1.
</event>
<event>
 6    1  0.5317355E-006  0.7331719E+02  0.7561462E-02  0.1349163E+00
         -1   -1    0    0    0  501 -0.00000000000E+00  0.00000000000E+00  0.13155018791E+03  0.13155018791E+03  0.00000000000E+00 0.  1.
          1   -1    0    0  501    0  0.00000000000E+00 -0.00000000000E+00 -0.10022292831E+03  0.10022292831E+03  0.00000000000E+00 0. -1.
          5    1    1    2  502    0  0.37103354863E+02 -0.76911568028E+01 -0.31302847783E+02  0.49327005934E+02  0.41800000000E+01 0.  1.
         -5    1    1    2    0  502 -0.57858133975E+02  0.39146762213E+02  0.42088468677E+02  0.81663604221E+02  0.41800000000E+01 0.  1.
        -11    1    1    2    0    0  0.10011323873E+02 -0.83029554861E+01 -0.36253341783E+02  0.38515846946E+02  0.00000000000E+00 0. -1.
         11    1    1    2    0    0  0.10743455239E+02 -0.23152649925E+02  0.56794980492E+02  0.62266659121E+02  0.00000000000E+00 0.  1.
</event>
<event>
 6    1  0.5317355E-006  0.9485089E+02  0.7561462E-02  0.1291512E+00
         -1   -1    0    0    0  501 -0.00000000000E+00  0.00000000000E+00  0.12667647022E+04  0.12667647022E+04  0.00000000000E+00 0.  1.
          1   -1    0    0  501    0  0.00000000000E+00 -0.00000000000E+00 -0.11271142793E+02  0.11271142793E+02  0.00000000000E+00 0. -1.
          5    1    1    2  502    0 -0.11431772202E+02 -0.36992174295E+02  0.14975573363E+03  0.15473641630E+03  0.41800000000E+01 0. -1.
         -5    1    1    2    0  502 -0.81730703958E+01  0.56342034598E+02  0.83154826647E+03  0.83350537839E+03  0.41800000000E+01 0.  1.
        -11    1    1    2    0    0 -0.27760842096E+02 -0.34186594321E+02  0.13678223219E+03  0.14369678712E+03  0.00000000000E+00 0. -1.
         11    1    1    2    0    0  0.47365684693E+02  0.14836734018E+02  0.13740732710E+03  0.14609726316E+03  0.00000000000E+00 0.  1.
</event>
<event>
 6    1  0.5317355E-006  0.1012683E+03  0.7561462E-02  0.1277651E+00
         -1   -1    0    0    0  501 -0.00000000000E+00  0.00000000000E+00  0.46664095866E+02  0.46664095866E+02  0.00000000000E+00 0.  1.
          1   -1    0    0  501    0  0.00000000000E+00 -0.00000000000E+00 -0.34839421020E+03  0.34839421020E+03  0.00000000000E+00 0. -1.
          5    1    1    2  502    0  0.37836613595E+02  0.29191789177E+02 -0.11127266744E+03  0.12117280554E+03  0.41800000000E+01 0. -1.
         -5    1    1    2    0  502 -0.57588549568E+02  0.28934838615E+02 -0.13744427450E+02  0.66030656614E+02  0.41800000000E+01 0. -1.
        -11    1    1    2    0    0  0.92835654402E+01  0.14164562322E+02 -0.10189277683E+03  0.10329064519E+03  0.00000000000E+00 0. -1.
         11    1    1    2    0    0  0.10468370533E+02 -0.72291190114E+02 -0.74820242613E+02  0.10456419872E+03  0.00000000000E+00 0.  1.
</event>
<event>
 6    1  0.5317355E-006  0.7127332E+02  0.7561462E-02  0.1355816E+00
         -1   -1    0    0    0  501 -0.00000000000E+00  0.00000000000E+00  0.29146354058E+03  0.29146354058E+03  0.00000000000E+00 0.  1.
          1   -1    0    0  501    0  0.00000000000E+00 -0.00000000000E+00 -0.42806988986E+02  0.42806988986E+02  0.00000000000E+00 0. -1.
          5    1    1    2  502    0 -0.67352256228E+01  0.40483258631E+02  0.90707388403E+01  0.42237521194E+02  0.41800000000E+01 0. -1.
         -5    1    1    2    0  502  0.28998774949E+02 -0.46496497654E+02  0.16111309501E+03  0.17022853764E+03  0.41800000000E+01 0. -1.
        -11    1    1    2    0    0  0.61193332553E+01  0.15296138772E+02 -0.15853710073E+02  0.22863906576E+02  0.00000000000E+00 0. -1.
         11    1    1    2    0    0 -0.28382882582E+02 -0.92828997486E+01  0.94326427819E+02  0.98940564161E+02  0.00000000000E+00 0.  1.
</event>
<event>
 6    1  0.5317355E-006  0.1084095E+03  0.7561462E-02  0.1263544E+00
          1   -1    0    0  501    0  0.00000000000E+00  0.00000000000E+00  0.36693151157E+03  0.36693151157E+03  0.00000000000E+00 0. -1.
         -1   -1    0    0    0  501 -0.00000000000E+00 -0.00000000000E+00 -0.43615412140E+02  0.43615412140E+02  0.00000000000E+00 0.  1.
          5    1    1    2  502    0  0.12572809770E+02  0.40622168509E+02  0.10788799547E+02  0.44069339858E+02  0.41800000000E+01 0.  1.
         -5    1    1    2    0  502 -0.47487445591E+02 -0.69043867628E+02  0.87792848655E+02  0.12143792579E+03  0.41800000000E+01 0.  1.
        -11    1    1    2    0    0 -0.55242161301E+01  0.45830031296E+02  0.67626978055E+02  0.81879893095E+02  0.00000000000E+00 0.  1.
         11    1    1    2    0    0  0.40438851950E+02 -0.17408332177E+02  0.15710747318E+03  0.16315976497E+03  0.00000000000E+00 0. -1.
</event>
<event>
 6    1  0.5317355E-006  0.1572414E+03  0.7561462E-02  0.1191847E+00
          2   -1    0    0  501    0  0.00000000000E+00  0.00000000000E+00  0.90206037620E+02  0.90206037620E+02  0.00000000000E+00 0. -1.
         -2   -1    0    0    0  501 -0.00000000000E+00 -0.00000000000E+00 -0.55741576366E+03  0.55741576366E+03  0.00000000000E+00 0.  1.
          5    1    1    2  502    0 -0.74348112157E+02  0.11572642419E+03 -0.41912036835E+03  0.44113444958E+03  0.41800000000E+01 0. -1.
         -5    1    1    2    0  502  0.30946565077E+02  0.40324550963E+01 -0.36466989604E+02  0.48179500982E+02  0.41800000000E+01 0. -1.
        -11    1    1    2    0    0  0.15370455180E+02 -0.11609953986E+03 -0.34338287599E+02  0.12204291066E+03  0.00000000000E+00 0.  1.
         11    1    1    2    0    0  0.28031091900E+02 -0.36593394268E+01  0.22715919514E+02  0.36264940059E+02  0.00000000000E+00 0. -1.
</event>
<event>
 6    1  0.5317355E-006  0.1195825E+03  0.7561462E-02  0.1243787E+00
          3   -1    0    0  501    0  0.00000000000E+00  0.00000000000E+00  0.70590444583E+02  0.70590444583E+02  0.00000000000E+00 0. -1.
         -3   -1    0    0    0  501 -0.00000000000E+00 -0.00000000000E+00 -0.23782333374E+03  0.23782333374E+03  0.00000000000E+00 0.  1.
          5    1    1    2  502    0 -0.19574868002E+02 -0.33364768815E+02 -0.35874739229E+01  0.39073336491E+02  0.41800000000E+01 0.  1.
         -5    1    1    2    0  502  0.86113933220E+02  0.39266637058E+02 -0.91188859578E+02  0.13149280890E+03  0.41800000000E+01 0.  1.
        -11    1    1    2    0    0 -0.82077161230E+02  0.10711615642E+02 -0.27082842547E+02  0.87091213482E+02  0.00000000000E+00 0. -1.
         11    1    1    2    0    0  0.15538096012E+02 -0.16613483885E+02 -0.45373713104E+02  0.50756419449E+02  0.00000000000E+00 0.  1.
</event>
<event>
 6    1  0.5317355E-006  0.8207689E+02  0.7561462E-02  0.1323259E+00
         -1   -1    0    0    0  501 -0.00000000000E+00  0.00000000000E+00  0.16737686051E+03  0.16737686051E+03  0.00000000000E+00 0.  1.
          1   -1    0    0  501    0  0.00000000000E+00 -0.00000000000E+00 -0.80430279839E+02  0.80430279839E+02  0.00000000000E+00 0. -1.
          5    1    1    2  502    0  0.48747711631E+02 -0.40920052665E+02  0.88035983424E+02  0.10871337028E+03  0.41800000000E+01 0.  1.
         -5    1    1    2    0  502 -0.67978240840E+01  0.30138689532E+02 -0.23031061402E+02  0.38761491306E+02  0.41800000000E+01 0.  1.
        -11    1    1    2    0    0  0.12855300227E+02 -0.17502379630E+01  0.39386485862E+02  0.41468269139E+02  0.00000000000E+00 0.  1.
         11    1    1    2    0    0 -0.54805187774E+02  0.12531601096E+02 -0.17444827213E+02  0.58864009627E+02  0.00000000000E+00 0. -1.
</event>
<event>
 6    1  0.5317355E-006  0.9668066E+02  0.7561462E-02  0.1287435E+00
         -1   -1    0    0    0  501 -0.00000000000E+00  0.00000000000E+00  0.36839100667E+02  0.36839100667E+02  0.00000000000E+00 0.  1.
          1   -1    0    0  501    0  0.00000000000E+00 -0.00000000000E+00 -0.34116555154E+03  0.34116555154E+03  0.00000000000E+00 0. -1.
          5    1    1    2  502    0  0.32151035588E+02  0.38994636446E+02 -0.11886056982E+03  0.12922684790E+03  0.41800000000E+01 0. -1.
         -5    1    1    2    0  502 -0.37767467294E+02 -0.32815866116E+02 -0.11242772328E+02  0.51450315688E+02  0.41800000000E+01 0. -1.
        -11    1    1    2    0    0 -0.43188183889E+02 -0.62450891315E+01 -0.75631581819E+02  0.87317561432E+02  0.00000000000E+00 0.  1.
         11    1    1    2    0    0  0.48804615595E+02  0.66318800773E-01 -0.98591526902E+02  0.11000992718E+03  0.00000000000E+00 0. -1.
</event>
<event>
 6    1  0.5317355E-006  0.1030888E+03  0.7561462E-02  0.1273932E+00
         -1   -1    0    0    0  501 -0.00000000000E+00  0.00000000000E+00  0.31871987502E+02  0.31871987502E+02  0.00000000000E+00 0.  1.
          1   -1    0    0  501    0  0.00000000000E+00 -0.00000000000E+00 -0.46874509513E+03  0.46874509513E+03  0.00000000000E+00 0. -1.
          5    1    1    2  502    0  0.35990753241E+02  0.34139478000E+02 -0.48760819413E+02  0.69684490289E+02  0.41800000000E+01 0. -1.
         -5    1    1    2    0  502 -0.71715876450E+02 -0.34443344407E+02 -0.10257730243E+03  0.12988104667E+03  0.41800000000E+01 0. -1.
        -11    1    1    2    0    0 -0.10275573385E+02  0.23177471889E+02 -0.25384322922E+02  0.35876823462E+02  0.00000000000E+00 0.  1.
         11    1    1    2    0    0  0.46000696595E+02 -0.22873605482E+02 -0.26015066286E+03  0.26517472222E+03  0.00000000000E+00 0. -1.
</event>
<event>
 6    1  0.5317355E-006  0.1178481E+03  0.7561462E-02  0.1246690E+00
         -1   -1    0    0    0  501 -0.00000000000E+00  0.00000000000E+00  0.63665989902E+03  0.63665989902E+03  0.00000000000E+00 0.  1.
          1   -1    0    0  501    0  0.00000000000E+00 -0.00000000000E+00 -0.22803211803E+02  0.22803211803E+02  0.00000000000E+00 0. -1.
          5    1    1    2  502    0 -0.22717840144E+02 -0.63788613409E+02  0.16363150598E+03  0.17713788305E+03  0.41800000000E+01 0.  1.
         -5    1    1    2    0  502 -0.27509983887E+02  0.59652595884E+02  0.21076729905E+03  0.22080660805E+03  0.41800000000E+01 0.  1.
        -11    1    1    2    0    0  0.63021841067E+02 -0.26853278343E+02  0.18810213307E+03  0.20018807027E+03  0.00000000000E+00 0.  1.
         11    1    1    2    0    0 -0.12794017035E+02  0.30989295868E+02  0.51355749111E+02  0.61330549460E+02  0.00000000000E+00 0. -1.
</event>
<event>
 6    1  0.5317355E-006  0.1972155E+03  0.7561462E-02  0.1152110E+00
         -2   -1    0    0    0  501 -0.00000000000E+00  0.00000000000E+00  0.28581378964E+03  0.28581378964E+03  0.00000000000E+00 0.  1.
          2   -1    0    0  501    0  0.00000000000E+00 -0.00000000000E+00 -0.15377668943E+03  0.15377668943E+03  0.00000000000E+00 0. -1.
          5    1    1    2  502    0  0.17906926496E+03 -0.22387698028E+02  0.13242587719E+03  0.22387741294E+03  0.41800000000E+01 0. -1.
         -5    1    1    2    0  502 -0.98890407739E+01  0.20007577804E+02 -0.33824750555E+01  0.22956694764E+02  0.41800000000E+01 0. -1.
        -11    1    1    2    0    0 -0.18628590417E+02 -0.31777513481E+02  0.10164756157E+02  0.38212000886E+02  0.00000000000E+00 0. -1.
         11    1    1    2    0    0 -0.15055163377E+03  0.34157633705E+02 -0.71710580854E+01  0.15454437047E+03  0.00000000000E+00 0.  1.
</event>
<event>
 6    1  0.5317355E-006  0.9931725E+02  0.7561462E-02  0.1281738E+00
          1   -1    0    0  501    0  0.00000000000E+00  0.00000000000E+00  0.97698866238E+02  0.97698866238E+02  0.00000000000E+00 0. -1.
         -1   -1    0    0    0  501 -0.00000000000E+00 -0.00000000000E+00 -0.13166760875E+03  0.13166760875E+03  0.00000000000E+00 0.  1.
          5    1    1    2  502    0 -0.27656476676E+02 -0.43932507688E+02  0.20705901180E+02  0.56045987167E+02  0.41800000000E+01 0.  1.
         -5    1    1    2    0  502  0.52534708231E+01  0.52210348770E+02 -0.54365981709E+02  0.75674644641E+02  0.41800000000E+01 0.  1.
        -11    1    1    2    0    0  0.47276871919E+02 -0.33921967262E+02 -0.13198697122E+02  0.59665803331E+02  0.00000000000E+00 0.  1.
         11    1    1    2    0    0 -0.24873866066E+02  0.25644126180E+02  0.12890035143E+02  0.37980039845E+02  0.00000000000E+00 0. -1.
</event>
<event>
 6    1  0.5317355E-006  0.1067249E+03  0.7561462E-02  0.1266758E+00
          1   -1    0    0  501    0  0.00000000000E+00  0.00000000000E+00  0.24353406662E+03  0.24353406662E+03  0.00000000000E+00 0. -1.
         -1   -1    0    0    0  501 -0.00000000000E+00 -0.00000000000E+00 -0.77429506618E+02  0.77429506618E+02  0.00000000000E+00 0.  1.
          5    1    1    2  502    0  0.13897251142E+02 -0.23100426065E+02 -0.16233605930E+02  0.31745324620E+02  0.41800000000E+01 0. -1.
         -5    1    1    2    0  502  0.50451838923E+02  0.75036311220E+02  0.12130652128E+03  0.15135580781E+03  0.41800000000E+01 0. -1.
        -11    1    1    2    0    0 -0.31834564513E+02  0.28316601744E+01  0.66656415557E+02  0.73922496792E+02  0.00000000000E+00 0.  1.
         11    1    1    2    0    0 -0.32514525552E+02 -0.54767545330E+02 -0.56247709050E+01  0.63939944018E+02  0.00000000000E+00 0. -1.
</event>
<event>
 6    1  0.5317355E-006  0.5667565E+02  0.7561462E-02  0.1412337E+00
         -2   -1    0    0    0  501 -0.00000000000E+00  0.00000000000E+00  0.23620152410E+03  0.23620152410E+03  0.00000000000E+00 0.  1.
          2   -1    0    0  501    0  0.00000000000E+00 -0.00000000000E+00 -0.67471184945E+02  0.67471184945E+02  0.00000000000E+00 0. -1.
          5    1    1    2  502    0 -0.46582687011E+02  0.26275363310E+02  0.46254786336E+01  0.53844302380E+02  0.41800000000E+01 0.  1.
         -5    1    1    2    0  502  0.94297871711E+01 -0.22967307038E+01  0.14804079068E+03  0.14841746515E+03  0.41800000000E+01 0.  1.
        -11    1    1    2    0    0  0.10628800979E+02  0.32618459964E+01  0.49528335700E+02  0.50760881462E+02  0.00000000000E+00 0.  1.
         11    1    1    2    0    0  0.26524098861E+02 -0.27240478602E+02 -0.33464265850E+02  0.50650060057E+02  0.00000000000E+00 0. -1.
</event>
<event>
 6    1  0.5317355E-006  0.8893948E+02  0.7561462E-02  0.1305440E+00
          1   -1    0    0  501    0  0.00000000000E+00  0.00000000000E+00  0.33369713034E+03  0.33369713034E+03  0.00000000000E+00 0. -1.
         -1   -1    0    0    0  501 -0.00000000000E+00 -0.00000000000E+00 -0.42336502602E+02  0.42336502602E+02  0.00000000000E+00 0.  1.
          5    1    1    2  502    0  0.32170195680E+02 -0.23821958073E+02  0.11062476342E+02  0.41740363670E+02  0.41800000000E+01 0. -1.
         -5    1    1    2    0  502 -0.77704254535E+02  0.65151381920E+01  0.14033363094E+03  0.16059700674E+03  0.41800000000E+01 0. -1.
        -11    1    1    2    0    0  0.30745070333E+02 -0.65863021180E+01  0.51816140185E+00  0.31446895182E+02  0.00000000000E+00 0.  1.
         11    1    1    2    0    0  0.14788988522E+02  0.23893121999E+02  0.13944635905E+03  0.14224936735E+03  0.00000000000E+00 0. -1.
</event>
<event>
 6    1  0.5317355E-006  0.1119441E+03  0.7561462E-02  0.1257012E+00
         -1   -1    0    0    0  501 -0.00000000000E+00  0.00000000000E+00  0.20512861576E+02  0.20512861576E+02  0.00000000000E+00 0.  1.
          1   -1    0    0  501    0  0.00000000000E+00 -0.00000000000E+00 -0.82999982601E+03  0.82999982601E+03  0.00000000000E+00 0. -1.
          5    1    1    2  502    0  0.19224495309E+02 -0.13517007813E+02 -0.20189216064E+02  0.31262878393E+02  0.41800000000E+01 0.  1.
         -5    1    1    2    0  502 -0.84654488024E+02  0.39915856978E+02 -0.48386191724E+03  0.49284833908E+03  0.41800000000E+01 0.  1.
        -11    1    1    2    0    0  0.61920777756E+02  0.15866567269E+02 -0.11772674531E+03  0.13396087950E+03  0.00000000000E+00 0.  1.
         11    1    1    2    0    0  0.35092149582E+01 -0.42265416434E+02 -0.18770908582E+03  0.19244059061E+03  0.00000000000E+00 0. -1.
</event>
<event>
 6    1  0.5317355E-006  0.9824377E+02  0.7561462E-02  0.1284033E+00
         -1   -1    0    0    0  501 -0.00000000000E+00  0.00000000000E+00  0.22184992515E+03  0.22184992515E+03  0.00000000000E+00 0.  1.
          1   -1    0    0  501    0  0.00000000000E+00 -0.00000000000E+00 -0.77598064150E+02  0.77598064150E+02  0.00000000000E+00 0. -1.
          5    1    1    2  502    0  0.79853185651E+02 -0.20836949578E+01 -0.16175526160E+02  0.81608780715E+02  0.41800000000E+01 0. -1.
         -5    1    1    2    0  502 -0.10197629141E+02  0.25975054706E+01  0.70675714870E+02  0.71577005715E+02  0.41800000000E+01 0. -1.
        -11    1    1    2    0    0 -0.33420000897E+02  0.39134469382E+02  0.74281122516E+02  0.90366411437E+02  0.00000000000E+00 0. -1.
         11    1    1    2    0    0 -0.36235555613E+02 -0.39648279895E+02  0.15470549769E+02  0.55895791428E+02  0.00000000000E+00 0.  1.
</event>
<event>
 6    1  0.5317355E-006  0.1096581E+03  0.7561462E-02  0.1261204E+00
          1   -1    0    0  501    0  0.00000000000E+00  0.00000000000E+00  0.26420133817E+02  0.26420133817E+02  0.00000000000E+00 0. -1.
         -1   -1    0    0    0  501 -0.00000000000E+00 -0.00000000000E+00 -0.50008220499E+03  0.50008220499E+03  0.00000000000E+00 0.  1.
          5    1    1    2  502    0  0.40778366533E+02 -0.15865764358E+02 -0.16842237919E+03  0.17406368912E+03  0.41800000000E+01 0. -1.
         -5    1    1    2    0  502 -0.62578697477E+02  0.46055877760E+02 -0.12760096999E+03  0.14945473293E+03  0.41800000000E+01 0. -1.
        -11    1    1    2    0    0 -0.28984628181E+02  0.12151010295E+02 -0.46589221376E+02  0.56198854708E+02  0.00000000000E+00 0. -1.
         11    1    1    2    0    0  0.50784959125E+02 -0.42341123697E+02 -0.13104950062E+03  0.14678506205E+03  0.00000000000E+00 0.  1.
</event>
<event>
 6    1  0.5317355E-006  0.9379984E+02  0.7561462E-02  0.1293902E+00
          1   -1    0    0  501    0  0.00000000000E+00  0.00000000000E+00  0.10408170020E+03  0.10408170020E+03  0.00000000000E+00 0. -1.
         -1   -1    0    0    0  501 -0.00000000000E+00 -0.00000000000E+00 -0.13308635096E+03  0.13308635096E+03  0.00000000000E+00 0.  1.
          5    1    1    2  502    0 -0.10468530305E+02  0.56289642109E+02 -0.44410874291E+02  0.72580383650E+02  0.41800000000E+01 0. -1.
         -5    1    1    2    0  502  0.35235204191E+02 -0.54528797496E+02 -0.89722000319E+01  0.65672537215E+02  0.41800000000E+01 0. -1.
        -11    1    1    2    0    0  0.20092723026E+02 -0.26552263476E+01 -0.25008579959E+02  0.32190011139E+02  0.00000000000E+00 0.  1.
         11    1    1    2    0    0 -0.44859396912E+02  0.89438173512E+00  0.49387003525E+02  0.66725119162E+02  0.00000000000E+00 0. -1.
</event>
<event>
 6    1  0.5317355E-006  0.1658747E+03  0.7561462E-02  0.1182219E+00
         -3   -1    0    0    0  501 -0.00000000000E+00  0.00000000000E+00  0.36112129626E+03  0.36112129626E+03  0.00000000000E+00 0.  1.
          3   -1    0    0  501    0  0.00000000000E+00 -0.00000000000E+00 -0.90419163387E+02  0.90419163387E+02  0.00000000000E+00 0. -1.
          5    1    1    2  502    0  0.32513335121E+02 -0.26690649135E+02  0.40430801249E+02  0.58494698919E+02  0.41800000000E+01 0.  1.
         -5    1    1    2    0  502  0.65259133883E+02  0.13105203452E+03  0.88641176411E+02  0.17119614733E+03  0.41800000000E+01 0.  1.
        -11    1    1    2    0    0 -0.44902549663E+02 -0.46734363160E+02  0.12658298806E+03  0.14220967805E+03  0.00000000000E+00 0.  1.
         11    1    1    2    0    0 -0.52869919341E+02 -0.57627022224E+02  0.15047167155E+02  0.79639935340E+02  0.00000000000E+00 0. -1.
</event>
<event>
 6    1  0.5317355E-006  0.1048456E+03  0.7561462E-02  0.1270424E+00
         -2   -1    0    0    0  501 -0.00000000000E+00  0.00000000000E+00  0.20330361189E+03  0.20330361189E+03  0.00000000000E+00 0.  1.
          2   -1    0    0  501    0  0.00000000000E+00 -0.00000000000E+00 -0.68847481025E+02  0.68847481025E+02  0.00000000000E+00 0. -1.
          5    1    1    2  502    0 -0.30117546584E+02 -0.25566281852E+02  0.20076678501E+01  0.39776934399E+02  0.41800000000E+01 0.  1.
         -5    1    1    2    0  502  0.60775791078E+02  0.64959746535E+02  0.67650960159E+02  0.11183733841E+03  0.41800000000E+01 0.  1.
        -11    1    1    2    0    0 -0.33691023800E+02 -0.55278935519E+02  0.12678808497E+02  0.65966642947E+02  0.00000000000E+00 0. -1.
         11    1    1    2    0    0  0.30327793050E+01  0.15885470836E+02  0.52118694360E+02  0.54570177165E+02  0.00000000000E+00 0.  1.
</event>
<event>
 6    1  0.5317355E-006  0.1033726E+03  0.7561462E-02  0.1273360E+00
         -2   -1    0    0    0  501 -0.00000000000E+00  0.00000000000E+00  0.32486117403E+02  0.32486117403E+02  0.00000000000E+00 0.  1.
          2   -1    0    0  501    0  0.00000000000E+00 -0.00000000000E+00 -0.49644145793E+03  0.49644145793E+03  0.00000000000E+00 0. -1.
          5    1    1    2  502    0  0.22752665291E+02  0.62095365060E+01  0.12139569629E+01  0.23983081807E+02  0.41800000000E+01 0.  1.
         -5    1    1    2    0  502 -0.84764026279E+02  0.45493912650E+01 -0.21925941241E+03  0.23515484142E+03  0.41800000000E+01 0.  1.
        -11    1    1    2    0    0 -0.12823004597E+01  0.25050021560E+02 -0.18871604209E+02  0.31389254850E+02  0.00000000000E+00 0.  1.
         11    1    1    2    0    0  0.63293661448E+02 -0.35808949331E+02 -0.22703828087E+03  0.23840039726E+03  0.00000000000E+00 0. -1.
</event>
<event>
 6    1  0.5317355E-006  0.1706704E+03  0.7561462E-02  0.1177151E+00
          3   -1    0    0  501    0  0.00000000000E+00  0.00000000000E+00  0.25244469464E+03  0.25244469464E+03  0.00000000000E+00 0. -1.
         -3   -1    0    0    0  501 -0.00000000000E+00 -0.00000000000E+00 -0.31693745902E+03  0.31693745902E+03  0.00000000000E+00 0.  1.
          5    1    1    2  502    0  0.23978209303E+02  0.11528953986E+02 -0.28776689654E+02  0.39413723103E+02  0.41800000000E+01 0. -1.
         -5    1    1    2    0  502 -0.15142277550E+03  0.41117899762E+02 -0.22782027302E+03  0.27665698585E+03  0.41800000000E+01 0.  1.
        -11    1    1    2    0    0  0.45635870754E+02  0.18291475413E+02  0.27640250381E+02  0.56402076322E+02  0.00000000000E+00 0.  1.
         11    1    1    2    0    0  0.81808695440E+02 -0.70938329160E+02  0.16446394791E+03  0.19690936838E+03  0.00000000000E+00 0. -1.
</event>
<event>
 6    1  0.5317355E-006  0.1114192E+03  0.7561462E-02  0.1257964E+00
          1   -1    0    0  501    0  0.00000000000E+00  0.00000000000E+00  0.47090068572E+03  0.47090068572E+03  0.00000000000E+00 0. -1.
         -1   -1    0    0    0  501 -0.00000000000E+00 -0.00000000000E+00 -0.42607266352E+02  0.42607266352E+02  0.00000000000E+00 0.  1.
          5    1    1    2  502    0  0.57660237675E+02 -0.50855238790E+01  0.22715026345E+03  0.23444675333E+03  0.41800000000E+01 0. -1.
         -5    1    1    2    0  502  0.11655487104E+02 -0.53729535149E+02  0.23235177223E+02  0.59833595810E+02  0.41800000000E+01 0. -1.
        -11    1    1    2    0    0 -0.62213554554E+02  0.71715019506E+02  0.18080861902E+03  0.20421882162E+03  0.00000000000E+00 0. -1.
         11    1    1    2    0    0 -0.71021702257E+01 -0.12899960478E+02 -0.29006403196E+01  0.15008781314E+02  0.00000000000E+00 0.  1.
</event>
<event>
 6    1  0.5317355E-006  0.8780976E+02  0.7561462E-02  0.1308244E+00
          1   -1    0    0  501    0  0.00000000000E+00  0.00000000000E+00  0.14166843577E+03  0.14166843577E+03  0.00000000000E+00 0. -1.
         -1   -1    0    0    0  501 -0.00000000000E+00 -0.00000000000E+00 -0.14732975841E+03  0.14732975841E+03  0.00000000000E+00 0.  1.
          5    1    1    2  502    0  0.30054555576E+02 -0.50538024699E+01  0.29400281422E+02  0.42551923317E+02  0.41800000000E+01 0.  1.
         -5    1    1    2    0  502  0.17116465082E+02  0.51173783870E+02 -0.10423302289E+03  0.11744669001E+03  0.41800000000E+01 0.  1.
        -11    1    1    2    0    0 -0.10684184779E+02 -0.52603190332E+02  0.74222924593E+02  0.91598526039E+02  0.00000000000E+00 0. -1.
         11    1    1    2    0    0 -0.36486835879E+02  0.64832089318E+01 -0.50515057651E+01  0.37401054812E+02  0.00000000000E+00 0.  1.
</event>
<event>
 6    1  0.5317355E-006  0.1090719E+03  0.7561462E-02  0.1262298E+00
          2   -1    0    0  501    0  0.00000000000E+00  0.00000000000E+00  0.24514397648E+03  0.24514397648E+03  0.00000000000E+00 0. -1.
         -2   -1    0    0    0  501 -0.00000000000E+00 -0.00000000000E+00 -0.74030142977E+02  0.74030142977E+02  0.00000000000E+00 0.  1.
          5    1    1    2  502    0  0.37338402253E+02  0.73514532737E+02 -0.85125919705E+01  0.82996863967E+02  0.41800000000E+01 0. -1.
         -5    1    1    2    0  502 -0.10672053324E+02 -0.41027616198E+02  0.26542526429E+02  0.50190996426E+02  0.41800000000E+01 0. -1.
        -11    1    1    2    0    0  0.30157251385E+02 -0.87218348259E+01  0.99541228040E+02  0.10437426069E+03  0.00000000000E+00 0. -1.
         11    1    1    2    0    0 -0.56823600314E+02 -0.23765081713E+02  0.53542671009E+02  0.81611998384E+02  0.00000000000E+00 0.  1.
</event>
<event>
 6    1  0.5317355E-006  0.1456112E+03  0.7561462E-02  0.1205972E+00
          3   -1    0    0  501    0  0.00000000000E+00  0.00000000000E+00  0.40820040002E+02  0.40820040002E+02  0.00000000000E+00 0. -1.
         -3   -1    0    0    0  501 -0.00000000000E+00 -0.00000000000E+00 -0.61943181073E+03  0.61943181073E+03  0.00000000000E+00 0.  1.
          5    1    1    2  502    0  0.89536703371E+01  0.13434437352E+03 -0.35503499814E+03  0.37973135400E+03  0.41800000000E+01 0.  1.
         -5    1    1    2    0  502 -0.89735659482E+01 -0.27819928181E+02 -0.71860317039E+02  0.77690738539E+02  0.41800000000E+01 0.  1.
        -11    1    1    2    0    0 -0.30815759181E+02 -0.24534904600E+02 -0.81662719529E+02  0.90666268912E+02  0.00000000000E+00 0.  1.
         11    1    1    2    0    0  0.30835654792E+02 -0.81989540735E+02 -0.70053736018E+02  0.11216348928E+03  0.00000000000E+00 0. -1.
</event>
<event>
 6    1  0.5317355E-006  0.7948428E+02  0.7561462E-02  0.1330521E+00
         -2   -1    0    0    0  501 -0.00000000000E+00  0.00000000000E+00  0.18308888307E+03  0.18308888307E+03  0.00000000000E+00 0.  1.
          2   -1    0    0  501    0  0.00000000000E+00 -0.00000000000E+00 -0.74112419613E+02  0.74112419613E+02  0.00000000000E+00 0. -1.
          5    1    1    2  502    0  0.14130563119E+02  0.11983415097E+02 -0.28695942657E+02  0.34412273630E+02  0.41800000000E+01 0.  1.
         -5    1    1    2    0  502 -0.58475808574E+02  0.71009182220E+01  0.10340432801E+03  0.11907884228E+03  0.41800000000E+01 0.  1.
        -11    1    1    2    0    0 -0.17499453595E+01  0.20249740909E+02 -0.15285814772E+02  0.25431681991E+02  0.00000000000E+00 0.  1.
         11    1    1    2    0    0  0.46095190814E+02 -0.39334074227E+02  0.49553892872E+02  0.78278504778E+02  0.00000000000E+00 0. -1.
</event>
<event>
 6    1  0.5317355E-006  0.7533748E+02  0.7561462E-02  0.1342829E+00
          3   -1    0    0  501    0  0.00000000000E+00  0.00000000000E+00  0.26274718049E+03  0.26274718049E+03  0.00000000000E+00 0. -1.
         -3   -1    0    0    0  501 -0.00000000000E+00 -0.00000000000E+00 -0.59236164649E+02  0.59236164649E+02  0.00000000000E+00 0.  1.
          5    1    1    2  502    0 -0.22417040344E+02  0.27003400915E+02  0.12452823181E+03  0.12944674688E+03  0.41800000000E+01 0.  1.
         -5    1    1    2    0  502 -0.11059083457E+02  0.25840323262E+02 -0.28520489470E+02  0.40260605470E+02  0.41800000000E+01 0.  1.
        -11    1    1    2    0    0 -0.17334009271E+02 -0.19748149072E+02 -0.27781278646E+01  0.26423006331E+02  0.00000000000E+00 0.  1.
         11    1    1    2    0    0  0.50810133072E+02 -0.33095575105E+02  0.11028140136E+03  0.12585298646E+03  0.00000000000E+00 0. -1.
</event>
<event>
 6    1  0.5317355E-006  0.1749646E+03  0.7561462E-02  0.1172767E+00
         -3   -1    0    0    0  501 -0.00000000000E+00  0.00000000000E+00  0.30114631910E+03  0.30114631910E+03  0.00000000000E+00 0.  1.
          3   -1    0    0  501    0  0.00000000000E+00 -0.00000000000E+00 -0.12986725220E+03  0.12986725220E+03  0.00000000000E+00 0. -1.
          5    1    1    2  502    0  0.70868545685E+02 -0.12281029656E+03  0.20733859162E+02  0.14335998404E+03  0.41800000000E+01 0. -1.
         -5    1    1    2    0  502  0.15568012545E+02  0.71465484054E+02  0.13258226376E+03  0.15147675561E+03  0.41800000000E+01 0.  1.
        -11    1    1    2    0    0 -0.21520462832E+01  0.50480786887E+02  0.34176146226E+01  0.50642089586E+02  0.00000000000E+00 0.  1.
         11    1    1    2    0    0 -0.84284511946E+02  0.86402561461E+00  0.14545329355E+02  0.85534742066E+02  0.00000000000E+00 0. -1.
</event>
<event>
 6    1  0.5317355E-006  0.1068317E+03  0.7561462E-02  0.1266552E+00
          1   -1    0    0  501    0  0.00000000000E+00  0.00000000000E+00  0.66446932308E+03  0.66446932308E+03  0.00000000000E+00 0. -1.
         -1   -1    0    0    0  501 -0.00000000000E+00 -0.00000000000E+00 -0.27230408674E+02  0.27230408674E+02  0.00000000000E+00 0.  1.
          5    1    1    2  502    0  0.86767788311E+02 -0.12688460418E+02  0.31981563882E+03  0.33164613875E+03  0.41800000000E+01 0.  1.
         -5    1    1    2    0  502 -0.17734238856E+02  0.45212337970E+02  0.74648667403E+02  0.89154667166E+02  0.41800000000E+01 0.  1.
        -11    1    1    2    0    0 -0.13821623345E+02 -0.17873484028E+01 -0.52940877021E+01  0.14908361775E+02  0.00000000000E+00 0.  1.
         11    1    1    2    0    0 -0.55211926111E+02 -0.30736529149E+02  0.24806869589E+03  0.25599056406E+03  0.00000000000E+00 0. -1.
</event>
<event>
 6    1  0.5317355E-006  0.9908002E+02  0.7561462E-02  0.1282243E+00
          1   -1    0    0  501    0  0.00000000000E+00  0.00000000000E+00  0.21387652618E+03  0.21387652618E+03  0.00000000000E+00 0. -1.
         -1   -1    0    0    0  501 -0.00000000000E+00 -0.00000000000E+00 -0.94398383388E+02  0.94398383388E+02  0.00000000000E+00 0.  1.
          5    1    1    2  502    0  0.90798962918E+02 -0.12705785690E+02 -0.30771348864E+02  0.96799984338E+02  0.41800000000E+01 0.  1.
         -5    1    1    2    0  502 -0.17697722581E+02  0.26192913562E+02  0.36997085889E+02  0.48841937612E+02  0.41800000000E+01 0.  1.
        -11    1    1    2    0    0 -0.40964075682E+02 -0.10014253273E+02  0.12205244468E+03  0.12913225785E+03  0.00000000000E+00 0. -1.
         11    1    1    2    0    0 -0.32137164655E+02 -0.34728745990E+01 -0.88000389144E+01  0.33500729767E+02  0.00000000000E+00 0.  1.
</event>
<event>
 6    1  0.5317355E-006  0.1598767E+03  0.7561462E-02  0.1188836E+00
         -1   -1    0    0    0  501 -0.00000000000E+00  0.00000000000E+00  0.75261892823E+02  0.75261892823E+02  0.00000000000E+00 0.  1.
          1   -1    0    0  501    0  0.00000000000E+00 -0.00000000000E+00 -0.44828211311E+03  0.44828211311E+03  0.00000000000E+00 0. -1.
          5    1    1    2  502    0 -0.74588975506E+02  0.39831251490E+02 -0.57756029123E+02  0.10248548757E+03  0.41800000000E+01 0.  1.
         -5    1    1    2    0  502 -0.44331643103E+02 -0.76949226492E+02 -0.24121547162E+02  0.92118399223E+02  0.41800000000E+01 0.  1.
        -11    1    1    2    0    0  0.65020270384E+02 -0.19632996065E+02 -0.18490190029E+03  0.19698173221E+03  0.00000000000E+00 0.  1.
         11    1    1    2    0    0  0.53900348225E+02  0.56750971067E+02 -0.10624074371E+03  0.13195838693E+03  0.00000000000E+00 0. -1.
</event>
<event>
 6    1  0.5317355E-006  0.1112234E+03  0.7561462E-02  0.1258321E+00
         -1   -1    0    0    0  501 -0.00000000000E+00  0.00000000000E+00  0.12818726707E+04  0.12818726707E+04  0.00000000000E+00 0.  1.
          1   -1    0    0  501    0  0.00000000000E+00 -0.00000000000E+00 -0.99458010462E+02  0.99458010462E+02  0.00000000000E+00 0. -1.
          5    1    1    2  502    0  0.11345927875E+02 -0.29685011047E+02 -0.17793464078E+01  0.32102467722E+02  0.41800000000E+01 0. -1.
         -5    1    1    2    0  502 -0.56096305183E+02  0.63010189929E+02  0.12305636876E+04  0.12334591769E+04  0.41800000000E+01 0.  1.
        -11    1    1    2    0    0 -0.10084079616E+02  0.24344062051E+02 -0.14225741486E+02  0.29944844960E+02  0.00000000000E+00 0.  1.
         11    1    1    2    0    0  0.54834456924E+02 -0.57669240933E+02 -0.32143939454E+02  0.85824191575E+02  0.00000000000E+00 0. -1.
</event>
<event>
 6    1  0.5317355E-006  0.9443748E+02  0.7561462E-02  0.1292448E+00
          3   -1    0    0  501    0  0.00000000000E+00  0.00000000000E+00  0.42736425154E+02  0.42736425154E+02  0.00000000000E+00 0. -1.
         -3   -1    0    0    0  501 -0.00000000000E+00 -0.00000000000E+00 -0.30414374090E+03  0.30414374090E+03  0.00000000000E+00 0.  1.
          5    1    1    2  502    0  0.50427024968E+02  0.93439298466E+01 -0.16813838294E+02  0.54132905245E+02  0.41800000000E+01 0. -1.
         -5    1    1    2    0  502 -0.49493625843E+02  0.28233297777E+02 -0.13223420799E+03  0.14404893705E+03  0.41800000000E+01 0. -1.
        -11    1    1    2    0    0  0.27311389117E+02  0.63707100145E+01 -0.85448236364E+02  0.89932747202E+02  0.00000000000E+00 0.  1.
         11    1    1    2    0    0 -0.28244788242E+02 -0.43947937638E+02 -0.26911033091E+02  0.58765576552E+02  0.00000000000E+00 0. -1.
</event>
<event>
 6    1  0.5317355E-006  0.1060566E+03  0.7561462E-02  0.1268052E+00
          3   -1    0    0  501    0  0.00000000000E+00  0.00000000000E+00  0.30947689123E+02  0.30947689123E+02  0.00000000000E+00 0. -1.
         -3   -1    0    0    0  501 -0.00000000000E+00 -0.00000000000E+00 -0.64993606926E+03  0.64993606926E+03  0.00000000000E+00 0.  1.
          5    1    1    2  502    0 -0.31864354389E+02  0.36867531403E+02 -0.22684524936E+03  0.23205773314E+03  0.41800000000E+01 0. -1.
         -5    1    1    2    0  502  0.66351643153E+02 -0.45520218315E+02 -0.30668473642E+03  0.31709246408E+03  0.41800000000E+01 0. -1.
        -11    1    1    2    0    0 -0.74511587724E+01  0.40314214006E+02 -0.52086690296E+01  0.41326575602E+02  0.00000000000E+00 0. -1.
         11    1    1    2    0    0 -0.27036129992E+02 -0.31661527094E+02 -0.80249725329E+02  0.90406985561E+02  0.00000000000E+00 0.  1.
</event>
<event>
 6    1  0.5317355E-006  0.1403386E+03  0.7561462E-02  0.1212874E+00
         -1   -1    0    0    0  501 -0.00000000000E+00  0.00000000000E+00  0.46445514659E+02  0.46445514659E+02  0.00000000000E+00 0.  1.
          1   -1    0    0  501    0  0.00000000000E+00 -0.00000000000E+00 -0.76406619626E+03  0.76406619626E+03  0.00000000000E+00 0. -1.
          5    1    1    2  502    0  0.51015671624E+02  0.19633551051E+02 -0.19965694814E+01  0.54859217710E+02  0.41800000000E+01 0. -1.
         -5    1    1    2    0  502 -0.95323375791E+01  0.83075547036E+02 -0.14620908822E+03  0.16848436679E+03  0.41800000000E+01 0. -1.
        -11    1    1    2    0    0 -0.35342797940E+02 -0.11930702329E+03 -0.47013760941E+03  0.48632566347E+03  0.00000000000E+00 0.  1.
         11    1    1    2    0    0 -0.61405361040E+01  0.16597925198E+02 -0.99277414494E+02  0.10084246295E+03  0.00000000000E+00 0. -1.
</event>
<event>
 6    1  0.5317355E-006  0.1069247E+03  0.7561462E-02  0.1266373E+00
          1   -1    0    0  501    0  0.00000000000E+00  0.00000000000E+00  0.44826675859E+02  0.44826675859E+02  0.00000000000E+00 0. -1.
         -1   -1    0    0    0  501 -0.00000000000E+00 -0.00000000000E+00 -0.44945982233E+03  0.44945982233E+03  0.00000000000E+00 0.  1.
          5    1    1    2  502    0  0.18580290717E+02  0.11867443971E+02 -0.23310509023E+03  0.23418266144E+03  0.41800000000E+01 0. -1.
         -5    1    1    2    0  502  0.41682599284E+02  0.54578304818E+02 -0.40740771512E+02  0.79959447867E+02  0.41800000000E+01 0. -1.
        -11    1    1    2    0    0 -0.53484562701E+02 -0.86354895544E+02 -0.97684643793E+02  0.14092571116E+03  0.00000000000E+00 0.  1.
         11    1    1    2    0    0 -0.67783273001E+01  0.19909146755E+02 -0.33102640944E+02  0.39218677731E+02  0.00000000000E+00 0. -1.
</event>
<event>
 6    1  0.5317355E-006  0.1240070E+03  0.7561462E-02  0.1236629E+00
         -1   -1    0    0    0  501 -0.00000000000E+00  0.00000000000E+00  0.96607304045E+02  0.96607304045E+02  0.00000000000E+00 0.  1.
          1   -1    0    0  501    0  0.00000000000E+00 -0.00000000000E+00 -0.25365546243E+03  0.25365546243E+03  0.00000000000E+00 0. -1.
          5    1    1    2  502    0 -0.97853345445E+02 -0.23834990918E+02  0.27774924188E+02  0.10455765309E+03  0.41800000000E+01 0.  1.
         -5    1    1    2    0  502  0.42167560319E+01 -0.30248943671E+02 -0.54953209641E+02  0.63008787280E+02  0.41800000000E+01 0.  1.
        -11    1    1    2    0    0  0.32279292003E+02 -0.32099853135E+01 -0.58901024635E+01  0.32968924838E+02  0.00000000000E+00 0.  1.
         11    1    1    2    0    0  0.61357297410E+02  0.57293919903E+02 -0.12397977047E+03  0.14972740126E+03  0.00000000000E+00 0. -1.
</event>
<event>
 6    1  0.5317355E-006  0.1031528E+03  0.7561462E-02  0.1273802E+00
          4   -1    0    0  501    0  0.00000000000E+00  0.00000000000E+00  0.23386213424E+03  0.23386213424E+03  0.00000000000E+00 0. -1.
         -4   -1    0    0    0  501 -0.00000000000E+00 -0.00000000000E+00 -0.52730667869E+02  0.52730667869E+02  0.00000000000E+00 0.  1.
          5    1    1    2  502    0  0.38904633035E+01 -0.50636486618E+02  0.63726735878E+02  0.81595090216E+02  0.41800000000E+01 0. -1.
         -5    1    1    2    0  502 -0.12695327407E+02  0.67427536441E+02  0.25907035976E+02  0.73459450866E+02  0.41800000000E+01 0. -1.
        -11    1    1    2    0    0  0.45103429502E+02 -0.21571956557E+02  0.25639991527E+02  0.56187879725E+02  0.00000000000E+00 0.  1.
         11    1    1    2    0    0 -0.36298565398E+02  0.47809067335E+01  0.65857702991E+02  0.75350381303E+02  0.00000000000E+00 0. -1.
</event>
<event>
 6    1  0.5317355E-006  0.8758491E+02  0.7561462E-02  0.1308808E+00
         -3   -1    0    0    0  501 -0.00000000000E+00  0.00000000000E+00  0.85981429099E+02  0.85981429099E+02  0.00000000000E+00 0.  1.
          3   -1    0    0  501    0  0.00000000000E+00 -0.00000000000E+00 -0.15507880301E+03  0.15507880301E+03  0.00000000000E+00 0. -1.
          5    1    1    2  502    0 -0.37360770595E+02  0.27712962820E+02 -0.43648665265E+01  0.46907994495E+02  0.41800000000E+01 0. -1.
         -5    1    1    2    0  502  0.38390837002E+02 -0.67151483592E+02 -0.26657595423E+01  0.77509720605E+02  0.41800000000E+01 0.  1.
        -11    1    1    2    0    0 -0.16650784365E+02  0.18710863650E+02 -0.80826249167E+02  0.84618128039E+02  0.00000000000E+00 0. -1.
         11    1    1    2    0    0  0.15620717958E+02  0.20727657122E+02  0.18759501321E+02  0.32024388973E+02  0.00000000000E+00 0.  1.
</event>
<event>
 6    1  0.5317355E-006  0.1571141E+03  0.7561462E-02  0.1191994E+00
         -2   -1    0    0    0  501 -0.00000000000E+00  0.00000000000E+00  0.74254020336E+03  0.74254020336E+03  0.00000000000E+00 0.  1.
          2   -1    0    0  501    0  0.00000000000E+00 -0.00000000000E+00 -0.34463102633E+02  0.34463102633E+02  0.00000000000E+00 0. -1.
          5    1    1    2  502    0  0.29154872653E+02  0.12089073408E+03  0.28555582551E+03  0.31148704318E+03  0.41800000000E+01 0. -1.
         -5    1    1    2    0  502  0.30124152348E+01 -0.89065461048E+02  0.25297923789E+03  0.26824932097E+03  0.41800000000E+01 0.  1.
        -11    1    1    2    0    0  0.24807195704E+02  0.13079145612E+02  0.41131304340E+02  0.49781976712E+02  0.00000000000E+00 0.  1.
         11    1    1    2    0    0 -0.56974483592E+02 -0.44904418640E+02  0.12841073298E+03  0.14748496512E+03  0.00000000000E+00 0. -1.
</event>
<event>
 6    1  0.5317355E-006  0.2488957E+03  0.7561462E-02  0.1114005E+00
         -2   -1    0    0    0  501 -0.00000000000E+00  0.00000000000E+00  0.45321637973E+02  0.45321637973E+02  0.00000000000E+00 0.  1.
          2   -1    0    0  501    0  0.00000000000E+00 -0.00000000000E+00 -0.15626165307E+04  0.15626165307E+04  0.00000000000E+00 0. -1.
          5    1    1    2  502    0 -0.12903700971E+02 -0.11925226271E+02 -0.16459248755E+02  0.24435543577E+02  0.41800000000E+01 0.  1.
         -5    1    1    2    0  502  0.22632876268E+03 -0.89512782551E+02 -0.60100304024E+03  0.64842838760E+03  0.41800000000E+01 0.  1.
        -11    1    1    2    0    0 -0.19649876590E+02  0.89508836155E+01 -0.20037930059E+02  0.29457674866E+02  0.00000000000E+00 0.  1.
         11    1    1    2    0    0 -0.19377518512E+03  0.92487125206E+02 -0.87979467369E+03  0.90561656265E+03  0.00000000000E+00 0. -1.
</event>
<event>
 6    1  0.5317355E-006  0.6908753E+02  0.7561462E-02  0.1363224E+00
          2   -1    0    0  501    0  0.00000000000E+00  0.00000000000E+00  0.81476334138E+02  0.81476334138E+02  0.00000000000E+00 0. -1.
         -2   -1    0    0    0  501 -0.00000000000E+00 -0.00000000000E+00 -0.23383999690E+03  0.23383999690E+03  0.00000000000E+00 0.  1.
          5    1    1    2  502    0 -0.11890965031E+02  0.40882263122E+02 -0.25370257551E+01  0.42856310936E+02  0.41800000000E+01 0. -1.
         -5    1    1    2    0  502  0.11278899947E+01 -0.18168870393E+02 -0.17379816659E+03  0.17479889901E+03  0.41800000000E+01 0. -1.
        -11    1    1    2    0    0 -0.31054728678E+02 -0.57175471831E+01 -0.17724204782E+02  0.36210964558E+02  0.00000000000E+00 0.  1.
         11    1    1    2    0    0  0.41817803714E+02 -0.16995845546E+02  0.41695734364E+02  0.61450156529E+02  0.00000000000E+00 0. -1.
</event>
<event>
 6    1  0.5317355E-006  0.8490667E+02  0.7561462E-02  0.1315677E+00
          1   -1    0    0  501    0  0.00000000000E+00  0.00000000000E+00  0.14685926429E+03  0.14685926429E+03  0.00000000000E+00 0. -1.
         -1   -1    0    0    0  501 -0.00000000000E+00 -0.00000000000E+00 -0.10254624869E+03  0.10254624869E+03  0.00000000000E+00 0.  1.
          5    1    1    2  502    0  0.20295598994E+02  0.24357886601E+02 -0.36051228351E+02  0.48191092993E+02  0.41800000000E+01 0. -1.
         -5    1    1    2    0  502 -0.76348034409E+02 -0.11164117497E+02  0.34854957700E+02  0.84770279897E+02  0.41800000000E+01 0.  1.
        -11    1    1    2    0    0  0.21258816425E+02  0.41873243463E+01 -0.26724808040E+02  0.34404742779E+02  0.00000000000E+00 0.  1.
         11    1    1    2    0    0  0.34793618990E+02 -0.17381093450E+02  0.72234094289E+02  0.82039397302E+02  0.00000000000E+00 0. -1.
</event>
<event>
 6    1  0.5317355E-006  0.1613123E+03  0.7561462E-02  0.1187223E+00
          1   -1    0    0  501    0  0.00000000000E+00  0.00000000000E+00  0.20443346328E+03  0.20443346328E+03  0.00000000000E+00 0. -1.
         -1   -1    0    0    0  501 -0.00000000000E+00 -0.00000000000E+00 -0.13380110444E+03  0.13380110444E+03  0.00000000000E+00 0.  1.
          5    1    1    2  502    0  0.60812024692E+02 -0.47112208929E+02 -0.20667212539E+01  0.77067543843E+02  0.41800000000E+01 0.  1.
         -5    1    1    2    0  502 -0.62711883868E+02 -0.72905405350E+02  0.28256797740E+01  0.96298677944E+02  0.41800000000E+01 0.  1.
        -11    1    1    2    0    0 -0.40128388435E+02  0.30396441624E+02  0.23936341525E+02  0.55742081657E+02  0.00000000000E+00 0.  1.
         11    1    1    2    0    0  0.42028247612E+02  0.89621172656E+02  0.45937058794E+02  0.10912626428E+03  0.00000000000E+00 0. -1.
</event>
<event>
 6    1  0.5317355E-006  0.1364991E+03  0.7561462E-02  0.1218119E+00
         -4   -1    0    0    0  501 -0.00000000000E+00  0.00000000000E+00  0.70466828416E+03  0.70466828416E+03  0.00000000000E+00 0.  1.
          4   -1    0    0  501    0  0.00000000000E+00 -0.00000000000E+00 -0.44487040596E+02  0.44487040596E+02  0.00000000000E+00 0. -1.
          5    1    1    2  502    0 -0.21981434227E+02  0.23636596259E+02  0.30402024861E+03  0.30575751192E+03  0.41800000000E+01 0. -1.
         -5    1    1    2    0  502 -0.10501916564E+03 -0.31745962755E+01  0.15710062767E+03  0.18904280687E+03  0.41800000000E+01 0. -1.
        -11    1    1    2    0    0  0.10057480955E+03  0.20348699047E+01  0.19499348778E+03  0.21941260969E+03  0.00000000000E+00 0.  1.
         11    1    1    2    0    0  0.26425790322E+02 -0.22496869888E+02  0.40668794980E+01  0.34942396279E+02  0.00000000000E+00 0. -1.
</event>
<event>
 6    1  0.5317355E-006  0.9815606E+02  0.7561462E-02  0.1284222E+00
          1   -1    0    0  501    0  0.00000000000E+00  0.00000000000E+00  0.78169310891E+02  0.78169310891E+02  0.00000000000E+00 0. -1.
         -1   -1    0    0    0  501 -0.00000000000E+00 -0.00000000000E+00 -0.16002795889E+03  0.16002795889E+03  0.00000000000E+00 0.  1.
          5    1    1    2  502    0 -0.27602912530E+02  0.44801860379E+02 -0.90351038536E+01  0.53555886466E+02  0.41800000000E+01 0.  1.
         -5    1    1    2    0  502  0.31583501227E+02 -0.58151491667E+02 -0.63064280906E+02  0.91507865558E+02  0.41800000000E+01 0.  1.
        -11    1    1    2    0    0 -0.25295496882E+02 -0.23577526221E+02 -0.30143859301E+02  0.45873894088E+02  0.00000000000E+00 0.  1.
         11    1    1    2    0    0  0.21314908185E+02  0.36927157510E+02  0.20384596062E+02  0.47259623669E+02  0.00000000000E+00 0. -1.
</event>
<event>
 6    1  0.5317355E-006  0.7896671E+02  0.7561462E-02  0.1332010E+00
         -1   -1    0    0    0  501 -0.00000000000E+00  0.00000000000E+00  0.14619342502E+03  0.14619342502E+03  0.00000000000E+00 0.  1.
          1   -1    0    0  501    0  0.00000000000E+00 -0.00000000000E+00 -0.16672527232E+03  0.16672527232E+03  0.00000000000E+00 0. -1.
          5    1    1    2  502    0 -0.12441887070E+02  0.10202726959E+02 -0.26206061472E+02  0.31034275392E+02  0.41800000000E+01 0. -1.
         -5    1    1    2    0  502  0.27067136496E+02  0.34097911415E+02  0.11948444296E+03  0.12723718776E+03  0.41800000000E+01 0.  1.
        -11    1    1    2    0    0 -0.50157927685E+02 -0.33938708871E+02 -0.41503611782E+02  0.73418005015E+02  0.00000000000E+00 0.  1.
         11    1    1    2    0    0  0.35532678258E+02 -0.10361929504E+02 -0.72306617011E+02  0.81229229165E+02  0.00000000000E+00 0. -1.
</event>
<event>
 6    1  0.5317355E-006  0.1263247E+03  0.7561462E-02  0.1233013E+00
          1   -1    0    0  501    0  0.00000000000E+00  0.00000000000E+00  0.14031415472E+03  0.14031415472E+03  0.00000000000E+00 0. -1.
         -1   -1    0    0    0  501 -0.00000000000E+00 -0.00000000000E+00 -0.31137685796E+03  0.31137685796E+03  0.00000000000E+00 0.  1.
          5    1    1    2  502    0 -0.71268066817E+02 -0.58005912375E+01 -0.46878414698E+02  0.85602817542E+02  0.41800000000E+01 0. -1.
         -5    1    1    2    0  502 -0.27129054018E+02  0.35540844873E+02 -0.20339590294E+03  0.20829427011E+03  0.41800000000E+01 0.  1.
        -11    1    1    2    0    0  0.11483065414E+03 -0.18760904198E+02  0.63549791571E+02  0.13257687077E+03  0.00000000000E+00 0.  1.
         11    1    1    2    0    0 -0.16433533301E+02 -0.10979349438E+02  0.15661822833E+02  0.25217054255E+02  0.00000000000E+00 0. -1.
</event>
<event>
 6    1  0.5317355E-006  0.1280585E+03  0.7561462E-02  0.1230365E+00
          2   -1    0    0  501    0  0.00000000000E+00  0.00000000000E+00  0.24921260367E+03  0.24921260367E+03  0.00000000000E+00 0. -1.
         -2   -1    0    0    0  501 -0.00000000000E+00 -0.00000000000E+00 -0.15519048686E+03  0.15519048686E+03  0.00000000000E+00 0.  1.
          5    1    1    2  502    0 -0.72738010456E+01  0.13683677496E+02  0.22880551201E+02  0.27948939778E+02  0.41800000000E+01 0.  1.
         -5    1    1    2    0  502  0.11439806498E+03 -0.29555832675E+02 -0.98862507799E+02  0.15411597051E+03  0.41800000000E+01 0.  1.
        -11    1    1    2    0    0 -0.75683774325E+02  0.36712170642E+02  0.16376518086E+03  0.18410554481E+03  0.00000000000E+00 0. -1.
         11    1    1    2    0    0 -0.31440489612E+02 -0.20840015464E+02  0.62388925501E+01  0.38232635429E+02  0.00000000000E+00 0.  1.
</event>
<event>
 6    1  0.5317355E-006  0.1396796E+03  0.7561462E-02  0.1213761E+00
          1   -1    0    0  501    0  0.00000000000E+00  0.00000000000E+00  0.58999111510E+03  0.58999111510E+03  0.00000000000E+00 0. -1.
         -1   -1    0    0    0  501 -0.00000000000E+00 -0.00000000000E+00 -0.38609971004E+02  0.38609971004E+02  0.00000000000E+00 0.  1.
          5    1    1    2  502    0 -0.75137882992E+01 -0.28614481916E+02  0.57564717325E+02  0.64856878360E+02  0.41800000000E+01 0. -1.
         -5    1    1    2    0  502  0.52990099350E+02  0.12045483082E+03  0.22152940013E+03  0.25770150255E+03  0.41800000000E+01 0. -1.
        -11    1    1    2    0    0 -0.10965954221E+02 -0.80865775873E+02  0.95649611358E+02  0.12573135652E+03  0.00000000000E+00 0.  1.
         11    1    1    2    0    0 -0.34510356830E+02 -0.10974573028E+02  0.17663741529E+03  0.18031134867E+03  0.00000000000E+00 0. -1.
</event>
<event>
 6    1  0.5317355E-006  0.1185218E+03  0.7561462E-02  0.1245556E+00
          1   -1    0    0  501    0  0.00000000000E+00  0.00000000000E+00  0.19204975340E+03  0.19204975340E+03  0.00000000000E+00 0. -1.
         -1   -1    0    0    0  501 -0.00000000000E+00 -0.00000000000E+00 -0.99545448806E+02  0.99545448806E+02  0.00000000000E+00 0.  1.
          5    1    1    2  502    0  0.16210488894E+02 -0.87513644538E+02 -0.14113401616E+02  0.90211298825E+02  0.41800000000E+01 0. -1.
         -5    1    1    2    0  502  0.41550225009E+02  0.32640431582E+02  0.24708399536E+02  0.58479025126E+02  0.41800000000E+01 0. -1.
        -11    1    1    2    0    0  0.97194704397E+01  0.43831035102E+01  0.52609030060E+02  0.53678578091E+02  0.00000000000E+00 0. -1.
         11    1    1    2    0    0 -0.67480184343E+02  0.50490109446E+02  0.29300276610E+02  0.89226300160E+02  0.00000000000E+00 0.  1.
</event>
<event>
 6    1  0.5317355E-006  0.1232922E+03  0.7561462E-02  0.1237763E+00
         -3   -1    0    0    0  501 -0.00000000000E+00  0.00000000000E+00  0.27203409015E+03  0.27203409015E+03  0.00000000000E+00 0.  1.
          3   -1    0    0  501    0  0.00000000000E+00 -0.00000000000E+00 -0.12936472871E+03  0.12936472871E+03  0.00000000000E+00 0. -1.
          5    1    1    2  502    0 -0.20067420153E+02 -0.60408387577E+01  0.55437401075E+00  0.21376922488E+02  0.41800000000E+01 0. -1.
         -5    1    1    2    0  502  0.58358779915E+02  0.82721373216E+02  0.21325694190E+03  0.23610287684E+03  0.41800000000E+01 0.  1.
        -11    1    1    2    0    0  0.23846805560E+02 -0.51675843464E+02 -0.22773449572E+02  0.61300023968E+02  0.00000000000E+00 0.  1.
         11    1    1    2    0    0 -0.62138165322E+02 -0.25004690995E+02 -0.48368504902E+02  0.82618995562E+02  0.00000000000E+00 0. -1.
</event>
<event>
 6    1  0.5317355E-006  0.1677015E+03  0.7561462E-02  0.1180266E+00
          2   -1    0    0  501    0  0.00000000000E+00  0.00000000000E+00  0.97986047703E+03  0.97986047703E+03  0.00000000000E+00 0. -1.
         -2   -1    0    0    0  501 -0.00000000000E+00 -0.00000000000E+00 -0.31893530202E+02  0.31893530202E+02  0.00000000000E+00 0.  1.
          5    1    1    2  502    0 -0.91907809219E+02 -0.31618808339E+02  0.28571591910E+03  0.30182420920E+03  0.41800000000E+01 0. -1.
         -5    1    1    2    0  502 -0.37218953315E+02  0.80812649132E+02  0.27318992913E+03  0.28734325210E+03  0.41800000000E+01 0. -1.
        -11    1    1    2    0    0  0.59744467109E+02  0.64749189703E+01  0.25291261520E+03  0.25995406682E+03  0.00000000000E+00 0.  1.
         11    1    1    2    0    0  0.69382295425E+02 -0.55668759763E+02  0.13614848339E+03  0.16263247911E+03  0.00000000000E+00 0. -1.
</event>
<event>
 6    1  0.5317355E-006  0.1228187E+03  0.7561462E-02  0.1238518E+00
         -2   -1    0    0    0  501 -0.00000000000E+00  0.00000000000E+00  0.42124179506E+03  0.42124179506E+03  0.00000000000E+00 0.  1.
          2   -1    0    0  501    0  0.00000000000E+00 -0.00000000000E+00 -0.47758863521E+02  0.47758863521E+02  0.00000000000E+00 0. -1.
          5    1    1    2  502    0 -0.46504423296E+02  0.62037953397E+02  0.16957018526E+03  0.18650171361E+03  0.41800000000E+01 0.  1.
         -5    1    1    2    0  502 -0.21606045812E+02 -0.60517652799E+02  0.11878911597E+03  0.13512044252E+03  0.41800000000E+01 0.  1.
        -11    1    1    2    0    0  0.44952844436E+01 -0.32521078766E+02  0.66561668459E+02  0.74217813592E+02  0.00000000000E+00 0.  1.
         11    1    1    2    0    0  0.63615184664E+02  0.31000778168E+02  0.18561961853E+02  0.73160688861E+02  0.00000000000E+00 0. -1.
</event>
<event>
 6    1  0.5317355E-006  0.1113010E+03  0.7561462E-02  0.1258179E+00
          2   -1    0    0  501    0  0.00000000000E+00  0.00000000000E+00  0.54066238196E+03  0.54066238196E+03  0.00000000000E+00 0. -1.
         -2   -1    0    0    0  501 -0.00000000000E+00 -0.00000000000E+00 -0.36888696163E+02  0.36888696163E+02  0.00000000000E+00 0.  1.
          5    1    1    2  502    0  0.22039745435E+02  0.63471995842E+02  0.25790641417E+02  0.72090736019E+02  0.41800000000E+01 0. -1.
         -5    1    1    2    0  502  0.35212596456E+02 -0.38217154184E+02  0.11549936398E+03  0.12672037446E+03  0.41800000000E+01 0. -1.
        -11    1    1    2    0    0 -0.34674571706E+01 -0.45535252027E+02  0.22731351760E+03  0.23185538105E+03  0.00000000000E+00 0. -1.
         11    1    1    2    0    0 -0.53784884721E+02  0.20280410369E+02  0.13517016280E+03  0.14688458660E+03  0.00000000000E+00 0.  1.
</event>
<event>
 6    1  0.5317355E-006  0.1137405E+03  0.7561462E-02  0.1253796E+00
          1   -1    0    0  501    0  0.00000000000E+00  0.00000000000E+00  0.53347360552E+03  0.53347360552E+03  0.00000000000E+00 0. -1.
         -1   -1    0    0    0  501 -0.00000000000E+00 -0.00000000000E+00 -0.35372463271E+02  0.35372463271E+02  0.00000000000E+00 0.  1.
          5    1    1    2  502    0 -0.10979505268E+02  0.25220008053E+02  0.10333346408E+03  0.10701343627E+03  0.41800000000E+01 0. -1.
         -5    1    1    2    0  502  0.13977260900E+02 -0.10553049035E+03  0.11117076674E+03  0.15397551752E+03  0.41800000000E+01 0. -1.
        -11    1    1    2    0    0 -0.22276551767E+02  0.64349281583E+02  0.27177637556E+03  0.28017757425E+03  0.00000000000E+00 0. -1.
         11    1    1    2    0    0  0.19278796134E+02  0.15961200719E+02  0.11820535871E+02  0.27679540767E+02  0.00000000000E+00 0.  1.
</event>
<event>
 6    1  0.5317355E-006  0.1325116E+03  0.7561462E-02  0.1223776E+00
         -2   -1    0    0    0  501 -0.00000000000E+00  0.00000000000E+00  0.10756921477E+03  0.10756921477E+03  0.00000000000E+00 0.  1.
          2   -1    0    0  501    0  0.00000000000E+00 -0.00000000000E+00 -0.17952066168E+03  0.17952066168E+03  0.00000000000E+00 0. -1.
          5    1    1    2  502    0  0.97388969623E+02  0.30336944674E+02 -0.41898923821E+02  0.11035367612E+03  0.41800000000E+01 0.  1.
         -5    1    1    2    0  502 -0.13401492618E+02 -0.46200083278E+02 -0.66833759195E+01  0.48746154853E+02  0.41800000000E+01 0.  1.
        -11    1    1    2    0    0  0.79255840532E+01 -0.15600262397E+02  0.15478516300E+02  0.23361668097E+02  0.00000000000E+00 0.  1.
         11    1    1    2    0    0 -0.91913061058E+02  0.31463401001E+02 -0.38847663473E+02  0.10462837738E+03  0.00000000000E+00 0. -1.
</event>
<event>
 6    1  0.5317355E-006  0.1358463E+03  0.7561462E-02  0.1219030E+00
         -2   -1    0    0    0  501 -0.00000000000E+00  0.00000000000E+00  0.89922679594E+02  0.89922679594E+02  0.00000000000E+00 0.  1.
          2   -1    0    0  501    0  0.00000000000E+00 -0.00000000000E+00 -0.31744344509E+03  0.31744344509E+03  0.00000000000E+00 0. -1.
          5    1    1    2  502    0  0.73080487858E+02 -0.17094649771E+02 -0.11553580447E+03  0.13783678490E+03  0.41800000000E+01 0. -1.
         -5    1    1    2    0  502  0.30117121412E+02 -0.58676728396E+02  0.14563367338E+02  0.67672472436E+02  0.41800000000E+01 0. -1.
        -11    1    1    2    0    0 -0.38889554526E+02  0.14188277908E+02  0.63572337044E+01  0.41882205071E+02  0.00000000000E+00 0.  1.
         11    1    1    2    0    0 -0.64308054744E+02  0.61583100259E+02 -0.13290556206E+03  0.15997466227E+03  0.00000000000E+00 0. -1.
</event>
<event>
 6    1  0.5317355E-006  0.1839994E+03  0.7561462E-02  0.1163988E+00
         -1   -1    0    0    0  501 -0.00000000000E+00  0.00000000000E+00  0.19933132893E+03  0.19933132893E+03  0.00000000000E+00 0.  1.
          1   -1    0    0  501    0  0.00000000000E+00 -0.00000000000E+00 -0.27607473829E+03  0.27607473829E+03  0.00000000000E+00 0. -1.
          5    1    1    2  502    0  0.14538469254E+03  0.69815596321E+02  0.10381566709E+03  0.19184913721E+03  0.41800000000E+01 0.  1.
         -5    1    1    2    0  502  0.43636321816E+01  0.18828785548E+02 -0.29040647532E+02  0.35133973019E+02  0.41800000000E+01 0.  1.
        -11    1    1    2    0    0 -0.98850881538E+02 -0.19048395471E+02 -0.42106158598E+02  0.10912042312E+03  0.00000000000E+00 0.  1.
         11    1    1    2    0    0 -0.50897443183E+02 -0.69595986399E+02 -0.10941227032E+03  0.13930253387E+03  0.00000000000E+00 0. -1.
</event>
<event>
 6    1  0.5317355E-006  0.1032687E+03  0.7561462E-02  0.1273569E+00
          2   -1    0    0  501    0  0.00000000000E+00  0.00000000000E+00  0.57092347423E+03  0.57092347423E+03  0.00000000000E+00 0.  1.
         -2   -1    0    0    0  501 -0.00000000000E+00 -0.00000000000E+00 -0.19499864119E+02  0.19499864119E+02  0.00000000000E+00 0. -1.
          5    1    1    2  502    0  0.15100814535E+02 -0.59308037707E+02  0.12364594133E+03  0.13802633496E+03  0.41800000000E+01 0.  1.
         -5    1    1    2    0  502 -0.26106423805E+02  0.57818596086E+02  0.16012802391E+03  0.17228752671E+03  0.41800000000E+01 0.  1.
        -11    1    1    2    0    0 -0.33558724692E+02  0.12332864878E+02  0.13915935438E+03  0.14367885534E+03  0.00000000000E+00 0.  1.
         11    1    1    2    0    0  0.44564333962E+02 -0.10843423257E+02  0.12849029049E+03  0.13643062134E+03  0.00000000000E+00 0. -1.
</event>
<event>
 6    1  0.5317355E-006  0.1040022E+03  0.7561462E-02  0.1272098E+00
          1   -1    0    0  501    0  0.00000000000E+00  0.00000000000E+00  0.27577417094E+03  0.27577417094E+03  0.00000000000E+00 0.  1.
         -1   -1    0    0    0  501 -0.00000000000E+00 -0.00000000000E+00 -0.55841822379E+02  0.55841822379E+02  0.00000000000E+00 0. -1.
          5    1    1    2  502    0  0.39823363159E+02 -0.24384630884E+02  0.31530942228E+01  0.46988561160E+02  0.41800000000E+01 0. -1.
         -5    1    1    2    0  502 -0.72190705042E+02  0.27565008213E+02  0.53851580366E+02  0.94280393933E+02  0.41800000000E+01 0. -1.
        -11    1    1    2    0    0  0.10874448288E+02 -0.39807982607E+02  0.30606430878E+02  0.51377842655E+02  0.00000000000E+00 0. -1.
         11    1    1    2    0    0  0.21492893595E+02  0.36627605279E+02  0.13232124310E+03  0.13896919557E+03  0.00000000000E+00 0.  1.
</event>
<event>
 6    1  0.5317355E-006  0.1130495E+03  0.7561462E-02  0.1255025E+00
         -1   -1    0    0    0  501 -0.00000000000E+00  0.00000000000E+00  0.72939589554E+02  0.72939589554E+02  0.00000000000E+00 0.  1.
          1   -1    0    0  501    0  0.00000000000E+00 -0.00000000000E+00 -0.25997253162E+03  0.25997253162E+03  0.00000000000E+00 0. -1.
          5    1    1    2  502    0 -0.70224255682E+02  0.44236286325E+02 -0.63192925990E+02  0.10439881900E+03  0.41800000000E+01 0.  1.
         -5    1    1    2    0  502 -0.10555354915E+01 -0.44103010570E+02  0.15999490230E+02  0.47113116901E+02  0.41800000000E+01 0.  1.
        -11    1    1    2    0    0  0.22169150487E+02 -0.32881463522E+02 -0.13397912106E+02  0.41858881082E+02  0.00000000000E+00 0.  1.
         11    1    1    2    0    0  0.49110640686E+02  0.32748187767E+02 -0.12644159420E+03  0.13954130419E+03  0.00000000000E+00 0. -1.
</event>
<event>
 6    1  0.5317355E-006  0.1461459E+03  0.7561462E-02  0.1205290E+00
         -1   -1    0    0    0  501 -0.00000000000E+00  0.00000000000E+00  0.82108318013E+02  0.82108318013E+02  0.00000000000E+00 0.  1.
          1   -1    0    0  501    0  0.00000000000E+00 -0.00000000000E+00 -0.39604447267E+03  0.39604447267E+03  0.00000000000E+00 0. -1.
          5    1    1    2  502    0 -0.20971302991E+02 -0.19589162316E+02  0.25076294120E+02  0.38338280559E+02  0.41800000000E+01 0. -1.
         -5    1    1    2    0  502 -0.75321868006E+02 -0.84232325159E+02 -0.15130913000E+03  0.18889254518E+03  0.41800000000E+01 0. -1.
        -11    1    1    2    0    0  0.66413000107E+02  0.10006887516E+03 -0.94046270488E+02  0.15254234610E+03  0.00000000000E+00 0.  1.
         11    1    1    2    0    0  0.29880170890E+02  0.37526123128E+01 -0.93657048280E+02  0.98379618845E+02  0.00000000000E+00 0. -1.
</event>
<event>
 6    1  0.5317355E-006  0.1581323E+03  0.7561462E-02  0.1190822E+00
         -1   -1    0    0    0  501 -0.00000000000E+00  0.00000000000E+00  0.10457233412E+03  0.10457233412E+03  0.00000000000E+00 0.  1.
          1   -1    0    0  501    0  0.00000000000E+00 -0.00000000000E+00 -0.28681227810E+03  0.28681227810E+03  0.00000000000E+00 0. -1.
          5    1    1    2  502    0  0.53969114212E+02 -0.70008197854E+02 -0.55715871515E+02  0.10457315045E+03  0.41800000000E+01 0. -1.
         -5    1    1    2    0  502  0.74444433043E+02  0.65084307348E+02 -0.31015499360E+02  0.10371776258E+03  0.41800000000E+01 0.  1.
        -11    1    1    2    0    0 -0.43727160692E+02  0.57800582737E+01 -0.87546032948E+02  0.98029493218E+02  0.00000000000E+00 0. -1.
         11    1    1    2    0    0 -0.84686386563E+02 -0.85616776786E+00 -0.79625401521E+01  0.85064205974E+02  0.00000000000E+00 0.  1.
</event>
<event>
 6    1  0.6198039E-006  0.1541112E+03  0.7561462E-02  0.1195510E+00
         -1   -1    0    0    0  501 -0.00000000000E+00  0.00000000000E+00  0.93650590838E+02  0.93650590838E+02  0.00000000000E+00 0.  1.
          1   -1    0    0  501    0  0.00000000000E+00 -0.00000000000E+00 -0.28069144498E+03  0.28069144498E+03  0.00000000000E+00 0. -1.
          5    1    1    2  502    0  0.19025116130E+02 -0.89274195990E+02 -0.54470691085E+02  0.10637840806E+03  0.41800000000E+01 0. -1.
         -5    1    1    2    0  502 -0.77135914347E+02 -0.13132864952E+02 -0.20082251349E+02  0.80889990995E+02  0.41800000000E+01 0. -1.
        -11    1    1    2    0    0  0.73489994130E+02  0.65251585399E+02 -0.10891837902E+03  0.14670297176E+03  0.00000000000E+00 0.  1.
         11    1    1    2    0    0 -0.15379195913E+02  0.37155475544E+02 -0.35695326917E+01  0.40370665011E+02  0.00000000000E+00 0. -1.
</event>
<event>
 6    1  0.5317355E-006  0.3046790E+03  0.7561462E-02  0.1082925E+00
          1   -1    0    0  501    0  0.00000000000E+00  0.00000000000E+00  0.63334128074E+03  0.63334128074E+03  0.00000000000E+00 0. -1.
         -1   -1    0    0    0  501 -0.00000000000E+00 -0.00000000000E+00 -0.17199601902E+03  0.17199601902E+03  0.00000000000E+00 0.  1.
          5    1    1    2  502    0 -0.34396006934E+02  0.17346704787E+03  0.25605044048E+02  0.17873721681E+03  0.41800000000E+01 0.  1.
         -5    1    1    2    0  502 -0.10406208534E+03  0.86619887259E+02  0.85037976567E+02  0.15994015234E+03  0.41800000000E+01 0.  1.
        -11    1    1    2    0    0  0.45817698637E+02 -0.12561747227E+03  0.22023529170E+03  0.25764819922E+03  0.00000000000E+00 0.  1.
         11    1    1    2    0    0  0.92640393634E+02 -0.13446946286E+03  0.13046694939E+03  0.20901173139E+03  0.00000000000E+00 0. -1.
</event>
<event>
 6    1  0.5317355E-006  0.1208109E+03  0.7561462E-02  0.1241765E+00
         -1   -1    0    0    0  501 -0.00000000000E+00  0.00000000000E+00  0.32811207385E+03  0.32811207385E+03  0.00000000000E+00 0.  1.
          1   -1    0    0  501    0  0.00000000000E+00 -0.00000000000E+00 -0.11600616594E+03  0.11600616594E+03  0.00000000000E+00 0. -1.
          5    1    1    2  502    0  0.78817393470E+02 -0.24699038926E+02  0.16563882054E+03  0.18513755780E+03  0.41800000000E+01 0. -1.
         -5    1    1    2    0  502 -0.46216179911E+02 -0.41706826895E+02  0.10982445330E+03  0.12631024360E+03  0.41800000000E+01 0. -1.
        -11    1    1    2    0    0 -0.54080344390E+01 -0.12202645839E+02  0.13811973614E+02  0.19207342791E+02  0.00000000000E+00 0.  1.
         11    1    1    2    0    0 -0.27193179121E+02  0.78608511661E+02 -0.77169339546E+02  0.11346309560E+03  0.00000000000E+00 0. -1.
</event>
<event>
 6    1  0.5317355E-006  0.9422238E+02  0.7561462E-02  0.1292937E+00
         -1   -1    0    0    0  501 -0.00000000000E+00  0.00000000000E+00  0.10561311175E+03  0.10561311175E+03  0.00000000000E+00 0.  1.
          1   -1    0    0  501    0  0.00000000000E+00 -0.00000000000E+00 -0.16571086221E+03  0.16571086221E+03  0.00000000000E+00 0. -1.
          5    1    1    2  502    0  0.39808712674E+02  0.50416037158E+00  0.40342665373E+02  0.56833008295E+02  0.41800000000E+01 0.  1.
         -5    1    1    2    0  502 -0.20595971031E+02 -0.68759273762E+02 -0.49401269078E+02  0.87235253983E+02  0.41800000000E+01 0.  1.
        -11    1    1    2    0    0  0.61868886661E+01  0.29752193952E+02  0.24305455429E+02  0.38913054364E+02  0.00000000000E+00 0.  1.
         11    1    1    2    0    0 -0.25399630309E+02  0.38502919439E+02 -0.75344602183E+02  0.88342657325E+02  0.00000000000E+00 0. -1.
</event>
<event>
 6    1  0.5317355E-006  0.9066421E+02  0.7561462E-02  0.1301251E+00
         -2   -1    0    0    0  501 -0.00000000000E+00  0.00000000000E+00  0.72704084394E+02  0.72704084394E+02  0.00000000000E+00 0.  1.
          2   -1    0    0  501    0  0.00000000000E+00 -0.00000000000E+00 -0.25113561674E+03  0.25113561674E+03  0.00000000000E+00 0. -1.
          5    1    1    2  502    0  0.18072288357E+02  0.49063963695E+02 -0.10742202737E+03  0.11954432025E+03  0.41800000000E+01 0. -1.
         -5    1    1    2    0  502  0.45625522667E+02  0.72301680845E+00  0.23410817280E+02  0.51456290554E+02  0.41800000000E+01 0. -1.
        -11    1    1    2    0    0 -0.12920954289E+02 -0.21074490145E+02 -0.91119456099E+02  0.94413137192E+02  0.00000000000E+00 0. -1.
         11    1    1    2    0    0 -0.50776856734E+02 -0.28712490358E+02 -0.33008661531E+01  0.58425953135E+02  0.00000000000E+00 0.  1.
</event>
<event>
 6    1  0.5317355E-006  0.1367457E+03  0.7561462E-02  0.1217776E+00
          3   -1    0    0  501    0  0.00000000000E+00  0.00000000000E+00  0.10822704240E+03  0.10822704240E+03  0.00000000000E+00 0. -1.
         -3   -1    0    0    0  501 -0.00000000000E+00 -0.00000000000E+00 -0.19804503272E+03  0.19804503272E+03  0.00000000000E+00 0.  1.
          5    1    1    2  502    0  0.94474758131E+02 -0.18780694646E+02 -0.52330139668E+02  0.10970009267E+03  0.41800000000E+01 0.  1.
         -5    1    1    2    0  502 -0.10852181840E+02  0.57889148013E+02 -0.30956203439E+02  0.66668450108E+02  0.41800000000E+01 0.  1.
        -11    1    1    2    0    0 -0.97487254314E+02 -0.33657498284E+02  0.14481023617E+02  0.10414553274E+03  0.00000000000E+00 0. -1.
         11    1    1    2    0    0  0.13864678024E+02 -0.54509550830E+01 -0.21012670825E+02  0.25757999597E+02  0.00000000000E+00 0.  1.
</event>
<event>
 6    1  0.5317355E-006  0.1579392E+03  0.7561462E-02  0.1191043E+00
          1   -1    0    0  501    0  0.00000000000E+00  0.00000000000E+00  0.36483039769E+03  0.36483039769E+03  0.00000000000E+00 0. -1.
         -1   -1    0    0    0  501 -0.00000000000E+00 -0.00000000000E+00 -0.82524133958E+02  0.82524133958E+02  0.00000000000E+00 0.  1.
          5    1    1    2  502    0 -0.10478190762E+02 -0.18915882307E+02  0.47468207416E+02  0.52328827623E+02  0.41800000000E+01 0.  1.
         -5    1    1    2    0  502 -0.24849064543E+01  0.15469403459E+03  0.99403944921E+02  0.18394302315E+03  0.41800000000E+01 0.  1.
        -11    1    1    2    0    0  0.96717863546E+00 -0.11563388203E+03  0.56427871025E+02  0.12867103302E+03  0.00000000000E+00 0.  1.
         11    1    1    2    0    0  0.11995918580E+02 -0.20144270249E+02  0.79006240370E+02  0.82411647865E+02  0.00000000000E+00 0. -1.
</event>
<event>
 6    1  0.5317355E-006  0.1277909E+03  0.7561462E-02  0.1230771E+00
          1   -1    0    0  501    0  0.00000000000E+00  0.00000000000E+00  0.11192781474E+03  0.11192781474E+03  0.00000000000E+00 0. -1.
         -1   -1    0    0    0  501 -0.00000000000E+00 -0.00000000000E+00 -0.23747825469E+03  0.23747825469E+03  0.00000000000E+00 0.  1.
          5    1    1    2  502    0 -0.12561889379E+02 -0.12858561526E+01  0.19641305314E+02  0.23721462123E+02  0.41800000000E+01 0. -1.
         -5    1    1    2    0  502  0.35797376861E+02 -0.10305300113E+03 -0.15363662819E+03  0.18847561952E+03  0.41800000000E+01 0. -1.
        -11    1    1    2    0    0 -0.50672687751E+00  0.10974336175E+03  0.19332110757E+02  0.11143425293E+03  0.00000000000E+00 0. -1.
         11    1    1    2    0    0 -0.22728760605E+02 -0.54045044692E+01 -0.10887227834E+02  0.25774734860E+02  0.00000000000E+00 0.  1.
</event>
<event>
 6    1  0.5317355E-006  0.8421873E+02  0.7561462E-02  0.1317488E+00
          3   -1    0    0  501    0  0.00000000000E+00  0.00000000000E+00  0.13082884942E+03  0.13082884942E+03  0.00000000000E+00 0. -1.
         -3   -1    0    0    0  501 -0.00000000000E+00 -0.00000000000E+00 -0.11127891242E+03  0.11127891242E+03  0.00000000000E+00 0.  1.
          5    1    1    2  502    0 -0.57646019037E+02 -0.24768208790E+02  0.20511911257E+02  0.66141806604E+02  0.41800000000E+01 0. -1.
         -5    1    1    2    0  502  0.27051171933E+02  0.23463744075E+02 -0.57458034788E+02  0.67832229439E+02  0.41800000000E+01 0. -1.
        -11    1    1    2    0    0  0.47944485859E+02 -0.97583605715E+01  0.99116285821E+00  0.48937528842E+02  0.00000000000E+00 0.  1.
         11    1    1    2    0    0 -0.17349638755E+02  0.11062825287E+02  0.55504897674E+02  0.59196196956E+02  0.00000000000E+00 0. -1.
</event>
<event>
 6    1  0.5317355E-006  0.1282986E+03  0.7561462E-02  0.1230002E+00
          2   -1    0    0  501    0  0.00000000000E+00  0.00000000000E+00  0.47542855387E+03  0.47542855387E+03  0.00000000000E+00 0. -1.
         -2   -1    0    0    0  501 -0.00000000000E+00 -0.00000000000E+00 -0.85774374150E+02  0.85774374150E+02  0.00000000000E+00 0.  1.
          5    1    1    2  502    0 -0.35342007325E+02  0.95386632978E+02  0.25031775672E+03  0.27022975218E+03  0.41800000000E+01 0. -1.
         -5    1    1    2    0  502 -0.18581607768E+02 -0.18560519972E+02 -0.52064681413E+02  0.58463428736E+02  0.41800000000E+01 0.  1.
        -11    1    1    2    0    0 -0.24210742614E+02 -0.14274618629E+02  0.21765336567E+02  0.35547920766E+02  0.00000000000E+00 0. -1.
         11    1    1    2    0    0  0.78134357706E+02 -0.62551494376E+02  0.16963576784E+03  0.19696182633E+03  0.00000000000E+00 0.  1.
</event>
<event>
 6    1  0.5317355E-006  0.9933171E+02  0.7561462E-02  0.1281708E+00
         -2   -1    0    0    0  501 -0.00000000000E+00  0.00000000000E+00  0.31002692433E+02  0.31002692433E+02  0.00000000000E+00 0.  1.
          2   -1    0    0  501    0  0.00000000000E+00 -0.00000000000E+00 -0.53011611583E+03  0.53011611583E+03  0.00000000000E+00 0. -1.
          5    1    1    2  502    0  0.76511001878E+02 -0.57549839720E+01 -0.11633991345E+03  0.13942561139E+03  0.41800000000E+01 0. -1.
         -5    1    1    2    0  502 -0.36707470919E+02  0.13266207162E+01 -0.19518287935E+03  0.19865303203E+03  0.41800000000E+01 0. -1.
        -11    1    1    2    0    0 -0.66052480947E+01  0.37450736580E+02 -0.99180624891E+01  0.39300826153E+02  0.00000000000E+00 0.  1.
         11    1    1    2    0    0 -0.33198282864E+02 -0.33022373324E+02 -0.17767256811E+03  0.18373933870E+03  0.00000000000E+00 0. -1.
</event>
<event>
 6    1  0.5317355E-006  0.1055821E+03  0.7561462E-02  0.1268977E+00
         -2   -1    0    0    0  501 -0.00000000000E+00  0.00000000000E+00  0.47848446044E+02  0.47848446044E+02  0.00000000000E+00 0.  1.
          2   -1    0    0  501    0  0.00000000000E+00 -0.00000000000E+00 -0.44803054579E+03  0.44803054579E+03  0.00000000000E+00 0. -1.
          5    1    1    2  502    0  0.43799880902E+02 -0.63017133080E+02 -0.91446153560E+02  0.11945484515E+03  0.41800000000E+01 0. -1.
         -5    1    1    2    0  502 -0.29029561034E+02  0.14262887576E+02  0.14832382168E+02  0.35827605790E+02  0.41800000000E+01 0. -1.
        -11    1    1    2    0    0  0.28298404593E+02 -0.89579278401E+01 -0.54502045117E+02  0.62060592131E+02  0.00000000000E+00 0.  1.
         11    1    1    2    0    0 -0.43068724460E+02  0.57712173343E+02 -0.26906628324E+03  0.27853594876E+03  0.00000000000E+00 0. -1.
</event>
<event>
 6    1  0.5317355E-006  0.9325893E+02  0.7561462E-02  0.1295146E+00
          1   -1    0    0  501    0  0.00000000000E+00  0.00000000000E+00  0.52304362090E+02  0.52304362090E+02  0.00000000000E+00 0. -1.
         -1   -1    0    0    0  501 -0.00000000000E+00 -0.00000000000E+00 -0.23398326443E+03  0.23398326443E+03  0.00000000000E+00 0.  1.
          5    1    1    2  502    0  0.46795475268E+02  0.38797891310E+01 -0.78361018297E+02  0.91448296090E+02  0.41800000000E+01 0. -1.
         -5    1    1    2    0  502 -0.65286705583E+02 -0.48618630535E+01 -0.65152619534E+02  0.92457167761E+02  0.41800000000E+01 0.  1.
        -11    1    1    2    0    0 -0.27368388671E+02 -0.39472337699E+01 -0.47838314288E+02  0.55254987710E+02  0.00000000000E+00 0.  1.
         11    1    1    2    0    0  0.45859618985E+02  0.49293076923E+01  0.96730497783E+01  0.47127174961E+02  0.00000000000E+00 0. -1.
</event>
<event>
 6    1  0.5317355E-006  0.2375760E+03  0.7561462E-02  0.1121418E+00
         -1   -1    0    0    0  501 -0.00000000000E+00  0.00000000000E+00  0.15536503783E+03  0.15536503783E+03  0.00000000000E+00 0.  1.
          1   -1    0    0  501    0  0.00000000000E+00 -0.00000000000E+00 -0.48842550456E+03  0.48842550456E+03  0.00000000000E+00 0. -1.
          5    1    1    2  502    0  0.47234607515E+02  0.27351252641E+02  0.18358216414E+02  0.57738164831E+02  0.41800000000E+01 0. -1.
         -5    1    1    2    0  502  0.15462700279E+03 -0.11217772080E+03 -0.41176762666E+02  0.19546444490E+03  0.41800000000E+01 0. -1.
        -11    1    1    2    0    0 -0.18303980523E+03  0.50002021403E+02 -0.21114286867E+03  0.28387511943E+03  0.00000000000E+00 0. -1.
         11    1    1    2    0    0 -0.18821805075E+02  0.34824446758E+02 -0.99099051805E+02  0.10671281323E+03  0.00000000000E+00 0.  1.
</event>
<event>
 6    1  0.5317355E-006  0.1310788E+03  0.7561462E-02  0.1225864E+00
         -2   -1    0    0    0  501 -0.00000000000E+00  0.00000000000E+00  0.41506391997E+02  0.41506391997E+02  0.00000000000E+00 0. -1.
          2   -1    0    0  501    0  0.00000000000E+00 -0.00000000000E+00 -0.51415012149E+03  0.51415012149E+03  0.00000000000E+00 0.  1.
          5    1    1    2  502    0 -0.89944300258E+02 -0.66179932905E+02 -0.93152027422E+02  0.14548035359E+03  0.41800000000E+01 0.  1.
         -5    1    1    2    0  502  0.28402963073E+02  0.33863672551E+01 -0.82386897145E+02  0.87311333833E+02  0.41800000000E+01 0.  1.
        -11    1    1    2    0    0  0.33850350691E+02 -0.16395749098E+02 -0.54944706534E+02  0.66585190594E+02  0.00000000000E+00 0. -1.
         11    1    1    2    0    0  0.27690986494E+02  0.79189314747E+02 -0.24216009839E+03  0.25627963547E+03  0.00000000000E+00 0.  1.
</event>
<event>
 6    1  0.5317355E-006  0.1681534E+03  0.7561462E-02  0.1179787E+00
          1   -1    0    0  501    0  0.00000000000E+00  0.00000000000E+00  0.82067828343E+02  0.82067828343E+02  0.00000000000E+00 0. -1.
         -1   -1    0    0    0  501 -0.00000000000E+00 -0.00000000000E+00 -0.42044116644E+03  0.42044116644E+03  0.00000000000E+00 0.  1.
          5    1    1    2  502    0 -0.27714377647E+02  0.39196773642E+02 -0.15026138364E+03  0.15779869963E+03  0.41800000000E+01 0.  1.
         -5    1    1    2    0  502  0.49224548492E+02  0.10675138901E+03 -0.76820201032E+02  0.14049103501E+03  0.41800000000E+01 0.  1.
        -11    1    1    2    0    0 -0.49568862050E+02 -0.12779853865E+03 -0.81650453031E+02  0.15955041538E+03  0.00000000000E+00 0. -1.
         11    1    1    2    0    0  0.28058691204E+02 -0.18149624002E+02 -0.29641300392E+02  0.44668844763E+02  0.00000000000E+00 0.  1.
</event>
<event>
 6    1  0.5317355E-006  0.7836594E+02  0.7561462E-02  0.1333754E+00
          2   -1    0    0  501    0  0.00000000000E+00  0.00000000000E+00  0.23093162782E+02  0.23093162782E+02  0.00000000000E+00 0.  1.
         -2   -1    0    0    0  501 -0.00000000000E+00 -0.00000000000E+00 -0.64678234103E+03  0.64678234103E+03  0.00000000000E+00 0. -1.
          5    1    1    2  502    0  0.16654088918E+01 -0.58795165402E+02 -0.78617255623E+02  0.98274057325E+02  0.41800000000E+01 0.  1.
         -5    1    1    2    0  502  0.13013620877E+02  0.13670745372E+02 -0.35470167748E+03  0.35522809012E+03  0.41800000000E+01 0.  1.
        -11    1    1    2    0    0 -0.25328705555E+00  0.58654562917E+02 -0.18741080107E+03  0.19637522823E+03  0.00000000000E+00 0. -1.
         11    1    1    2    0    0 -0.14425742714E+02 -0.13530142887E+02 -0.29594440738E+01  0.19998128128E+02  0.00000000000E+00 0.  1.
</event>
<event>
 6    1  0.5317355E-006  0.1487686E+03  0.7561462E-02  0.1201994E+00
         -2   -1    0    0    0  501 -0.00000000000E+00  0.00000000000E+00  0.63340964305E+02  0.63340964305E+02  0.00000000000E+00 0.  1.
          2   -1    0    0  501    0  0.00000000000E+00 -0.00000000000E+00 -0.35697090079E+03  0.35697090079E+03  0.00000000000E+00 0. -1.
          5    1    1    2  502    0 -0.73775536722E+02  0.99727927054E+02 -0.10806252822E+03  0.16457056741E+03  0.41800000000E+01 0.  1.
         -5    1    1    2    0  502  0.37451770769E+02 -0.30993521070E+01 -0.35170101027E+02  0.51639611961E+02  0.41800000000E+01 0.  1.
        -11    1    1    2    0    0  0.65726491013E+02 -0.65823244710E+02 -0.84668015267E+02  0.12578292402E+03  0.00000000000E+00 0.  1.
         11    1    1    2    0    0 -0.29402725060E+02 -0.30805330237E+02 -0.65729291964E+02  0.78318761699E+02  0.00000000000E+00 0. -1.
</event>
<event>
 6    1  0.5317355E-006  0.2259339E+03  0.7561462E-02  0.1129535E+00
          2   -1    0    0  501    0  0.00000000000E+00  0.00000000000E+00  0.64779261325E+03  0.64779261325E+03  0.00000000000E+00 0. -1.
         -2   -1    0    0    0  501 -0.00000000000E+00 -0.00000000000E+00 -0.90499284989E+02  0.90499284989E+02  0.00000000000E+00 0.  1.
          5    1    1    2  502    0  0.43967331843E+02 -0.14264320387E+03  0.11645137531E+03  0.18936368472E+03  0.41800000000E+01 0. -1.
         -5    1    1    2    0  502  0.71477035171E+02 -0.39955488575E+02  0.18275660801E+03  0.20030690901E+03  0.41800000000E+01 0. -1.
        -11    1    1    2    0    0 -0.33525839843E+02  0.94404390968E+02  0.17733138599E+03  0.20367275574E+03  0.00000000000E+00 0. -1.
         11    1    1    2    0    0 -0.81918527171E+02  0.88194301475E+02  0.80753958949E+02  0.14494854878E+03  0.00000000000E+00 0.  1.
</event>
<event>
 6    1  0.5317355E-006  0.9148988E+02  0.7561462E-02  0.1299283E+00
          1   -1    0    0  501    0  0.00000000000E+00  0.00000000000E+00  0.11341813888E+03  0.11341813888E+03  0.00000000000E+00 0. -1.
         -1   -1    0    0    0  501 -0.00000000000E+00 -0.00000000000E+00 -0.12500536184E+03  0.12500536184E+03  0.00000000000E+00 0.  1.
          5    1    1    2  502    0 -0.26519333689E+01 -0.59077437340E+02  0.24541412526E+01  0.59335247219E+02  0.41800000000E+01 0.  1.
         -5    1    1    2    0  502  0.48002545839E+02  0.52602109178E+02 -0.26125384030E+02  0.75968640818E+02  0.41800000000E+01 0.  1.
        -11    1    1    2    0    0 -0.23159203229E+02  0.16064688729E+02 -0.38114105349E+02  0.47403670161E+02  0.00000000000E+00 0.  1.
         11    1    1    2    0    0 -0.22191409241E+02 -0.95893605670E+01  0.50198125168E+02  0.55715942517E+02  0.00000000000E+00 0. -1.
</event>
<event>
 6    1  0.5317355E-006  0.1129586E+03  0.7561462E-02  0.1255187E+00
         -2   -1    0    0    0  501 -0.00000000000E+00  0.00000000000E+00  0.75318564009E+02  0.75318564009E+02  0.00000000000E+00 0. -1.
          2   -1    0    0  501    0  0.00000000000E+00 -0.00000000000E+00 -0.23353036887E+03  0.23353036887E+03  0.00000000000E+00 0.  1.
          5    1    1    2  502    0 -0.48391984875E+02 -0.52119018670E+02 -0.52537096047E+02  0.88520026934E+02  0.41800000000E+01 0. -1.
         -5    1    1    2    0  502  0.48927391286E+02 -0.94261769735E+01  0.21306773047E+02  0.54352492198E+02  0.41800000000E+01 0. -1.
        -11    1    1    2    0    0 -0.40274292020E+02  0.48066433665E+02 -0.92033088843E+02  0.11136646751E+03  0.00000000000E+00 0.  1.
         11    1    1    2    0    0  0.39738885609E+02  0.13478761979E+02 -0.34948393020E+02  0.54609946242E+02  0.00000000000E+00 0. -1.
</event>
<event>
 6    1  0.5317355E-006  0.1730528E+03  0.7561462E-02  0.1174701E+00
         -2   -1    0    0    0  501 -0.00000000000E+00  0.00000000000E+00  0.11403139456E+03  0.11403139456E+03  0.00000000000E+00 0.  1.
          2   -1    0    0  501    0  0.00000000000E+00 -0.00000000000E+00 -0.38993940254E+03  0.38993940254E+03  0.00000000000E+00 0. -1.
          5    1    1    2  502    0  0.83330781013E+02 -0.13070249975E+03  0.11383223771E+02  0.15548058621E+03  0.41800000000E+01 0. -1.
         -5    1    1    2    0  502  0.11376896219E+02  0.91815590208E+01 -0.42833985714E+02  0.45452805477E+02  0.41800000000E+01 0. -1.
        -11    1    1    2    0    0 -0.65752859048E+02  0.17756576783E+02 -0.12370447878E+03  0.14121449133E+03  0.00000000000E+00 0. -1.
         11    1    1    2    0    0 -0.28954818183E+02  0.10376436395E+03 -0.12075276726E+03  0.16182291408E+03  0.00000000000E+00 0.  1.
</event>
<event>
 6    1  0.5317355E-006  0.2245672E+03  0.7561462E-02  0.1130523E+00
          1   -1    0    0  501    0  0.00000000000E+00  0.00000000000E+00  0.56740101351E+03  0.56740101351E+03  0.00000000000E+00 0. -1.
         -1   -1    0    0    0  501 -0.00000000000E+00 -0.00000000000E+00 -0.99992616494E+02  0.99992616494E+02  0.00000000000E+00 0.  1.
          5    1    1    2  502    0 -0.26072791286E+02 -0.97381407759E+02  0.51965277044E+02  0.11349357445E+03  0.41800000000E+01 0.  1.
         -5    1    1    2    0  502  0.10158253163E+03 -0.85052757978E+02  0.83564778765E+02  0.15669565093E+03  0.41800000000E+01 0.  1.
        -11    1    1    2    0    0 -0.77845821227E+02  0.74588597930E+02  0.13558967769E+03  0.17322814875E+03  0.00000000000E+00 0.  1.
         11    1    1    2    0    0  0.23360808869E+01  0.10784556781E+03  0.19628866352E+03  0.22397625588E+03  0.00000000000E+00 0. -1.
</event>
<event>
 6    1  0.5317355E-006  0.1127640E+03  0.7561462E-02  0.1255535E+00
         -1   -1    0    0    0  501 -0.00000000000E+00  0.00000000000E+00  0.22200472380E+02  0.22200472380E+02  0.00000000000E+00 0.  1.
          1   -1    0    0  501    0  0.00000000000E+00 -0.00000000000E+00 -0.94378700074E+03  0.94378700074E+03  0.00000000000E+00 0. -1.
          5    1    1    2  502    0  0.67580197585E+02  0.65293145424E+02 -0.38567424317E+03  0.39697905762E+03  0.41800000000E+01 0.  1.
         -5    1    1    2    0  502 -0.64490917684E+01 -0.35393975342E+01  0.71252330619E+01  0.11061621297E+02  0.41800000000E+01 0.  1.
        -11    1    1    2    0    0 -0.28829553860E+02  0.20008741783E+02 -0.92945657048E+02  0.99349826812E+02  0.00000000000E+00 0.  1.
         11    1    1    2    0    0 -0.32301551957E+02 -0.81762489672E+02 -0.45009186120E+03  0.45859696738E+03  0.00000000000E+00 0. -1.
</event>
<event>
 6    1  0.5317355E-006  0.9995136E+02  0.7561462E-02  0.1280398E+00
          2   -1    0    0  501    0  0.00000000000E+00  0.00000000000E+00  0.63985918381E+02  0.63985918381E+02  0.00000000000E+00 0. -1.
         -2   -1    0    0    0  501 -0.00000000000E+00 -0.00000000000E+00 -0.21028340560E+03  0.21028340560E+03  0.00000000000E+00 0.  1.
          5    1    1    2  502    0  0.25817125006E+02 -0.41703254257E+02 -0.23478163475E+02  0.54537894343E+02  0.41800000000E+01 0.  1.
         -5    1    1    2    0  502 -0.30154490331E+02  0.65341588730E+02 -0.96487851894E+02  0.12044166417E+03  0.41800000000E+01 0.  1.
        -11    1    1    2    0    0  0.39528109429E+02 -0.94045369098E+01  0.14869992041E+02  0.43267001431E+02  0.00000000000E+00 0.  1.
         11    1    1    2    0    0 -0.35190744104E+02 -0.14233797563E+02 -0.41201463894E+02  0.56022764040E+02  0.00000000000E+00 0. -1.
</event>
<event>
 6    1  0.5317355E-006  0.9545290E+02  0.7561462E-02  0.1290159E+00
          1   -1    0    0  501    0  0.00000000000E+00  0.00000000000E+00  0.17633002290E+03  0.17633002290E+03  0.00000000000E+00 0. -1.
         -1   -1    0    0    0  501 -0.00000000000E+00 -0.00000000000E+00 -0.82182034002E+02  0.82182034002E+02  0.00000000000E+00 0.  1.
          5    1    1    2  502    0 -0.27615035552E+02 -0.31636516218E+02 -0.39187390989E+02  0.57589785201E+02  0.41800000000E+01 0. -1.
         -5    1    1    2    0  502  0.41685780151E+02  0.37854075379E+02  0.38682051788E+02  0.68442741179E+02  0.41800000000E+01 0. -1.
        -11    1    1    2    0    0 -0.52280066768E+02  0.47328914023E+01  0.47350501889E+02  0.70694240723E+02  0.00000000000E+00 0. -1.
         11    1    1    2    0    0  0.38209322168E+02 -0.10950450563E+02  0.47302826210E+02  0.61785289799E+02  0.00000000000E+00 0.  1.
</event>
<event>
 6    1  0.5317355E-006  0.1504022E+03  0.7561462E-02  0.1199980E+00
         -1   -1    0    0    0  501 -0.00000000000E+00  0.00000000000E+00  0.59142216565E+02  0.59142216565E+02  0.00000000000E+00 0.  1.
          1   -1    0    0  501    0  0.00000000000E+00 -0.00000000000E+00 -0.70836578187E+03  0.70836578187E+03  0.00000000000E+00 0. -1.
          5    1    1    2  502    0 -0.65767439692E+02  0.10045775972E+03 -0.14108228055E+03  0.18530731205E+03  0.41800000000E+01 0.  1.
         -5    1    1    2    0  502  0.15161691290E+02  0.17684285819E+02  0.20084668333E+02  0.31039928314E+02  0.41800000000E+01 0.  1.
        -11    1    1    2    0    0  0.76954551829E+02 -0.85146829214E+02 -0.40179894839E+03  0.41786885563E+03  0.00000000000E+00 0. -1.
         11    1    1    2    0    0 -0.26348803426E+02 -0.32995216329E+02 -0.12642700470E+03  0.13329190245E+03  0.00000000000E+00 0.  1.
</event>
<event>
 6    1  0.5317355E-006  0.1299819E+03  0.7561462E-02  0.1227483E+00
          1   -1    0    0  501    0  0.00000000000E+00  0.00000000000E+00  0.22975339840E+03  0.22975339840E+03  0.00000000000E+00 0. -1.
         -1   -1    0    0    0  501 -0.00000000000E+00 -0.00000000000E+00 -0.77301712862E+02  0.77301712862E+02  0.00000000000E+00 0.  1.
          5    1    1    2  502    0 -0.51554988413E+02  0.19991386286E+02  0.50399613195E+02  0.74934409761E+02  0.41800000000E+01 0.  1.
         -5    1    1    2    0  502  0.66596217376E+02  0.55419732513E+02  0.25824085775E+02  0.90502810601E+02  0.41800000000E+01 0.  1.
        -11    1    1    2    0    0 -0.46437043315E+02 -0.13509729054E+02  0.20172581482E+02  0.52400809293E+02  0.00000000000E+00 0.  1.
         11    1    1    2    0    0  0.31395814352E+02 -0.61901389744E+02  0.56055405082E+02  0.89217081604E+02  0.00000000000E+00 0. -1.
</event>
<event>
 6    1  0.5317355E-006  0.1581073E+03  0.7561462E-02  0.1190850E+00
         -2   -1    0    0    0  501 -0.00000000000E+00  0.00000000000E+00  0.13137806068E+03  0.13137806068E+03  0.00000000000E+00 0.  1.
          2   -1    0    0  501    0  0.00000000000E+00 -0.00000000000E+00 -0.35524388904E+03  0.35524388904E+03  0.00000000000E+00 0. -1.
          5    1    1    2  502    0  0.19854065153E+02  0.67954668535E+01 -0.13338045018E+02  0.25213847738E+02  0.41800000000E+01 0.  1.
         -5    1    1    2    0  502 -0.15606787247E+03 -0.15797173325E+02  0.39100773790E+02  0.16171912197E+03  0.41800000000E+01 0.  1.
        -11    1    1    2    0    0  0.15345867799E+02  0.73549462595E+01  0.50741135143E+01  0.17757745379E+02  0.00000000000E+00 0.  1.
         11    1    1    2    0    0  0.12086793951E+03  0.16467602120E+01 -0.25470267065E+03  0.28193123462E+03  0.00000000000E+00 0. -1.
</event>
<event>
 6    1  0.5317355E-006  0.1058733E+03  0.7561462E-02  0.1268409E+00
         -2   -1    0    0    0  501 -0.00000000000E+00  0.00000000000E+00  0.16011167493E+02  0.16011167493E+02  0.00000000000E+00 0.  1.
          2   -1    0    0  501    0  0.00000000000E+00 -0.00000000000E+00 -0.78471886620E+03  0.78471886620E+03  0.00000000000E+00 0. -1.
          5    1    1    2  502    0 -0.33586022677E+02 -0.59931668035E+02 -0.29531453799E+03  0.30322924414E+03  0.41800000000E+01 0. -1.
         -5    1    1    2    0  502  0.29451846266E+02  0.40277044491E+02 -0.10670531320E+03  0.11786919795E+03  0.41800000000E+01 0.  1.
        -11    1    1    2    0    0 -0.19593235880E+02 -0.31135933663E+02 -0.21044235162E+03  0.21363362238E+03  0.00000000000E+00 0. -1.
         11    1    1    2    0    0  0.23727412291E+02  0.50790557207E+02 -0.15624549590E+03  0.16599796922E+03  0.00000000000E+00 0.  1.
</event>
<event>
 6    1  0.5317355E-006  0.8690320E+02  0.7561462E-02  0.1310529E+00
         -1   -1    0    0    0  501 -0.00000000000E+00  0.00000000000E+00  0.67447950144E+02  0.67447950144E+02  0.00000000000E+00 0.  1.
          1   -1    0    0  501    0  0.00000000000E+00 -0.00000000000E+00 -0.20693204420E+03  0.20693204420E+03  0.00000000000E+00 0. -1.
          5    1    1    2  502    0  0.33560353704E+02  0.15213228025E+02 -0.67724574904E+02  0.77212888131E+02  0.41800000000E+01 0. -1.
         -5    1    1    2    0  502 -0.26886810576E+02 -0.45377067536E+02  0.25019828406E+02  0.58527284702E+02  0.41800000000E+01 0. -1.
        -11    1    1    2    0    0  0.17254288329E+02  0.49897972056E+02 -0.21110202360E+02  0.56860871649E+02  0.00000000000E+00 0.  1.
         11    1    1    2    0    0 -0.23927831457E+02 -0.19734132545E+02 -0.75669145194E+02  0.81778949858E+02  0.00000000000E+00 0. -1.
</event>
<event>
 6    1  0.5317355E-006  0.6428053E+02  0.7561462E-02  0.1380698E+00
         -2   -1    0    0    0  501 -0.00000000000E+00  0.00000000000E+00  0.10747381312E+03  0.10747381312E+03  0.00000000000E+00 0.  1.
          2   -1    0    0  501    0  0.00000000000E+00 -0.00000000000E+00 -0.19019734966E+03  0.19019734966E+03  0.00000000000E+00 0. -1.
          5    1    1    2  502    0 -0.34167076571E+01  0.20277236766E+02 -0.36443541865E+02  0.42052875833E+02  0.41800000000E+01 0. -1.
         -5    1    1    2    0  502  0.66061630030E+01 -0.33805996920E+02  0.86827943071E+02  0.93504282872E+02  0.41800000000E+01 0. -1.
        -11    1    1    2    0    0 -0.17553151548E+02 -0.25689345850E+02 -0.10902349591E+02  0.32968421953E+02  0.00000000000E+00 0.  1.
         11    1    1    2    0    0  0.14363696202E+02  0.39218106003E+02 -0.12220558815E+03  0.12914558212E+03  0.00000000000E+00 0. -1.
</event>
<event>
 6    1  0.5317355E-006  0.2290973E+03  0.7561462E-02  0.1127277E+00
          1   -1    0    0  501    0  0.00000000000E+00  0.00000000000E+00  0.59779793393E+03  0.59779793393E+03  0.00000000000E+00 0. -1.
         -1   -1    0    0    0  501 -0.00000000000E+00 -0.00000000000E+00 -0.95724640355E+02  0.95724640355E+02  0.00000000000E+00 0.  1.
          5    1    1    2  502    0  0.19371115776E+02  0.39396383680E+02  0.25042415976E+02  0.50714003701E+02  0.41800000000E+01 0.  1.
         -5    1    1    2    0  502 -0.15719556681E+03  0.12155888325E+03  0.22185008086E+03  0.29786228210E+03  0.41800000000E+01 0.  1.
        -11    1    1    2    0    0  0.94502499895E+02 -0.13514841375E+03  0.12999792903E+03  0.20998875632E+03  0.00000000000E+00 0.  1.
         11    1    1    2    0    0  0.43321951139E+02 -0.25806853176E+02  0.12518286771E+03  0.13495753217E+03  0.00000000000E+00 0. -1.
</event>
<event>
 6    1  0.5317355E-006  0.9168508E+02  0.7561462E-02  0.1298822E+00
         -1   -1    0    0    0  501 -0.00000000000E+00  0.00000000000E+00  0.15269810116E+03  0.15269810116E+03  0.00000000000E+00 0.  1.
          1   -1    0    0  501    0  0.00000000000E+00 -0.00000000000E+00 -0.19508232127E+03  0.19508232127E+03  0.00000000000E+00 0. -1.
          5    1    1    2  502    0  0.31942823375E+02 -0.53963323817E+02  0.85521355425E+02  0.10613085751E+03  0.41800000000E+01 0. -1.
         -5    1    1    2    0  502 -0.37830236653E+02  0.41534520938E+02  0.26127885167E+02  0.62099774702E+02  0.41800000000E+01 0. -1.
        -11    1    1    2    0    0 -0.28277971517E+02  0.15078287343E+01 -0.83613238953E+01  0.29526749870E+02  0.00000000000E+00 0.  1.
         11    1    1    2    0    0  0.34165384794E+02  0.10920974145E+02 -0.14567213680E+03  0.15002304035E+03  0.00000000000E+00 0. -1.
</event>
<event>
 6    1  0.5317355E-006  0.9130179E+02  0.7561462E-02  0.1299730E+00
          1   -1    0    0  501    0  0.00000000000E+00  0.00000000000E+00  0.14477168493E+02  0.14477168493E+02  0.00000000000E+00 0. -1.
         -1   -1    0    0    0  501 -0.00000000000E+00 -0.00000000000E+00 -0.96812158598E+03  0.96812158598E+03  0.00000000000E+00 0.  1.
          5    1    1    2  502    0 -0.39751339108E+02  0.19069718942E+02 -0.12874329772E+03  0.13614746508E+03  0.41800000000E+01 0. -1.
         -5    1    1    2    0  502  0.53707511544E+02 -0.40686485649E+02 -0.59045468229E+03  0.59430134708E+03  0.41800000000E+01 0. -1.
        -11    1    1    2    0    0 -0.26839868295E+02  0.40115167185E+02 -0.22032383289E+03  0.22554865663E+03  0.00000000000E+00 0.  1.
         11    1    1    2    0    0  0.12883695859E+02 -0.18498400479E+02 -0.14122604597E+02  0.26601285681E+02  0.00000000000E+00 0. -1.
</event>
<event>
 6    1  0.5317355E-006  0.1760332E+03  0.7561462E-02  0.1171698E+00
         -2   -1    0    0    0  501 -0.00000000000E+00  0.00000000000E+00  0.29251142064E+02  0.29251142064E+02  0.00000000000E+00 0.  1.
          2   -1    0    0  501    0  0.00000000000E+00 -0.00000000000E+00 -0.18455666656E+04  0.18455666656E+04  0.00000000000E+00 0. -1.
          5    1    1    2  502    0 -0.44626970463E+02  0.27147128140E+02 -0.84896331297E+03  0.85057904525E+03  0.41800000000E+01 0. -1.
         -5    1    1    2    0  502  0.15236391987E+03 -0.41331712909E+02 -0.27172403865E+03  0.31428410737E+03  0.41800000000E+01 0.  1.
        -11    1    1    2    0    0 -0.50472447383E+02  0.52508674020E+02 -0.34023008448E+03  0.34793841291E+03  0.00000000000E+00 0.  1.
         11    1    1    2    0    0 -0.57264502019E+02 -0.38324089251E+02 -0.35539808748E+03  0.36201624217E+03  0.00000000000E+00 0. -1.
</event>
<event>
 6    1  0.5317355E-006  0.1330931E+03  0.7561462E-02  0.1222937E+00
         -2   -1    0    0    0  501 -0.00000000000E+00  0.00000000000E+00  0.36404077524E+03  0.36404077524E+03  0.00000000000E+00 0.  1.
          2   -1    0    0  501    0  0.00000000000E+00 -0.00000000000E+00 -0.62804625243E+02  0.62804625243E+02  0.00000000000E+00 0. -1.
          5    1    1    2  502    0  0.41531729596E+02 -0.26495928333E+02  0.98117161380E+01  0.50404969547E+02  0.41800000000E+01 0. -1.
         -5    1    1    2    0  502 -0.31613773464E+02 -0.74258658711E+02  0.18773016861E+03  0.20438656432E+03  0.41800000000E+01 0. -1.
        -11    1    1    2    0    0 -0.40932129716E+02  0.96246933450E+02  0.68994372893E+02  0.12529618882E+03  0.00000000000E+00 0. -1.
         11    1    1    2    0    0  0.31014173584E+02  0.45076535944E+01  0.34699892356E+02  0.46757677803E+02  0.00000000000E+00 0.  1.
</event>
<event>
 6    1  0.5317355E-006  0.1024941E+03  0.7561462E-02  0.1275137E+00
         -3   -1    0    0    0  501 -0.00000000000E+00  0.00000000000E+00  0.34618444050E+03  0.34618444050E+03  0.00000000000E+00 0.  1.
          3   -1    0    0  501    0  0.00000000000E+00 -0.00000000000E+00 -0.46879925660E+02  0.46879925660E+02  0.00000000000E+00 0. -1.
          5    1    1    2  502    0 -0.51896402923E+02  0.82359412597E+01  0.20964493980E+03  0.21617016572E+03  0.41800000000E+01 0. -1.
         -5    1    1    2    0  502  0.32915698508E+02  0.35870409181E+02  0.27131611730E+02  0.55890305225E+02  0.41800000000E+01 0. -1.
        -11    1    1    2    0    0  0.52570861529E+02 -0.64704515233E+01  0.28428789599E+02  0.60114543190E+02  0.00000000000E+00 0.  1.
         11    1    1    2    0    0 -0.33590157113E+02 -0.37635898917E+02  0.34099173717E+02  0.60889352028E+02  0.00000000000E+00 0. -1.
</event>
<event>
 6    1  0.5317355E-006  0.1000593E+03  0.7561462E-02  0.1280171E+00
          3   -1    0    0  501    0  0.00000000000E+00  0.00000000000E+00  0.29716539237E+03  0.29716539237E+03  0.00000000000E+00 0. -1.
         -3   -1    0    0    0  501 -0.00000000000E+00 -0.00000000000E+00 -0.79252414804E+02  0.79252414804E+02  0.00000000000E+00 0.  1.
          5    1    1    2  502    0 -0.52217790204E+02  0.35763510572E+02 -0.41236661256E+02  0.75654880436E+02  0.41800000000E+01 0. -1.
         -5    1    1    2    0  502 -0.22300767095E+02 -0.25487956200E+02  0.63374087311E+02  0.71977131554E+02  0.41800000000E+01 0. -1.
        -11    1    1    2    0    0  0.59316524866E+02  0.24835009541E+02  0.60819994861E+02  0.88511578881E+02  0.00000000000E+00 0.  1.
         11    1    1    2    0    0  0.15202032434E+02 -0.35110563913E+02  0.13495555665E+03  0.14027421630E+03  0.00000000000E+00 0. -1.
</event>
<event>
 6    1  0.5317355E-006  0.1202907E+03  0.7561462E-02  0.1242618E+00
         -3   -1    0    0    0  501 -0.00000000000E+00  0.00000000000E+00  0.18664895485E+03  0.18664895485E+03  0.00000000000E+00 0.  1.
          3   -1    0    0  501    0  0.00000000000E+00 -0.00000000000E+00 -0.10108722663E+03  0.10108722663E+03  0.00000000000E+00 0. -1.
          5    1    1    2  502    0 -0.36655752453E+02 -0.29560761399E+02  0.14112342206E+02  0.49336734843E+02  0.41800000000E+01 0. -1.
         -5    1    1    2    0  502  0.20965495834E+01  0.94868130482E+02  0.75772000125E+02  0.12150401682E+03  0.41800000000E+01 0. -1.
        -11    1    1    2    0    0  0.27558259445E+02 -0.78604453670E+02  0.22384553602E+02  0.86250716173E+02  0.00000000000E+00 0.  1.
         11    1    1    2    0    0  0.70009434242E+01  0.13297084587E+02 -0.26707167707E+02  0.30644713643E+02  0.00000000000E+00 0. -1.
</event>
<event>
 6    1  0.5317355E-006  0.1352401E+03  0.7561462E-02  0.1219881E+00
         -1   -1    0    0    0  501 -0.00000000000E+00  0.00000000000E+00  0.24205137766E+03  0.24205137766E+03  0.00000000000E+00 0.  1.
          1   -1    0    0  501    0  0.00000000000E+00 -0.00000000000E+00 -0.29193441562E+03  0.29193441562E+03  0.00000000000E+00 0. -1.
          5    1    1    2  502    0 -0.19856091026E+02 -0.17906563902E+02  0.51328470486E+01  0.27545015891E+02  0.41800000000E+01 0. -1.
         -5    1    1    2    0  502 -0.68059026187E+01  0.11856846505E+03  0.19045544088E+03  0.22448952888E+03  0.41800000000E+01 0.  1.
        -11    1    1    2    0    0 -0.20100282987E+02 -0.57618314958E+02 -0.58744350172E+02  0.84704133736E+02  0.00000000000E+00 0.  1.
         11    1    1    2    0    0  0.46762276632E+02 -0.43043586188E+02 -0.18672697572E+03  0.19724711478E+03  0.00000000000E+00 0. -1.
</event>
<event>
 6    1  0.7205962E-006  0.1273728E+03  0.7561462E-02  0.1231407E+00
          1   -1    0    0  501    0  0.00000000000E+00  0.00000000000E+00  0.29255986913E+03  0.29255986913E+03  0.00000000000E+00 0. -1.
         -1   -1    0    0    0  501 -0.00000000000E+00 -0.00000000000E+00 -0.92508772107E+02  0.92508772107E+02  0.00000000000E+00 0.  1.
          5    1    1    2  502    0  0.49612674478E+02  0.17059634787E+02  0.65521484592E+02  0.84041572754E+02  0.41800000000E+01 0.  1.
         -5    1    1    2    0  502  0.46538928240E+02 -0.74225169752E+02 -0.19741134096E+02  0.89902349479E+02  0.41800000000E+01 0.  1.
        -11    1    1    2    0    0 -0.32048191096E+02  0.65036860552E+01 -0.40623282783E+01  0.32952799515E+02  0.00000000000E+00 0.  1.
         11    1    1    2    0    0 -0.64103411621E+02  0.50661848910E+02  0.15833307481E+03  0.17817191949E+03  0.00000000000E+00 0. -1.
</event>
<event>
 6    1  0.5317355E-006  0.1532955E+03  0.7561462E-02  0.1196481E+00
         -1   -1    0    0    0  501 -0.00000000000E+00  0.00000000000E+00  0.10138164934E+03  0.10138164934E+03  0.00000000000E+00 0.  1.
          1   -1    0    0  501    0  0.00000000000E+00 -0.00000000000E+00 -0.30137635129E+03  0.30137635129E+03  0.00000000000E+00 0. -1.
          5    1    1    2  502    0  0.11103567373E+02  0.13128339110E+02  0.19889707226E+02  0.26621708242E+02  0.41800000000E+01 0. -1.
         -5    1    1    2    0  502  0.10816990690E+03 -0.94888385206E+02 -0.13032656709E+03  0.19418295727E+03  0.41800000000E+01 0. -1.
        -11    1    1    2    0    0 -0.80767122770E+02  0.49655659454E+02 -0.21148974749E+02  0.97140577357E+02  0.00000000000E+00 0. -1.
         11    1    1    2    0    0 -0.38506351504E+02  0.32104386643E+02 -0.68408867339E+02  0.84812757758E+02  0.00000000000E+00 0.  1.
</event>
<event>
 6    1  0.5317355E-006  0.7687296E+02  0.7561462E-02  0.1338167E+00
          1   -1    0    0  501    0  0.00000000000E+00  0.00000000000E+00  0.19429326153E+03  0.19429326153E+03  0.00000000000E+00 0. -1.
         -1   -1    0    0    0  501 -0.00000000000E+00 -0.00000000000E+00 -0.80611172384E+02  0.80611172384E+02  0.00000000000E+00 0.  1.
          5    1    1    2  502    0 -0.48543206605E+02 -0.15540324070E+02  0.76771314953E+02  0.92245605745E+02  0.41800000000E+01 0.  1.
         -5    1    1    2    0  502  0.58756196163E+01 -0.22734433246E+02 -0.43238554694E+02  0.49380384495E+02  0.41800000000E+01 0.  1.
        -11    1    1    2    0    0  0.22103124333E+02 -0.11487580380E+02  0.75187131607E+02  0.79206170009E+02  0.00000000000E+00 0.  1.
         11    1    1    2    0    0  0.20564462655E+02  0.49762337696E+02  0.49621972795E+01  0.54072273663E+02  0.00000000000E+00 0. -1.
</event>
<event>
 6    1  0.5317355E-006  0.9770670E+02  0.7561462E-02  0.1285194E+00
         -1   -1    0    0    0  501 -0.00000000000E+00  0.00000000000E+00  0.51947668062E+02  0.51947668062E+02  0.00000000000E+00 0.  1.
          1   -1    0    0  501    0  0.00000000000E+00 -0.00000000000E+00 -0.27593911398E+03  0.27593911398E+03  0.00000000000E+00 0. -1.
          5    1    1    2  502    0  0.36775940701E+02  0.36296745609E+02  0.10300378633E+02  0.52853512242E+02  0.41800000000E+01 0. -1.
         -5    1    1    2    0  502 -0.35744752222E+02 -0.33592492964E+02 -0.70591071570E+02  0.86062272108E+02  0.41800000000E+01 0. -1.
        -11    1    1    2    0    0 -0.19343011416E+02 -0.44603459042E+02 -0.80964989230E+02  0.94440193404E+02  0.00000000000E+00 0.  1.
         11    1    1    2    0    0  0.18311822937E+02  0.41899206397E+02 -0.82735763754E+02  0.94530804292E+02  0.00000000000E+00 0. -1.
</event>
<event>
 6    1  0.5317355E-006  0.9929975E+02  0.7561462E-02  0.1281775E+00
         -2   -1    0    0    0  501 -0.00000000000E+00  0.00000000000E+00  0.34620842186E+03  0.34620842186E+03  0.00000000000E+00 0.  1.
          2   -1    0    0  501    0  0.00000000000E+00 -0.00000000000E+00 -0.44292924217E+02  0.44292924217E+02  0.00000000000E+00 0. -1.
          5    1    1    2  502    0 -0.70065733135E+01 -0.17548242434E+02 -0.12148636188E+02  0.22849390437E+02  0.41800000000E+01 0.  1.
         -5    1    1    2    0  502 -0.26086035369E+02  0.66397243932E+02  0.18635046449E+03  0.19958217169E+03  0.41800000000E+01 0.  1.
        -11    1    1    2    0    0  0.41056901324E+02 -0.72232029166E+02  0.85917669670E+02  0.11951979395E+03  0.00000000000E+00 0.  1.
         11    1    1    2    0    0 -0.79642926415E+01  0.23383027668E+02  0.41795999673E+02  0.48549989999E+02  0.00000000000E+00 0. -1.
</event>
<event>
 6    1  0.5317355E-006  0.1123662E+03  0.7561462E-02  0.1256250E+00
          2   -1    0    0  501    0  0.00000000000E+00  0.00000000000E+00  0.16588330200E+03  0.16588330200E+03  0.00000000000E+00 0. -1.
         -2   -1    0    0    0  501 -0.00000000000E+00 -0.00000000000E+00 -0.86142039853E+02  0.86142039853E+02  0.00000000000E+00 0.  1.
          5    1    1    2  502    0 -0.13577447409E+02 -0.50780964221E+02  0.10825622846E+02  0.53830473854E+02  0.41800000000E+01 0. -1.
         -5    1    1    2    0  502  0.63657721578E+02  0.50152604524E+02  0.36581241929E+02  0.89012633475E+02  0.41800000000E+01 0. -1.
        -11    1    1    2    0    0 -0.25955721587E+02  0.38211713009E+02  0.43171118965E+02  0.63226418584E+02  0.00000000000E+00 0. -1.
         11    1    1    2    0    0 -0.24124552582E+02 -0.37583353312E+02 -0.10836721597E+02  0.45955815938E+02  0.00000000000E+00 0.  1.
</event>
<event>
 6    1  0.5317355E-006  0.1097670E+03  0.7561462E-02  0.1261002E+00
          2   -1    0    0  501    0  0.00000000000E+00  0.00000000000E+00  0.40482301514E+02  0.40482301514E+02  0.00000000000E+00 0. -1.
         -2   -1    0    0    0  501 -0.00000000000E+00 -0.00000000000E+00 -0.86658767466E+03  0.86658767466E+03  0.00000000000E+00 0.  1.
          5    1    1    2  502    0  0.49693371906E+02  0.26485758063E+02 -0.12921658186E+03  0.14101533257E+03  0.41800000000E+01 0.  1.
         -5    1    1    2    0  502  0.19984474091E+02 -0.42150383712E+02 -0.63040634034E+03  0.63214370233E+03  0.41800000000E+01 0.  1.
        -11    1    1    2    0    0 -0.82555988737E+02 -0.14146677742E+02 -0.47166604134E+02  0.96126522422E+02  0.00000000000E+00 0. -1.
         11    1    1    2    0    0  0.12878142740E+02  0.29811303391E+02 -0.19315846812E+02  0.37784418857E+02  0.00000000000E+00 0.  1.
</event>
<event>
 6    1  0.5317355E-006  0.8983026E+02  0.7561462E-02  0.1303263E+00
         -2   -1    0    0    0  501 -0.00000000000E+00  0.00000000000E+00  0.10356083823E+03  0.10356083823E+03  0.00000000000E+00 0.  1.
          2   -1    0    0  501    0  0.00000000000E+00 -0.00000000000E+00 -0.14264944798E+03  0.14264944798E+03  0.00000000000E+00 0. -1.
          5    1    1    2  502    0 -0.20793689488E+02  0.52558102121E+02 -0.13176532213E+01  0.56691623994E+02  0.41800000000E+01 0. -1.
         -5    1    1    2    0  502 -0.75050138981E+01 -0.70706750326E+02  0.21540533033E+02  0.74412611422E+02  0.41800000000E+01 0. -1.
        -11    1    1    2    0    0  0.18053213246E+02 -0.10808392167E+02  0.20629392735E+02  0.29467129048E+02  0.00000000000E+00 0.  1.
         11    1    1    2    0    0  0.10245490140E+02  0.28957040372E+02 -0.79940882302E+02  0.85638921750E+02  0.00000000000E+00 0. -1.
</event>
<event>
 6    1  0.9523549E-006  0.2270915E+03  0.7561462E-02  0.1128704E+00
         -2   -1    0    0    0  501 -0.00000000000E+00  0.00000000000E+00  0.29423997846E+02  0.29423997846E+02  0.00000000000E+00 0.  1.
          2   -1    0    0  501    0  0.00000000000E+00 -0.00000000000E+00 -0.17991590281E+04  0.17991590281E+04  0.00000000000E+00 0. -1.
          5    1    1    2  502    0 -0.38294804062E+02  0.17576264096E+03 -0.60862142692E+03  0.63466251794E+03  0.41800000000E+01 0. -1.
         -5    1    1    2    0  502  0.50039973606E+02  0.25099592174E+02 -0.23328661820E+03  0.23994605043E+03  0.41800000000E+01 0. -1.
        -11    1    1    2    0    0 -0.46938245084E+02 -0.14170249654E+03 -0.54836646546E+03  0.56832083968E+03  0.00000000000E+00 0.  1.
         11    1    1    2    0    0  0.35193075540E+02 -0.59159736594E+02 -0.37946051964E+03  0.38565361786E+03  0.00000000000E+00 0. -1.
</event>
<event>
 6    1  0.5317355E-006  0.1334168E+03  0.7561462E-02  0.1222472E+00
         -1   -1    0    0    0  501 -0.00000000000E+00  0.00000000000E+00  0.26498038114E+02  0.26498038114E+02  0.00000000000E+00 0.  1.
          1   -1    0    0  501    0  0.00000000000E+00 -0.00000000000E+00 -0.11459987151E+04  0.11459987151E+04  0.00000000000E+00 0. -1.
          5    1    1    2  502    0 -0.49842298363E+02 -0.74873679397E+02 -0.10324352817E+03  0.13699277748E+03  0.41800000000E+01 0. -1.
         -5    1    1    2    0  502 -0.16714925751E+02 -0.23419044114E+02 -0.30227960155E+03  0.30367461251E+03  0.41800000000E+01 0. -1.
        -11    1    1    2    0    0 -0.21187441975E+02  0.10708767956E+02 -0.39760099770E+02  0.46308216791E+02  0.00000000000E+00 0.  1.
         11    1    1    2    0    0  0.87744666089E+02  0.87583955555E+02 -0.67421744751E+03  0.68552114645E+03  0.00000000000E+00 0. -1.
</event>
<event>
 6    1  0.5317355E-006  0.1484185E+03  0.7561462E-02  0.1202430E+00
          2   -1    0    0  501    0  0.00000000000E+00  0.00000000000E+00  0.23868170012E+03  0.23868170012E+03  0.00000000000E+00 0. -1.
         -2   -1    0    0    0  501 -0.00000000000E+00 -0.00000000000E+00 -0.12364145653E+03  0.12364145653E+03  0.00000000000E+00 0.  1.
          5    1    1    2  502    0  0.69266885605E+02  0.31626563130E+02 -0.41779801242E+02  0.86954960345E+02  0.41800000000E+01 0.  1.
         -5    1    1    2    0  502  0.11980028335E+02  0.57406268706E+02  0.66078275779E+02  0.88446660172E+02  0.41800000000E+01 0.  1.
        -11    1    1    2    0    0 -0.10201678426E+03 -0.41913619408E+02  0.49233783529E+02  0.12078137772E+03  0.00000000000E+00 0.  1.
         11    1    1    2    0    0  0.20769870318E+02 -0.47119212427E+02  0.41507985528E+02  0.66140158417E+02  0.00000000000E+00 0. -1.
</event>
<event>
 6    1  0.5317355E-006  0.1149744E+03  0.7561462E-02  0.1251626E+00
          1   -1    0    0  501    0  0.00000000000E+00  0.00000000000E+00  0.92104161430E+02  0.92104161430E+02  0.00000000000E+00 0. -1.
         -1   -1    0    0    0  501 -0.00000000000E+00 -0.00000000000E+00 -0.27378554959E+03  0.27378554959E+03  0.00000000000E+00 0.  1.
          5    1    1    2  502    0 -0.40612053470E+02  0.39854221622E+02 -0.23351176961E+02  0.61647771522E+02  0.41800000000E+01 0. -1.
         -5    1    1    2    0  502  0.75615984548E+02 -0.16504401383E+02 -0.18468649963E+03  0.20029165717E+03  0.41800000000E+01 0.  1.
        -11    1    1    2    0    0  0.28707953647E+02 -0.56199681004E+01 -0.67085180845E+01  0.30012245150E+02  0.00000000000E+00 0.  1.
         11    1    1    2    0    0 -0.63711884725E+02 -0.17729852138E+02  0.33064806518E+02  0.73938037181E+02  0.00000000000E+00 0. -1.
</event>
<event>
 6    1  0.5317355E-006  0.9965169E+02  0.7561462E-02  0.1281030E+00
          2   -1    0    0  501    0  0.00000000000E+00  0.00000000000E+00  0.31018673793E+03  0.31018673793E+03  0.00000000000E+00 0. -1.
         -2   -1    0    0    0  501 -0.00000000000E+00 -0.00000000000E+00 -0.50581122125E+02  0.50581122125E+02  0.00000000000E+00 0.  1.
          5    1    1    2  502    0 -0.67646461764E+02 -0.48413520071E+02  0.34634631620E+02  0.90205004419E+02  0.41800000000E+01 0. -1.
         -5    1    1    2    0  502  0.13252666172E+02  0.40761083592E+02  0.68745681515E+02  0.81120528987E+02  0.41800000000E+01 0. -1.
        -11    1    1    2    0    0  0.15120466647E+01  0.18835757084E+02 -0.48760356768E+01  0.19515321006E+02  0.00000000000E+00 0.  1.
         11    1    1    2    0    0  0.52881748927E+02 -0.11183320605E+02  0.16110133834E+03  0.16992700564E+03  0.00000000000E+00 0. -1.
</event>
<event>
 6    1  0.5317355E-006  0.1095145E+03  0.7561462E-02  0.1261472E+00
         -2   -1    0    0    0  501 -0.00000000000E+00  0.00000000000E+00  0.88431047447E+02  0.88431047447E+02  0.00000000000E+00 0.  1.
          2   -1    0    0  501    0  0.00000000000E+00 -0.00000000000E+00 -0.14407532612E+03  0.14407532612E+03  0.00000000000E+00 0. -1.
          5    1    1    2  502    0  0.62174645453E+02  0.49794626993E+02 -0.44093530065E+01  0.79888085523E+02  0.41800000000E+01 0. -1.
         -5    1    1    2    0  502 -0.34601743800E+02 -0.34633657963E+02 -0.63717391346E+01  0.49546366138E+02  0.41800000000E+01 0. -1.
        -11    1    1    2    0    0 -0.10818750338E+02  0.35319654422E+02 -0.65364916495E+01  0.37513318574E+02  0.00000000000E+00 0.  1.
         11    1    1    2    0    0 -0.16754151315E+02 -0.50480623452E+02 -0.38326694885E+02  0.65558603335E+02  0.00000000000E+00 0. -1.
</event>
<event>
 6    1  0.5317355E-006  0.1130652E+03  0.7561462E-02  0.1254997E+00
          2   -1    0    0  501    0  0.00000000000E+00  0.00000000000E+00  0.26455357463E+02  0.26455357463E+02  0.00000000000E+00 0. -1.
         -2   -1    0    0    0  501 -0.00000000000E+00 -0.00000000000E+00 -0.55499052492E+03  0.55499052492E+03  0.00000000000E+00 0.  1.
          5    1    1    2  502    0  0.18761050141E+02 -0.72569291064E+02 -0.19164456634E+03  0.20582368964E+03  0.41800000000E+01 0. -1.
         -5    1    1    2    0  502 -0.53222768494E+02  0.27907253136E+02 -0.10580338839E+03  0.12175100516E+03  0.41800000000E+01 0. -1.
        -11    1    1    2    0    0 -0.17949454201E+02  0.32325309846E+02 -0.16260963405E+03  0.16676031197E+03  0.00000000000E+00 0.  1.
         11    1    1    2    0    0  0.52411172554E+02  0.12336728082E+02 -0.68477578674E+02  0.87110875609E+02  0.00000000000E+00 0. -1.
</event>
<event>
 6    1  0.5317355E-006  0.1124232E+03  0.7561462E-02  0.1256147E+00
         -4   -1    0    0    0  501 -0.00000000000E+00  0.00000000000E+00  0.15056961942E+03  0.15056961942E+03  0.00000000000E+00 0.  1.
          4   -1    0    0  501    0  0.00000000000E+00 -0.00000000000E+00 -0.89147393231E+02  0.89147393231E+02  0.00000000000E+00 0. -1.
          5    1    1    2  502    0 -0.79107026300E+02  0.25931946609E+02  0.46041901746E+02  0.95224558709E+02  0.41800000000E+01 0. -1.
         -5    1    1    2    0  502  0.41563038856E+02 -0.12748468540E+02 -0.64425177504E+00  0.43679481561E+02  0.41800000000E+01 0. -1.
        -11    1    1    2    0    0  0.16780915586E+01  0.36501588782E+02  0.15075375397E+02  0.39527824608E+02  0.00000000000E+00 0.  1.
         11    1    1    2    0    0  0.35865895885E+02 -0.49685066852E+02  0.94920082459E+00  0.61285147776E+02  0.00000000000E+00 0. -1.
</event>
<event>
 6    1  0.5317355E-006  0.9534959E+02  0.7561462E-02  0.1290391E+00
         -2   -1    0    0    0  501 -0.00000000000E+00  0.00000000000E+00  0.26591498867E+03  0.26591498867E+03  0.00000000000E+00 0.  1.
          2   -1    0    0  501    0  0.00000000000E+00 -0.00000000000E+00 -0.53343194243E+02  0.53343194243E+02  0.00000000000E+00 0. -1.
          5    1    1    2  502    0 -0.23254549315E+02 -0.38280231398E+02  0.12500045692E+02  0.46689117812E+02  0.41800000000E+01 0.  1.
         -5    1    1    2    0  502 -0.78780979584E+01  0.63752237086E+02  0.14348752941E+03  0.15726587569E+03  0.41800000000E+01 0.  1.
        -11    1    1    2    0    0 -0.13566320665E+02  0.15575017799E+02  0.50198246518E+02  0.54281582414E+02  0.00000000000E+00 0.  1.
         11    1    1    2    0    0  0.44698967938E+02 -0.41047023487E+02  0.63859728078E+01  0.61021606998E+02  0.00000000000E+00 0. -1.
</event>
<event>
 6    1  0.5317355E-006  0.9486297E+02  0.7561462E-02  0.1291485E+00
         -2   -1    0    0    0  501 -0.00000000000E+00  0.00000000000E+00  0.38469226301E+03  0.38469226301E+03  0.00000000000E+00 0.  1.
          2   -1    0    0  501    0  0.00000000000E+00 -0.00000000000E+00 -0.32768017220E+02  0.32768017220E+02  0.00000000000E+00 0. -1.
          5    1    1    2  502    0 -0.17473240388E+02  0.60996784764E+02  0.66381203706E+02  0.91923111820E+02  0.41800000000E+01 0.  1.
         -5    1    1    2    0  502  0.32842670810E+02 -0.40092800161E+02  0.15727964257E+03  0.16565153793E+03  0.41800000000E+01 0.  1.
        -11    1    1    2    0    0 -0.27607867125E+02 -0.41701085470E+02  0.29171276927E+02  0.57897653269E+02  0.00000000000E+00 0. -1.
         11    1    1    2    0    0  0.12238436702E+02  0.20797100867E+02  0.99092122585E+02  0.10198797721E+03  0.00000000000E+00 0.  1.
</event>
<event>
 6    1  0.5317355E-006  0.9351099E+02  0.7561462E-02  0.1294565E+00
         -1   -1    0    0    0  501 -0.00000000000E+00  0.00000000000E+00  0.90845397540E+02  0.90845397540E+02  0.00000000000E+00 0.  1.
          1   -1    0    0  501    0  0.00000000000E+00 -0.00000000000E+00 -0.17998697388E+03  0.17998697388E+03  0.00000000000E+00 0. -1.
          5    1    1    2  502    0  0.58712213346E+02 -0.83532851473E+01 -0.45817896593E+02  0.75057667276E+02  0.41800000000E+01 0. -1.
         -5    1    1    2    0  502 -0.50772843291E+02 -0.23643888032E+02  0.39089977125E+02  0.68428165026E+02  0.41800000000E+01 0.  1.
        -11    1    1    2    0    0 -0.23394317252E+02 -0.10901581300E+02  0.72035214694E+01  0.26796068296E+02  0.00000000000E+00 0.  1.
         11    1    1    2    0    0  0.15454947198E+02  0.42898754479E+02 -0.89617178346E+02  0.10055047083E+03  0.00000000000E+00 0. -1.
</event>
<event>
 6    1  0.5317355E-006  0.1233767E+03  0.7561462E-02  0.1237628E+00
          2   -1    0    0  501    0  0.00000000000E+00  0.00000000000E+00  0.70803217218E+03  0.70803217218E+03  0.00000000000E+00 0. -1.
         -2   -1    0    0    0  501 -0.00000000000E+00 -0.00000000000E+00 -0.23937971067E+02  0.23937971067E+02  0.00000000000E+00 0.  1.
          5    1    1    2  502    0  0.52774356122E+01 -0.82451287318E+02  0.29586224437E+03  0.30721003589E+03  0.41800000000E+01 0. -1.
         -5    1    1    2    0  502  0.40036071809E+02  0.27033556299E+02  0.62900540354E+02  0.79420718889E+02  0.41800000000E+01 0. -1.
        -11    1    1    2    0    0  0.27969697229E+02  0.17935709176E+02  0.10517616564E+03  0.11029968017E+03  0.00000000000E+00 0. -1.
         11    1    1    2    0    0 -0.73283204651E+02  0.37482021843E+02  0.22015525075E+03  0.23503970830E+03  0.00000000000E+00 0.  1.
</event>
<event>
 6    1  0.5317355E-006  0.8311033E+02  0.7561462E-02  0.1320450E+00
         -2   -1    0    0    0  501 -0.00000000000E+00  0.00000000000E+00  0.24028294944E+03  0.24028294944E+03  0.00000000000E+00 0.  1.
          2   -1    0    0  501    0  0.00000000000E+00 -0.00000000000E+00 -0.56264869109E+02  0.56264869109E+02  0.00000000000E+00 0. -1.
          5    1    1    2  502    0 -0.73817549816E+02  0.36162198050E+01  0.64585133545E+02  0.98238584993E+02  0.41800000000E+01 0. -1.
         -5    1    1    2    0  502  0.49696421020E+02 -0.21239848910E+02  0.59084575716E+02  0.80183071352E+02  0.41800000000E+01 0. -1.
        -11    1    1    2    0    0  0.11610885237E+02 -0.45986073048E+01 -0.25594951494E+02  0.28479139508E+02  0.00000000000E+00 0. -1.
         11    1    1    2    0    0  0.12510243558E+02  0.22222236410E+02  0.85943322561E+02  0.89647022693E+02  0.00000000000E+00 0.  1.
</event>
<event>
 6    1  0.5317355E-006  0.1014671E+03  0.7561462E-02  0.1277241E+00
         -1   -1    0    0    0  501 -0.00000000000E+00  0.00000000000E+00  0.53228623152E+03  0.53228623152E+03  0.00000000000E+00 0. -1.
          1   -1    0    0  501    0  0.00000000000E+00 -0.00000000000E+00 -0.29410345187E+02  0.29410345187E+02  0.00000000000E+00 0.  1.
          5    1    1    2  502    0  0.52414499534E+02  0.75501233848E+01  0.88835880144E+02  0.10350637722E+03  0.41800000000E+01 0. -1.
         -5    1    1    2    0  502 -0.47961282659E+02 -0.70745735604E+02  0.20140150449E+03  0.21882705992E+03  0.41800000000E+01 0. -1.
        -11    1    1    2    0    0 -0.70999554301E+01  0.26014993639E+02  0.38102474187E+01  0.27234302755E+02  0.00000000000E+00 0.  1.
         11    1    1    2    0    0  0.26467385545E+01  0.37180618580E+02  0.20882825428E+03  0.21212883681E+03  0.00000000000E+00 0. -1.
</event>
<event>
 6    1  0.5317355E-006  0.1967302E+03  0.7561462E-02  0.1152527E+00
          3   -1    0    0  501    0  0.00000000000E+00  0.00000000000E+00  0.23129532146E+03  0.23129532146E+03  0.00000000000E+00 0. -1.
         -3   -1    0    0    0  501 -0.00000000000E+00 -0.00000000000E+00 -0.20192365423E+03  0.20192365423E+03  0.00000000000E+00 0.  1.
          5    1    1    2  502    0  0.86705335092E+02 -0.11771766960E+03 -0.44151167107E+02  0.15278109447E+03  0.41800000000E+01 0.  1.
         -5    1    1    2    0  502  0.24382648733E+02 -0.31457820432E+02  0.59750914012E+02  0.71914895195E+02  0.41800000000E+01 0.  1.
        -11    1    1    2    0    0 -0.83293774788E+02  0.36175967718E+02 -0.35142738956E+01  0.90878510550E+02  0.00000000000E+00 0.  1.
         11    1    1    2    0    0 -0.27794209037E+02  0.11299952231E+03  0.17286194218E+02  0.11764447547E+03  0.00000000000E+00 0. -1.
</event>
<event>
 6    1  0.5317355E-006  0.8559133E+02  0.7561462E-02  0.1313893E+00
          2   -1    0    0  501    0  0.00000000000E+00  0.00000000000E+00  0.29055534186E+03  0.29055534186E+03  0.00000000000E+00 0. -1.
         -2   -1    0    0    0  501 -0.00000000000E+00 -0.00000000000E+00 -0.82575779022E+02  0.82575779022E+02  0.00000000000E+00 0.  1.
          5    1    1    2  502    0 -0.17325237839E+02 -0.18104467542E+02  0.42032154131E+02  0.49113236424E+02  0.41800000000E+01 0. -1.
         -5    1    1    2    0  502  0.46327771988E+02  0.18135186066E+02 -0.59808277250E+02  0.77907957608E+02  0.41800000000E+01 0.  1.
        -11    1    1    2    0    0 -0.54698496247E+02 -0.24893193734E+02  0.16513396340E+03  0.17572940122E+03  0.00000000000E+00 0. -1.
         11    1    1    2    0    0  0.25695962097E+02  0.24862475210E+02  0.60621722558E+02  0.70380525627E+02  0.00000000000E+00 0.  1.
</event>
<event>
 6    1  0.5317355E-006  0.2039109E+03  0.7561462E-02  0.1146481E+00
         -2   -1    0    0    0  501 -0.00000000000E+00  0.00000000000E+00  0.13233161677E+03  0.13233161677E+03  0.00000000000E+00 0.  1.
          2   -1    0    0  501    0  0.00000000000E+00 -0.00000000000E+00 -0.39231703913E+03  0.39231703913E+03  0.00000000000E+00 0. -1.
          5    1    1    2  502    0 -0.95908561372E+02  0.76678500049E+02  0.17944993310E+02  0.12416738581E+03  0.41800000000E+01 0.  1.
         -5    1    1    2    0  502 -0.72353359478E+01  0.79066785170E+02 -0.71522251339E+02  0.10694302895E+03  0.41800000000E+01 0.  1.
        -11    1    1    2    0    0  0.17888121799E+02 -0.10441297759E+03 -0.13215673979E+03  0.16937372483E+03  0.00000000000E+00 0. -1.
         11    1    1    2    0    0  0.85255775521E+02 -0.51332307630E+02 -0.74251424542E+02  0.12416451632E+03  0.00000000000E+00 0.  1.
</event>
<event>
 6    1  0.5317355E-006  0.1747254E+03  0.7561462E-02  0.1173008E+00
         -2   -1    0    0    0  501 -0.00000000000E+00  0.00000000000E+00  0.14252876204E+03  0.14252876204E+03  0.00000000000E+00 0.  1.
          2   -1    0    0  501    0  0.00000000000E+00 -0.00000000000E+00 -0.27006271095E+03  0.27006271095E+03  0.00000000000E+00 0. -1.
          5    1    1    2  502    0  0.11669624060E+03  0.93646025247E+02  0.15800811563E+00  0.14968329226E+03  0.41800000000E+01 0.  1.
         -5    1    1    2    0  502 -0.30224729947E+02  0.18490554414E+02  0.18470152898E+02  0.40175289059E+02  0.41800000000E+01 0.  1.
        -11    1    1    2    0    0 -0.94658083400E+02 -0.61695836601E+02 -0.76962964175E+02  0.13671074157E+03  0.00000000000E+00 0.  1.
         11    1    1    2    0    0  0.81865727459E+01 -0.50440743060E+02 -0.69199145748E+02  0.86022150089E+02  0.00000000000E+00 0. -1.
</event>
<event>
 6    1  0.5317355E-006  0.1450504E+03  0.7561462E-02  0.1206690E+00
          1   -1    0    0  501    0  0.00000000000E+00  0.00000000000E+00  0.45124186765E+03  0.45124186765E+03  0.00000000000E+00 0. -1.
         -1   -1    0    0    0  501 -0.00000000000E+00 -0.00000000000E+00 -0.91610688995E+02  0.91610688995E+02  0.00000000000E+00 0.  1.
          5    1    1    2  502    0 -0.10967829379E+03  0.17556347979E+02  0.85384774061E+02  0.14016271089E+03  0.41800000000E+01 0. -1.
         -5    1    1    2    0  502 -0.61447250554E+00  0.24322255550E+02 -0.42187947745E+02  0.48879904117E+02  0.41800000000E+01 0.  1.
        -11    1    1    2    0    0 -0.11312138524E+02  0.15991917538E+02  0.73266619530E+02  0.75839985771E+02  0.00000000000E+00 0.  1.
         11    1    1    2    0    0  0.12160490482E+03 -0.57870521067E+02  0.24316773281E+03  0.27796995587E+03  0.00000000000E+00 0. -1.
</event>
<event>
 6    1  0.5317355E-006  0.1004049E+03  0.7561462E-02  0.1279447E+00
          3   -1    0    0  501    0  0.00000000000E+00  0.00000000000E+00  0.19064152673E+03  0.19064152673E+03  0.00000000000E+00 0. -1.
         -3   -1    0    0    0  501 -0.00000000000E+00 -0.00000000000E+00 -0.63000762468E+02  0.63000762468E+02  0.00000000000E+00 0.  1.
          5    1    1    2  502    0  0.54943582600E+02  0.37371498036E+01  0.21386656757E+02  0.59225206161E+02  0.41800000000E+01 0. -1.
         -5    1    1    2    0  502 -0.68426546495E+02  0.21856126721E+01  0.56511103729E+02  0.88870391091E+02  0.41800000000E+01 0. -1.
        -11    1    1    2    0    0  0.43443436541E+02  0.76305539767E+01 -0.20954209682E+01  0.44158219184E+02  0.00000000000E+00 0.  1.
         11    1    1    2    0    0 -0.29960472646E+02 -0.13553316452E+02  0.51838424747E+02  0.61388472764E+02  0.00000000000E+00 0. -1.
</event>
<event>
 6    1  0.5317355E-006  0.1706195E+03  0.7561462E-02  0.1177203E+00
         -1   -1    0    0    0  501 -0.00000000000E+00  0.00000000000E+00  0.14903065643E+03  0.14903065643E+03  0.00000000000E+00 0.  1.
          1   -1    0    0  501    0  0.00000000000E+00 -0.00000000000E+00 -0.21466143469E+03  0.21466143469E+03  0.00000000000E+00 0. -1.
          5    1    1    2  502    0 -0.50652999219E+02  0.27555142165E+02 -0.55911764259E+01  0.58083955129E+02  0.41800000000E+01 0. -1.
         -5    1    1    2    0  502 -0.58457723720E+02 -0.11670605022E+03 -0.10096178165E+02  0.13098478093E+03  0.41800000000E+01 0. -1.
        -11    1    1    2    0    0  0.55199274233E+02  0.81418740343E+02  0.33499262538E+01  0.98423539668E+02  0.00000000000E+00 0.  1.
         11    1    1    2    0    0  0.53911448706E+02  0.77321677145E+01 -0.53293349923E+02  0.76199815388E+02  0.00000000000E+00 0. -1.
</event>
<event>
 6    1  0.5317355E-006  0.1104351E+03  0.7561462E-02  0.1259766E+00
         -1   -1    0    0    0  501 -0.00000000000E+00  0.00000000000E+00  0.44037692888E+02  0.44037692888E+02  0.00000000000E+00 0.  1.
          1   -1    0    0  501    0  0.00000000000E+00 -0.00000000000E+00 -0.30496551541E+03  0.30496551541E+03  0.00000000000E+00 0. -1.
          5    1    1    2  502    0 -0.55516539913E+02 -0.81857557341E+01 -0.85757881648E+02  0.10257182589E+03  0.41800000000E+01 0. -1.
         -5    1    1    2    0  502  0.66351382469E+02 -0.22313698815E+02 -0.60833662422E+02  0.92836490638E+02  0.41800000000E+01 0. -1.
        -11    1    1    2    0    0 -0.41852873828E+02 -0.10413054193E+02 -0.82750946272E+02  0.93315667785E+02  0.00000000000E+00 0.  1.
         11    1    1    2    0    0  0.31018031271E+02  0.40912508742E+02 -0.31585332177E+02  0.60279223985E+02  0.00000000000E+00 0. -1.
</event>
<event>
 6    1  0.5317355E-006  0.1168809E+03  0.7561462E-02  0.1248333E+00
         -2   -1    0    0    0  501 -0.00000000000E+00  0.00000000000E+00  0.18535507651E+02  0.18535507651E+02  0.00000000000E+00 0.  1.
          2   -1    0    0  501    0  0.00000000000E+00 -0.00000000000E+00 -0.79674267336E+03  0.79674267336E+03  0.00000000000E+00 0. -1.
          5    1    1    2  502    0  0.58336810367E+02 -0.74730677366E+02 -0.33087863891E+03  0.34421795954E+03  0.41800000000E+01 0. -1.
         -5    1    1    2    0  502 -0.15751968320E+02  0.38552109320E+02 -0.12689929248E+03  0.13362369727E+03  0.41800000000E+01 0. -1.
        -11    1    1    2    0    0 -0.24631550602E+02 -0.23891317589E+02 -0.18557289012E+03  0.18871885409E+03  0.00000000000E+00 0. -1.
         11    1    1    2    0    0 -0.17953291445E+02  0.60069885635E+02 -0.13485634419E+03  0.14871767011E+03  0.00000000000E+00 0.  1.
</event>
<event>
 6    1  0.5317355E-006  0.1048664E+03  0.7561462E-02  0.1270383E+00
         -1   -1    0    0    0  501 -0.00000000000E+00  0.00000000000E+00  0.26714937740E+03  0.26714937740E+03  0.00000000000E+00 0.  1.
          1   -1    0    0  501    0  0.00000000000E+00 -0.00000000000E+00 -0.97905366187E+02  0.97905366187E+02  0.00000000000E+00 0. -1.
          5    1    1    2  502    0 -0.11999452945E+02 -0.35818908097E+02  0.10280183666E+02  0.39371761764E+02  0.41800000000E+01 0. -1.
         -5    1    1    2    0  502  0.75217521686E+02  0.19770590805E+02  0.19249658054E+03  0.20765586375E+03  0.41800000000E+01 0. -1.
        -11    1    1    2    0    0 -0.19498834309E+02  0.39630966144E+02 -0.49031126802E+02  0.65991434386E+02  0.00000000000E+00 0. -1.
         11    1    1    2    0    0 -0.43719234432E+02 -0.23582648852E+02  0.15498373809E+02  0.52035683689E+02  0.00000000000E+00 0.  1.
</event>
<event>
 6    1  0.5317355E-006  0.1156893E+03  0.7561462E-02  0.1250383E+00
         -2   -1    0    0    0  501 -0.00000000000E+00  0.00000000000E+00  0.19768641349E+03  0.19768641349E+03  0.00000000000E+00 0.  1.
          2   -1    0    0  501    0  0.00000000000E+00 -0.00000000000E+00 -0.90151851456E+02  0.90151851456E+02  0.00000000000E+00 0. -1.
          5    1    1    2  502    0  0.76194082011E+02 -0.68778893173E+01  0.24151837834E+02  0.80334470595E+02  0.41800000000E+01 0. -1.
         -5    1    1    2    0  502 -0.22980252653E+02  0.57416331034E+02  0.65448691472E+02  0.90142834972E+02  0.41800000000E+01 0. -1.
        -11    1    1    2    0    0  0.10701317103E+02 -0.18277035504E+02 -0.25865471463E+02  0.33430387801E+02  0.00000000000E+00 0. -1.
         11    1    1    2    0    0 -0.63915146461E+02 -0.32261406213E+02  0.43799504192E+02  0.83930571578E+02  0.00000000000E+00 0.  1.
</event>
<event>
 6    1  0.5317355E-006  0.1001731E+03  0.7561462E-02  0.1279932E+00
         -4   -1    0    0    0  501 -0.00000000000E+00  0.00000000000E+00  0.29730066297E+03  0.29730066297E+03  0.00000000000E+00 0.  1.
          4   -1    0    0  501    0  0.00000000000E+00 -0.00000000000E+00 -0.76566829020E+02  0.76566829020E+02  0.00000000000E+00 0. -1.
          5    1    1    2  502    0 -0.56806144514E+02  0.32901178723E+02  0.20547375217E+03  0.21574605639E+03  0.41800000000E+01 0.  1.
         -5    1    1    2    0  502  0.42047984424E+02  0.17358746949E+02  0.26092576373E+02  0.52608497713E+02  0.41800000000E+01 0.  1.
        -11    1    1    2    0    0 -0.28969397088E+02 -0.14490060535E+02  0.22941885647E+02  0.39692794547E+02  0.00000000000E+00 0.  1.
         11    1    1    2    0    0  0.43727557177E+02 -0.35769865137E+02 -0.33774380243E+02  0.65820143341E+02  0.00000000000E+00 0. -1.
</event>
<event>
 6    1  0.5317355E-006  0.1462500E+03  0.7561462E-02  0.1205158E+00
          2   -1    0    0  501    0  0.00000000000E+00  0.00000000000E+00  0.59227272054E+03  0.59227272054E+03  0.00000000000E+00 0. -1.
         -2   -1    0    0    0  501 -0.00000000000E+00 -0.00000000000E+00 -0.54054203871E+02  0.54054203871E+02  0.00000000000E+00 0.  1.
          5    1    1    2  502    0 -0.35528986422E+02  0.11142292428E+02  0.69696455223E+01  0.38111781845E+02  0.41800000000E+01 0.  1.
         -5    1    1    2    0  502  0.71090948051E+02  0.10674463115E+03  0.14964232045E+03  0.19712593853E+03  0.41800000000E+01 0.  1.
        -11    1    1    2    0    0 -0.36992687090E+02 -0.73335373745E+02  0.11819366774E+03  0.14393150814E+03  0.00000000000E+00 0.  1.
         11    1    1    2    0    0  0.14307254607E+01 -0.44551549833E+02  0.26341288296E+03  0.26715769590E+03  0.00000000000E+00 0. -1.
</event>
<event>
 6    1  0.5317355E-006  0.1024544E+03  0.7561462E-02  0.1275218E+00
         -3   -1    0    0    0  501 -0.00000000000E+00  0.00000000000E+00  0.16601503001E+02  0.16601503001E+02  0.00000000000E+00 0.  1.
          3   -1    0    0  501    0  0.00000000000E+00 -0.00000000000E+00 -0.82944936867E+03  0.82944936867E+03  0.00000000000E+00 0. -1.
          5    1    1    2  502    0 -0.85215007308E+01  0.52950670727E+02 -0.87008819398E+02  0.10229563313E+03  0.41800000000E+01 0.  1.
         -5    1    1    2    0  502  0.44261198874E+02 -0.23575181226E+02 -0.38225751014E+03  0.38555559827E+03  0.41800000000E+01 0.  1.
        -11    1    1    2    0    0  0.17897626268E+02  0.20733569216E+02 -0.10985567036E+03  0.11321870087E+03  0.00000000000E+00 0. -1.
         11    1    1    2    0    0 -0.53637324412E+02 -0.50109058717E+02 -0.23372586577E+03  0.24498093939E+03  0.00000000000E+00 0.  1.
</event>
<event>
 6    1  0.5317355E-006  0.1944476E+03  0.7561462E-02  0.1154510E+00
          2   -1    0    0  501    0  0.00000000000E+00  0.00000000000E+00  0.58897600146E+03  0.58897600146E+03  0.00000000000E+00 0. -1.
         -2   -1    0    0    0  501 -0.00000000000E+00 -0.00000000000E+00 -0.75549266009E+02  0.75549266009E+02  0.00000000000E+00 0.  1.
          5    1    1    2  502    0 -0.18862831934E+01  0.34925816472E+02  0.62069313451E+01  0.35768269699E+02  0.41800000000E+01 0.  1.
         -5    1    1    2    0  502 -0.16129066131E+03  0.41177148273E+02  0.26488547153E+03  0.31287700521E+03  0.41800000000E+01 0.  1.
        -11    1    1    2    0    0  0.12044542206E+03 -0.79452264726E+02  0.22958338535E+03  0.27116100917E+03  0.00000000000E+00 0.  1.
         11    1    1    2    0    0  0.42731522435E+02  0.33492999806E+01  0.12750947230E+02  0.44718983387E+02  0.00000000000E+00 0. -1.
</event>
<event>
 6    1  0.5317355E-006  0.1123245E+03  0.7561462E-02  0.1256325E+00
          1   -1    0    0  501    0  0.00000000000E+00  0.00000000000E+00  0.44221064450E+02  0.44221064450E+02  0.00000000000E+00 0. -1.
         -1   -1    0    0    0  501 -0.00000000000E+00 -0.00000000000E+00 -0.35200191248E+03  0.35200191248E+03  0.00000000000E+00 0.  1.
          5    1    1    2  502    0 -0.35740658088E+02  0.34679150396E+02 -0.59211491753E+02  0.77482328749E+02  0.41800000000E+01 0.  1.
         -5    1    1    2    0  502  0.29619346449E+02 -0.66418174827E+02 -0.18446953888E+03  0.19833094264E+03  0.41800000000E+01 0.  1.
        -11    1    1    2    0    0  0.41718249718E+02 -0.13879933913E+02 -0.25051199360E+02  0.50602643353E+02  0.00000000000E+00 0.  1.
         11    1    1    2    0    0 -0.35596938079E+02  0.45618958344E+02 -0.39048618028E+02  0.69807062185E+02  0.00000000000E+00 0. -1.
</event>
<event>
 6    1  0.5317355E-006  0.9302487E+02  0.7561462E-02  0.1295688E+00
         -1   -1    0    0    0  501 -0.00000000000E+00  0.00000000000E+00  0.48121342607E+03  0.48121342607E+03  0.00000000000E+00 0.  1.
          1   -1    0    0  501    0  0.00000000000E+00 -0.00000000000E+00 -0.32096829203E+02  0.32096829203E+02  0.00000000000E+00 0. -1.
          5    1    1    2  502    0 -0.31183237573E+02  0.18593744195E+02  0.10854311477E+02  0.38123616124E+02  0.41800000000E+01 0. -1.
         -5    1    1    2    0  502 -0.23162104515E+02 -0.34902501409E+02  0.28466324001E+03  0.28775910116E+03  0.41800000000E+01 0. -1.
        -11    1    1    2    0    0  0.38594913086E+02 -0.36000065386E+02  0.75774147486E+02  0.92343345462E+02  0.00000000000E+00 0.  1.
         11    1    1    2    0    0  0.15750429002E+02  0.52308822600E+02  0.77824897895E+02  0.95084192524E+02  0.00000000000E+00 0. -1.
</event>
<event>
 6    1  0.5317355E-006  0.1085206E+03  0.7561462E-02  0.1263334E+00
          3   -1    0    0  501    0  0.00000000000E+00  0.00000000000E+00  0.70893222431E+02  0.70893222431E+02  0.00000000000E+00 0. -1.
         -3   -1    0    0    0  501 -0.00000000000E+00 -0.00000000000E+00 -0.24837692081E+03  0.24837692081E+03  0.00000000000E+00 0.  1.
          5    1    1    2  502    0 -0.83599516051E+02  0.30683802067E+02 -0.42328623899E+02  0.98689207082E+02  0.41800000000E+01 0.  1.
         -5    1    1    2    0  502  0.18640637831E+02 -0.11195377594E+02 -0.10052738267E+03  0.10293705321E+03  0.41800000000E+01 0.  1.
        -11    1    1    2    0    0  0.80581413746E+02 -0.31004092546E+02 -0.10955117106E+02  0.87032365168E+02  0.00000000000E+00 0.  1.
         11    1    1    2    0    0 -0.15622535526E+02  0.11515668074E+02 -0.23672574709E+02  0.30611517780E+02  0.00000000000E+00 0. -1.
</event>
<event>
 6    1  0.5317355E-006  0.8880289E+02  0.7561462E-02  0.1305777E+00
          1   -1    0    0  501    0  0.00000000000E+00  0.00000000000E+00  0.48482936857E+03  0.48482936857E+03  0.00000000000E+00 0. -1.
         -1   -1    0    0    0  501 -0.00000000000E+00 -0.00000000000E+00 -0.28024400642E+02  0.28024400642E+02  0.00000000000E+00 0.  1.
          5    1    1    2  502    0  0.76873151575E+02 -0.10253870383E+02  0.26727634615E+03  0.27833206949E+03  0.41800000000E+01 0. -1.
         -5    1    1    2    0  502 -0.37217174801E+02 -0.17615510886E+01  0.34662826086E+02  0.51060797826E+02  0.41800000000E+01 0. -1.
        -11    1    1    2    0    0 -0.19965633508E+02  0.29828954522E+02  0.15265321600E+03  0.15681644494E+03  0.00000000000E+00 0. -1.
         11    1    1    2    0    0 -0.19690343265E+02 -0.17813533051E+02  0.22125796878E+01  0.26644456957E+02  0.00000000000E+00 0.  1.
</event>
<event>
 6    1  0.5317355E-006  0.9476465E+02  0.7561462E-02  0.1291707E+00
          2   -1    0    0  501    0  0.00000000000E+00  0.00000000000E+00  0.26503439792E+02  0.26503439792E+02  0.00000000000E+00 0. -1.
         -2   -1    0    0    0  501 -0.00000000000E+00 -0.00000000000E+00 -0.49108004818E+03  0.49108004818E+03  0.00000000000E+00 0.  1.
          5    1    1    2  502    0 -0.66012722747E+02  0.55176464223E+01 -0.21406809021E+03  0.22412216229E+03  0.41800000000E+01 0. -1.
         -5    1    1    2    0  502  0.51000160558E+02  0.15809849275E+02 -0.10250220232E+03  0.11565094721E+03  0.41800000000E+01 0.  1.
        -11    1    1    2    0    0  0.10939879790E+02 -0.44624799935E+02 -0.24519931846E+02  0.52079562180E+02  0.00000000000E+00 0.  1.
         11    1    1    2    0    0  0.40726823982E+01  0.23297304238E+02 -0.12348638402E+03  0.12573081629E+03  0.00000000000E+00 0. -1.
</event>
<event>
 6    1  0.5317355E-006  0.9589297E+02  0.7561462E-02  0.1289177E+00
          3   -1    0    0  501    0  0.00000000000E+00  0.00000000000E+00  0.35925881370E+02  0.35925881370E+02  0.00000000000E+00 0. -1.
         -3   -1    0    0    0  501 -0.00000000000E+00 -0.00000000000E+00 -0.52925679285E+03  0.52925679285E+03  0.00000000000E+00 0.  1.
          5    1    1    2  502    0  0.45671626777E+02 -0.27636067932E+02 -0.60208582902E+02  0.80574162101E+02  0.41800000000E+01 0.  1.
         -5    1    1    2    0  502 -0.45332573254E+02 -0.43504697638E+02 -0.31614016207E+03  0.32235039225E+03  0.41800000000E+01 0.  1.
        -11    1    1    2    0    0  0.11958127135E+02  0.28895484272E+02 -0.11394089721E+03  0.11815444923E+03  0.00000000000E+00 0.  1.
         11    1    1    2    0    0 -0.12297180658E+02  0.42245281299E+02 -0.30412692966E+01  0.44103670630E+02  0.00000000000E+00 0. -1.
</event>
<event>
 6    1  0.5317355E-006  0.9187163E+02  0.7561462E-02  0.1298382E+00
         -1   -1    0    0    0  501 -0.00000000000E+00  0.00000000000E+00  0.16050957403E+03  0.16050957403E+03  0.00000000000E+00 0.  1.
          1   -1    0    0  501    0  0.00000000000E+00 -0.00000000000E+00 -0.10033079044E+03  0.10033079044E+03  0.00000000000E+00 0. -1.
          5    1    1    2  502    0 -0.71733766263E+01  0.21205213208E+02  0.83358168163E+02  0.86412817330E+02  0.41800000000E+01 0. -1.
         -5    1    1    2    0  502  0.47585396595E+02 -0.50066329629E+02 -0.49039340004E+01  0.69372388602E+02  0.41800000000E+01 0. -1.
        -11    1    1    2    0    0 -0.60142623174E+02  0.43409709778E+01 -0.34683195115E+02  0.69562225200E+02  0.00000000000E+00 0. -1.
         11    1    1    2    0    0  0.19730603205E+02  0.24520145443E+02  0.16407744545E+02  0.35492933331E+02  0.00000000000E+00 0.  1.
</event>
<event>
 6    1  0.5317355E-006  0.1163130E+03  0.7561462E-02  0.1249306E+00
          1   -1    0    0  501    0  0.00000000000E+00  0.00000000000E+00  0.40817062395E+02  0.40817062395E+02  0.00000000000E+00 0. -1.
         -1   -1    0    0    0  501 -0.00000000000E+00 -0.00000000000E+00 -0.44732184446E+03  0.44732184446E+03  0.00000000000E+00 0.  1.
          5    1    1    2  502    0 -0.93302605911E+01  0.17783680900E+02  0.38784002650E+01  0.20876480969E+02  0.41800000000E+01 0. -1.
         -5    1    1    2    0  502  0.38496163448E+02 -0.90630720200E+02 -0.21795468415E+03  0.23920200415E+03  0.41800000000E+01 0. -1.
        -11    1    1    2    0    0 -0.47177270601E+02  0.10061089190E+02 -0.41609564088E+02  0.63704601095E+02  0.00000000000E+00 0.  1.
         11    1    1    2    0    0  0.18011367744E+02  0.62785950111E+02 -0.15081893409E+03  0.16435582064E+03  0.00000000000E+00 0. -1.
</event>
<event>
 6    1  0.5317355E-006  0.1473465E+03  0.7561462E-02  0.1203772E+00
          2   -1    0    0  501    0  0.00000000000E+00  0.00000000000E+00  0.15162191393E+04  0.15162191393E+04  0.00000000000E+00 0. -1.
         -2   -1    0    0    0  501 -0.00000000000E+00 -0.00000000000E+00 -0.18315747521E+02  0.18315747521E+02  0.00000000000E+00 0.  1.
          5    1    1    2  502    0 -0.13801720702E+02  0.13092722955E+03  0.46902488068E+03  0.48716961937E+03  0.41800000000E+01 0.  1.
         -5    1    1    2    0  502 -0.74277315266E+01 -0.64144875393E+01  0.38562115256E+03  0.38576866455E+03  0.41800000000E+01 0.  1.
        -11    1    1    2    0    0  0.22819763462E+02  0.45210105380E+01  0.62855723759E+02  0.67022557024E+02  0.00000000000E+00 0.  1.
         11    1    1    2    0    0 -0.15903112337E+01 -0.12903375255E+03  0.58040163476E+03  0.59457404586E+03  0.00000000000E+00 0. -1.
</event>
<event>
 6    1  0.5317355E-006  0.1046462E+03  0.7561462E-02  0.1270818E+00
         -1   -1    0    0    0  501 -0.00000000000E+00  0.00000000000E+00  0.23193801462E+02  0.23193801462E+02  0.00000000000E+00 0.  1.
          1   -1    0    0  501    0  0.00000000000E+00 -0.00000000000E+00 -0.57408076850E+03  0.57408076850E+03  0.00000000000E+00 0. -1.
          5    1    1    2  502    0 -0.55559224014E+02 -0.45754749652E+02 -0.94569978099E+02  0.11891710410E+03  0.41800000000E+01 0. -1.
         -5    1    1    2    0  502  0.40306981861E+02  0.27242378182E+02 -0.13593186456E+03  0.14443595175E+03  0.41800000000E+01 0. -1.
        -11    1    1    2    0    0  0.37900515369E+02  0.41427621768E+02 -0.25398618383E+03  0.26011858543E+03  0.00000000000E+00 0.  1.
         11    1    1    2    0    0 -0.22648273216E+02 -0.22915250299E+02 -0.66398940546E+02  0.73802928679E+02  0.00000000000E+00 0. -1.
</event>
<event>
 6    1  0.5317355E-006  0.1972135E+03  0.7561462E-02  0.1152112E+00
         -1   -1    0    0    0  501 -0.00000000000E+00  0.00000000000E+00  0.71213853227E+02  0.71213853227E+02  0.00000000000E+00 0.  1.
          1   -1    0    0  501    0  0.00000000000E+00 -0.00000000000E+00 -0.66927463740E+03  0.66927463740E+03  0.00000000000E+00 0. -1.
          5    1    1    2  502    0  0.10751220953E+03  0.14927550394E+03 -0.12615587962E+03  0.22310273337E+03  0.41800000000E+01 0. -1.
         -5    1    1    2    0  502  0.37822715133E+01 -0.17325934071E+02 -0.50738623168E+02  0.53910795303E+02  0.41800000000E+01 0. -1.
        -11    1    1    2    0    0  0.41816127681E+00 -0.58500484881E+02 -0.15365519269E+03  0.16441532723E+03  0.00000000000E+00 0.  1.
         11    1    1    2    0    0 -0.11171264232E+03 -0.73449084988E+02 -0.26751108870E+03  0.29905963471E+03  0.00000000000E+00 0. -1.
</event>
<event>
 6    1  0.5317355E-006  0.1233215E+03  0.7561462E-02  0.1237716E+00
          3   -1    0    0  501    0  0.00000000000E+00  0.00000000000E+00  0.37822242427E+02  0.37822242427E+02  0.00000000000E+00 0. -1.
         -3   -1    0    0    0  501 -0.00000000000E+00 -0.00000000000E+00 -0.55670370593E+03  0.55670370593E+03  0.00000000000E+00 0.  1.
          5    1    1    2  502    0 -0.27946904811E+02 -0.75079396570E+02 -0.18531528150E+03  0.20193358125E+03  0.41800000000E+01 0. -1.
         -5    1    1    2    0  502 -0.44595405068E+02  0.46656955545E+02 -0.22144041944E+03  0.23069233497E+03  0.41800000000E+01 0. -1.
        -11    1    1    2    0    0  0.57289672968E+02  0.49510465212E+02 -0.11280933824E+03  0.13586515222E+03  0.00000000000E+00 0.  1.
         11    1    1    2    0    0  0.15252636911E+02 -0.21088024187E+02  0.68357566992E+00  0.26034879922E+02  0.00000000000E+00 0. -1.
</event>
<event>
 6    1  0.5317355E-006  0.1192882E+03  0.7561462E-02  0.1244276E+00
         -1   -1    0    0    0  501 -0.00000000000E+00  0.00000000000E+00  0.27918501019E+02  0.27918501019E+02  0.00000000000E+00 0.  1.
          1   -1    0    0  501    0  0.00000000000E+00 -0.00000000000E+00 -0.53793542280E+03  0.53793542280E+03  0.00000000000E+00 0. -1.
          5    1    1    2  502    0  0.85271672609E+02  0.46584980319E+01 -0.15871227482E+03  0.18027761461E+03  0.41800000000E+01 0.  1.
         -5    1    1    2    0  502 -0.40662463517E+02  0.30396119243E+02 -0.12325173114E+03  0.13336349438E+03  0.41800000000E+01 0.  1.
        -11    1    1    2    0    0 -0.52435060351E+02  0.12530445660E+02 -0.79721308897E+02  0.96238945935E+02  0.00000000000E+00 0.  1.
         11    1    1    2    0    0  0.78258512602E+01 -0.47585062935E+02 -0.14833160693E+03  0.15597386890E+03  0.00000000000E+00 0. -1.
</event>
<event>
 6    1  0.5317355E-006  0.9689281E+02  0.7561462E-02  0.1286969E+00
         -2   -1    0    0    0  501 -0.00000000000E+00  0.00000000000E+00  0.66816441429E+03  0.66816441429E+03  0.00000000000E+00 0.  1.
          2   -1    0    0  501    0  0.00000000000E+00 -0.00000000000E+00 -0.20353154004E+02  0.20353154004E+02  0.00000000000E+00 0. -1.
          5    1    1    2  502    0  0.13970849094E+02 -0.67854457744E+02  0.18987369031E+03  0.20216058650E+03  0.41800000000E+01 0. -1.
         -5    1    1    2    0  502  0.26904578529E+02  0.54560050127E+02  0.23813601283E+03  0.24581881218E+03  0.41800000000E+01 0. -1.
        -11    1    1    2    0    0  0.10538611409E+02  0.13765605103E+01 -0.34179935080E+01  0.11164225405E+02  0.00000000000E+00 0. -1.
         11    1    1    2    0    0 -0.51414039032E+02  0.11917847106E+02  0.22321955066E+03  0.22937394421E+03  0.00000000000E+00 0.  1.
</event>
<event>
 6    1  0.5317355E-006  0.1366086E+03  0.7561462E-02  0.1217967E+00
         -1   -1    0    0    0  501 -0.00000000000E+00  0.00000000000E+00  0.11333810674E+03  0.11333810674E+03  0.00000000000E+00 0.  1.
          1   -1    0    0  501    0  0.00000000000E+00 -0.00000000000E+00 -0.20674057517E+03  0.20674057517E+03  0.00000000000E+00 0. -1.
          5    1    1    2  502    0 -0.92749840930E+02 -0.29271502074E+02  0.10487909264E+02  0.97912320302E+02  0.41800000000E+01 0.  1.
         -5    1    1    2    0  502  0.29465801529E+01  0.51927513658E+02 -0.26564040932E+02  0.58551427651E+02  0.41800000000E+01 0.  1.
        -11    1    1    2    0    0 -0.31606890047E+01 -0.30251042848E+02 -0.62043036983E+02  0.69097423877E+02  0.00000000000E+00 0. -1.
         11    1    1    2    0    0  0.92963949782E+02  0.75950312651E+01 -0.15283299775E+02  0.94517510076E+02  0.00000000000E+00 0.  1.
</event>
<event>
 6    1  0.5317355E-006  0.1185139E+03  0.7561462E-02  0.1245569E+00
          1   -1    0    0  501    0  0.00000000000E+00  0.00000000000E+00  0.14778839907E+03  0.14778839907E+03  0.00000000000E+00 0. -1.
         -1   -1    0    0    0  501 -0.00000000000E+00 -0.00000000000E+00 -0.12040755965E+03  0.12040755965E+03  0.00000000000E+00 0.  1.
          5    1    1    2  502    0 -0.81362968235E+02 -0.33067325866E+02  0.19427893728E+02  0.90046077620E+02  0.41800000000E+01 0.  1.
         -5    1    1    2    0  502  0.10145792145E+02  0.44852061168E+02 -0.29354887501E+02  0.54715868900E+02  0.41800000000E+01 0.  1.
        -11    1    1    2    0    0  0.20547374447E+02  0.30606381422E+02 -0.14363091034E+02  0.39563159182E+02  0.00000000000E+00 0.  1.
         11    1    1    2    0    0  0.50669801643E+02 -0.42391116724E+02  0.51670924227E+02  0.83870853019E+02  0.00000000000E+00 0. -1.
</event>
<event>
 6    1  0.5317355E-006  0.1688828E+03  0.7561462E-02  0.1179018E+00
         -2   -1    0    0    0  501 -0.00000000000E+00  0.00000000000E+00  0.36007950514E+03  0.36007950514E+03  0.00000000000E+00 0.  1.
          2   -1    0    0  501    0  0.00000000000E+00 -0.00000000000E+00 -0.10571990043E+03  0.10571990043E+03  0.00000000000E+00 0. -1.
          5    1    1    2  502    0 -0.66722048888E+02 -0.10161593223E+03  0.18105883606E+03  0.21812245186E+03  0.41800000000E+01 0.  1.
         -5    1    1    2    0  502  0.13354842956E+02 -0.43591332593E+02 -0.68829754138E+01  0.46296909812E+02  0.41800000000E+01 0.  1.
        -11    1    1    2    0    0 -0.11545002789E+02  0.28068423055E+00  0.34139482821E+02  0.36039841291E+02  0.00000000000E+00 0.  1.
         11    1    1    2    0    0  0.64912208722E+02  0.14492658059E+03  0.46044261245E+02  0.16534020260E+03  0.00000000000E+00 0. -1.
</event>
<event>
 6    1  0.5317355E-006  0.1093344E+03  0.7561462E-02  0.1261807E+00
          1   -1    0    0  501    0  0.00000000000E+00  0.00000000000E+00  0.16715664181E+02  0.16715664181E+02  0.00000000000E+00 0. -1.
         -1   -1    0    0    0  501 -0.00000000000E+00 -0.00000000000E+00 -0.78557790071E+03  0.78557790071E+03  0.00000000000E+00 0.  1.
          5    1    1    2  502    0 -0.39428008587E+02 -0.71022275648E+02 -0.33400782600E+03  0.34376944560E+03  0.41800000000E+01 0. -1.
         -5    1    1    2    0  502  0.26172537271E+02  0.37893712579E+02 -0.12361094758E+03  0.13197755082E+03  0.41800000000E+01 0. -1.
        -11    1    1    2    0    0  0.22232282592E+02  0.59346274081E+02 -0.26637649065E+03  0.27381141212E+03  0.00000000000E+00 0.  1.
         11    1    1    2    0    0 -0.89768112762E+01 -0.26217711013E+02 -0.44866972299E+02  0.52735156345E+02  0.00000000000E+00 0. -1.
</event>
<event>
 6    1  0.5317355E-006  0.2179704E+03  0.7561462E-02  0.1135405E+00
          1   -1    0    0  501    0  0.00000000000E+00  0.00000000000E+00  0.11305978998E+04  0.11305978998E+04  0.00000000000E+00 0. -1.
         -1   -1    0    0    0  501 -0.00000000000E+00 -0.00000000000E+00 -0.48152379077E+02  0.48152379077E+02  0.00000000000E+00 0.  1.
          5    1    1    2  502    0 -0.18776592171E+00 -0.11621549803E+02  0.16343621175E+03  0.16390229830E+03  0.41800000000E+01 0.  1.
         -5    1    1    2    0  502  0.19070848496E+03 -0.67573634053E+02  0.37487283297E+03  0.42600825761E+03  0.41800000000E+01 0.  1.
        -11    1    1    2    0    0 -0.93755768088E+02  0.81793114070E+02  0.35857407035E+03  0.37954659989E+03  0.00000000000E+00 0.  1.
         11    1    1    2    0    0 -0.96764950954E+02 -0.25979302140E+01  0.18556240562E+03  0.20929312304E+03  0.00000000000E+00 0. -1.
</event>
<event>
 6    1  0.5317355E-006  0.1324187E+03  0.7561462E-02  0.1223910E+00
         -1   -1    0    0    0  501 -0.00000000000E+00  0.00000000000E+00  0.19767192027E+02  0.19767192027E+02  0.00000000000E+00 0.  1.
          1   -1    0    0  501    0  0.00000000000E+00 -0.00000000000E+00 -0.96977303182E+03  0.96977303182E+03  0.00000000000E+00 0. -1.
          5    1    1    2  502    0 -0.58994283735E+01  0.31707116893E+02 -0.52993057686E+02  0.62176209918E+02  0.41800000000E+01 0.  1.
         -5    1    1    2    0  502 -0.14273664670E+02 -0.10978821335E+03 -0.37012511694E+03  0.38635121830E+03  0.41800000000E+01 0.  1.
        -11    1    1    2    0    0  0.53195283437E+02  0.24454683227E+02 -0.29315470626E+03  0.29894389359E+03  0.00000000000E+00 0. -1.
         11    1    1    2    0    0 -0.33022190394E+02  0.53626413229E+02 -0.23373295892E+03  0.24206890205E+03  0.00000000000E+00 0.  1.
</event>
<event>
 6    1  0.5317355E-006  0.3466757E+03  0.7561462E-02  0.1063988E+00
         -1   -1    0    0    0  501 -0.00000000000E+00  0.00000000000E+00  0.42959768596E+03  0.42959768596E+03  0.00000000000E+00 0.  1.
          1   -1    0    0  501    0  0.00000000000E+00 -0.00000000000E+00 -0.34927235389E+03  0.34927235389E+03  0.00000000000E+00 0. -1.
          5    1    1    2  502    0  0.10076650678E+03 -0.27250289040E+03 -0.35414006988E+02  0.29271716461E+03  0.41800000000E+01 0. -1.
         -5    1    1    2    0  502  0.40777072328E+02 -0.41280990235E+02 -0.64628848438E+02  0.86955449702E+02  0.41800000000E+01 0. -1.
        -11    1    1    2    0    0 -0.12242541600E+03  0.25648749931E+03  0.10586170653E+03  0.30328290538E+03  0.00000000000E+00 0.  1.
         11    1    1    2    0    0 -0.19118163105E+02  0.57296381326E+02  0.74506480967E+02  0.95914520171E+02  0.00000000000E+00 0. -1.
</event>
<event>
 6    1  0.5317355E-006  0.1128562E+03  0.7561462E-02  0.1255370E+00
         -2   -1    0    0    0  501 -0.00000000000E+00  0.00000000000E+00  0.10274514546E+03  0.10274514546E+03  0.00000000000E+00 0.  1.
          2   -1    0    0  501    0  0.00000000000E+00 -0.00000000000E+00 -0.23640280690E+03  0.23640280690E+03  0.00000000000E+00 0. -1.
          5    1    1    2  502    0 -0.91510883018E+02 -0.22908784050E+02  0.46770054744E+02  0.10537535062E+03  0.41800000000E+01 0. -1.
         -5    1    1    2    0  502  0.15876287763E+01  0.22754072878E+02 -0.42860257063E+02  0.48731329072E+02  0.41800000000E+01 0. -1.
        -11    1    1    2    0    0  0.50932040204E+02 -0.29725691039E+02 -0.11846954182E+03  0.13233564058E+03  0.00000000000E+00 0. -1.
         11    1    1    2    0    0  0.38991214038E+02  0.29880402211E+02 -0.19097917296E+02  0.52705632085E+02  0.00000000000E+00 0.  1.
</event>
<event>
 6    1  0.5317355E-006  0.1037436E+03  0.7561462E-02  0.1272615E+00
         -2   -1    0    0    0  501 -0.00000000000E+00  0.00000000000E+00  0.20480585613E+02  0.20480585613E+02  0.00000000000E+00 0. -1.
          2   -1    0    0  501    0  0.00000000000E+00 -0.00000000000E+00 -0.70382678348E+03  0.70382678348E+03  0.00000000000E+00 0.  1.
          5    1    1    2  502    0 -0.33612091767E+02  0.32450062624E+02 -0.70612514866E+02  0.84772512838E+02  0.41800000000E+01 0. -1.
         -5    1    1    2    0  502  0.77753230669E+02 -0.11181963344E+02 -0.27503979280E+03  0.28606810589E+03  0.41800000000E+01 0. -1.
        -11    1    1    2    0    0 -0.59500870788E+02 -0.52630767757E+01 -0.31874099434E+03  0.32428980106E+03  0.00000000000E+00 0.  1.
         11    1    1    2    0    0  0.15359731886E+02 -0.16005022504E+02 -0.18952895858E+02  0.29176949298E+02  0.00000000000E+00 0. -1.
</event>
<event>
 6    1  0.5317355E-006  0.1273434E+03  0.7561462E-02  0.1231452E+00
         -2   -1    0    0    0  501 -0.00000000000E+00  0.00000000000E+00  0.25855131445E+03  0.25855131445E+03  0.00000000000E+00 0.  1.
          2   -1    0    0  501    0  0.00000000000E+00 -0.00000000000E+00 -0.10318144615E+03  0.10318144615E+03  0.00000000000E+00 0. -1.
          5    1    1    2  502    0 -0.10306084495E+03  0.13729799074E+02 -0.12705421308E+02  0.10482817023E+03  0.41800000000E+01 0. -1.
         -5    1    1    2    0  502  0.16066687478E+02 -0.27216019890E+02  0.11406390890E+03  0.11843520548E+03  0.41800000000E+01 0.  1.
        -11    1    1    2    0    0  0.58166925281E+02  0.46829016144E+02  0.57510668126E+02  0.94254044465E+02  0.00000000000E+00 0.  1.
         11    1    1    2    0    0  0.28827232187E+02 -0.33342795328E+02 -0.34992874138E+01  0.44215340418E+02  0.00000000000E+00 0. -1.
</event>
<event>
 6    1  0.5317355E-006  0.7755615E+02  0.7561462E-02  0.1336133E+00
         -2   -1    0    0    0  501 -0.00000000000E+00  0.00000000000E+00  0.15163742913E+03  0.15163742913E+03  0.00000000000E+00 0.  1.
          2   -1    0    0  501    0  0.00000000000E+00 -0.00000000000E+00 -0.10776063691E+03  0.10776063691E+03  0.00000000000E+00 0. -1.
          5    1    1    2  502    0 -0.15081382608E+02  0.25670451810E+02 -0.41402824786E+02  0.51167240474E+02  0.41800000000E+01 0. -1.
         -5    1    1    2    0  502  0.24577879813E+02  0.46202739944E+02  0.84894482784E+02  0.99816386238E+02  0.41800000000E+01 0. -1.
        -11    1    1    2    0    0 -0.39258590195E+01 -0.39908294962E+02 -0.39979539962E+02  0.56625506544E+02  0.00000000000E+00 0. -1.
         11    1    1    2    0    0 -0.55706381850E+01 -0.31964896792E+02  0.40364674180E+02  0.51788932779E+02  0.00000000000E+00 0.  1.
</event>
<event>
 6    1  0.5317355E-006  0.1120958E+03  0.7561462E-02  0.1256737E+00
         -1   -1    0    0    0  501 -0.00000000000E+00  0.00000000000E+00  0.23260391485E+02  0.23260391485E+02  0.00000000000E+00 0. -1.
          1   -1    0    0  501    0  0.00000000000E+00 -0.00000000000E+00 -0.59909839458E+03  0.59909839458E+03  0.00000000000E+00 0.  1.
          5    1    1    2  502    0 -0.14508860854E+02 -0.62508134233E+02 -0.96838500346E+02  0.11624517813E+03  0.41800000000E+01 0. -1.
         -5    1    1    2    0  502 -0.29963567035E+02  0.49451605802E+02 -0.22047285593E+03  0.22796716708E+03  0.41800000000E+01 0. -1.
        -11    1    1    2    0    0  0.22062784163E+01  0.47401477777E+02 -0.13666388949E+03  0.14466784871E+03  0.00000000000E+00 0.  1.
         11    1    1    2    0    0  0.42266149473E+02 -0.34344949347E+02 -0.12186275733E+03  0.13347859214E+03  0.00000000000E+00 0. -1.
</event>
<event>
 6    1  0.7559240E-006  0.3013961E+03  0.7561462E-02  0.1084545E+00
          2   -1    0    0  501    0  0.00000000000E+00  0.00000000000E+00  0.15413975056E+03  0.15413975056E+03  0.00000000000E+00 0. -1.
         -2   -1    0    0    0  501 -0.00000000000E+00 -0.00000000000E+00 -0.65436953468E+03  0.65436953468E+03  0.00000000000E+00 0.  1.
          5    1    1    2  502    0 -0.13946328416E+03  0.46950858817E+02 -0.17009415850E+03  0.22495307495E+03  0.41800000000E+01 0. -1.
         -5    1    1    2    0  502 -0.14151169272E+03 -0.77992517871E+02 -0.20838174094E+03  0.26372109202E+03  0.41800000000E+01 0. -1.
        -11    1    1    2    0    0  0.11825422503E+03  0.53293477553E+02 -0.71360947626E+02  0.14804270105E+03  0.00000000000E+00 0. -1.
         11    1    1    2    0    0  0.16272075185E+03 -0.22251818499E+02 -0.50392937051E+02  0.17179241722E+03  0.00000000000E+00 0.  1.
</event>
<event>
 6    1  0.5317355E-006  0.1374490E+03  0.7561462E-02  0.1216803E+00
         -2   -1    0    0    0  501 -0.00000000000E+00  0.00000000000E+00  0.39303868010E+03  0.39303868010E+03  0.00000000000E+00 0.  1.
          2   -1    0    0  501    0  0.00000000000E+00 -0.00000000000E+00 -0.29952634040E+03  0.29952634040E+03  0.00000000000E+00 0. -1.
          5    1    1    2  502    0 -0.23513392901E+02 -0.79738116130E+02 -0.24945789348E+02  0.86895406184E+02  0.41800000000E+01 0. -1.
         -5    1    1    2    0  502 -0.17940774212E+02 -0.36081712639E+02  0.33585728494E+03  0.33829181133E+03  0.41800000000E+01 0.  1.
        -11    1    1    2    0    0 -0.24548756918E+02  0.10161978708E+02 -0.17425803211E+02  0.31773666691E+02  0.00000000000E+00 0.  1.
         11    1    1    2    0    0  0.66002924030E+02  0.10565785006E+03 -0.19997335268E+03  0.23560413630E+03  0.00000000000E+00 0. -1.
</event>
<event>
 6    1  0.5317355E-006  0.1764370E+03  0.7561462E-02  0.1171297E+00
         -1   -1    0    0    0  501 -0.00000000000E+00  0.00000000000E+00  0.89286078262E+02  0.89286078262E+02  0.00000000000E+00 0.  1.
          1   -1    0    0  501    0  0.00000000000E+00 -0.00000000000E+00 -0.39463521283E+03  0.39463521283E+03  0.00000000000E+00 0. -1.
          5    1    1    2  502    0 -0.11511244142E+03  0.33473765725E+02 -0.84689945218E+02  0.14683741479E+03  0.41800000000E+01 0. -1.
         -5    1    1    2    0  502  0.88785426480E+01  0.76568130410E+02 -0.68121485199E+02  0.10295395213E+03  0.41800000000E+01 0. -1.
        -11    1    1    2    0    0  0.78084224494E+02 -0.97487201550E+02 -0.15944511971E+03  0.20254295046E+03  0.00000000000E+00 0. -1.
         11    1    1    2    0    0  0.28149674280E+02 -0.12554694585E+02  0.69074155614E+01  0.31586973706E+02  0.00000000000E+00 0.  1.
</event>
<event>
 6    1  0.5317355E-006  0.1085371E+03  0.7561462E-02  0.1263303E+00
          2   -1    0    0  501    0  0.00000000000E+00  0.00000000000E+00  0.24520016556E+03  0.24520016556E+03  0.00000000000E+00 0.  1.
         -2   -1    0    0    0  501 -0.00000000000E+00 -0.00000000000E+00 -0.75820332466E+02  0.75820332466E+02  0.00000000000E+00 0. -1.
          5    1    1    2  502    0 -0.29996094074E+02 -0.44810395738E+02  0.47320932329E+02  0.71864318423E+02  0.41800000000E+01 0. -1.
         -5    1    1    2    0  502  0.57701041271E+02  0.24901114514E+01 -0.28205086653E+02  0.64409705261E+02  0.41800000000E+01 0. -1.
        -11    1    1    2    0    0  0.31733196646E+02 -0.64889326951E+00  0.28810828541E+02  0.42865845064E+02  0.00000000000E+00 0. -1.
         11    1    1    2    0    0 -0.59438143842E+02  0.42969177556E+02  0.12145315888E+03  0.14188062928E+03  0.00000000000E+00 0.  1.
</event>
<event>
 6    1  0.5317355E-006  0.2020923E+03  0.7561462E-02  0.1147986E+00
         -1   -1    0    0    0  501 -0.00000000000E+00  0.00000000000E+00  0.46343698601E+03  0.46343698601E+03  0.00000000000E+00 0.  1.
          1   -1    0    0  501    0  0.00000000000E+00 -0.00000000000E+00 -0.11034419325E+03  0.11034419325E+03  0.00000000000E+00 0. -1.
          5    1    1    2  502    0 -0.99988009185E+02  0.16957209070E+01  0.21267840247E+03  0.23505329763E+03  0.41800000000E+01 0. -1.
         -5    1    1    2    0  502 -0.85447980635E+02  0.43634923629E+02  0.36199865704E+02  0.10263170383E+03  0.41800000000E+01 0. -1.
        -11    1    1    2    0    0  0.34284158238E+02 -0.45420922937E+02  0.49253789613E+02  0.75262205241E+02  0.00000000000E+00 0.  1.
         11    1    1    2    0    0  0.15115183158E+03  0.90278400700E-01  0.54960734977E+02  0.16083397256E+03  0.00000000000E+00 0. -1.
</event>
<event>
 6    1  0.5317355E-006  0.1598085E+03  0.7561462E-02  0.1188913E+00
         -2   -1    0    0    0  501 -0.00000000000E+00  0.00000000000E+00  0.83425093811E+02  0.83425093811E+02  0.00000000000E+00 0.  1.
          2   -1    0    0  501    0  0.00000000000E+00 -0.00000000000E+00 -0.60058529810E+03  0.60058529810E+03  0.00000000000E+00 0. -1.
          5    1    1    2  502    0  0.35155530271E+02  0.29001449984E+02 -0.90761993164E+02  0.10164746535E+03  0.41800000000E+01 0.  1.
         -5    1    1    2    0  502  0.51711244736E+02  0.96410895903E+02  0.13319624598E+02  0.11029051854E+03  0.41800000000E+01 0.  1.
        -11    1    1    2    0    0 -0.59242188538E+02 -0.12314122914E+03 -0.30035025435E+03  0.32997526348E+03  0.00000000000E+00 0.  1.
         11    1    1    2    0    0 -0.27624586468E+02 -0.22711167490E+01 -0.13936758137E+03  0.14209714454E+03  0.00000000000E+00 0. -1.
</event>
<event>
 6    1  0.5317355E-006  0.8731230E+02  0.7561462E-02  0.1309494E+00
          2   -1    0    0  501    0  0.00000000000E+00  0.00000000000E+00  0.27802963805E+03  0.27802963805E+03  0.00000000000E+00 0. -1.
         -2   -1    0    0    0  501 -0.00000000000E+00 -0.00000000000E+00 -0.53431634454E+02  0.53431634454E+02  0.00000000000E+00 0.  1.
          5    1    1    2  502    0  0.24296136647E+02  0.11190699179E+02  0.11481332147E+03  0.11796230411E+03  0.41800000000E+01 0. -1.
         -5    1    1    2    0  502 -0.68561046062E+02  0.20625360848E+02  0.21397291963E+02  0.74842094108E+02  0.41800000000E+01 0. -1.
        -11    1    1    2    0    0  0.10663669782E+01 -0.32609093659E+02 -0.75065930200E+01  0.33478934669E+02  0.00000000000E+00 0.  1.
         11    1    1    2    0    0  0.43198542437E+02  0.79303363270E+00  0.95893983183E+02  0.10517793962E+03  0.00000000000E+00 0. -1.
</event>
<event>
 6    1  0.5317355E-006  0.2842478E+03  0.7561462E-02  0.1093391E+00
          3   -1    0    0  501    0  0.00000000000E+00  0.00000000000E+00  0.62702527827E+03  0.62702527827E+03  0.00000000000E+00 0. -1.
         -3   -1    0    0    0  501 -0.00000000000E+00 -0.00000000000E+00 -0.21295973714E+03  0.21295973714E+03  0.00000000000E+00 0.  1.
          5    1    1    2  502    0 -0.19061952772E+02 -0.23559937397E+03 -0.67104493816E+02  0.24574561756E+03  0.41800000000E+01 0.  1.
         -5    1    1    2    0  502  0.38079141733E+02 -0.31524238118E+02  0.20126395618E+02  0.53538237033E+02  0.41800000000E+01 0.  1.
        -11    1    1    2    0    0 -0.30136632933E+02  0.22518430834E+02  0.62449140909E+02  0.72905360380E+02  0.00000000000E+00 0.  1.
         11    1    1    2    0    0  0.11119443972E+02  0.24460518126E+03  0.39859449842E+03  0.46779580043E+03  0.00000000000E+00 0. -1.
</event>
<event>
 6    1  0.5317355E-006  0.1062305E+03  0.7561462E-02  0.1267714E+00
         -1   -1    0    0    0  501 -0.00000000000E+00  0.00000000000E+00  0.18050542211E+03  0.18050542211E+03  0.00000000000E+00 0.  1.
          1   -1    0    0  501    0  0.00000000000E+00 -0.00000000000E+00 -0.87166629676E+02  0.87166629676E+02  0.00000000000E+00 0. -1.
          5    1    1    2  502    0  0.54430588223E+02  0.11431072010E+02  0.40619227087E+02  0.68998205417E+02  0.41800000000E+01 0.  1.
         -5    1    1    2    0  502 -0.62730516070E+02 -0.28992553873E+02  0.80861502280E+02  0.10645064949E+03  0.41800000000E+01 0.  1.
        -11    1    1    2    0    0 -0.20596410630E+02  0.43813406119E+02 -0.11356857548E+02  0.49727305376E+02  0.00000000000E+00 0.  1.
         11    1    1    2    0    0  0.28896338477E+02 -0.26251924255E+02 -0.16785079385E+02  0.42495891500E+02  0.00000000000E+00 0. -1.
</event>
<event>
 6    1  0.5317355E-006  0.1031193E+03  0.7561462E-02  0.1273870E+00
          3   -1    0    0  501    0  0.00000000000E+00  0.00000000000E+00  0.38668811566E+03  0.38668811566E+03  0.00000000000E+00 0. -1.
         -3   -1    0    0    0  501 -0.00000000000E+00 -0.00000000000E+00 -0.45158913792E+02  0.45158913792E+02  0.00000000000E+00 0.  1.
          5    1    1    2  502    0  0.30978209894E+02 -0.40554026855E+02  0.24133082436E+02  0.56605270517E+02  0.41800000000E+01 0. -1.
         -5    1    1    2    0  502 -0.50834410896E+02  0.37423176247E+02  0.24727813997E+02  0.67923255492E+02  0.41800000000E+01 0.  1.
        -11    1    1    2    0    0 -0.53084999578E+01  0.43706543101E+02  0.17205105709E+03  0.17759506842E+03  0.00000000000E+00 0.  1.
         11    1    1    2    0    0  0.25164700959E+02 -0.40575692493E+02  0.12061724835E+03  0.12972343503E+03  0.00000000000E+00 0. -1.
</event>
<event>
 6    1  0.5317355E-006  0.1051353E+03  0.7561462E-02  0.1269853E+00
          3   -1    0    0  501    0  0.00000000000E+00  0.00000000000E+00  0.10845776914E+03  0.10845776914E+03  0.00000000000E+00 0. -1.
         -3   -1    0    0    0  501 -0.00000000000E+00 -0.00000000000E+00 -0.20339560993E+03  0.20339560993E+03  0.00000000000E+00 0.  1.
          5    1    1    2  502    0  0.34875926774E+02 -0.23229638756E+02 -0.95298816522E+02  0.10418869044E+03  0.41800000000E+01 0. -1.
         -5    1    1    2    0  502 -0.74048760921E+02  0.22334532286E+02 -0.53726441713E+02  0.94265864795E+02  0.41800000000E+01 0. -1.
        -11    1    1    2    0    0  0.39345246938E+02  0.37348058751E+02  0.54563720718E+02  0.76942352237E+02  0.00000000000E+00 0. -1.
         11    1    1    2    0    0 -0.17241279101E+00 -0.36452952282E+02 -0.47630327143E+00  0.36456471593E+02  0.00000000000E+00 0.  1.
</event>
<event>
 6    1  0.5317355E-006  0.1040330E+03  0.7561462E-02  0.1272037E+00
         -1   -1    0    0    0  501 -0.00000000000E+00  0.00000000000E+00  0.24234456462E+02  0.24234456462E+02  0.00000000000E+00 0.  1.
          1   -1    0    0  501    0  0.00000000000E+00 -0.00000000000E+00 -0.55922507728E+03  0.55922507728E+03  0.00000000000E+00 0. -1.
          5    1    1    2  502    0 -0.50718702307E+02  0.46634326102E+02 -0.26269817866E+03  0.27161544986E+03  0.41800000000E+01 0.  1.
         -5    1    1    2    0  502  0.38570438017E+02 -0.14162557955E+02 -0.38920195586E+02  0.56749544149E+02  0.41800000000E+01 0.  1.
        -11    1    1    2    0    0 -0.38820362848E+02 -0.25130752621E+02 -0.70826648503E+02  0.84587170641E+02  0.00000000000E+00 0.  1.
         11    1    1    2    0    0  0.50968627138E+02 -0.73410155257E+01 -0.16254559807E+03  0.17050736909E+03  0.00000000000E+00 0. -1.
</event>
<event>
 6    1  0.5317355E-006  0.1111423E+03  0.7561462E-02  0.1258469E+00
         -2   -1    0    0    0  501 -0.00000000000E+00  0.00000000000E+00  0.16211607261E+03  0.16211607261E+03  0.00000000000E+00 0. -1.
          2   -1    0    0  501    0  0.00000000000E+00 -0.00000000000E+00 -0.13417048306E+03  0.13417048306E+03  0.00000000000E+00 0.  1.
          5    1    1    2  502    0  0.61481938549E+01 -0.37730636327E+02  0.35552820141E+02  0.52372479656E+02  0.41800000000E+01 0. -1.
         -5    1    1    2    0  502  0.27122913020E+02  0.99113696686E+02  0.48284244972E+02  0.11361345868E+03  0.41800000000E+01 0. -1.
        -11    1    1    2    0    0  0.49842083557E+01 -0.32940529968E+02 -0.72525641209E+02  0.79811587381E+02  0.00000000000E+00 0.  1.
         11    1    1    2    0    0 -0.38255315231E+02 -0.28442530391E+02  0.16634165642E+02  0.50489029947E+02  0.00000000000E+00 0. -1.
</event>
<event>
 6    1  0.5317355E-006  0.9990448E+02  0.7561462E-02  0.1280497E+00
         -3   -1    0    0    0  501 -0.00000000000E+00  0.00000000000E+00  0.70581999119E+02  0.70581999119E+02  0.00000000000E+00 0.  1.
          3   -1    0    0  501    0  0.00000000000E+00 -0.00000000000E+00 -0.19884113015E+03  0.19884113015E+03  0.00000000000E+00 0. -1.
          5    1    1    2  502    0 -0.42077679823E+02  0.39677741155E+02 -0.47401564301E+02  0.74894826127E+02  0.41800000000E+01 0.  1.
         -5    1    1    2    0  502  0.52230416401E+02 -0.12760178258E+02  0.17872546906E+02  0.56813192830E+02  0.41800000000E+01 0.  1.
        -11    1    1    2    0    0 -0.21446967231E+02 -0.54241957125E+02 -0.36469854400E+02  0.68791079335E+02  0.00000000000E+00 0.  1.
         11    1    1    2    0    0  0.11294230653E+02  0.27324394228E+02 -0.62260259235E+02  0.68924030976E+02  0.00000000000E+00 0. -1.
</event>
<event>
 6    1  0.5317355E-006  0.1497694E+03  0.7561462E-02  0.1200757E+00
          2   -1    0    0  501    0  0.00000000000E+00  0.00000000000E+00  0.98166945643E+02  0.98166945643E+02  0.00000000000E+00 0. -1.
         -2   -1    0    0    0  501 -0.00000000000E+00 -0.00000000000E+00 -0.40006585787E+03  0.40006585787E+03  0.00000000000E+00 0.  1.
          5    1    1    2  502    0  0.48392880319E+02  0.37970406089E+02 -0.18241705554E+02  0.64295060663E+02  0.41800000000E+01 0.  1.
         -5    1    1    2    0  502  0.40875215103E+02  0.69092349290E+02 -0.25199983453E+03  0.26451072746E+03  0.41800000000E+01 0.  1.
        -11    1    1    2    0    0  0.10726837741E+02 -0.28126002672E+02  0.15154718215E+02  0.33701669964E+02  0.00000000000E+00 0. -1.
         11    1    1    2    0    0 -0.99994933163E+02 -0.78936752707E+02 -0.46812090357E+02  0.13572534542E+03  0.00000000000E+00 0.  1.
</event>
<event>
 6    1  0.5317355E-006  0.1124952E+03  0.7561462E-02  0.1256018E+00
          2   -1    0    0  501    0  0.00000000000E+00  0.00000000000E+00  0.17242905832E+03  0.17242905832E+03  0.00000000000E+00 0. -1.
         -2   -1    0    0    0  501 -0.00000000000E+00 -0.00000000000E+00 -0.11210480563E+03  0.11210480563E+03  0.00000000000E+00 0.  1.
          5    1    1    2  502    0  0.90904290377E+02  0.52938653721E+02 -0.18395164189E+02  0.10687350248E+03  0.41800000000E+01 0.  1.
         -5    1    1    2    0  502 -0.21914074399E+02 -0.31488457175E+02  0.11688903415E+01  0.38608137700E+02  0.41800000000E+01 0.  1.
        -11    1    1    2    0    0 -0.75641917630E+01  0.96578399014E+01 -0.17691227069E+02  0.21528362311E+02  0.00000000000E+00 0.  1.
         11    1    1    2    0    0 -0.61426024216E+02 -0.31108036448E+02  0.95241753610E+02  0.11752386146E+03  0.00000000000E+00 0. -1.
</event>
<event>
 6    1  0.5317355E-006  0.1443885E+03  0.7561462E-02  0.1207543E+00
          2   -1    0    0  501    0  0.00000000000E+00  0.00000000000E+00  0.17752337429E+03  0.17752337429E+03  0.00000000000E+00 0. -1.
         -2   -1    0    0    0  501 -0.00000000000E+00 -0.00000000000E+00 -0.16321857850E+03  0.16321857850E+03  0.00000000000E+00 0.  1.
          5    1    1    2  502    0  0.28062827350E+02  0.42754037012E+01  0.15545510303E+02  0.32633367069E+02  0.41800000000E+01 0. -1.
         -5    1    1    2    0  502 -0.56550496326E+02 -0.11748393290E+03 -0.63345112545E+02  0.14501899464E+03  0.41800000000E+01 0. -1.
        -11    1    1    2    0    0 -0.15004444855E+02  0.11154446729E+02 -0.18236749945E+02  0.26117696984E+02  0.00000000000E+00 0.  1.
         11    1    1    2    0    0  0.43492113830E+02  0.10205408247E+03  0.80341147969E+02  0.13697189409E+03  0.00000000000E+00 0. -1.
</event>
<event>
 6    1  0.5317355E-006  0.9060209E+02  0.7561462E-02  0.1301400E+00
         -1   -1    0    0    0  501 -0.00000000000E+00  0.00000000000E+00  0.48689108390E+02  0.48689108390E+02  0.00000000000E+00 0.  1.
          1   -1    0    0  501    0  0.00000000000E+00 -0.00000000000E+00 -0.24371281796E+03  0.24371281796E+03  0.00000000000E+00 0. -1.
          5    1    1    2  502    0  0.29635025496E+02  0.48411435110E+02 -0.73569752419E+02  0.93015496862E+02  0.41800000000E+01 0. -1.
         -5    1    1    2    0  502 -0.38262161401E+02 -0.53184954911E+02 -0.44708936298E+02  0.79429174797E+02  0.41800000000E+01 0. -1.
        -11    1    1    2    0    0 -0.23430668990E+02  0.11154957841E+02  0.95711820799E+01  0.27659299704E+02  0.00000000000E+00 0.  1.
         11    1    1    2    0    0  0.32057804895E+02 -0.63814380389E+01 -0.86316202931E+02  0.92297954986E+02  0.00000000000E+00 0. -1.
</event>
<event>
 6    1  0.5317355E-006  0.1431508E+03  0.7561462E-02  0.1209151E+00
          2   -1    0    0  501    0  0.00000000000E+00  0.00000000000E+00  0.11343228131E+03  0.11343228131E+03  0.00000000000E+00 0. -1.
         -2   -1    0    0    0  501 -0.00000000000E+00 -0.00000000000E+00 -0.19459299030E+03  0.19459299030E+03  0.00000000000E+00 0.  1.
          5    1    1    2  502    0  0.48412762410E+02  0.68866620637E+02 -0.18199339750E+02  0.86226999075E+02  0.41800000000E+01 0. -1.
         -5    1    1    2    0  502  0.53578375219E+02 -0.54858363058E+02 -0.16872272485E-02  0.76795538225E+02  0.41800000000E+01 0. -1.
        -11    1    1    2    0    0 -0.10590664698E+03  0.47948385041E+01 -0.66950954164E+02  0.12538595860E+03  0.00000000000E+00 0.  1.
         11    1    1    2    0    0  0.39155093496E+01 -0.18803096083E+02  0.39912721593E+01  0.19616775709E+02  0.00000000000E+00 0. -1.
</event>
<event>
 6    1  0.5317355E-006  0.9525219E+02  0.7561462E-02  0.1290609E+00
          1   -1    0    0  501    0  0.00000000000E+00  0.00000000000E+00  0.39962862924E+02  0.39962862924E+02  0.00000000000E+00 0. -1.
         -1   -1    0    0    0  501 -0.00000000000E+00 -0.00000000000E+00 -0.46827914438E+03  0.46827914438E+03  0.00000000000E+00 0.  1.
          5    1    1    2  502    0 -0.18820866100E+02  0.12036815763E+02 -0.19679998974E+03  0.19810809751E+03  0.41800000000E+01 0. -1.
         -5    1    1    2    0  502  0.79316578328E+02  0.34943452806E+02 -0.96151754711E+02  0.12951755412E+03  0.41800000000E+01 0. -1.
        -11    1    1    2    0    0 -0.18212181261E+02 -0.30694918249E+02 -0.13020985443E+03  0.13501284289E+03  0.00000000000E+00 0.  1.
         11    1    1    2    0    0 -0.42283530967E+02 -0.16285350320E+02 -0.51546825645E+01  0.45603512786E+02  0.00000000000E+00 0. -1.
</event>
<event>
 6    1  0.5317355E-006  0.1031831E+03  0.7561462E-02  0.1273741E+00
         -1   -1    0    0    0  501 -0.00000000000E+00  0.00000000000E+00  0.57589172002E+03  0.57589172002E+03  0.00000000000E+00 0.  1.
          1   -1    0    0  501    0  0.00000000000E+00 -0.00000000000E+00 -0.26911121454E+02  0.26911121454E+02  0.00000000000E+00 0. -1.
          5    1    1    2  502    0 -0.35345197424E+02 -0.37395075988E+02  0.21958827794E+03  0.22557517349E+03  0.41800000000E+01 0.  1.
         -5    1    1    2    0  502  0.20121923216E+02  0.73663276519E+02  0.20496535883E+03  0.21876800685E+03  0.41800000000E+01 0.  1.
        -11    1    1    2    0    0  0.34961381434E+01 -0.55569870617E+02  0.33966279967E+02  0.65222248329E+02  0.00000000000E+00 0. -1.
         11    1    1    2    0    0  0.11727136065E+02  0.19301670086E+02  0.90460681831E+02  0.93237412801E+02  0.00000000000E+00 0.  1.
</event>
<event>
 6    1  0.5317355E-006  0.1177715E+03  0.7561462E-02  0.1246819E+00
          1   -1    0    0  501    0  0.00000000000E+00  0.00000000000E+00  0.96549755472E+02  0.96549755472E+02  0.00000000000E+00 0. -1.
         -1   -1    0    0    0  501 -0.00000000000E+00 -0.00000000000E+00 -0.19127087402E+03  0.19127087402E+03  0.00000000000E+00 0.  1.
          5    1    1    2  502    0  0.30145518030E+01  0.42677222776E+02 -0.14229102599E+02  0.45281040483E+02  0.41800000000E+01 0. -1.
         -5    1    1    2    0  502 -0.77193447276E+02 -0.70634696276E+02 -0.52821148439E+02  0.11728441816E+03  0.41800000000E+01 0. -1.
        -11    1    1    2    0    0  0.32603573834E+02 -0.72027953811E+01  0.30751656018E+02  0.45393145253E+02  0.00000000000E+00 0. -1.
         11    1    1    2    0    0  0.41575321639E+02  0.35160268882E+02 -0.58422523532E+02  0.79862025601E+02  0.00000000000E+00 0.  1.
</event>
<event>
 6    1  0.5317355E-006  0.1109981E+03  0.7561462E-02  0.1258733E+00
          2   -1    0    0  501    0  0.00000000000E+00  0.00000000000E+00  0.88264836878E+02  0.88264836878E+02  0.00000000000E+00 0. -1.
         -2   -1    0    0    0  501 -0.00000000000E+00 -0.00000000000E+00 -0.25435008850E+03  0.25435008850E+03  0.00000000000E+00 0.  1.
          5    1    1    2  502    0 -0.47283750761E+02 -0.51711367108E+02 -0.11132786461E+03  0.13160997079E+03  0.41800000000E+01 0.  1.
         -5    1    1    2    0  502 -0.25599698401E+02  0.67217338876E+02 -0.64837134365E+02  0.96926991063E+02  0.41800000000E+01 0.  1.
        -11    1    1    2    0    0  0.39781022014E+02  0.60677819168E+01  0.45691692523E+02  0.60885782047E+02  0.00000000000E+00 0. -1.
         11    1    1    2    0    0  0.33102427148E+02 -0.21573753685E+02 -0.35611945173E+02  0.53192181476E+02  0.00000000000E+00 0.  1.
</event>
<event>
 6    1  0.5317355E-006  0.1073452E+03  0.7561462E-02  0.1265567E+00
         -1   -1    0    0    0  501 -0.00000000000E+00  0.00000000000E+00  0.21562422796E+03  0.21562422796E+03  0.00000000000E+00 0.  1.
          1   -1    0    0  501    0  0.00000000000E+00 -0.00000000000E+00 -0.11669793249E+03  0.11669793249E+03  0.00000000000E+00 0. -1.
          5    1    1    2  502    0 -0.49252820414E+01  0.37322671450E+02  0.39600297294E+02  0.54798687513E+02  0.41800000000E+01 0. -1.
         -5    1    1    2    0  502 -0.57043406917E+01 -0.10417449328E+03  0.11045699571E+03  0.15199698962E+03  0.41800000000E+01 0. -1.
        -11    1    1    2    0    0 -0.85792330066E+01  0.21197875873E+02  0.25518841154E+02  0.34266082857E+02  0.00000000000E+00 0.  1.
         11    1    1    2    0    0  0.19208855740E+02  0.45653945959E+02 -0.76649838688E+02  0.91260400456E+02  0.00000000000E+00 0. -1.
</event>
<event>
 6    1  0.5317355E-006  0.1152828E+03  0.7561462E-02  0.1251088E+00
          1   -1    0    0  501    0  0.00000000000E+00  0.00000000000E+00  0.50073187582E+02  0.50073187582E+02  0.00000000000E+00 0. -1.
         -1   -1    0    0    0  501 -0.00000000000E+00 -0.00000000000E+00 -0.38309065510E+03  0.38309065510E+03  0.00000000000E+00 0.  1.
          5    1    1    2  502    0  0.10435305872E+03 -0.13655797259E+02 -0.18894055017E+03  0.21631469105E+03  0.41800000000E+01 0.  1.
         -5    1    1    2    0  502 -0.18800853118E+02  0.21341670780E+02 -0.38115052541E+01  0.28998947601E+02  0.41800000000E+01 0.  1.
        -11    1    1    2    0    0 -0.65771595791E+02 -0.24843718155E+02 -0.14508724980E+03  0.16122475989E+03  0.00000000000E+00 0.  1.
         11    1    1    2    0    0 -0.19780609812E+02  0.17157844634E+02  0.48218377151E+01  0.26625444146E+02  0.00000000000E+00 0. -1.
</event>
<event>
 6    1  0.5317355E-006  0.1153652E+03  0.7561462E-02  0.1250945E+00
         -2   -1    0    0    0  501 -0.00000000000E+00  0.00000000000E+00  0.64828770452E+02  0.64828770452E+02  0.00000000000E+00 0. -1.
          2   -1    0    0  501    0  0.00000000000E+00 -0.00000000000E+00 -0.24957794000E+03  0.24957794000E+03  0.00000000000E+00 0.  1.
          5    1    1    2  502    0 -0.87414877997E+02 -0.39700886730E+02 -0.37197789876E+02  0.10304692753E+03  0.41800000000E+01 0. -1.
         -5    1    1    2    0  502  0.26237762790E+02  0.31389319369E+02 -0.35000455689E+02  0.54001980196E+02  0.41800000000E+01 0. -1.
        -11    1    1    2    0    0 -0.52739848742E+01 -0.20435293107E+02  0.26739783139E+01  0.21273605262E+02  0.00000000000E+00 0. -1.
         11    1    1    2    0    0  0.66451100082E+02  0.28746860468E+02 -0.11522490230E+03  0.13608419746E+03  0.00000000000E+00 0.  1.
</event>
<event>
 6    1  0.5317355E-006  0.9294977E+02  0.7561462E-02  0.1295862E+00
         -2   -1    0    0    0  501 -0.00000000000E+00  0.00000000000E+00  0.56645249052E+02  0.56645249052E+02  0.00000000000E+00 0.  1.
          2   -1    0    0  501    0  0.00000000000E+00 -0.00000000000E+00 -0.41803461139E+03  0.41803461139E+03  0.00000000000E+00 0. -1.
          5    1    1    2  502    0  0.14868492131E+02  0.28190327741E+02  0.22932133704E+02  0.39485716312E+02  0.41800000000E+01 0. -1.
         -5    1    1    2    0  502 -0.52151473257E+02 -0.54794626473E+02 -0.66102242324E+02  0.10054454781E+03  0.41800000000E+01 0. -1.
        -11    1    1    2    0    0  0.18606934783E+02  0.46874485827E+02 -0.29294214228E+03  0.29725163442E+03  0.00000000000E+00 0. -1.
         11    1    1    2    0    0  0.18676046343E+02 -0.20270187095E+02 -0.25277111443E+02  0.37397961907E+02  0.00000000000E+00 0.  1.
</event>
<event>
 6    1  0.5317355E-006  0.8741520E+02  0.7561462E-02  0.1309235E+00
         -1   -1    0    0    0  501 -0.00000000000E+00  0.00000000000E+00  0.21208677178E+03  0.21208677178E+03  0.00000000000E+00 0.  1.
          1   -1    0    0  501    0  0.00000000000E+00 -0.00000000000E+00 -0.65194574398E+02  0.65194574398E+02  0.00000000000E+00 0. -1.
          5    1    1    2  502    0 -0.40981113734E+02  0.29471901820E+02  0.13277831795E+03  0.14211121982E+03  0.41800000000E+01 0. -1.
         -5    1    1    2    0  502  0.72662723515E+01 -0.25976020758E+02 -0.16592575980E+02  0.31942735418E+02  0.41800000000E+01 0. -1.
        -11    1    1    2    0    0 -0.31455450488E+02 -0.40246974091E+01  0.13288922009E+01  0.31739715013E+02  0.00000000000E+00 0.  1.
         11    1    1    2    0    0  0.65170291871E+02  0.52881634739E+00  0.29377563206E+02  0.71487675925E+02  0.00000000000E+00 0. -1.
</event>
<event>
 6    1  0.5317355E-006  0.2754629E+03  0.7561462E-02  0.1098193E+00
         -2   -1    0    0    0  501 -0.00000000000E+00  0.00000000000E+00  0.69433831246E+02  0.69433831246E+02  0.00000000000E+00 0.  1.
          2   -1    0    0  501    0  0.00000000000E+00 -0.00000000000E+00 -0.11813370639E+04  0.11813370639E+04  0.00000000000E+00 0. -1.
          5    1    1    2  502    0 -0.10348432652E+03 -0.11514126244E+03 -0.24428777498E+03  0.28924125840E+03  0.41800000000E+01 0.  1.
         -5    1    1    2    0  502 -0.13184770407E+03  0.84215026375E+01 -0.19940486511E+03  0.23923735370E+03  0.41800000000E+01 0.  1.
        -11    1    1    2    0    0  0.16824900233E+03  0.10171687031E+03 -0.57240691351E+03  0.60523030585E+03  0.00000000000E+00 0. -1.
         11    1    1    2    0    0  0.67083028265E+02  0.50028894969E+01 -0.95803679043E+02  0.11706197719E+03  0.00000000000E+00 0.  1.
</event>
<event>
 6    1  0.5317355E-006  0.1101291E+03  0.7561462E-02  0.1260331E+00
         -2   -1    0    0    0  501 -0.00000000000E+00  0.00000000000E+00  0.47860451606E+03  0.47860451606E+03  0.00000000000E+00 0.  1.
          2   -1    0    0  501    0  0.00000000000E+00 -0.00000000000E+00 -0.41759140289E+02  0.41759140289E+02  0.00000000000E+00 0. -1.
          5    1    1    2  502    0 -0.41852782613E+02  0.58277751291E+02  0.28156256633E+03  0.29059061042E+03  0.41800000000E+01 0.  1.
         -5    1    1    2    0  502  0.14166766223E+02 -0.49664217227E+02  0.11234723642E+03  0.12371986772E+03  0.41800000000E+01 0.  1.
        -11    1    1    2    0    0 -0.32656833031E+02 -0.14916119319E+02  0.20659291916E+02  0.41421802250E+02  0.00000000000E+00 0.  1.
         11    1    1    2    0    0  0.60342849422E+02  0.63025852557E+01  0.22276281101E+02  0.64631375948E+02  0.00000000000E+00 0. -1.
</event>
<event>
 6    1  0.5317355E-006  0.3643079E+03  0.7561462E-02  0.1056891E+00
         -1   -1    0    0    0  501 -0.00000000000E+00  0.00000000000E+00  0.15964432576E+03  0.15964432576E+03  0.00000000000E+00 0. -1.
          1   -1    0    0  501    0  0.00000000000E+00 -0.00000000000E+00 -0.89318474068E+03  0.89318474068E+03  0.00000000000E+00 0.  1.
          5    1    1    2  502    0 -0.72271463634E+02  0.25640898678E+02 -0.73058473969E+02  0.10599826961E+03  0.41800000000E+01 0. -1.
         -5    1    1    2    0  502 -0.26138058747E+03 -0.12932553407E+03 -0.16913469775E+03  0.33714822207E+03  0.41800000000E+01 0. -1.
        -11    1    1    2    0    0  0.32437957665E+03  0.79096543408E+02 -0.46515936064E+03  0.57258327230E+03  0.00000000000E+00 0. -1.
         11    1    1    2    0    0  0.92724744521E+01  0.24588091980E+02 -0.26187882566E+02  0.37099302459E+02  0.00000000000E+00 0.  1.
</event>
<event>
 6    1  0.5317355E-006  0.1651966E+03  0.7561462E-02  0.1182952E+00
         -1   -1    0    0    0  501 -0.00000000000E+00  0.00000000000E+00  0.82592003752E+02  0.82592003752E+02  0.00000000000E+00 0.  1.
          1   -1    0    0  501    0  0.00000000000E+00 -0.00000000000E+00 -0.41478351637E+03  0.41478351637E+03  0.00000000000E+00 0. -1.
          5    1    1    2  502    0  0.80483548307E+00 -0.14485995324E+03 -0.11826788561E+03  0.18705565744E+03  0.41800000000E+01 0.  1.
         -5    1    1    2    0  502 -0.37225596088E+02  0.63628887530E+01 -0.22301010708E+01  0.38061491145E+02  0.41800000000E+01 0.  1.
        -11    1    1    2    0    0  0.17517205554E+02  0.11913107576E+03 -0.21352197514E+03  0.24513404408E+03  0.00000000000E+00 0. -1.
         11    1    1    2    0    0  0.18903555052E+02  0.19365988728E+02  0.18284492047E+01  0.27124327448E+02  0.00000000000E+00 0.  1.
</event>
<event>
 6    1  0.5317355E-006  0.6140501E+02  0.7561462E-02  0.1392028E+00
          2   -1    0    0  501    0  0.00000000000E+00  0.00000000000E+00  0.19182737196E+03  0.19182737196E+03  0.00000000000E+00 0. -1.
         -2   -1    0    0    0  501 -0.00000000000E+00 -0.00000000000E+00 -0.81157587364E+02  0.81157587364E+02  0.00000000000E+00 0.  1.
          5    1    1    2  502    0 -0.43715972910E+02 -0.13724786534E+02  0.67341602495E+02  0.81558689785E+02  0.41800000000E+01 0.  1.
         -5    1    1    2    0  502  0.47475776357E+01 -0.20273694946E+02 -0.50558052059E+02  0.54837498376E+02  0.41800000000E+01 0.  1.
        -11    1    1    2    0    0  0.31678156669E+02  0.14680421848E+02 -0.52660781942E+01  0.35309375173E+02  0.00000000000E+00 0.  1.
         11    1    1    2    0    0  0.72902386056E+01  0.19318059631E+02  0.99152312353E+02  0.10127939599E+03  0.00000000000E+00 0. -1.
</event>
<event>
 6    1  0.5317355E-006  0.1132336E+03  0.7561462E-02  0.1254696E+00
         -1   -1    0    0    0  501 -0.00000000000E+00  0.00000000000E+00  0.33124378115E+02  0.33124378115E+02  0.00000000000E+00 0.  1.
          1   -1    0    0  501    0  0.00000000000E+00 -0.00000000000E+00 -0.45584448373E+03  0.45584448373E+03  0.00000000000E+00 0. -1.
          5    1    1    2  502    0  0.69960183444E+02 -0.37698369539E+02 -0.82971251121E+02  0.11496649619E+03  0.41800000000E+01 0.  1.
         -5    1    1    2    0  502 -0.48065692622E+02  0.12140392475E+02 -0.60720066179E+02  0.78499036768E+02  0.41800000000E+01 0.  1.
        -11    1    1    2    0    0  0.86467780189E+01  0.54426969775E+02 -0.16646626952E+03  0.17535130651E+03  0.00000000000E+00 0.  1.
         11    1    1    2    0    0 -0.30541268840E+02 -0.28868992712E+02 -0.11256251880E+03  0.12015202237E+03  0.00000000000E+00 0. -1.
</event>
<event>
 6    1  0.5317355E-006  0.1553190E+03  0.7561462E-02  0.1194085E+00
          1   -1    0    0  501    0  0.00000000000E+00  0.00000000000E+00  0.13954980129E+04  0.13954980129E+04  0.00000000000E+00 0. -1.
         -1   -1    0    0    0  501 -0.00000000000E+00 -0.00000000000E+00 -0.22078060589E+02  0.22078060589E+02  0.00000000000E+00 0.  1.
          5    1    1    2  502    0  0.56746341563E+01 -0.86606155354E+01  0.31333043933E+03  0.31352933570E+03  0.41800000000E+01 0.  1.
         -5    1    1    2    0  502  0.98816633384E+02  0.87878957254E+02  0.35212660154E+03  0.37616227093E+03  0.41800000000E+01 0.  1.
        -11    1    1    2    0    0 -0.12208071238E+03 -0.47694022355E+02  0.50469938130E+03  0.52144020327E+03  0.00000000000E+00 0.  1.
         11    1    1    2    0    0  0.17589444839E+02 -0.31524319364E+02  0.20326353010E+03  0.20644426354E+03  0.00000000000E+00 0. -1.
</event>
<event>
 6    1  0.5317355E-006  0.9763196E+02  0.7561462E-02  0.1285356E+00
          2   -1    0    0  501    0  0.00000000000E+00  0.00000000000E+00  0.62020974155E+03  0.62020974155E+03  0.00000000000E+00 0. -1.
         -2   -1    0    0    0  501 -0.00000000000E+00 -0.00000000000E+00 -0.26157453173E+02  0.26157453173E+02  0.00000000000E+00 0.  1.
          5    1    1    2  502    0 -0.32799822922E+02  0.57155219904E+02  0.21923303164E+03  0.22896100565E+03  0.41800000000E+01 0.  1.
         -5    1    1    2    0  502 -0.34584218013E+01 -0.24862798060E+02 -0.28958174801E+01  0.25612059027E+02  0.41800000000E+01 0.  1.
        -11    1    1    2    0    0  0.43214258448E+02 -0.60715300958E+02  0.28414460230E+03  0.29375495727E+03  0.00000000000E+00 0. -1.
         11    1    1    2    0    0 -0.69560137255E+01  0.28422879114E+02  0.93570471912E+02  0.98039172772E+02  0.00000000000E+00 0.  1.
</event>
<event>
 6    1  0.5317355E-006  0.9219931E+02  0.7561462E-02  0.1297611E+00
          1   -1    0    0  501    0  0.00000000000E+00  0.00000000000E+00  0.63586673432E+03  0.63586673432E+03  0.00000000000E+00 0. -1.
         -1   -1    0    0    0  501 -0.00000000000E+00 -0.00000000000E+00 -0.18858969164E+02  0.18858969164E+02  0.00000000000E+00 0.  1.
          5    1    1    2  502    0 -0.11583571152E+02 -0.36350846978E+02  0.29482078815E+03  0.29730848074E+03  0.41800000000E+01 0. -1.
         -5    1    1    2    0  502  0.11026609351E+02  0.54995359341E+02  0.76440707810E+02  0.94903792724E+02  0.41800000000E+01 0. -1.
        -11    1    1    2    0    0  0.12332505377E+02  0.33822552741E+02  0.12988816295E+03  0.13478497927E+03  0.00000000000E+00 0.  1.
         11    1    1    2    0    0 -0.11775543575E+02 -0.52467065104E+02  0.11585810625E+03  0.12772845075E+03  0.00000000000E+00 0. -1.
</event>
<event>
 6    1  0.5317355E-006  0.1371729E+03  0.7561462E-02  0.1217184E+00
         -2   -1    0    0    0  501 -0.00000000000E+00  0.00000000000E+00  0.93385832635E+02  0.93385832635E+02  0.00000000000E+00 0.  1.
          2   -1    0    0  501    0  0.00000000000E+00 -0.00000000000E+00 -0.50315129047E+03  0.50315129047E+03  0.00000000000E+00 0. -1.
          5    1    1    2  502    0 -0.73674983564E+02  0.75368558092E+02 -0.18710390999E+02  0.10712597203E+03  0.41800000000E+01 0. -1.
         -5    1    1    2    0  502 -0.31944443236E+02 -0.46960281008E+02  0.15654354001E+02  0.59061380319E+02  0.41800000000E+01 0. -1.
        -11    1    1    2    0    0  0.84814665403E+02 -0.32290653373E+02 -0.39668120425E+03  0.40693020478E+03  0.00000000000E+00 0. -1.
         11    1    1    2    0    0  0.20804761398E+02  0.38823762894E+01 -0.10028216594E+02  0.23419565976E+02  0.00000000000E+00 0.  1.
</event>
<event>
 6    1  0.5317355E-006  0.1605133E+03  0.7561462E-02  0.1188118E+00
         -1   -1    0    0    0  501 -0.00000000000E+00  0.00000000000E+00  0.72947702344E+02  0.72947702344E+02  0.00000000000E+00 0.  1.
          1   -1    0    0  501    0  0.00000000000E+00 -0.00000000000E+00 -0.45623693129E+03  0.45623693129E+03  0.00000000000E+00 0. -1.
          5    1    1    2  502    0 -0.11853617359E+03  0.22305035217E+02 -0.92806755085E+02  0.15224619941E+03  0.41800000000E+01 0.  1.
         -5    1    1    2    0  502 -0.40579560959E+01 -0.46205563182E+02  0.17399613828E+01  0.46603872610E+02  0.41800000000E+01 0.  1.
        -11    1    1    2    0    0  0.34670434937E+01  0.34032968189E+02 -0.73421984438E+02  0.81000315513E+02  0.00000000000E+00 0.  1.
         11    1    1    2    0    0  0.11912708619E+03 -0.10132440224E+02 -0.21880045080E+03  0.24933424610E+03  0.00000000000E+00 0. -1.
</event>
<event>
 6    1  0.5317355E-006  0.1116901E+03  0.7561462E-02  0.1257472E+00
         -1   -1    0    0    0  501 -0.00000000000E+00  0.00000000000E+00  0.17067706604E+03  0.17067706604E+03  0.00000000000E+00 0.  1.
          1   -1    0    0  501    0  0.00000000000E+00 -0.00000000000E+00 -0.11626161343E+03  0.11626161343E+03  0.00000000000E+00 0. -1.
          5    1    1    2  502    0  0.31722860406E+02  0.18058903558E+02 -0.81724092379E+01  0.37639401467E+02  0.41800000000E+01 0. -1.
         -5    1    1    2    0  502 -0.18810159752E+02 -0.76109427816E+02  0.10609455901E+03  0.13198482853E+03  0.41800000000E+01 0. -1.
        -11    1    1    2    0    0  0.28358452004E+02 -0.86878609058E+01 -0.56560857066E+01  0.30193907212E+02  0.00000000000E+00 0. -1.
         11    1    1    2    0    0 -0.41271152657E+02  0.66738385164E+02 -0.37850611452E+02  0.87120542257E+02  0.00000000000E+00 0.  1.
</event>
<event>
 6    1  0.5317355E-006  0.2398902E+03  0.7561462E-02  0.1119866E+00
         -1   -1    0    0    0  501 -0.00000000000E+00  0.00000000000E+00  0.18262064539E+03  0.18262064539E+03  0.00000000000E+00 0.  1.
          1   -1    0    0  501    0  0.00000000000E+00 -0.00000000000E+00 -0.36292194893E+03  0.36292194893E+03  0.00000000000E+00 0. -1.
          5    1    1    2  502    0 -0.14358419765E+03 -0.23824040068E+02 -0.55400319191E+01  0.14571263176E+03  0.41800000000E+01 0.  1.
         -5    1    1    2    0  502 -0.71878844065E+02  0.83517414342E+02 -0.15380675318E+02  0.11133626676E+03  0.41800000000E+01 0.  1.
        -11    1    1    2    0    0  0.10255117047E+03 -0.22165014151E+02 -0.12787373645E+03  0.16540774738E+03  0.00000000000E+00 0. -1.
         11    1    1    2    0    0  0.11291187125E+03 -0.37528360123E+02 -0.31506859847E+02  0.12308594842E+03  0.00000000000E+00 0.  1.
</event>
<event>
 6    1  0.5317355E-006  0.2671032E+03  0.7561462E-02  0.1102949E+00
         -1   -1    0    0    0  501 -0.00000000000E+00  0.00000000000E+00  0.14274617418E+03  0.14274617418E+03  0.00000000000E+00 0.  1.
          1   -1    0    0  501    0  0.00000000000E+00 -0.00000000000E+00 -0.57673604943E+03  0.57673604943E+03  0.00000000000E+00 0. -1.
          5    1    1    2  502    0 -0.53720668389E+02  0.23080017438E+02 -0.12991365477E+03  0.14252588366E+03  0.41800000000E+01 0. -1.
         -5    1    1    2    0  502 -0.18825455136E+03 -0.95616279273E+02 -0.19268986230E+03  0.28588302574E+03  0.41800000000E+01 0. -1.
        -11    1    1    2    0    0  0.17185530059E+03  0.12877903656E+02 -0.46690091104E+02  0.17854985116E+03  0.00000000000E+00 0. -1.
         11    1    1    2    0    0  0.70119919159E+02  0.59658358179E+02 -0.64696267072E+02  0.11252346305E+03  0.00000000000E+00 0.  1.
</event>
<event>
 6    1  0.5317355E-006  0.1246884E+03  0.7561462E-02  0.1235557E+00
         -1   -1    0    0    0  501 -0.00000000000E+00  0.00000000000E+00  0.24625930090E+03  0.24625930090E+03  0.00000000000E+00 0.  1.
          1   -1    0    0  501    0  0.00000000000E+00 -0.00000000000E+00 -0.17408111317E+03  0.17408111317E+03  0.00000000000E+00 0. -1.
          5    1    1    2  502    0  0.38523221631E+02  0.57653500057E+01  0.32316263628E+02  0.50784753227E+02  0.41800000000E+01 0.  1.
         -5    1    1    2    0  502 -0.89754127144E+02 -0.32984461026E+02  0.14705039508E+03  0.17545674424E+03  0.41800000000E+01 0.  1.
        -11    1    1    2    0    0  0.81170998447E+02  0.21948354833E+02 -0.13087546921E+03  0.15555979464E+03  0.00000000000E+00 0. -1.
         11    1    1    2    0    0 -0.29940092933E+02  0.52707561872E+01  0.23686998240E+02  0.38539121958E+02  0.00000000000E+00 0.  1.
</event>
<event>
 6    1  0.5317355E-006  0.1595077E+03  0.7561462E-02  0.1189254E+00
         -1   -1    0    0    0  501 -0.00000000000E+00  0.00000000000E+00  0.24642175048E+03  0.24642175048E+03  0.00000000000E+00 0.  1.
          1   -1    0    0  501    0  0.00000000000E+00 -0.00000000000E+00 -0.12791874761E+03  0.12791874761E+03  0.00000000000E+00 0. -1.
          5    1    1    2  502    0  0.15249473927E+03 -0.13123729736E+02  0.57592015907E+02  0.16358847907E+03  0.41800000000E+01 0.  1.
         -5    1    1    2    0  502 -0.18788547488E+02 -0.20331923612E+02  0.33436602859E+02  0.43610496962E+02  0.41800000000E+01 0.  1.
        -11    1    1    2    0    0 -0.90272337482E+02  0.24763298350E+02 -0.26530831346E+02  0.97294403084E+02  0.00000000000E+00 0. -1.
         11    1    1    2    0    0 -0.43433854297E+02  0.86923549984E+01  0.54005215448E+02  0.69847118983E+02  0.00000000000E+00 0.  1.
</event>
<event>
 6    1  0.5317355E-006  0.1442313E+03  0.7561462E-02  0.1207746E+00
          1   -1    0    0  501    0  0.00000000000E+00  0.00000000000E+00  0.73515593035E+03  0.73515593035E+03  0.00000000000E+00 0. -1.
         -1   -1    0    0    0  501 -0.00000000000E+00 -0.00000000000E+00 -0.30899377269E+02  0.30899377269E+02  0.00000000000E+00 0.  1.
          5    1    1    2  502    0 -0.47200843336E+02  0.44404823394E+02  0.93686528022E+02  0.11399274488E+03  0.41800000000E+01 0. -1.
         -5    1    1    2    0  502 -0.39650759351E+02 -0.79989087180E+02  0.18893329051E+03  0.20900645313E+03  0.41800000000E+01 0. -1.
        -11    1    1    2    0    0  0.48368366278E+02 -0.30852153976E+02  0.14424843780E+03  0.15523841686E+03  0.00000000000E+00 0. -1.
         11    1    1    2    0    0  0.38483236409E+02  0.66436417762E+02  0.27738829674E+03  0.28781769275E+03  0.00000000000E+00 0.  1.
</event>
<event>
 6    1  0.5317355E-006  0.1092597E+03  0.7561462E-02  0.1261947E+00
         -3   -1    0    0    0  501 -0.00000000000E+00  0.00000000000E+00  0.44001928184E+02  0.44001928184E+02  0.00000000000E+00 0.  1.
          3   -1    0    0  501    0  0.00000000000E+00 -0.00000000000E+00 -0.49841672726E+03  0.49841672726E+03  0.00000000000E+00 0. -1.
          5    1    1    2  502    0  0.16636236673E+02 -0.27345377326E+02 -0.76921709003E+02  0.83420355715E+02  0.41800000000E+01 0.  1.
         -5    1    1    2    0  502 -0.73021729800E+02  0.35040348778E+02 -0.16500900744E+02  0.82763223662E+02  0.41800000000E+01 0.  1.
        -11    1    1    2    0    0  0.29601541188E+02 -0.48208305673E+02 -0.17004075763E+03  0.17920421656E+03  0.00000000000E+00 0.  1.
         11    1    1    2    0    0  0.26783951938E+02  0.40513334220E+02 -0.19095143169E+03  0.19703085950E+03  0.00000000000E+00 0. -1.
</event>
<event>
 6    1  0.5317355E-006  0.1255579E+03  0.7561462E-02  0.1234200E+00
          2   -1    0    0  501    0  0.00000000000E+00  0.00000000000E+00  0.22238896962E+03  0.22238896962E+03  0.00000000000E+00 0.  1.
         -2   -1    0    0    0  501 -0.00000000000E+00 -0.00000000000E+00 -0.96141927269E+02  0.96141927269E+02  0.00000000000E+00 0. -1.
          5    1    1    2  502    0 -0.41917662067E+02  0.90493623984E+02 -0.22677462367E+02  0.10236174126E+03  0.41800000000E+01 0. -1.
         -5    1    1    2    0  502 -0.12784084939E+02 -0.19984951615E+02  0.47538336991E+02  0.53293498690E+02  0.41800000000E+01 0. -1.
        -11    1    1    2    0    0  0.43752007889E+02 -0.92675696315E+02  0.77396500372E+02  0.12842601431E+03  0.00000000000E+00 0.  1.
         11    1    1    2    0    0  0.10949739118E+02  0.22167023946E+02  0.23989667359E+02  0.34449642630E+02  0.00000000000E+00 0. -1.
</event>
<event>
 6    1  0.5317355E-006  0.1818580E+03  0.7561462E-02  0.1166017E+00
          1   -1    0    0  501    0  0.00000000000E+00  0.00000000000E+00  0.10422367252E+04  0.10422367252E+04  0.00000000000E+00 0. -1.
         -1   -1    0    0    0  501 -0.00000000000E+00 -0.00000000000E+00 -0.47231060742E+02  0.47231060742E+02  0.00000000000E+00 0.  1.
          5    1    1    2  502    0  0.85615364949E+02 -0.10863968821E+03  0.27153670088E+03  0.30476585257E+03  0.41800000000E+01 0.  1.
         -5    1    1    2    0  502 -0.97073776137E+01 -0.39726714077E+02  0.48826013591E+01  0.41397550502E+02  0.41800000000E+01 0.  1.
        -11    1    1    2    0    0  0.13303721277E+02  0.48598537470E+02  0.28876517088E+03  0.29312818145E+03  0.00000000000E+00 0.  1.
         11    1    1    2    0    0 -0.89211708613E+02  0.99767864815E+02  0.42982119132E+03  0.45017620141E+03  0.00000000000E+00 0. -1.
</event>
<event>
 6    1  0.5317355E-006  0.9735348E+02  0.7561462E-02  0.1285962E+00
          3   -1    0    0  501    0  0.00000000000E+00  0.00000000000E+00  0.41402727637E+02  0.41402727637E+02  0.00000000000E+00 0. -1.
         -3   -1    0    0    0  501 -0.00000000000E+00 -0.00000000000E+00 -0.30364204549E+03  0.30364204549E+03  0.00000000000E+00 0.  1.
          5    1    1    2  502    0 -0.12089832627E+02  0.50909264951E+02 -0.43114692767E+02  0.67928392026E+02  0.41800000000E+01 0. -1.
         -5    1    1    2    0  502  0.10985201532E+02 -0.61789158022E+02 -0.14729582147E+03  0.16016274886E+03  0.41800000000E+01 0. -1.
        -11    1    1    2    0    0 -0.21228010096E+02  0.38399705967E+02 -0.89585651162E+01  0.44781935197E+02  0.00000000000E+00 0. -1.
         11    1    1    2    0    0  0.22332641191E+02 -0.27519812897E+02 -0.62870238505E+02  0.72171697043E+02  0.00000000000E+00 0.  1.
</event>
<event>
 6    1  0.5317355E-006  0.8694255E+02  0.7561462E-02  0.1310429E+00
         -2   -1    0    0    0  501 -0.00000000000E+00  0.00000000000E+00  0.27041543197E+02  0.27041543197E+02  0.00000000000E+00 0.  1.
          2   -1    0    0  501    0  0.00000000000E+00 -0.00000000000E+00 -0.50233437677E+03  0.50233437677E+03  0.00000000000E+00 0. -1.
          5    1    1    2  502    0 -0.58346375852E+01  0.24666797028E+02 -0.25424214800E+03  0.25553676075E+03  0.41800000000E+01 0. -1.
         -5    1    1    2    0  502  0.47168567257E+02 -0.19121121503E+02 -0.33770828468E+02  0.61224441851E+02  0.41800000000E+01 0. -1.
        -11    1    1    2    0    0 -0.44238675892E+02 -0.41736796142E+02 -0.88588943996E+02  0.10745706861E+03  0.00000000000E+00 0. -1.
         11    1    1    2    0    0  0.29047462203E+01  0.36191120617E+02 -0.98690913104E+02  0.10515764875E+03  0.00000000000E+00 0.  1.
</event>
<event>
 6    1  0.5317355E-006  0.9859763E+02  0.7561462E-02  0.1283273E+00
         -4   -1    0    0    0  501 -0.00000000000E+00  0.00000000000E+00  0.30743490764E+03  0.30743490764E+03  0.00000000000E+00 0.  1.
          4   -1    0    0  501    0  0.00000000000E+00 -0.00000000000E+00 -0.51492940473E+02  0.51492940473E+02  0.00000000000E+00 0. -1.
          5    1    1    2  502    0 -0.31817306325E+02 -0.17712092886E+02  0.11763513260E+03  0.12321345721E+03  0.41800000000E+01 0. -1.
         -5    1    1    2    0  502  0.70672373319E+02 -0.32049174664E+02  0.39001053039E+02  0.86949919410E+02  0.41800000000E+01 0. -1.
        -11    1    1    2    0    0  0.13550546448E+02  0.73760439740E+01  0.75843659553E+02  0.77396925185E+02  0.00000000000E+00 0.  1.
         11    1    1    2    0    0 -0.52405613442E+02  0.42385223576E+02  0.23462121972E+02  0.71367546302E+02  0.00000000000E+00 0. -1.
</event>
<event>
 6    1  0.5317355E-006  0.1148029E+03  0.7561462E-02  0.1251926E+00
          2   -1    0    0  501    0  0.00000000000E+00  0.00000000000E+00  0.50875062278E+03  0.50875062278E+03  0.00000000000E+00 0.  1.
         -2   -1    0    0    0  501 -0.00000000000E+00 -0.00000000000E+00 -0.33884626821E+02  0.33884626821E+02  0.00000000000E+00 0. -1.
          5    1    1    2  502    0 -0.41143027691E+02  0.29279994220E+02  0.67812692742E+02  0.84652823260E+02  0.41800000000E+01 0.  1.
         -5    1    1    2    0  502  0.31934714944E+01 -0.94524574218E+02  0.16338668094E+03  0.18883265952E+03  0.41800000000E+01 0.  1.
        -11    1    1    2    0    0  0.45256094546E+02  0.50518765495E+02  0.24343736389E+03  0.25270933876E+03  0.00000000000E+00 0.  1.
         11    1    1    2    0    0 -0.73065383503E+01  0.14725814504E+02  0.22925838796E+00  0.16440428062E+02  0.00000000000E+00 0. -1.
</event>
<event>
 6    1  0.5317355E-006  0.1037999E+03  0.7561462E-02  0.1272502E+00
         -2   -1    0    0    0  501 -0.00000000000E+00  0.00000000000E+00  0.35989119488E+02  0.35989119488E+02  0.00000000000E+00 0.  1.
          2   -1    0    0  501    0  0.00000000000E+00 -0.00000000000E+00 -0.38508451800E+03  0.38508451800E+03  0.00000000000E+00 0. -1.
          5    1    1    2  502    0 -0.79701772422E+01  0.55097246533E+02 -0.11161950927E+03  0.12480231388E+03  0.41800000000E+01 0. -1.
         -5    1    1    2    0  502 -0.17584250224E+02 -0.60670431025E+02 -0.46715073844E+02  0.78675775058E+02  0.41800000000E+01 0. -1.
        -11    1    1    2    0    0 -0.31283141138E+02  0.46108803585E+01 -0.19507945249E+02  0.37154475706E+02  0.00000000000E+00 0. -1.
         11    1    1    2    0    0  0.56837568604E+02  0.96230413394E+00 -0.17125287014E+03  0.18044107284E+03  0.00000000000E+00 0.  1.
</event>
<event>
 6    1  0.5317355E-006  0.1132264E+03  0.7561462E-02  0.1254709E+00
          1   -1    0    0  501    0  0.00000000000E+00  0.00000000000E+00  0.14722536309E+03  0.14722536309E+03  0.00000000000E+00 0. -1.
         -1   -1    0    0    0  501 -0.00000000000E+00 -0.00000000000E+00 -0.12571340883E+03  0.12571340883E+03  0.00000000000E+00 0.  1.
          5    1    1    2  502    0 -0.84573439518E+02  0.28883334496E+02  0.15576003846E+02  0.90812983539E+02  0.41800000000E+01 0. -1.
         -5    1    1    2    0  502  0.22126184953E+02 -0.50546574511E+01 -0.50097876366E+02  0.55157839324E+02  0.41800000000E+01 0. -1.
        -11    1    1    2    0    0  0.86886111238E+02 -0.17010343346E+02  0.42400587819E+02  0.98164952780E+02  0.00000000000E+00 0. -1.
         11    1    1    2    0    0 -0.24438856673E+02 -0.68183336982E+01  0.13633238964E+02  0.28802996278E+02  0.00000000000E+00 0.  1.
</event>
<event>
 6    1  0.5317355E-006  0.7816811E+02  0.7561462E-02  0.1334332E+00
          1   -1    0    0  501    0  0.00000000000E+00  0.00000000000E+00  0.11074814601E+03  0.11074814601E+03  0.00000000000E+00 0. -1.
         -1   -1    0    0    0  501 -0.00000000000E+00 -0.00000000000E+00 -0.12531563778E+03  0.12531563778E+03  0.00000000000E+00 0.  1.
          5    1    1    2  502    0 -0.12537234765E+02  0.27185244106E+02 -0.69880212305E+02  0.76137613730E+02  0.41800000000E+01 0.  1.
         -5    1    1    2    0  502  0.18101502395E+02  0.21280213173E+02  0.52134542316E+02  0.59295824172E+02  0.41800000000E+01 0.  1.
        -11    1    1    2    0    0 -0.31897499587E+02  0.10255057449E+02 -0.99468817641E+01  0.34950781680E+02  0.00000000000E+00 0.  1.
         11    1    1    2    0    0  0.26333231957E+02 -0.58720514729E+02  0.13125059988E+02  0.65679564211E+02  0.00000000000E+00 0. -1.
</event>
<event>
 6    1  0.5317355E-006  0.1177698E+03  0.7561462E-02  0.1246822E+00
          2   -1    0    0  501    0  0.00000000000E+00  0.00000000000E+00  0.44898095614E+03  0.44898095614E+03  0.00000000000E+00 0. -1.
         -2   -1    0    0    0  501 -0.00000000000E+00 -0.00000000000E+00 -0.46754075821E+02  0.46754075821E+02  0.00000000000E+00 0.  1.
          5    1    1    2  502    0  0.86690104439E+02  0.20981757494E+02  0.61954381722E+02  0.10867946526E+03  0.41800000000E+01 0. -1.
         -5    1    1    2    0  502 -0.42124227592E+02 -0.79824908891E+01  0.16649938025E+02  0.46182935672E+02  0.41800000000E+01 0. -1.
        -11    1    1    2    0    0 -0.38256118510E+02 -0.51501481089E+02  0.24268922980E+03  0.25102588595E+03  0.00000000000E+00 0. -1.
         11    1    1    2    0    0 -0.63097583361E+01  0.38502214483E+02  0.80933330775E+02  0.89846745076E+02  0.00000000000E+00 0.  1.
</event>
<event>
 6    1  0.5317355E-006  0.1506550E+03  0.7561462E-02  0.1199670E+00
          1   -1    0    0  501    0  0.00000000000E+00  0.00000000000E+00  0.38797288403E+03  0.38797288403E+03  0.00000000000E+00 0. -1.
         -1   -1    0    0    0  501 -0.00000000000E+00 -0.00000000000E+00 -0.66662837960E+02  0.66662837960E+02  0.00000000000E+00 0.  1.
          5    1    1    2  502    0 -0.11058790831E+03  0.85458588812E+02  0.10674166923E+03  0.17590938637E+03  0.41800000000E+01 0. -1.
         -5    1    1    2    0  502  0.20986549842E+02 -0.17582993310E+02  0.13359511607E+02  0.30749729729E+02  0.41800000000E+01 0. -1.
        -11    1    1    2    0    0  0.10335966578E+02 -0.51916561454E+02  0.35923080005E+02  0.63973660481E+02  0.00000000000E+00 0.  1.
         11    1    1    2    0    0  0.79265391885E+02 -0.15959034048E+02  0.16528578523E+03  0.18400294541E+03  0.00000000000E+00 0. -1.
</event>
<event>
 6    1  0.5317355E-006  0.1025895E+03  0.7561462E-02  0.1274943E+00
          2   -1    0    0  501    0  0.00000000000E+00  0.00000000000E+00  0.62124012413E+03  0.62124012413E+03  0.00000000000E+00 0. -1.
         -2   -1    0    0    0  501 -0.00000000000E+00 -0.00000000000E+00 -0.27055880497E+02  0.27055880497E+02  0.00000000000E+00 0.  1.
          5    1    1    2  502    0  0.58041816827E+02  0.25517274229E+02  0.25527105745E+03  0.26306039032E+03  0.41800000000E+01 0. -1.
         -5    1    1    2    0  502 -0.18823226994E+02  0.26193343233E+02  0.49917231071E+01  0.32905847562E+02  0.41800000000E+01 0. -1.
        -11    1    1    2    0    0  0.33199847005E+00  0.23836763020E+02  0.11375609955E+03  0.11622715552E+03  0.00000000000E+00 0.  1.
         11    1    1    2    0    0 -0.39550588303E+02 -0.75547380482E+02  0.22016536352E+03  0.23610261122E+03  0.00000000000E+00 0. -1.
</event>
<event>
 6    1  0.5317355E-006  0.1288590E+03  0.7561462E-02  0.1229159E+00
          4   -1    0    0  501    0  0.00000000000E+00  0.00000000000E+00  0.77942176133E+03  0.77942176133E+03  0.00000000000E+00 0. -1.
         -4   -1    0    0    0  501 -0.00000000000E+00 -0.00000000000E+00 -0.27361199745E+02  0.27361199745E+02  0.00000000000E+00 0.  1.
          5    1    1    2  502    0  0.23252187041E+02  0.59000428258E+02  0.10717468839E+03  0.12460176952E+03  0.41800000000E+01 0.  1.
         -5    1    1    2    0  502  0.32425271255E+02 -0.65429526619E+02  0.10334693618E+03  0.12661154287E+03  0.41800000000E+01 0.  1.
        -11    1    1    2    0    0 -0.14404519543E+01  0.50876837442E+02  0.29030765713E+03  0.29473558197E+03  0.00000000000E+00 0.  1.
         11    1    1    2    0    0 -0.54237006342E+02 -0.44447739082E+02  0.25123127988E+03  0.26083406671E+03  0.00000000000E+00 0. -1.
</event>
<event>
 6    1  0.5317355E-006  0.2016700E+03  0.7561462E-02  0.1148338E+00
         -1   -1    0    0    0  501 -0.00000000000E+00  0.00000000000E+00  0.42612887097E+03  0.42612887097E+03  0.00000000000E+00 0.  1.
          1   -1    0    0  501    0  0.00000000000E+00 -0.00000000000E+00 -0.11789389279E+03  0.11789389279E+03  0.00000000000E+00 0. -1.
          5    1    1    2  502    0  0.34858162450E+01 -0.18153501086E+02  0.41278531621E+02  0.45421251516E+02  0.41800000000E+01 0.  1.
         -5    1    1    2    0  502  0.89948708371E+01  0.19549848811E+03  0.22082711837E+03  0.29509770443E+03  0.41800000000E+01 0.  1.
        -11    1    1    2    0    0 -0.35791545489E+02 -0.14090789753E+03  0.76072699460E+01  0.14558138917E+03  0.00000000000E+00 0. -1.
         11    1    1    2    0    0  0.23310858407E+02 -0.36437089487E+02  0.38522058249E+02  0.57922418645E+02  0.00000000000E+00 0.  1.
</event>
<event>
 6    1  0.5317355E-006  0.1352458E+03  0.7561462E-02  0.1219873E+00
          4   -1    0    0  501    0  0.00000000000E+00  0.00000000000E+00  0.15279116188E+03  0.15279116188E+03  0.00000000000E+00 0.  1.
         -4   -1    0    0    0  501 -0.00000000000E+00 -0.00000000000E+00 -0.12949774574E+03  0.12949774574E+03  0.00000000000E+00 0. -1.
          5    1    1    2  502    0 -0.44794419926E+02  0.29530015024E+02  0.12763790811E+02  0.55307762563E+02  0.41800000000E+01 0. -1.
         -5    1    1    2    0  502 -0.13664247814E+02 -0.94710587353E+02 -0.18054611093E+02  0.97469217740E+02  0.41800000000E+01 0. -1.
        -11    1    1    2    0    0  0.24266903388E+02 -0.18489155756E+02 -0.87205457172E+01  0.31729787239E+02  0.00000000000E+00 0. -1.
         11    1    1    2    0    0  0.34191764353E+02  0.83669728085E+02  0.37304782147E+02  0.97782140079E+02  0.00000000000E+00 0.  1.
</event>
<event>
 6    1  0.5317355E-006  0.1611243E+03  0.7561462E-02  0.1187433E+00
          3   -1    0    0  501    0  0.00000000000E+00  0.00000000000E+00  0.10803347026E+03  0.10803347026E+03  0.00000000000E+00 0. -1.
         -3   -1    0    0    0  501 -0.00000000000E+00 -0.00000000000E+00 -0.28853387636E+03  0.28853387636E+03  0.00000000000E+00 0.  1.
          5    1    1    2  502    0 -0.29294204599E+02  0.10695931917E+02 -0.51052367184E+02  0.59969742185E+02  0.41800000000E+01 0.  1.
         -5    1    1    2    0  502  0.12374232192E+03  0.61353342040E+02 -0.12095880718E+03  0.18364340513E+03  0.41800000000E+01 0.  1.
        -11    1    1    2    0    0 -0.21919771168E+02 -0.76851248233E+02 -0.74113125320E+01  0.80259069745E+02  0.00000000000E+00 0. -1.
         11    1    1    2    0    0 -0.72528346148E+02  0.48019742751E+01 -0.10779192126E+01  0.72695129560E+02  0.00000000000E+00 0.  1.
</event>
<event>
 6    1  0.5317355E-006  0.1437500E+03  0.7561462E-02  0.1208370E+00
          1   -1    0    0  501    0  0.00000000000E+00  0.00000000000E+00  0.21463021755E+03  0.21463021755E+03  0.00000000000E+00 0. -1.
         -1   -1    0    0    0  501 -0.00000000000E+00 -0.00000000000E+00 -0.14178315383E+03  0.14178315383E+03  0.00000000000E+00 0.  1.
          5    1    1    2  502    0  0.29539317623E+02  0.12150670987E+02  0.72629711717E+02  0.79452863479E+02  0.41800000000E+01 0.  1.
         -5    1    1    2    0  502  0.70986021071E+01  0.11586632423E+03 -0.26468995466E+01  0.11618895696E+03  0.41800000000E+01 0.  1.
        -11    1    1    2    0    0 -0.33667725523E+02 -0.45726329372E+02 -0.38516505660E+02  0.68614387325E+02  0.00000000000E+00 0.  1.
         11    1    1    2    0    0 -0.29701942067E+01 -0.82290665844E+02  0.41380757207E+02  0.92157163616E+02  0.00000000000E+00 0. -1.
</event>
<event>
 6    1  0.5317355E-006  0.9630540E+02  0.7561462E-02  0.1288263E+00
          3   -1    0    0  501    0  0.00000000000E+00  0.00000000000E+00  0.62247849751E+02  0.62247849751E+02  0.00000000000E+00 0. -1.
         -3   -1    0    0    0  501 -0.00000000000E+00 -0.00000000000E+00 -0.24578452439E+03  0.24578452439E+03  0.00000000000E+00 0.  1.
          5    1    1    2  502    0  0.21226939292E+02  0.41236551342E+02 -0.49876194532E+01  0.46833586945E+02  0.41800000000E+01 0. -1.
         -5    1    1    2    0  502 -0.70906527562E+02 -0.12507975262E+02 -0.11507310586E+03  0.13580676415E+03  0.41800000000E+01 0. -1.
        -11    1    1    2    0    0  0.10802934036E+02  0.12990736302E+02 -0.66179886533E+02  0.68302562141E+02  0.00000000000E+00 0.  1.
         11    1    1    2    0    0  0.38876654235E+02 -0.41719312382E+02  0.27039372083E+01  0.57089460906E+02  0.00000000000E+00 0. -1.
</event>
<event>
 6    1  0.5317355E-006  0.1386687E+03  0.7561462E-02  0.1215132E+00
          2   -1    0    0  501    0  0.00000000000E+00  0.00000000000E+00  0.82153085514E+03  0.82153085514E+03  0.00000000000E+00 0. -1.
         -2   -1    0    0    0  501 -0.00000000000E+00 -0.00000000000E+00 -0.35847213774E+02  0.35847213774E+02  0.00000000000E+00 0.  1.
          5    1    1    2  502    0  0.10120231522E+03 -0.98715837009E+01  0.30068334023E+03  0.31743865591E+03  0.41800000000E+01 0.  1.
         -5    1    1    2    0  502  0.15955753659E+02 -0.34284121377E+02  0.87586255208E+01  0.39040657966E+02  0.41800000000E+01 0.  1.
        -11    1    1    2    0    0 -0.35011579237E+02 -0.13111019502E+02  0.46608264589E+02  0.59749810385E+02  0.00000000000E+00 0.  1.
         11    1    1    2    0    0 -0.82146489639E+02  0.57266724581E+02  0.42963341102E+03  0.44114894465E+03  0.00000000000E+00 0. -1.
</event>
<event>
 6    1  0.5317355E-006  0.1590706E+03  0.7561462E-02  0.1189750E+00
         -1   -1    0    0    0  501 -0.00000000000E+00  0.00000000000E+00  0.11894926152E+03  0.11894926152E+03  0.00000000000E+00 0.  1.
          1   -1    0    0  501    0  0.00000000000E+00 -0.00000000000E+00 -0.29390234440E+03  0.29390234440E+03  0.00000000000E+00 0. -1.
          5    1    1    2  502    0  0.15517529982E+02  0.17024632166E+02  0.26477856341E+02  0.35343756359E+02  0.41800000000E+01 0. -1.
         -5    1    1    2    0  502 -0.11085054562E+03  0.92285099016E+02 -0.73162717893E+02  0.16178578013E+03  0.41800000000E+01 0. -1.
        -11    1    1    2    0    0  0.19945615158E+01 -0.23683007852E+02  0.12085750190E+02  0.26663242380E+02  0.00000000000E+00 0.  1.
         11    1    1    2    0    0  0.93338454117E+02 -0.85626723330E+02 -0.14035397152E+03  0.18905882705E+03  0.00000000000E+00 0. -1.
</event>
<event>
 6    1  0.5317355E-006  0.7714202E+02  0.7561462E-02  0.1337363E+00
          2   -1    0    0  501    0  0.00000000000E+00  0.00000000000E+00  0.48425765988E+03  0.48425765988E+03  0.00000000000E+00 0. -1.
         -2   -1    0    0    0  501 -0.00000000000E+00 -0.00000000000E+00 -0.28031561179E+02  0.28031561179E+02  0.00000000000E+00 0.  1.
          5    1    1    2  502    0  0.12349820981E+02 -0.21226806411E+02  0.30260668027E+03  0.30363031920E+03  0.41800000000E+01 0. -1.
         -5    1    1    2    0  502 -0.35196512349E+02  0.10306751362E+00  0.13815830006E+02  0.38041486080E+02  0.41800000000E+01 0. -1.
        -11    1    1    2    0    0  0.55722563051E+02  0.17100330830E+01  0.58577842915E+02  0.80865888524E+02  0.00000000000E+00 0.  1.
         11    1    1    2    0    0 -0.32875871684E+02  0.19413705814E+02  0.81225745509E+02  0.89751527262E+02  0.00000000000E+00 0. -1.
</event>
<event>
 6    1  0.5317355E-006  0.1959547E+03  0.7561462E-02  0.1153198E+00
         -3   -1    0    0    0  501 -0.00000000000E+00  0.00000000000E+00  0.23985530256E+04  0.23985530256E+04  0.00000000000E+00 0.  1.
          3   -1    0    0  501    0  0.00000000000E+00 -0.00000000000E+00 -0.17783076436E+02  0.17783076436E+02  0.00000000000E+00 0. -1.
          5    1    1    2  502    0  0.12686673219E+02  0.25891500663E+02  0.94593774338E+02  0.98978664506E+02  0.41800000000E+01 0. -1.
         -5    1    1    2    0  502  0.14171746296E+03 -0.93419923627E+02  0.14086073235E+04  0.14188034344E+04  0.41800000000E+01 0. -1.
        -11    1    1    2    0    0 -0.13637497172E+03  0.14699548620E+02  0.61226515580E+03  0.62744149580E+03  0.00000000000E+00 0.  1.
         11    1    1    2    0    0 -0.18029164461E+02  0.52828874344E+02  0.26530369551E+03  0.27111250725E+03  0.00000000000E+00 0. -1.
</event>
<event>
 6    1  0.5317355E-006  0.1997614E+03  0.7561462E-02  0.1149941E+00
          1   -1    0    0  501    0  0.00000000000E+00  0.00000000000E+00  0.32306534210E+03  0.32306534210E+03  0.00000000000E+00 0. -1.
         -1   -1    0    0    0  501 -0.00000000000E+00 -0.00000000000E+00 -0.37405634608E+03  0.37405634608E+03  0.00000000000E+00 0.  1.
          5    1    1    2  502    0 -0.50752701978E+01 -0.57656098189E+02 -0.19608711433E+03  0.20449355205E+03  0.41800000000E+01 0.  1.
         -5    1    1    2    0  502  0.87972280498E+02 -0.79518493781E+02 -0.10284294039E+03  0.15702374272E+03  0.41800000000E+01 0.  1.
        -11    1    1    2    0    0 -0.10734403741E+03  0.27971516976E+02  0.94696120327E+02  0.14585096275E+03  0.00000000000E+00 0.  1.
         11    1    1    2    0    0  0.24447027114E+02  0.10920307499E+03  0.15324293042E+03  0.18975343066E+03  0.00000000000E+00 0. -1.
</event>
<event>
 6    1  0.5317355E-006  0.1836327E+03  0.7561462E-02  0.1164333E+00
          2   -1    0    0  501    0  0.00000000000E+00  0.00000000000E+00  0.53498781492E+03  0.53498781492E+03  0.00000000000E+00 0. -1.
         -2   -1    0    0    0  501 -0.00000000000E+00 -0.00000000000E+00 -0.74157243280E+02  0.74157243280E+02  0.00000000000E+00 0.  1.
          5    1    1    2  502    0 -0.15217668387E+02 -0.31542111209E+02  0.28116466980E+02  0.45105324809E+02  0.41800000000E+01 0. -1.
         -5    1    1    2    0  502 -0.12199027848E+03  0.11691720938E+03  0.14925340272E+03  0.22548905188E+03  0.41800000000E+01 0. -1.
        -11    1    1    2    0    0  0.65737383640E+02 -0.53320017119E+02  0.65756553657E+02  0.10718373096E+03  0.00000000000E+00 0.  1.
         11    1    1    2    0    0  0.71470563231E+02 -0.32055081048E+02  0.21770414828E+03  0.23136695056E+03  0.00000000000E+00 0. -1.
</event>
<event>
 6    1  0.5317355E-006  0.1119910E+03  0.7561462E-02  0.1256927E+00
          1   -1    0    0  501    0  0.00000000000E+00  0.00000000000E+00  0.40957125914E+03  0.40957125914E+03  0.00000000000E+00 0. -1.
         -1   -1    0    0    0  501 -0.00000000000E+00 -0.00000000000E+00 -0.51075132637E+02  0.51075132637E+02  0.00000000000E+00 0.  1.
          5    1    1    2  502    0 -0.92989077301E+01 -0.90886850177E+02  0.45029317393E+02  0.10194116462E+03  0.41800000000E+01 0. -1.
         -5    1    1    2    0  502 -0.89822028336E+01  0.42640452756E+02  0.19355601343E+02  0.47864390546E+02  0.41800000000E+01 0. -1.
        -11    1    1    2    0    0 -0.10189295585E+02  0.57820738661E+02  0.11388036875E+03  0.12812415053E+03  0.00000000000E+00 0.  1.
         11    1    1    2    0    0  0.28470406149E+02 -0.95743412394E+01  0.18023083902E+03  0.18271668608E+03  0.00000000000E+00 0. -1.
</event>
<event>
 6    1  0.5317355E-006  0.8347049E+02  0.7561462E-02  0.1319482E+00
         -1   -1    0    0    0  501 -0.00000000000E+00  0.00000000000E+00  0.17762440425E+03  0.17762440425E+03  0.00000000000E+00 0.  1.
          1   -1    0    0  501    0  0.00000000000E+00 -0.00000000000E+00 -0.92872170691E+02  0.92872170691E+02  0.00000000000E+00 0. -1.
          5    1    1    2  502    0  0.52071905928E+02  0.35209927831E+02  0.11535963012E+03  0.13144024903E+03  0.41800000000E+01 0.  1.
         -5    1    1    2    0  502  0.25025278402E+00 -0.16350642788E+02 -0.26745311017E+02  0.31625783902E+02  0.41800000000E+01 0.  1.
        -11    1    1    2    0    0  0.10870343396E+02 -0.21205142678E+02  0.27879259062E+02  0.36675271334E+02  0.00000000000E+00 0.  1.
         11    1    1    2    0    0 -0.63192502108E+02  0.23458576350E+01 -0.31741344604E+02  0.70755270673E+02  0.00000000000E+00 0. -1.
</event>
<event>
 6    1  0.5317355E-006  0.1024029E+03  0.7561462E-02  0.1275323E+00
         -2   -1    0    0    0  501 -0.00000000000E+00  0.00000000000E+00  0.43561244604E+03  0.43561244604E+03  0.00000000000E+00 0. -1.
          2   -1    0    0  501    0  0.00000000000E+00 -0.00000000000E+00 -0.38333133636E+02  0.38333133636E+02  0.00000000000E+00 0.  1.
          5    1    1    2  502    0 -0.22956469871E+02 -0.46977973073E+02  0.15619783320E+03  0.16477003660E+03  0.41800000000E+01 0.  1.
         -5    1    1    2    0  502  0.74390976811E+02  0.22209332295E+02  0.10807831584E+03  0.13313777311E+03  0.41800000000E+01 0.  1.
        -11    1    1    2    0    0 -0.25922339444E+02 -0.13020952885E+02 -0.61080893115E+01  0.29644926232E+02  0.00000000000E+00 0.  1.
         11    1    1    2    0    0 -0.25512167496E+02  0.37789593664E+02  0.13911125267E+03  0.14639284374E+03  0.00000000000E+00 0. -1.
</event>
<event>
 6    1  0.5317355E-006  0.1008001E+03  0.7561462E-02  0.1278622E+00
         -2   -1    0    0    0  501 -0.00000000000E+00  0.00000000000E+00  0.12389660924E+03  0.12389660924E+03  0.00000000000E+00 0.  1.
          2   -1    0    0  501    0  0.00000000000E+00 -0.00000000000E+00 -0.93309537364E+02  0.93309537364E+02  0.00000000000E+00 0. -1.
          5    1    1    2  502    0 -0.22618621635E+02 -0.50365512309E+02 -0.89158542054E+01  0.56082543906E+02  0.41800000000E+01 0.  1.
         -5    1    1    2    0  502  0.49011207762E+02  0.43731724347E+02  0.35061349035E+02  0.74574344092E+02  0.41800000000E+01 0.  1.
        -11    1    1    2    0    0 -0.11839555295E+02 -0.34661681239E+02  0.17865735043E+02  0.40752812228E+02  0.00000000000E+00 0.  1.
         11    1    1    2    0    0 -0.14553030831E+02  0.41295469200E+02 -0.13424157997E+02  0.45796446377E+02  0.00000000000E+00 0. -1.
</event>
<event>
 6    1  0.5317355E-006  0.1142017E+03  0.7561462E-02  0.1252981E+00
          3   -1    0    0  501    0  0.00000000000E+00  0.00000000000E+00  0.23363494084E+03  0.23363494084E+03  0.00000000000E+00 0. -1.
         -3   -1    0    0    0  501 -0.00000000000E+00 -0.00000000000E+00 -0.79578231378E+02  0.79578231378E+02  0.00000000000E+00 0.  1.
          5    1    1    2  502    0  0.22520066193E+01  0.36875528071E+02 -0.27776042445E+01  0.37283556559E+02  0.41800000000E+01 0. -1.
         -5    1    1    2    0  502 -0.82909350293E+02 -0.58504154184E+02  0.95469822169E+02  0.13938671302E+03  0.41800000000E+01 0. -1.
        -11    1    1    2    0    0  0.58278643256E+02  0.30275684054E+02  0.81888749474E+02  0.10497039866E+03  0.00000000000E+00 0. -1.
         11    1    1    2    0    0  0.22378700418E+02 -0.86470579416E+01 -0.20524257935E+02  0.31572503975E+02  0.00000000000E+00 0.  1.
</event>
<event>
 6    1  0.5317355E-006  0.1477261E+03  0.7561462E-02  0.1203295E+00
          2   -1    0    0  501    0  0.00000000000E+00  0.00000000000E+00  0.40547195240E+03  0.40547195240E+03  0.00000000000E+00 0. -1.
         -2   -1    0    0    0  501 -0.00000000000E+00 -0.00000000000E+00 -0.89326407252E+02  0.89326407252E+02  0.00000000000E+00 0.  1.
          5    1    1    2  502    0  0.81663806675E+02  0.49754469154E+02  0.17813741877E+02  0.97361626533E+02  0.41800000000E+01 0. -1.
         -5    1    1    2    0  502 -0.50573034434E+02  0.41198542053E+02 -0.50758908931E+01  0.65560573118E+02  0.41800000000E+01 0.  1.
        -11    1    1    2    0    0  0.13727426692E+01 -0.10051776664E+03  0.23274888742E+03  0.25353057099E+03  0.00000000000E+00 0. -1.
         11    1    1    2    0    0 -0.32463514910E+02  0.95647554292E+01  0.70658806740E+02  0.78345589006E+02  0.00000000000E+00 0.  1.
</event>
<event>
 6    1  0.5317355E-006  0.1704772E+03  0.7561462E-02  0.1177351E+00
          1   -1    0    0  501    0  0.00000000000E+00  0.00000000000E+00  0.26760729825E+02  0.26760729825E+02  0.00000000000E+00 0. -1.
         -1   -1    0    0    0  501 -0.00000000000E+00 -0.00000000000E+00 -0.13248085554E+04  0.13248085554E+04  0.00000000000E+00 0.  1.
          5    1    1    2  502    0 -0.37218578154E+02 -0.53814631245E+02 -0.18445773823E+03  0.19576354790E+03  0.41800000000E+01 0.  1.
         -5    1    1    2    0  502  0.73992784645E+02 -0.84158750317E+02 -0.69087444912E+03  0.69991614090E+03  0.41800000000E+01 0.  1.
        -11    1    1    2    0    0 -0.60436932462E+02  0.11674716425E+03 -0.27519959216E+03  0.30498744022E+03  0.00000000000E+00 0. -1.
         11    1    1    2    0    0  0.23662725971E+02  0.21226217313E+02 -0.14751604606E+03  0.15090215621E+03  0.00000000000E+00 0.  1.
</event>
<event>
 6    1  0.5317355E-006  0.1014453E+03  0.7561462E-02  0.1277286E+00
         -1   -1    0    0    0  501 -0.00000000000E+00  0.00000000000E+00  0.15332754663E+03  0.15332754663E+03  0.00000000000E+00 0.  1.
          1   -1    0    0  501    0  0.00000000000E+00 -0.00000000000E+00 -0.10546633274E+03  0.10546633274E+03  0.00000000000E+00 0. -1.
          5    1    1    2  502    0 -0.49393162373E+02 -0.71299234538E+02  0.48676796328E+02  0.99549827904E+02  0.41800000000E+01 0. -1.
         -5    1    1    2    0  502 -0.76258934874E+01  0.47538896508E+02  0.36643379724E+00  0.48329158966E+02  0.41800000000E+01 0. -1.
        -11    1    1    2    0    0  0.21029102926E+01  0.11194086326E+02  0.39704552551E+02  0.41305947437E+02  0.00000000000E+00 0.  1.
         11    1    1    2    0    0  0.54916145568E+02  0.12566251704E+02 -0.40886568788E+02  0.69608945066E+02  0.00000000000E+00 0. -1.
</event>
<event>
 6    1  0.5317355E-006  0.1350298E+03  0.7561462E-02  0.1220178E+00
         -2   -1    0    0    0  501 -0.00000000000E+00  0.00000000000E+00  0.31667137457E+03  0.31667137457E+03  0.00000000000E+00 0. -1.
          2   -1    0    0  501    0  0.00000000000E+00 -0.00000000000E+00 -0.63870121818E+02  0.63870121818E+02  0.00000000000E+00 0.  1.
          5    1    1    2  502    0 -0.26816050270E+02 -0.25416614444E+01  0.65634879705E+02  0.71070179604E+02  0.41800000000E+01 0.  1.
         -5    1    1    2    0  502  0.11660366417E+03 -0.30787293451E+01  0.84826392167E+02  0.14428749870E+03  0.41800000000E+01 0.  1.
        -11    1    1    2    0    0 -0.94019731946E+02  0.32037092734E+02  0.94992492525E+02  0.13743965564E+03  0.00000000000E+00 0.  1.
         11    1    1    2    0    0  0.42321180464E+01 -0.26416701944E+02  0.73474883523E+01  0.27744162446E+02  0.00000000000E+00 0. -1.
</event>
<event>
 6    1  0.5317355E-006  0.9069147E+02  0.7561462E-02  0.1301186E+00
          2   -1    0    0  501    0  0.00000000000E+00  0.00000000000E+00  0.45470224738E+03  0.45470224738E+03  0.00000000000E+00 0.  1.
         -2   -1    0    0    0  501 -0.00000000000E+00 -0.00000000000E+00 -0.43806326117E+02  0.43806326117E+02  0.00000000000E+00 0. -1.
          5    1    1    2  502    0  0.73669346718E+02 -0.27267939349E+02  0.22888942719E+02  0.81927341352E+02  0.41800000000E+01 0. -1.
         -5    1    1    2    0  502 -0.14171426831E+02  0.13153990654E+02  0.26897068940E+03  0.26969716529E+03  0.41800000000E+01 0.  1.
        -11    1    1    2    0    0 -0.64560108780E+02 -0.34546852616E+01  0.73923220371E+02  0.98206848061E+02  0.00000000000E+00 0.  1.
         11    1    1    2    0    0  0.50621888930E+01  0.17568633957E+02  0.45113068769E+02  0.48677218791E+02  0.00000000000E+00 0. -1.
</event>
<event>
 6    1  0.5317355E-006  0.1115881E+03  0.7561462E-02  0.1257657E+00
          2   -1    0    0  501    0  0.00000000000E+00  0.00000000000E+00  0.18079571039E+03  0.18079571039E+03  0.00000000000E+00 0.  1.
         -2   -1    0    0    0  501 -0.00000000000E+00 -0.00000000000E+00 -0.10967727135E+03  0.10967727135E+03  0.00000000000E+00 0. -1.
          5    1    1    2  502    0  0.52065499906E+02  0.81914906828E+01  0.61216061116E+02  0.80887547488E+02  0.41800000000E+01 0.  1.
         -5    1    1    2    0  502  0.27386222411E+02 -0.37751361083E+02 -0.52654215848E+02  0.70463531618E+02  0.41800000000E+01 0.  1.
        -11    1    1    2    0    0 -0.16326985246E+02 -0.31610729917E+02  0.25272157019E+02  0.43640469905E+02  0.00000000000E+00 0.  1.
         11    1    1    2    0    0 -0.63124737071E+02  0.61170600317E+02  0.37284436753E+02  0.95481432736E+02  0.00000000000E+00 0. -1.
</event>
<event>
 6    1  0.5317355E-006  0.1863671E+03  0.7561462E-02  0.1161779E+00
          1   -1    0    0  501    0  0.00000000000E+00  0.00000000000E+00  0.38340713915E+02  0.38340713915E+02  0.00000000000E+00 0. -1.
         -1   -1    0    0    0  501 -0.00000000000E+00 -0.00000000000E+00 -0.15002107361E+04  0.15002107361E+04  0.00000000000E+00 0.  1.
          5    1    1    2  502    0 -0.67415266812E+02  0.26479684926E+02 -0.49442272436E+03  0.49971721471E+03  0.41800000000E+01 0. -1.
         -5    1    1    2    0  502  0.16929960943E+02  0.12491873602E+03 -0.71442050209E+03  0.72546911747E+03  0.41800000000E+01 0.  1.
        -11    1    1    2    0    0  0.13754583475E+02 -0.13162072355E+03 -0.13888660237E+03  0.19184027667E+03  0.00000000000E+00 0. -1.
         11    1    1    2    0    0  0.36730722394E+02 -0.19777697397E+02 -0.11414019340E+03  0.12152484121E+03  0.00000000000E+00 0.  1.
</event>
<event>
 6    1  0.5317355E-006  0.8409660E+02  0.7561462E-02  0.1317812E+00
          1   -1    0    0  501    0  0.00000000000E+00  0.00000000000E+00  0.32423222820E+02  0.32423222820E+02  0.00000000000E+00 0. -1.
         -1   -1    0    0    0  501 -0.00000000000E+00 -0.00000000000E+00 -0.48135799345E+03  0.48135799345E+03  0.00000000000E+00 0.  1.
          5    1    1    2  502    0 -0.93869729377E+01 -0.50244442225E+02 -0.28619237324E+03  0.29075103807E+03  0.41800000000E+01 0.  1.
         -5    1    1    2    0  502  0.46274959602E+02  0.21024093523E+02 -0.51729055858E+02  0.72641255597E+02  0.41800000000E+01 0.  1.
        -11    1    1    2    0    0 -0.28994772634E+02 -0.61753243959E+01 -0.11019673459E+03  0.11411464317E+03  0.00000000000E+00 0.  1.
         11    1    1    2    0    0 -0.78932140305E+01  0.35395673098E+02 -0.81660694005E+00  0.36274279437E+02  0.00000000000E+00 0. -1.
</event>
<event>
 6    1  0.5317355E-006  0.9122781E+02  0.7561462E-02  0.1299905E+00
          1   -1    0    0  501    0  0.00000000000E+00  0.00000000000E+00  0.26898201402E+03  0.26898201402E+03  0.00000000000E+00 0. -1.
         -1   -1    0    0    0  501 -0.00000000000E+00 -0.00000000000E+00 -0.10991879209E+03  0.10991879209E+03  0.00000000000E+00 0.  1.
          5    1    1    2  502    0  0.21365056737E+02 -0.40638581813E+02  0.72429690767E+01  0.46667900983E+02  0.41800000000E+01 0. -1.
         -5    1    1    2    0  502 -0.17501084517E+01  0.53299353401E+02 -0.71611026428E+02  0.89383977639E+02  0.41800000000E+01 0.  1.
        -11    1    1    2    0    0 -0.30906672219E+01 -0.45761359557E+02  0.18021537552E+03  0.18596030713E+03  0.00000000000E+00 0. -1.
         11    1    1    2    0    0 -0.16524281063E+02  0.33100587968E+02  0.43215903760E+02  0.56888620359E+02  0.00000000000E+00 0.  1.
</event>
<event>
 6    1  0.5317355E-006  0.7517667E+02  0.7561462E-02  0.1343325E+00
         -1   -1    0    0    0  501 -0.00000000000E+00  0.00000000000E+00  0.23139953396E+03  0.23139953396E+03  0.00000000000E+00 0.  1.
          1   -1    0    0  501    0  0.00000000000E+00 -0.00000000000E+00 -0.62352765607E+02  0.62352765607E+02  0.00000000000E+00 0. -1.
          5    1    1    2  502    0  0.23408038820E+02 -0.45102121117E+02 -0.15310128982E+02  0.53235421104E+02  0.41800000000E+01 0.  1.
         -5    1    1    2    0  502  0.18508993794E+02  0.15591387290E+02  0.10779906871E+03  0.11056123111E+03  0.41800000000E+01 0.  1.
        -11    1    1    2    0    0  0.12151388552E+02  0.14043150621E+02 -0.14068879464E+02  0.23298061990E+02  0.00000000000E+00 0. -1.
         11    1    1    2    0    0 -0.54068421167E+02  0.15467583206E+02  0.90626708090E+02  0.10665758537E+03  0.00000000000E+00 0.  1.
</event>
<event>
 6    1  0.5317355E-006  0.1232963E+03  0.7561462E-02  0.1237756E+00
         -1   -1    0    0    0  501 -0.00000000000E+00  0.00000000000E+00  0.94160128464E+03  0.94160128464E+03  0.00000000000E+00 0.  1.
          1   -1    0    0  501    0  0.00000000000E+00 -0.00000000000E+00 -0.24460680083E+02  0.24460680083E+02  0.00000000000E+00 0. -1.
          5    1    1    2  502    0 -0.82605582191E+02  0.40250307875E+02  0.40527672049E+03  0.41558448246E+03  0.41800000000E+01 0. -1.
         -5    1    1    2    0  502  0.24555805526E+02 -0.33010733516E+02  0.32638095752E+03  0.32899042227E+03  0.41800000000E+01 0. -1.
        -11    1    1    2    0    0  0.16849429834E+02 -0.50665009615E+02  0.49064900011E+02  0.72513522174E+02  0.00000000000E+00 0. -1.
         11    1    1    2    0    0  0.41200346832E+02  0.43425435256E+02  0.13641802654E+03  0.14897353782E+03  0.00000000000E+00 0.  1.
</event>
<event>
 6    1  0.5317355E-006  0.1211487E+03  0.7561462E-02  0.1241214E+00
          4   -1    0    0  501    0  0.00000000000E+00  0.00000000000E+00  0.74352856061E+01  0.74352856061E+01  0.00000000000E+00 0. -1.
         -4   -1    0    0    0  501 -0.00000000000E+00 -0.00000000000E+00 -0.26475998745E+04  0.26475998745E+04  0.00000000000E+00 0.  1.
          5    1    1    2  502    0  0.19940862054E+02  0.54580451313E+01 -0.80805333747E+03  0.80832858222E+03  0.41800000000E+01 0. -1.
         -5    1    1    2    0  502 -0.10699929032E+03  0.30582663058E+02 -0.11967149832E+04  0.12018853401E+04  0.41800000000E+01 0.  1.
        -11    1    1    2    0    0  0.88495555353E+02 -0.46029499985E+02 -0.57842023683E+03  0.58695838742E+03  0.00000000000E+00 0. -1.
         11    1    1    2    0    0 -0.14371270858E+01  0.99887917953E+01 -0.56976031447E+02  0.57862850390E+02  0.00000000000E+00 0.  1.
</event>
<event>
 6    1  0.5317355E-006  0.1490114E+03  0.7561462E-02  0.1201693E+00
         -2   -1    0    0    0  501 -0.00000000000E+00  0.00000000000E+00  0.19350354149E+02  0.19350354149E+02  0.00000000000E+00 0.  1.
          2   -1    0    0  501    0  0.00000000000E+00 -0.00000000000E+00 -0.12659575540E+04  0.12659575540E+04  0.00000000000E+00 0. -1.
          5    1    1    2  502    0 -0.14845878188E+02  0.25621587740E+02 -0.25268501223E+03  0.25444852852E+03  0.41800000000E+01 0.  1.
         -5    1    1    2    0  502  0.12642548283E+03 -0.13527759167E+02 -0.41487966570E+03  0.43394586343E+03  0.41800000000E+01 0.  1.
        -11    1    1    2    0    0 -0.14866425315E+02  0.31488787099E+02 -0.90075344704E+02  0.96571849097E+02  0.00000000000E+00 0.  1.
         11    1    1    2    0    0 -0.96713179332E+02 -0.43582615672E+02 -0.48896717716E+03  0.50034166705E+03  0.00000000000E+00 0. -1.
</event>
<event>
 6    1  0.5317355E-006  0.1639679E+03  0.7561462E-02  0.1184289E+00
         -3   -1    0    0    0  501 -0.00000000000E+00  0.00000000000E+00  0.16648396329E+03  0.16648396329E+03  0.00000000000E+00 0.  1.
          3   -1    0    0  501    0  0.00000000000E+00 -0.00000000000E+00 -0.27388913255E+03  0.27388913255E+03  0.00000000000E+00 0. -1.
          5    1    1    2  502    0 -0.47075491468E+02  0.44513433940E+02 -0.33542178916E+02  0.73075973237E+02  0.41800000000E+01 0.  1.
         -5    1    1    2    0  502  0.46135310668E+01  0.10403928176E+03  0.79178040363E+02  0.13088961492E+03  0.41800000000E+01 0.  1.
        -11    1    1    2    0    0  0.26005106578E+02 -0.32740604719E+02  0.23867486188E+01  0.41879700745E+02  0.00000000000E+00 0.  1.
         11    1    1    2    0    0  0.16456853823E+02 -0.11581211098E+03 -0.15542777932E+03  0.19452780694E+03  0.00000000000E+00 0. -1.
</event>
<event>
 6    1  0.5317355E-006  0.1725073E+03  0.7561462E-02  0.1175258E+00
          2   -1    0    0  501    0  0.00000000000E+00  0.00000000000E+00  0.22966094853E+03  0.22966094853E+03  0.00000000000E+00 0. -1.
         -2   -1    0    0    0  501 -0.00000000000E+00 -0.00000000000E+00 -0.14054322220E+03  0.14054322220E+03  0.00000000000E+00 0.  1.
          5    1    1    2  502    0 -0.35928642038E+02 -0.70137521676E+02 -0.27170347198E+01  0.78961977832E+02  0.41800000000E+01 0.  1.
         -5    1    1    2    0  502 -0.97340637745E+02  0.21703103669E+02  0.69252967138E+02  0.12148938358E+03  0.41800000000E+01 0.  1.
        -11    1    1    2    0    0  0.10585464999E+03 -0.52682301583E+01  0.26763368603E+02  0.10931257509E+03  0.00000000000E+00 0. -1.
         11    1    1    2    0    0  0.27414629794E+02  0.53702648165E+02 -0.41815746884E+01  0.60440234228E+02  0.00000000000E+00 0.  1.
</event>
<event>
 6    1  0.5317355E-006  0.1227194E+03  0.7561462E-02  0.1238677E+00
          3   -1    0    0  501    0  0.00000000000E+00  0.00000000000E+00  0.80860507657E+02  0.80860507657E+02  0.00000000000E+00 0. -1.
         -3   -1    0    0    0  501 -0.00000000000E+00 -0.00000000000E+00 -0.29996432363E+03  0.29996432363E+03  0.00000000000E+00 0.  1.
          5    1    1    2  502    0 -0.24925635623E+02  0.74033339910E+00 -0.13173198605E+03  0.13413658693E+03  0.41800000000E+01 0. -1.
         -5    1    1    2    0  502 -0.77102500710E+02 -0.38448465593E+02 -0.15637798512E+02  0.87664663716E+02  0.41800000000E+01 0. -1.
        -11    1    1    2    0    0  0.11298958854E+03  0.22596419326E+02 -0.78211253563E+02  0.13926322368E+03  0.00000000000E+00 0.  1.
         11    1    1    2    0    0 -0.10961452206E+02  0.15111712868E+02  0.64772221579E+01  0.19760356960E+02  0.00000000000E+00 0. -1.
</event>
<event>
 6    1  0.5317355E-006  0.1022054E+03  0.7561462E-02  0.1275726E+00
          1   -1    0    0  501    0  0.00000000000E+00  0.00000000000E+00  0.41314718760E+03  0.41314718760E+03  0.00000000000E+00 0. -1.
         -1   -1    0    0    0  501 -0.00000000000E+00 -0.00000000000E+00 -0.40646534918E+02  0.40646534918E+02  0.00000000000E+00 0.  1.
          5    1    1    2  502    0  0.24843851011E+02  0.14506627327E+02 -0.16546242531E+01  0.29118196216E+02  0.41800000000E+01 0.  1.
         -5    1    1    2    0  502 -0.77525591731E+02  0.29498503040E+02  0.18843697635E+03  0.20592801051E+03  0.41800000000E+01 0.  1.
        -11    1    1    2    0    0 -0.52736114093E+01 -0.32845637238E+02  0.12144329859E+02  0.35413720654E+02  0.00000000000E+00 0.  1.
         11    1    1    2    0    0  0.57955352129E+02 -0.11159493129E+02  0.17357397073E+03  0.18333379514E+03  0.00000000000E+00 0. -1.
</event>
<event>
 6    1  0.5317355E-006  0.8723814E+02  0.7561462E-02  0.1309681E+00
         -2   -1    0    0    0  501 -0.00000000000E+00  0.00000000000E+00  0.50690435489E+02  0.50690435489E+02  0.00000000000E+00 0.  1.
          2   -1    0    0  501    0  0.00000000000E+00 -0.00000000000E+00 -0.27279071970E+03  0.27279071970E+03  0.00000000000E+00 0. -1.
          5    1    1    2  502    0  0.43951509402E+02 -0.31461274335E+02 -0.93772612057E+02  0.10831584433E+03  0.41800000000E+01 0.  1.
         -5    1    1    2    0  502 -0.27245517637E+02  0.13110477224E+02  0.22369469614E+02  0.37842679809E+02  0.41800000000E+01 0.  1.
        -11    1    1    2    0    0  0.30474921279E+02  0.28224458051E+02 -0.45504444396E+02  0.61611649215E+02  0.00000000000E+00 0.  1.
         11    1    1    2    0    0 -0.47180913044E+02 -0.98736609404E+01 -0.10519269737E+03  0.11571098183E+03  0.00000000000E+00 0. -1.
</event>
<event>
 6    1  0.5317355E-006  0.1497781E+03  0.7561462E-02  0.1200746E+00
          1   -1    0    0  501    0  0.00000000000E+00  0.00000000000E+00  0.81832625614E+02  0.81832625614E+02  0.00000000000E+00 0. -1.
         -1   -1    0    0    0  501 -0.00000000000E+00 -0.00000000000E+00 -0.37936851916E+03  0.37936851916E+03  0.00000000000E+00 0.  1.
          5    1    1    2  502    0  0.69147073979E+01  0.64411911215E+01  0.15004458458E+02  0.18218350504E+02  0.41800000000E+01 0. -1.
         -5    1    1    2    0  502 -0.14311464290E+03  0.31474120125E+02 -0.18306145264E+03  0.23452374953E+03  0.41800000000E+01 0. -1.
        -11    1    1    2    0    0  0.12839099183E+03 -0.30730903507E+02 -0.72728503298E+02  0.15072514855E+03  0.00000000000E+00 0. -1.
         11    1    1    2    0    0  0.78089436752E+01 -0.71844077390E+01 -0.56750396061E+02  0.57733896187E+02  0.00000000000E+00 0.  1.
</event>
<event>
 6    1  0.5317355E-006  0.1061653E+03  0.7561462E-02  0.1267841E+00
          1   -1    0    0  501    0  0.00000000000E+00  0.00000000000E+00  0.68449137564E+02  0.68449137564E+02  0.00000000000E+00 0. -1.
         -1   -1    0    0    0  501 -0.00000000000E+00 -0.00000000000E+00 -0.38067322202E+03  0.38067322202E+03  0.00000000000E+00 0.  1.
          5    1    1    2  502    0 -0.20734797927E+02 -0.33718850359E+02 -0.61776940141E+02  0.73489832274E+02  0.41800000000E+01 0. -1.
         -5    1    1    2    0  502  0.63154453739E+02  0.68212528064E+02 -0.25119313398E+03  0.26787477852E+03  0.41800000000E+01 0.  1.
        -11    1    1    2    0    0 -0.17449970312E+02 -0.48007918666E+02 -0.35138280481E+02  0.61999681239E+02  0.00000000000E+00 0.  1.
         11    1    1    2    0    0 -0.24969685500E+02  0.13514240961E+02  0.35884270138E+02  0.45758067552E+02  0.00000000000E+00 0. -1.
</event>
<event>
 6    1  0.5317355E-006  0.1228284E+03  0.7561462E-02  0.1238503E+00
          1   -1    0    0  501    0  0.00000000000E+00  0.00000000000E+00  0.29147783257E+03  0.29147783257E+03  0.00000000000E+00 0. -1.
         -1   -1    0    0    0  501 -0.00000000000E+00 -0.00000000000E+00 -0.71132700796E+02  0.71132700796E+02  0.00000000000E+00 0.  1.
          5    1    1    2  502    0  0.25081926623E+02 -0.61282697334E+02 -0.11333883654E+01  0.66358337869E+02  0.41800000000E+01 0. -1.
         -5    1    1    2    0  502 -0.69137608044E+02  0.62445171899E+01  0.48720542767E+02  0.84912699453E+02  0.41800000000E+01 0. -1.
        -11    1    1    2    0    0  0.45573736183E+02 -0.83708764455E+01  0.12068600625E+03  0.12927547759E+03  0.00000000000E+00 0. -1.
         11    1    1    2    0    0 -0.15180547621E+01  0.63409056589E+02  0.52071971124E+02  0.82064018453E+02  0.00000000000E+00 0.  1.
</event>
<event>
 6    1  0.5317355E-006  0.2032559E+03  0.7561462E-02  0.1147021E+00
          2   -1    0    0  501    0  0.00000000000E+00  0.00000000000E+00  0.68573172945E+03  0.68573172945E+03  0.00000000000E+00 0. -1.
         -2   -1    0    0    0  501 -0.00000000000E+00 -0.00000000000E+00 -0.81455438744E+02  0.81455438744E+02  0.00000000000E+00 0.  1.
          5    1    1    2  502    0 -0.14455482616E+03 -0.11224703835E+03  0.12659489535E+03  0.22257411196E+03  0.41800000000E+01 0.  1.
         -5    1    1    2    0  502 -0.59994157271E+01  0.24311980247E+02 -0.21609981979E+01  0.25479554270E+02  0.41800000000E+01 0.  1.
        -11    1    1    2    0    0  0.10553581848E+03  0.73998109840E+01  0.24994414903E+03  0.27141231332E+03  0.00000000000E+00 0.  1.
         11    1    1    2    0    0  0.45018423402E+02  0.80535247118E+02  0.22989824452E+03  0.24772118865E+03  0.00000000000E+00 0. -1.
</event>
<event>
 6    1  0.5317355E-006  0.1232400E+03  0.7561462E-02  0.1237846E+00
          1   -1    0    0  501    0  0.00000000000E+00  0.00000000000E+00  0.33434703066E+03  0.33434703066E+03  0.00000000000E+00 0.  1.
         -1   -1    0    0    0  501 -0.00000000000E+00 -0.00000000000E+00 -0.65254206704E+02  0.65254206704E+02  0.00000000000E+00 0. -1.
          5    1    1    2  502    0  0.22075491849E+02 -0.11448395768E+03  0.69724254799E+02  0.13591485575E+03  0.41800000000E+01 0.  1.
         -5    1    1    2    0  502 -0.14410819201E+02  0.47957494731E+01  0.10236132720E+03  0.10356632962E+03  0.41800000000E+01 0.  1.
        -11    1    1    2    0    0 -0.16205190283E+02  0.31668446340E+02  0.67444385724E+02  0.76251189180E+02  0.00000000000E+00 0.  1.
         11    1    1    2    0    0  0.85405176342E+01  0.78019761863E+02  0.29562856232E+02  0.83868862823E+02  0.00000000000E+00 0. -1.
</event>
<event>
 6    1  0.5317355E-006  0.1140876E+03  0.7561462E-02  0.1253182E+00
         -1   -1    0    0    0  501 -0.00000000000E+00  0.00000000000E+00  0.20866091167E+03  0.20866091167E+03  0.00000000000E+00 0.  1.
          1   -1    0    0  501    0  0.00000000000E+00 -0.00000000000E+00 -0.65366619244E+02  0.65366619244E+02  0.00000000000E+00 0. -1.
          5    1    1    2  502    0 -0.15939326440E+02 -0.43101264609E+02  0.51104924042E+02  0.68854678850E+02  0.41800000000E+01 0.  1.
         -5    1    1    2    0  502  0.85794886636E+00  0.81331856697E+02  0.36183274576E+02  0.89119631670E+02  0.41800000000E+01 0.  1.
        -11    1    1    2    0    0  0.22213228853E+02 -0.67188099344E+02  0.31525357270E+02  0.77469454500E+02  0.00000000000E+00 0.  1.
         11    1    1    2    0    0 -0.71318512795E+01  0.28957507256E+02  0.24480736542E+02  0.38583765897E+02  0.00000000000E+00 0. -1.
</event>
<event>
 6    1  0.5317355E-006  0.1249040E+03  0.7561462E-02  0.1235219E+00
         -1   -1    0    0    0  501 -0.00000000000E+00  0.00000000000E+00  0.40483173416E+03  0.40483173416E+03  0.00000000000E+00 0.  1.
          1   -1    0    0  501    0  0.00000000000E+00 -0.00000000000E+00 -0.50213771630E+02  0.50213771630E+02  0.00000000000E+00 0. -1.
          5    1    1    2  502    0 -0.83240381147E+02  0.37869978179E+02  0.17282604292E+03  0.19557456331E+03  0.41800000000E+01 0.  1.
         -5    1    1    2    0  502  0.41644915466E+02  0.40773964102E+02  0.64143110673E+02  0.86767656298E+02  0.41800000000E+01 0.  1.
        -11    1    1    2    0    0  0.44249684533E+02 -0.35836612779E+02  0.11327208672E+02  0.58056894966E+02  0.00000000000E+00 0. -1.
         11    1    1    2    0    0 -0.26542188516E+01 -0.42807329502E+02  0.10632160026E+03  0.11464639122E+03  0.00000000000E+00 0.  1.
</event>
<event>
 6    1  0.5747185E-006  0.1112819E+03  0.7561462E-02  0.1258214E+00
          1   -1    0    0  501    0  0.00000000000E+00  0.00000000000E+00  0.10256643628E+03  0.10256643628E+03  0.00000000000E+00 0. -1.
         -1   -1    0    0    0  501 -0.00000000000E+00 -0.00000000000E+00 -0.20729102432E+03  0.20729102432E+03  0.00000000000E+00 0.  1.
          5    1    1    2  502    0 -0.70606858396E+02 -0.23129254910E+02 -0.11311615921E+03  0.13539951536E+03  0.41800000000E+01 0. -1.
         -5    1    1    2    0  502 -0.19027929905E+02 -0.62583211876E+01  0.34330063402E+02  0.39965664686E+02  0.41800000000E+01 0. -1.
        -11    1    1    2    0    0  0.38789240850E+02 -0.30340784788E+02 -0.26763143142E+02  0.56048499160E+02  0.00000000000E+00 0. -1.
         11    1    1    2    0    0  0.50845547450E+02  0.59728360885E+02  0.82465091104E+00  0.78443781390E+02  0.00000000000E+00 0.  1.
</event>
<event>
 6    1  0.5317355E-006  0.1560417E+03  0.7561462E-02  0.1193239E+00
          2   -1    0    0  501    0  0.00000000000E+00  0.00000000000E+00  0.29500244755E+03  0.29500244755E+03  0.00000000000E+00 0. -1.
         -2   -1    0    0    0  501 -0.00000000000E+00 -0.00000000000E+00 -0.10901328797E+03  0.10901328797E+03  0.00000000000E+00 0.  1.
          5    1    1    2  502    0 -0.37651079355E+01  0.61469126197E+02  0.11042167650E+03  0.12650315630E+03  0.41800000000E+01 0. -1.
         -5    1    1    2    0  502 -0.36025577188E+02  0.71129117263E+02 -0.17799449428E+02  0.81801505697E+02  0.41800000000E+01 0. -1.
        -11    1    1    2    0    0  0.70798998038E+02 -0.64858059764E+02  0.39728732167E+02  0.10391072225E+03  0.00000000000E+00 0. -1.
         11    1    1    2    0    0 -0.31008312915E+02 -0.67740183696E+02  0.53638200342E+02  0.91800351268E+02  0.00000000000E+00 0.  1.
</event>
<event>
 6    1  0.5317355E-006  0.2896512E+03  0.7561462E-02  0.1090531E+00
          1   -1    0    0  501    0  0.00000000000E+00  0.00000000000E+00  0.84033557978E+03  0.84033557978E+03  0.00000000000E+00 0. -1.
         -1   -1    0    0    0  501 -0.00000000000E+00 -0.00000000000E+00 -0.10740488639E+03  0.10740488639E+03  0.00000000000E+00 0.  1.
          5    1    1    2  502    0 -0.12226446385E+03  0.14525819971E+03  0.30964998259E+03  0.36324802521E+03  0.41800000000E+01 0.  1.
         -5    1    1    2    0  502  0.14147322940E+02  0.10955883666E+03  0.12289144149E+03  0.16529689721E+03  0.41800000000E+01 0.  1.
        -11    1    1    2    0    0  0.86136563097E+02 -0.16217763424E+03  0.25361272769E+03  0.31311420951E+03  0.00000000000E+00 0. -1.
         11    1    1    2    0    0  0.21980577816E+02 -0.92639402121E+02  0.46776541631E+02  0.10608133424E+03  0.00000000000E+00 0.  1.
</event>
<event>
 6    1  0.5317355E-006  0.1131793E+03  0.7561462E-02  0.1254793E+00
         -2   -1    0    0    0  501 -0.00000000000E+00  0.00000000000E+00  0.36884650366E+02  0.36884650366E+02  0.00000000000E+00 0. -1.
          2   -1    0    0  501    0  0.00000000000E+00 -0.00000000000E+00 -0.46796603631E+03  0.46796603631E+03  0.00000000000E+00 0.  1.
          5    1    1    2  502    0  0.85935582070E+02  0.58813084895E+02 -0.12249067862E+03  0.16082705609E+03  0.41800000000E+01 0. -1.
         -5    1    1    2    0  502 -0.26527810070E+02 -0.15399411018E+02 -0.10109929132E+03  0.10573270862E+03  0.41800000000E+01 0. -1.
        -11    1    1    2    0    0 -0.56977505075E+02 -0.10202507935E+02 -0.47522145990E+02  0.74892466992E+02  0.00000000000E+00 0. -1.
         11    1    1    2    0    0 -0.24302669251E+01 -0.33211165941E+02 -0.15996927001E+03  0.16339845498E+03  0.00000000000E+00 0.  1.
</event>
<event>
 6    1  0.5317355E-006  0.2325074E+03  0.7561462E-02  0.1124887E+00
         -1   -1    0    0    0  501 -0.00000000000E+00  0.00000000000E+00  0.14741529445E+03  0.14741529445E+03  0.00000000000E+00 0.  1.
          1   -1    0    0  501    0  0.00000000000E+00 -0.00000000000E+00 -0.39550472340E+03  0.39550472340E+03  0.00000000000E+00 0. -1.
          5    1    1    2  502    0  0.16614030162E+03  0.99015893189E+02 -0.11321497463E+03  0.22414693798E+03  0.41800000000E+01 0. -1.
         -5    1    1    2    0  502 -0.12379297595E+02  0.51867704094E+02 -0.12688263821E+02  0.54972449243E+02  0.41800000000E+01 0. -1.
        -11    1    1    2    0    0 -0.12427579377E+03 -0.10106471100E+03 -0.43263158597E+02  0.16592242048E+03  0.00000000000E+00 0.  1.
         11    1    1    2    0    0 -0.29485210256E+02 -0.49818886285E+02 -0.78923031911E+02  0.97878210142E+02  0.00000000000E+00 0. -1.
</event>
<event>
 6    1  0.5317355E-006  0.1109074E+03  0.7561462E-02  0.1258899E+00
         -1   -1    0    0    0  501 -0.00000000000E+00  0.00000000000E+00  0.21206254151E+02  0.21206254151E+02  0.00000000000E+00 0.  1.
          1   -1    0    0  501    0  0.00000000000E+00 -0.00000000000E+00 -0.77531426213E+03  0.77531426213E+03  0.00000000000E+00 0. -1.
          5    1    1    2  502    0  0.63525264429E+02 -0.24281991537E+02 -0.30106484038E+03  0.30867877291E+03  0.41800000000E+01 0.  1.
         -5    1    1    2    0  502 -0.74024827617E+01  0.39851988319E+02 -0.31915257483E+02  0.51759383538E+02  0.41800000000E+01 0.  1.
        -11    1    1    2    0    0 -0.12586439610E+02  0.40231325495E+02 -0.17260236344E+03  0.17767541721E+03  0.00000000000E+00 0.  1.
         11    1    1    2    0    0 -0.43536342057E+02 -0.55801322277E+02 -0.24852554668E+03  0.25840694263E+03  0.00000000000E+00 0. -1.
</event>
<event>
 6    1  0.5317355E-006  0.8087835E+02  0.7561462E-02  0.1326577E+00
         -1   -1    0    0    0  501 -0.00000000000E+00  0.00000000000E+00  0.46813553407E+02  0.46813553407E+02  0.00000000000E+00 0. -1.
          1   -1    0    0  501    0  0.00000000000E+00 -0.00000000000E+00 -0.25892488480E+03  0.25892488480E+03  0.00000000000E+00 0.  1.
          5    1    1    2  502    0  0.91806890843E-01 -0.39970976859E+02 -0.10492162670E+03  0.11235527388E+03  0.41800000000E+01 0.  1.
         -5    1    1    2    0  502 -0.18378953389E+01  0.40943535966E+02  0.12645688801E+02  0.43094510578E+02  0.41800000000E+01 0.  1.
        -11    1    1    2    0    0  0.10405757955E+02 -0.39517494348E+02 -0.95534039369E+02  0.10390700090E+03  0.00000000000E+00 0.  1.
         11    1    1    2    0    0 -0.86596695070E+01  0.38544935241E+02 -0.24301354127E+02  0.46381652850E+02  0.00000000000E+00 0. -1.
</event>
<event>
 6    1  0.5317355E-006  0.1261399E+03  0.7561462E-02  0.1233298E+00
         -2   -1    0    0    0  501 -0.00000000000E+00  0.00000000000E+00  0.87026729928E+02  0.87026729928E+02  0.00000000000E+00 0.  1.
          2   -1    0    0  501    0  0.00000000000E+00 -0.00000000000E+00 -0.21878778533E+03  0.21878778533E+03  0.00000000000E+00 0. -1.
          5    1    1    2  502    0  0.22408202681E+02 -0.83480441346E+02 -0.10881511159E+02  0.87218067623E+02  0.41800000000E+01 0. -1.
         -5    1    1    2    0  502 -0.51339401702E+02  0.34529530494E+01 -0.62093825169E+02  0.80751300770E+02  0.41800000000E+01 0. -1.
        -11    1    1    2    0    0  0.30537222699E+02 -0.33544662279E+01  0.71372964367E+01  0.31539109281E+02  0.00000000000E+00 0.  1.
         11    1    1    2    0    0 -0.16060236776E+01  0.83381954525E+02 -0.65923015507E+02  0.10630603758E+03  0.00000000000E+00 0. -1.
</event>
<event>
 6    1  0.5317355E-006  0.1029560E+03  0.7561462E-02  0.1274200E+00
          2   -1    0    0  501    0  0.00000000000E+00  0.00000000000E+00  0.14820332499E+02  0.14820332499E+02  0.00000000000E+00 0. -1.
         -2   -1    0    0    0  501 -0.00000000000E+00 -0.00000000000E+00 -0.84431938093E+03  0.84431938093E+03  0.00000000000E+00 0.  1.
          5    1    1    2  502    0 -0.32733491139E+00 -0.63451625581E+02 -0.21781439757E+03  0.22690702969E+03  0.41800000000E+01 0. -1.
         -5    1    1    2    0  502  0.38567395192E+01  0.55799539581E+02 -0.36089097187E+03  0.36522353297E+03  0.41800000000E+01 0. -1.
        -11    1    1    2    0    0  0.27549368987E+02 -0.27765218520E+02 -0.70111207742E+02  0.80283600704E+02  0.00000000000E+00 0. -1.
         11    1    1    2    0    0 -0.31078773595E+02  0.35417304520E+02 -0.18068247125E+03  0.18672555006E+03  0.00000000000E+00 0.  1.
</event>
<event>
 6    1  0.5317355E-006  0.8042112E+02  0.7561462E-02  0.1327861E+00
         -2   -1    0    0    0  501 -0.00000000000E+00  0.00000000000E+00  0.90294846442E+02  0.90294846442E+02  0.00000000000E+00 0.  1.
          2   -1    0    0  501    0  0.00000000000E+00 -0.00000000000E+00 -0.16189315218E+03  0.16189315218E+03  0.00000000000E+00 0. -1.
          5    1    1    2  502    0  0.42460780342E+02 -0.31183745910E+02  0.39069774506E+02  0.65721104344E+02  0.41800000000E+01 0.  1.
         -5    1    1    2    0  502 -0.52469956796E+02  0.20897728525E+02 -0.23046966933E+02  0.61142836935E+02  0.41800000000E+01 0.  1.
        -11    1    1    2    0    0  0.28075773400E+02  0.16123278507E+02  0.32053961809E+01  0.32534346874E+02  0.00000000000E+00 0.  1.
         11    1    1    2    0    0 -0.18066596946E+02 -0.58372611216E+01 -0.90826509496E+02  0.92789710474E+02  0.00000000000E+00 0. -1.
</event>
<event>
 6    1  0.5317355E-006  0.8776131E+02  0.7561462E-02  0.1308365E+00
         -1   -1    0    0    0  501 -0.00000000000E+00  0.00000000000E+00  0.73905301357E+02  0.73905301357E+02  0.00000000000E+00 0.  1.
          1   -1    0    0  501    0  0.00000000000E+00 -0.00000000000E+00 -0.20205186507E+03  0.20205186507E+03  0.00000000000E+00 0. -1.
          5    1    1    2  502    0  0.30328966612E+02 -0.31274196750E+02  0.38315004981E+02  0.58167289818E+02  0.41800000000E+01 0. -1.
         -5    1    1    2    0  502  0.37266142685E+01  0.41489838696E+02 -0.60868796225E+02  0.73876769846E+02  0.41800000000E+01 0. -1.
        -11    1    1    2    0    0 -0.60686644804E+02 -0.15737153035E+02 -0.96801331850E+02  0.11533006846E+03  0.00000000000E+00 0. -1.
         11    1    1    2    0    0  0.26631063923E+02  0.55215110891E+01 -0.87914406177E+01  0.28583038301E+02  0.00000000000E+00 0.  1.
</event>
<event>
 6    1  0.5317355E-006  0.1182017E+03  0.7561462E-02  0.1246094E+00
          1   -1    0    0  501    0  0.00000000000E+00  0.00000000000E+00  0.18731383753E+03  0.18731383753E+03  0.00000000000E+00 0. -1.
         -1   -1    0    0    0  501 -0.00000000000E+00 -0.00000000000E+00 -0.10619597596E+03  0.10619597596E+03  0.00000000000E+00 0.  1.
          5    1    1    2  502    0 -0.80816654832E+02 -0.37960588068E+02  0.51136597947E+02  0.10297942510E+03  0.41800000000E+01 0.  1.
         -5    1    1    2    0  502 -0.39788619937E+00  0.22502516726E+02 -0.41385733518E+02  0.47294533630E+02  0.41800000000E+01 0.  1.
        -11    1    1    2    0    0 -0.20972799780E+02  0.27268278337E+01  0.13909818825E+02  0.25313573047E+02  0.00000000000E+00 0. -1.
         11    1    1    2    0    0  0.10218734081E+03  0.12731243508E+02  0.57457178315E+02  0.11792228171E+03  0.00000000000E+00 0.  1.
</event>
<event>
 6    1  0.5317355E-006  0.1217826E+03  0.7561462E-02  0.1240185E+00
         -1   -1    0    0    0  501 -0.00000000000E+00  0.00000000000E+00  0.16783537742E+03  0.16783537742E+03  0.00000000000E+00 0.  1.
          1   -1    0    0  501    0  0.00000000000E+00 -0.00000000000E+00 -0.99139273640E+02  0.99139273640E+02  0.00000000000E+00 0. -1.
          5    1    1    2  502    0 -0.21909311187E+02  0.51852766800E+02  0.12271987149E+02  0.57765053537E+02  0.41800000000E+01 0. -1.
         -5    1    1    2    0  502  0.73597113824E+02 -0.23556102871E+02  0.62199353878E+02  0.99285734969E+02  0.41800000000E+01 0. -1.
        -11    1    1    2    0    0  0.27165266607E+02 -0.74782516341E+01 -0.28008488662E+01  0.28314673081E+02  0.00000000000E+00 0.  1.
         11    1    1    2    0    0 -0.78853069244E+02 -0.20818412295E+02 -0.29743883848E+01  0.81609189470E+02  0.00000000000E+00 0. -1.
</event>
<event>
 6    1  0.5317355E-006  0.9768162E+02  0.7561462E-02  0.1285248E+00
          2   -1    0    0  501    0  0.00000000000E+00  0.00000000000E+00  0.26922022773E+02  0.26922022773E+02  0.00000000000E+00 0. -1.
         -2   -1    0    0    0  501 -0.00000000000E+00 -0.00000000000E+00 -0.51884221639E+03  0.51884221639E+03  0.00000000000E+00 0.  1.
          5    1    1    2  502    0  0.84962402526E+02 -0.37764750835E+02 -0.17911674618E+03  0.20185407454E+03  0.41800000000E+01 0. -1.
         -5    1    1    2    0  502 -0.37098173627E+02  0.85934087944E+01 -0.14681672789E+03  0.15173247888E+03  0.41800000000E+01 0. -1.
        -11    1    1    2    0    0 -0.33194443404E+02  0.21841978200E+01 -0.15654819707E+03  0.16004368091E+03  0.00000000000E+00 0.  1.
         11    1    1    2    0    0 -0.14669785496E+02  0.26987144220E+02 -0.94385224875E+01  0.32134004830E+02  0.00000000000E+00 0. -1.
</event>
<event>
 6    1  0.5317355E-006  0.9773841E+02  0.7561462E-02  0.1285125E+00
         -1   -1    0    0    0  501 -0.00000000000E+00  0.00000000000E+00  0.11894762055E+03  0.11894762055E+03  0.00000000000E+00 0.  1.
          1   -1    0    0  501    0  0.00000000000E+00 -0.00000000000E+00 -0.23162772923E+03  0.23162772923E+03  0.00000000000E+00 0. -1.
          5    1    1    2  502    0  0.34229136633E+02 -0.12093825567E+02 -0.19722396039E+02  0.41525169680E+02  0.41800000000E+01 0. -1.
         -5    1    1    2    0  502 -0.59809108720E+02 -0.22696508944E+02  0.83764810968E+02  0.10548116875E+03  0.41800000000E+01 0. -1.
        -11    1    1    2    0    0 -0.41894130876E+01 -0.26425975301E+02 -0.86528145713E+02  0.90570433106E+02  0.00000000000E+00 0. -1.
         11    1    1    2    0    0  0.29769385174E+02  0.61216309811E+02 -0.90194377896E+02  0.11299857824E+03  0.00000000000E+00 0.  1.
</event>
<event>
 6    1  0.5317355E-006  0.1540614E+03  0.7561462E-02  0.1195569E+00
         -1   -1    0    0    0  501 -0.00000000000E+00  0.00000000000E+00  0.16380196619E+03  0.16380196619E+03  0.00000000000E+00 0.  1.
          1   -1    0    0  501    0  0.00000000000E+00 -0.00000000000E+00 -0.16394175258E+03  0.16394175258E+03  0.00000000000E+00 0. -1.
          5    1    1    2  502    0 -0.57834920631E+01 -0.21569315538E+02  0.28809541153E+02  0.36689865285E+02  0.41800000000E+01 0.  1.
         -5    1    1    2    0  502 -0.46702144036E+02  0.13050730909E+03 -0.59054753440E+01  0.13880055844E+03  0.41800000000E+01 0.  1.
        -11    1    1    2    0    0  0.68505754561E+01  0.14004332379E+02  0.79523041859E+01  0.17501167142E+02  0.00000000000E+00 0.  1.
         11    1    1    2    0    0  0.45635060643E+02 -0.12294232593E+03 -0.30996156375E+02  0.13475212791E+03  0.00000000000E+00 0. -1.
</event>
<event>
 6    1  0.5317355E-006  0.1597605E+03  0.7561462E-02  0.1188967E+00
          1   -1    0    0  501    0  0.00000000000E+00  0.00000000000E+00  0.26645227825E+03  0.26645227825E+03  0.00000000000E+00 0. -1.
         -1   -1    0    0    0  501 -0.00000000000E+00 -0.00000000000E+00 -0.14786099257E+03  0.14786099257E+03  0.00000000000E+00 0.  1.
          5    1    1    2  502    0 -0.12514505295E+03  0.52987124692E+02  0.12862749891E+02  0.13657174816E+03  0.41800000000E+01 0. -1.
         -5    1    1    2    0  502  0.10042972755E+02  0.24232879433E+02 -0.45902754832E+02  0.53034225256E+02  0.41800000000E+01 0. -1.
        -11    1    1    2    0    0 -0.10793758218E+02 -0.60089649601E+01  0.40390055156E+02  0.42237062301E+02  0.00000000000E+00 0. -1.
         11    1    1    2    0    0  0.12589583841E+03 -0.71211039165E+02  0.11124123547E+03  0.18247023510E+03  0.00000000000E+00 0.  1.
</event>
<event>
 6    1  0.5317355E-006  0.1332477E+03  0.7561462E-02  0.1222715E+00
         -1   -1    0    0    0  501 -0.00000000000E+00  0.00000000000E+00  0.39603221538E+02  0.39603221538E+02  0.00000000000E+00 0.  1.
          1   -1    0    0  501    0  0.00000000000E+00 -0.00000000000E+00 -0.61568551015E+03  0.61568551015E+03  0.00000000000E+00 0. -1.
          5    1    1    2  502    0 -0.69993570043E+01 -0.41168170035E+02 -0.16347733144E+03  0.16877831471E+03  0.41800000000E+01 0. -1.
         -5    1    1    2    0  502  0.83294774855E+02 -0.27189034207E+02 -0.56933392694E+02  0.10457603312E+03  0.41800000000E+01 0. -1.
        -11    1    1    2    0    0  0.36988012911E+01  0.55695325606E+02 -0.18076156300E+03  0.18918349051E+03  0.00000000000E+00 0. -1.
         11    1    1    2    0    0 -0.79994219142E+02  0.12661878635E+02 -0.17491000148E+03  0.19275089334E+03  0.00000000000E+00 0.  1.
</event>
<event>
 6    1  0.5317355E-006  0.1843176E+03  0.7561462E-02  0.1163689E+00
          1   -1    0    0  501    0  0.00000000000E+00  0.00000000000E+00  0.31734251024E+03  0.31734251024E+03  0.00000000000E+00 0. -1.
         -1   -1    0    0    0  501 -0.00000000000E+00 -0.00000000000E+00 -0.14934748379E+03  0.14934748379E+03  0.00000000000E+00 0.  1.
          5    1    1    2  502    0 -0.97366568005E+02  0.89927576733E+02 -0.32992914777E+02  0.13664999981E+03  0.41800000000E+01 0. -1.
         -5    1    1    2    0  502 -0.45451726091E+02  0.25047703747E+02  0.71769161085E+02  0.88665279284E+02  0.41800000000E+01 0. -1.
        -11    1    1    2    0    0  0.69021304377E+02 -0.65212756595E+02  0.11830704698E+03  0.15170102652E+03  0.00000000000E+00 0. -1.
         11    1    1    2    0    0  0.73796989718E+02 -0.49762523885E+02  0.10911733153E+02  0.89673688422E+02  0.00000000000E+00 0.  1.
</event>
<event>
 6    1  0.5317355E-006  0.1136323E+03  0.7561462E-02  0.1253988E+00
         -2   -1    0    0    0  501 -0.00000000000E+00  0.00000000000E+00  0.16397845590E+02  0.16397845590E+02  0.00000000000E+00 0.  1.
          2   -1    0    0  501    0  0.00000000000E+00 -0.00000000000E+00 -0.11819637975E+04  0.11819637975E+04  0.00000000000E+00 0. -1.
          5    1    1    2  502    0  0.40620957553E+02  0.42959246226E+02 -0.68861203052E+03  0.69115812952E+03  0.41800000000E+01 0. -1.
         -5    1    1    2    0  502  0.38616108019E+02 -0.24255372911E+02 -0.83809038640E+02  0.95503687213E+02  0.41800000000E+01 0. -1.
        -11    1    1    2    0    0 -0.31174536997E+02  0.37161366515E+02 -0.15755931434E+03  0.16485677558E+03  0.00000000000E+00 0. -1.
         11    1    1    2    0    0 -0.48062528575E+02 -0.55865239831E+02 -0.23558556844E+03  0.24684305080E+03  0.00000000000E+00 0.  1.
</event>
<event>
 6    1  0.5317355E-006  0.1174448E+03  0.7561462E-02  0.1247373E+00
          3   -1    0    0  501    0  0.00000000000E+00  0.00000000000E+00  0.40686970086E+03  0.40686970086E+03  0.00000000000E+00 0. -1.
         -3   -1    0    0    0  501 -0.00000000000E+00 -0.00000000000E+00 -0.51952987223E+02  0.51952987223E+02  0.00000000000E+00 0.  1.
          5    1    1    2  502    0 -0.53660554195E+02  0.52167343685E+02  0.15425229250E+03  0.17149964713E+03  0.41800000000E+01 0. -1.
         -5    1    1    2    0  502 -0.34604807849E+02 -0.23834486267E+02 -0.70067681246E+01  0.42803535618E+02  0.41800000000E+01 0. -1.
        -11    1    1    2    0    0  0.27046581171E+02  0.24763541775E+02  0.11841887062E+03  0.12396684829E+03  0.00000000000E+00 0. -1.
         11    1    1    2    0    0  0.61218780874E+02 -0.53096399194E+02  0.89252318630E+02  0.12055265704E+03  0.00000000000E+00 0.  1.
</event>
<event>
 6    1  0.5317355E-006  0.1342522E+03  0.7561462E-02  0.1221279E+00
         -1   -1    0    0    0  501 -0.00000000000E+00  0.00000000000E+00  0.77966503905E+02  0.77966503905E+02  0.00000000000E+00 0.  1.
          1   -1    0    0  501    0  0.00000000000E+00 -0.00000000000E+00 -0.27116638565E+03  0.27116638565E+03  0.00000000000E+00 0. -1.
          5    1    1    2  502    0 -0.43782036725E+02  0.14012160466E+02  0.73763895296E+01  0.46744955911E+02  0.41800000000E+01 0.  1.
         -5    1    1    2    0  502  0.41226079760E+01 -0.98088047209E+02 -0.72739777684E+02  0.12225714114E+03  0.41800000000E+01 0.  1.
        -11    1    1    2    0    0  0.65427012985E+02  0.62329440826E+02 -0.74907874815E+02  0.11737479683E+03  0.00000000000E+00 0.  1.
         11    1    1    2    0    0 -0.25767584237E+02  0.21746445918E+02 -0.52928618779E+02  0.62755995676E+02  0.00000000000E+00 0. -1.
</event>
<event>
 6    1  0.5317355E-006  0.1842116E+03  0.7561462E-02  0.1163788E+00
          4   -1    0    0  501    0  0.00000000000E+00  0.00000000000E+00  0.14256661896E+03  0.14256661896E+03  0.00000000000E+00 0. -1.
         -4   -1    0    0    0  501 -0.00000000000E+00 -0.00000000000E+00 -0.31023175554E+03  0.31023175554E+03  0.00000000000E+00 0.  1.
          5    1    1    2  502    0  0.95187766204E+01  0.58233382777E+02 -0.10100839199E+03  0.11705512219E+03  0.41800000000E+01 0.  1.
         -5    1    1    2    0  502 -0.72919930936E+02  0.10736888335E+03 -0.19945094934E+02  0.13137987917E+03  0.41800000000E+01 0.  1.
        -11    1    1    2    0    0  0.20059318563E+02 -0.23757438703E+02 -0.46628297515E+02  0.56044538396E+02  0.00000000000E+00 0.  1.
         11    1    1    2    0    0  0.43341835753E+02 -0.14184482742E+03 -0.83352139431E-01  0.14831883475E+03  0.00000000000E+00 0. -1.
</event>
<event>
 6    1  0.5317355E-006  0.1046110E+03  0.7561462E-02  0.1270888E+00
          1   -1    0    0  501    0  0.00000000000E+00  0.00000000000E+00  0.32378139591E+02  0.32378139591E+02  0.00000000000E+00 0. -1.
         -1   -1    0    0    0  501 -0.00000000000E+00 -0.00000000000E+00 -0.79094806705E+03  0.79094806705E+03  0.00000000000E+00 0.  1.
          5    1    1    2  502    0  0.53901289498E+02  0.41520696505E+02 -0.13031652468E+03  0.14706864469E+03  0.41800000000E+01 0.  1.
         -5    1    1    2    0  502 -0.14312513842E+02  0.31834614452E+02 -0.48773491670E+03  0.48900011462E+03  0.41800000000E+01 0.  1.
        -11    1    1    2    0    0 -0.13072310389E+02  0.11244509335E+02 -0.75158901390E+02  0.77111508526E+02  0.00000000000E+00 0.  1.
         11    1    1    2    0    0 -0.26516465268E+02 -0.84599820291E+02 -0.65359584689E+02  0.11014593880E+03  0.00000000000E+00 0. -1.
</event>
<event>
 6    1  0.5317355E-006  0.6198808E+02  0.7561462E-02  0.1389673E+00
          1   -1    0    0  501    0  0.00000000000E+00  0.00000000000E+00  0.17236455875E+03  0.17236455875E+03  0.00000000000E+00 0. -1.
         -1   -1    0    0    0  501 -0.00000000000E+00 -0.00000000000E+00 -0.95099026872E+02  0.95099026872E+02  0.00000000000E+00 0.  1.
          5    1    1    2  502    0  0.35375060176E+01 -0.34823601517E+02  0.61594957785E+02  0.70969066472E+02  0.41800000000E+01 0. -1.
         -5    1    1    2    0  502  0.21861538526E+01 -0.19802084642E+02 -0.62414693156E+02  0.65650347650E+02  0.41800000000E+01 0. -1.
        -11    1    1    2    0    0 -0.22994474822E+02  0.37875614322E+02 -0.47711517952E+01  0.44565366846E+02  0.00000000000E+00 0.  1.
         11    1    1    2    0    0  0.17270814952E+02  0.16750071837E+02  0.82856419048E+02  0.86278804657E+02  0.00000000000E+00 0. -1.
</event>
<event>
 6    1  0.5317355E-006  0.8867893E+02  0.7561462E-02  0.1306083E+00
          2   -1    0    0  501    0  0.00000000000E+00  0.00000000000E+00  0.24451575529E+03  0.24451575529E+03  0.00000000000E+00 0. -1.
         -2   -1    0    0    0  501 -0.00000000000E+00 -0.00000000000E+00 -0.47534556854E+02  0.47534556854E+02  0.00000000000E+00 0.  1.
          5    1    1    2  502    0  0.54001721757E+02 -0.12152092071E+02  0.12202291880E+02  0.56835091463E+02  0.41800000000E+01 0. -1.
         -5    1    1    2    0  502 -0.43427262090E+02  0.17880144336E+02  0.10458308011E+03  0.11472018000E+03  0.41800000000E+01 0. -1.
        -11    1    1    2    0    0 -0.42460330449E+02 -0.54719449591E+01  0.77444129074E+02  0.88489632000E+02  0.00000000000E+00 0. -1.
         11    1    1    2    0    0  0.31885870782E+02 -0.25610730560E+00  0.27516973745E+01  0.32005408683E+02  0.00000000000E+00 0.  1.
</event>
<event>
 6    1  0.5317355E-006  0.1637775E+03  0.7561462E-02  0.1184497E+00
         -1   -1    0    0    0  501 -0.00000000000E+00  0.00000000000E+00  0.36612198350E+02  0.36612198350E+02  0.00000000000E+00 0.  1.
          1   -1    0    0  501    0  0.00000000000E+00 -0.00000000000E+00 -0.95581527563E+03  0.95581527563E+03  0.00000000000E+00 0. -1.
          5    1    1    2  502    0  0.94455118892E+02  0.11717351034E+03 -0.23523344116E+03  0.27929132685E+03  0.41800000000E+01 0.  1.
         -5    1    1    2    0  502  0.14040370605E+02 -0.17067385781E+02 -0.15136634842E+03  0.15302833560E+03  0.41800000000E+01 0.  1.
        -11    1    1    2    0    0 -0.24695008280E+02 -0.52752378314E+02 -0.33821363138E+03  0.34319253678E+03  0.00000000000E+00 0. -1.
         11    1    1    2    0    0 -0.83800481218E+02 -0.47353746243E+02 -0.19438965632E+03  0.21691527475E+03  0.00000000000E+00 0.  1.
</event>
<event>
 6    1  0.5317355E-006  0.1488765E+03  0.7561462E-02  0.1201860E+00
         -3   -1    0    0    0  501 -0.00000000000E+00  0.00000000000E+00  0.75863060786E+02  0.75863060786E+02  0.00000000000E+00 0.  1.
          3   -1    0    0  501    0  0.00000000000E+00 -0.00000000000E+00 -0.51944447652E+03  0.51944447652E+03  0.00000000000E+00 0. -1.
          5    1    1    2  502    0  0.31055782004E+02  0.13622501427E+02  0.62946803815E+01  0.34743769831E+02  0.41800000000E+01 0.  1.
         -5    1    1    2    0  502 -0.10069456929E+03  0.91746381438E+02 -0.77250240109E+02  0.15665843989E+03  0.41800000000E+01 0.  1.
        -11    1    1    2    0    0  0.62410179358E+01 -0.20069962061E+02 -0.55282605470E+01  0.21732817274E+02  0.00000000000E+00 0.  1.
         11    1    1    2    0    0  0.63397769346E+02 -0.85298920804E+02 -0.36709759546E+03  0.38217251032E+03  0.00000000000E+00 0. -1.
</event>
<event>
 6    1  0.5317355E-006  0.1113142E+03  0.7561462E-02  0.1258155E+00
          4   -1    0    0  501    0  0.00000000000E+00  0.00000000000E+00  0.14805123186E+03  0.14805123186E+03  0.00000000000E+00 0.  1.
         -4   -1    0    0    0  501 -0.00000000000E+00 -0.00000000000E+00 -0.12723573188E+03  0.12723573188E+03  0.00000000000E+00 0. -1.
          5    1    1    2  502    0  0.71804848729E+02  0.17543329620E+02 -0.26781022743E+02  0.78729919944E+02  0.41800000000E+01 0.  1.
         -5    1    1    2    0  502 -0.47834690305E+02 -0.18204332798E+02 -0.39918327169E+02  0.65042298339E+02  0.41800000000E+01 0.  1.
        -11    1    1    2    0    0  0.12107059259E+02  0.41218577580E+02  0.29797532172E+02  0.52282357877E+02  0.00000000000E+00 0. -1.
         11    1    1    2    0    0 -0.36077217683E+02 -0.40557574402E+02  0.57717317715E+02  0.79232387578E+02  0.00000000000E+00 0.  1.
</event>
<event>
 6    1  0.5317355E-006  0.1218950E+03  0.7561462E-02  0.1240003E+00
          1   -1    0    0  501    0  0.00000000000E+00  0.00000000000E+00  0.30105033109E+03  0.30105033109E+03  0.00000000000E+00 0. -1.
         -1   -1    0    0    0  501 -0.00000000000E+00 -0.00000000000E+00 -0.56536874510E+02  0.56536874510E+02  0.00000000000E+00 0.  1.
          5    1    1    2  502    0 -0.16827663436E+02  0.71405529561E+02  0.55947335471E+02  0.92355274105E+02  0.41800000000E+01 0.  1.
         -5    1    1    2    0  502  0.63476032647E+02 -0.18268675923E+02  0.97748370759E+02  0.11804731097E+03  0.41800000000E+01 0.  1.
        -11    1    1    2    0    0 -0.61868982830E+02 -0.15873848070E+02  0.22178989459E+02  0.67614034508E+02  0.00000000000E+00 0.  1.
         11    1    1    2    0    0  0.15220613619E+02 -0.37263005568E+02  0.68638760888E+02  0.79570586017E+02  0.00000000000E+00 0. -1.
</event>
<event>
 6    1  0.5317355E-006  0.1737160E+03  0.7561462E-02  0.1174027E+00
         -1   -1    0    0    0  501 -0.00000000000E+00  0.00000000000E+00  0.31173405770E+02  0.31173405770E+02  0.00000000000E+00 0.  1.
          1   -1    0    0  501    0  0.00000000000E+00 -0.00000000000E+00 -0.11619236152E+04  0.11619236152E+04  0.00000000000E+00 0. -1.
          5    1    1    2  502    0  0.17562936922E+02  0.25235274659E+02 -0.25238873359E+02  0.39996861988E+02  0.41800000000E+01 0.  1.
         -5    1    1    2    0  502  0.10172193952E+03 -0.10828375218E+03 -0.39077905911E+03  0.41808906874E+03  0.41800000000E+01 0.  1.
        -11    1    1    2    0    0 -0.76391524444E+02  0.23983710881E+01 -0.25144313214E+03  0.26280233235E+03  0.00000000000E+00 0.  1.
         11    1    1    2    0    0 -0.42893351994E+02  0.80650106428E+02 -0.46328914481E+03  0.47220875787E+03  0.00000000000E+00 0. -1.
</event>
<event>
 6    1  0.5317355E-006  0.1115125E+03  0.7561462E-02  0.1257794E+00
         -1   -1    0    0    0  501 -0.00000000000E+00  0.00000000000E+00  0.99070892833E+02  0.99070892833E+02  0.00000000000E+00 0.  1.
          1   -1    0    0  501    0  0.00000000000E+00 -0.00000000000E+00 -0.16392947607E+03  0.16392947607E+03  0.00000000000E+00 0. -1.
          5    1    1    2  502    0 -0.28988850217E+01  0.82695723273E+02  0.31319270604E+02  0.88574010258E+02  0.41800000000E+01 0.  1.
         -5    1    1    2    0  502 -0.90140604564E+01 -0.39942207933E+02 -0.17807012054E+02  0.44846352569E+02  0.41800000000E+01 0.  1.
        -11    1    1    2    0    0  0.20166242279E+02  0.24229555673E+02 -0.43191393181E+02  0.53471909828E+02  0.00000000000E+00 0. -1.
         11    1    1    2    0    0 -0.82532968012E+01 -0.66983071013E+02 -0.35179448611E+02  0.76108096251E+02  0.00000000000E+00 0.  1.
</event>
<event>
 6    1  0.5317355E-006  0.1010582E+03  0.7561462E-02  0.1278086E+00
          2   -1    0    0  501    0  0.00000000000E+00  0.00000000000E+00  0.58880912930E+02  0.58880912930E+02  0.00000000000E+00 0. -1.
         -2   -1    0    0    0  501 -0.00000000000E+00 -0.00000000000E+00 -0.25980628622E+03  0.25980628622E+03  0.00000000000E+00 0.  1.
          5    1    1    2  502    0  0.12386753130E+02  0.72076055126E+02 -0.54405564038E+02  0.91245970727E+02  0.41800000000E+01 0. -1.
         -5    1    1    2    0  502  0.25544392707E+02 -0.45009363791E+02 -0.10142645931E+03  0.11394366097E+03  0.41800000000E+01 0. -1.
        -11    1    1    2    0    0 -0.50615188203E+02 -0.41939368133E+01  0.10677213714E+02  0.51898836938E+02  0.00000000000E+00 0. -1.
         11    1    1    2    0    0  0.12684042366E+02 -0.22872754522E+02 -0.55770563662E+02  0.61598730517E+02  0.00000000000E+00 0.  1.
</event>
<event>
 6    1  0.5317355E-006  0.9840846E+02  0.7561462E-02  0.1283679E+00
          2   -1    0    0  501    0  0.00000000000E+00  0.00000000000E+00  0.33614900774E+03  0.33614900774E+03  0.00000000000E+00 0. -1.
         -2   -1    0    0    0  501 -0.00000000000E+00 -0.00000000000E+00 -0.50003092023E+02  0.50003092023E+02  0.00000000000E+00 0.  1.
          5    1    1    2  502    0  0.22892865367E+02 -0.43763458955E+02  0.16042487158E+03  0.16790752051E+03  0.41800000000E+01 0.  1.
         -5    1    1    2    0  502  0.41456159034E+02  0.77720655236E+01 -0.74191329997E+01  0.43029455711E+02  0.41800000000E+01 0.  1.
        -11    1    1    2    0    0 -0.28622155211E+02  0.56740413176E+02  0.11207668490E+03  0.12884054313E+03  0.00000000000E+00 0. -1.
         11    1    1    2    0    0 -0.35726869190E+02 -0.20749019744E+02  0.21063492236E+02  0.46374580404E+02  0.00000000000E+00 0.  1.
</event>
<event>
 6    1  0.5317355E-006  0.9756824E+02  0.7561462E-02  0.1285494E+00
         -2   -1    0    0    0  501 -0.00000000000E+00  0.00000000000E+00  0.70085835547E+02  0.70085835547E+02  0.00000000000E+00 0.  1.
          2   -1    0    0  501    0  0.00000000000E+00 -0.00000000000E+00 -0.18599160153E+03  0.18599160153E+03  0.00000000000E+00 0. -1.
          5    1    1    2  502    0 -0.25382067976E+02  0.39778900405E+02 -0.50144620154E+02  0.68982357328E+02  0.41800000000E+01 0. -1.
         -5    1    1    2    0  502  0.35308736724E+02 -0.43465533249E+02  0.21590948134E+02  0.60163119193E+02  0.41800000000E+01 0.  1.
        -11    1    1    2    0    0  0.21129242191E+01 -0.43174555632E+02 -0.47736913441E+02  0.64399686394E+02  0.00000000000E+00 0.  1.
         11    1    1    2    0    0 -0.12039592967E+02  0.46861188476E+02 -0.39615180527E+02  0.62532274166E+02  0.00000000000E+00 0. -1.
</event>
<event>
 6    1  0.5317355E-006  0.1259015E+03  0.7561462E-02  0.1233667E+00
          1   -1    0    0  501    0  0.00000000000E+00  0.00000000000E+00  0.23149327836E+03  0.23149327836E+03  0.00000000000E+00 0. -1.
         -1   -1    0    0    0  501 -0.00000000000E+00 -0.00000000000E+00 -0.71786235187E+02  0.71786235187E+02  0.00000000000E+00 0.  1.
          5    1    1    2  502    0  0.72947671619E+02 -0.52418489101E+02  0.31089885566E+02  0.95147854305E+02  0.41800000000E+01 0. -1.
         -5    1    1    2    0  502 -0.11718876452E+02  0.46586712898E+02  0.31921922001E+02  0.57828499792E+02  0.41800000000E+01 0. -1.
        -11    1    1    2    0    0 -0.12838775850E+02 -0.43021300954E+02  0.49923434963E+02  0.67141759432E+02  0.00000000000E+00 0. -1.
         11    1    1    2    0    0 -0.48390019318E+02  0.48853077157E+02  0.46771800638E+02  0.83161400014E+02  0.00000000000E+00 0.  1.
</event>
<event>
 6    1  0.5317355E-006  0.1080001E+03  0.7561462E-02  0.1264319E+00
         -2   -1    0    0    0  501 -0.00000000000E+00  0.00000000000E+00  0.86915000366E+02  0.86915000366E+02  0.00000000000E+00 0.  1.
          2   -1    0    0  501    0  0.00000000000E+00 -0.00000000000E+00 -0.18876308216E+03  0.18876308216E+03  0.00000000000E+00 0. -1.
          5    1    1    2  502    0 -0.41992128965E+02 -0.70168281110E+01 -0.14926114463E+02  0.45308233962E+02  0.41800000000E+01 0.  1.
         -5    1    1    2    0  502  0.78798637183E+02  0.46581335273E+02  0.12470255498E+01  0.91641003326E+02  0.41800000000E+01 0.  1.
        -11    1    1    2    0    0 -0.38866784333E+02 -0.54262939241E+02 -0.21048084957E+02  0.69986537133E+02  0.00000000000E+00 0.  1.
         11    1    1    2    0    0  0.20602761144E+01  0.14698432079E+02 -0.67120907926E+02  0.68742308108E+02  0.00000000000E+00 0. -1.
</event>
<event>
 6    1  0.5317355E-006  0.8747852E+02  0.7561462E-02  0.1309075E+00
          1   -1    0    0  501    0  0.00000000000E+00  0.00000000000E+00  0.35054639508E+03  0.35054639508E+03  0.00000000000E+00 0. -1.
         -1   -1    0    0    0  501 -0.00000000000E+00 -0.00000000000E+00 -0.42268710503E+02  0.42268710503E+02  0.00000000000E+00 0.  1.
          5    1    1    2  502    0  0.44428196441E+01  0.30992465206E+02  0.15352543856E+03  0.15674120144E+03  0.41800000000E+01 0. -1.
         -5    1    1    2    0  502  0.50151062109E+02 -0.46505547325E+02  0.36220624001E+02  0.77506780127E+02  0.41800000000E+01 0. -1.
        -11    1    1    2    0    0 -0.14959289734E+02  0.29287931034E+02  0.11121287823E+03  0.11597356397E+03  0.00000000000E+00 0. -1.
         11    1    1    2    0    0 -0.39634592019E+02 -0.13774848914E+02  0.73187437881E+01  0.42593560050E+02  0.00000000000E+00 0.  1.
</event>
<event>
 6    1  0.5317355E-006  0.1081125E+03  0.7561462E-02  0.1264106E+00
         -1   -1    0    0    0  501 -0.00000000000E+00  0.00000000000E+00  0.71184008131E+03  0.71184008131E+03  0.00000000000E+00 0.  1.
          1   -1    0    0  501    0  0.00000000000E+00 -0.00000000000E+00 -0.18505330640E+02  0.18505330640E+02  0.00000000000E+00 0. -1.
          5    1    1    2  502    0  0.64184480764E+02 -0.20987699956E+02  0.19868946738E+03  0.20989308699E+03  0.41800000000E+01 0. -1.
         -5    1    1    2    0  502 -0.58465233001E+02 -0.11398695535E+02  0.25286562720E+03  0.25982034476E+03  0.41800000000E+01 0. -1.
        -11    1    1    2    0    0 -0.97664241067E+01  0.60079019904E+02  0.20821915397E+03  0.21693337169E+03  0.00000000000E+00 0.  1.
         11    1    1    2    0    0  0.40471763440E+01 -0.27692624412E+02  0.33560502120E+02  0.43698608510E+02  0.00000000000E+00 0. -1.
</event>
<event>
 6    1  0.5317355E-006  0.8060727E+02  0.7561462E-02  0.1327337E+00
          3   -1    0    0  501    0  0.00000000000E+00  0.00000000000E+00  0.15620452378E+03  0.15620452378E+03  0.00000000000E+00 0. -1.
         -3   -1    0    0    0  501 -0.00000000000E+00 -0.00000000000E+00 -0.82624378031E+02  0.82624378031E+02  0.00000000000E+00 0.  1.
          5    1    1    2  502    0  0.45405253618E+02  0.30646240710E+02 -0.21510970049E+02  0.59000197951E+02  0.41800000000E+01 0.  1.
         -5    1    1    2    0  502 -0.57337766388E+02 -0.14328036339E+02  0.34049167924E+02  0.68335425045E+02  0.41800000000E+01 0.  1.
        -11    1    1    2    0    0  0.16016342798E+01 -0.29911005983E+02 -0.15041077481E+02  0.33518167060E+02  0.00000000000E+00 0.  1.
         11    1    1    2    0    0  0.10330878491E+02  0.13592801612E+02  0.76083025359E+02  0.77975111759E+02  0.00000000000E+00 0. -1.
</event>
<event>
 6    1  0.1303394E-005  0.2705451E+03  0.7561462E-02  0.1100968E+00
         -1   -1    0    0    0  501 -0.00000000000E+00  0.00000000000E+00  0.23423947066E+03  0.23423947066E+03  0.00000000000E+00 0.  1.
          1   -1    0    0  501    0  0.00000000000E+00 -0.00000000000E+00 -0.39592293475E+03  0.39592293475E+03  0.00000000000E+00 0. -1.
          5    1    1    2  502    0  0.38252515599E+02 -0.17446429574E+03 -0.29081077531E+02  0.18100891389E+03  0.41800000000E+01 0. -1.
         -5    1    1    2    0  502 -0.25042057371E+02 -0.86331249936E+02  0.64455023780E+02  0.11068925803E+03  0.41800000000E+01 0. -1.
        -11    1    1    2    0    0  0.32697665140E+02  0.11844953084E+03 -0.11277321051E+03  0.16678496836E+03  0.00000000000E+00 0.  1.
         11    1    1    2    0    0 -0.45908123368E+02  0.14234601484E+03 -0.84284199825E+02  0.17167926512E+03  0.00000000000E+00 0. -1.
</event>
<event>
 6    1  0.5317355E-006  0.1015089E+03  0.7561462E-02  0.1277155E+00
          3   -1    0    0  501    0  0.00000000000E+00  0.00000000000E+00  0.96329482338E+02  0.96329482338E+02  0.00000000000E+00 0. -1.
         -3   -1    0    0    0  501 -0.00000000000E+00 -0.00000000000E+00 -0.13128569473E+03  0.13128569473E+03  0.00000000000E+00 0.  1.
          5    1    1    2  502    0  0.53770992543E+02 -0.22550362492E+02 -0.33308239460E+02  0.67281124422E+02  0.41800000000E+01 0. -1.
         -5    1    1    2    0  502 -0.66407766751E+02 -0.34397151600E+00 -0.79714134877E+01  0.67015861065E+02  0.41800000000E+01 0. -1.
        -11    1    1    2    0    0 -0.25500133499E+01 -0.26357107971E+02 -0.22073042786E+02  0.34473452489E+02  0.00000000000E+00 0.  1.
         11    1    1    2    0    0  0.15186787558E+02  0.49251441979E+02  0.28396483338E+02  0.58844739096E+02  0.00000000000E+00 0. -1.
</event>
<event>
 6    1  0.5317355E-006  0.1778374E+03  0.7561462E-02  0.1169913E+00
          3   -1    0    0  501    0  0.00000000000E+00  0.00000000000E+00  0.96902183963E+03  0.96902183963E+03  0.00000000000E+00 0. -1.
         -3   -1    0    0    0  501 -0.00000000000E+00 -0.00000000000E+00 -0.34912559285E+02  0.34912559285E+02  0.00000000000E+00 0.  1.
          5    1    1    2  502    0 -0.16938203231E+02 -0.20743575227E+02  0.73534791564E+02  0.78371146555E+02  0.41800000000E+01 0.  1.
         -5    1    1    2    0  502 -0.16056769384E+02  0.16766555119E+03  0.40128675129E+03  0.43522188141E+03  0.41800000000E+01 0.  1.
        -11    1    1    2    0    0 -0.10027686463E+02 -0.79340581090E+02  0.14074179855E+03  0.16187568119E+03  0.00000000000E+00 0.  1.
         11    1    1    2    0    0  0.43022659078E+02 -0.67581394878E+02  0.31854593894E+03  0.32846568975E+03  0.00000000000E+00 0. -1.
</event>
<event>
 6    1  0.5317355E-006  0.3821940E+02  0.7561462E-02  0.1521739E+00
          1   -1    0    0  501    0  0.00000000000E+00  0.00000000000E+00  0.89981915814E+02  0.89981915814E+02  0.00000000000E+00 0. -1.
         -1   -1    0    0    0  501 -0.00000000000E+00 -0.00000000000E+00 -0.14149310671E+03  0.14149310671E+03  0.00000000000E+00 0.  1.
          5    1    1    2  502    0  0.75700063429E+00 -0.28715746545E+02 -0.88774743373E+02  0.93400185281E+02  0.41800000000E+01 0. -1.
         -5    1    1    2    0  502 -0.16073679950E+02  0.80106615968E+01  0.39403489435E+02  0.43504497078E+02  0.41800000000E+01 0. -1.
        -11    1    1    2    0    0  0.15018400631E+01  0.13130583119E+02 -0.46055442456E+02  0.47914209963E+02  0.00000000000E+00 0.  1.
         11    1    1    2    0    0  0.13814839253E+02  0.75745018294E+01  0.43915505501E+02  0.46656130197E+02  0.00000000000E+00 0. -1.
</event>
<event>
 6    1  0.5317355E-006  0.7509574E+02  0.7561462E-02  0.1343575E+00
          1   -1    0    0  501    0  0.00000000000E+00  0.00000000000E+00  0.10399893204E+03  0.10399893204E+03  0.00000000000E+00 0. -1.
         -1   -1    0    0    0  501 -0.00000000000E+00 -0.00000000000E+00 -0.17823959652E+03  0.17823959652E+03  0.00000000000E+00 0.  1.
          5    1    1    2  502    0  0.92181256891E+01 -0.18304046963E+01 -0.12846519305E+03  0.12887630678E+03  0.41800000000E+01 0. -1.
         -5    1    1    2    0  502 -0.41088588542E+00  0.35297980816E+02  0.19540443202E+02  0.40563747330E+02  0.41800000000E+01 0. -1.
        -11    1    1    2    0    0  0.83824129984E+01  0.33854466207E+02 -0.57646842236E+00  0.34881543052E+02  0.00000000000E+00 0.  1.
         11    1    1    2    0    0 -0.17189652802E+02 -0.67322042327E+02  0.35260553786E+02  0.77916931406E+02  0.00000000000E+00 0. -1.
</event>
<event>
 6    1  0.5317355E-006  0.1723753E+03  0.7561462E-02  0.1175393E+00
          4   -1    0    0  501    0  0.00000000000E+00  0.00000000000E+00  0.43443729985E+02  0.43443729985E+02  0.00000000000E+00 0. -1.
         -4   -1    0    0    0  501 -0.00000000000E+00 -0.00000000000E+00 -0.84142867320E+03  0.84142867320E+03  0.00000000000E+00 0.  1.
          5    1    1    2  502    0 -0.13855910296E+03 -0.82153189491E+02 -0.52258635283E+03  0.54686537660E+03  0.41800000000E+01 0.  1.
         -5    1    1    2    0  502  0.24374568029E+02  0.28451374802E+01 -0.58556024626E+02  0.63627783191E+02  0.41800000000E+01 0.  1.
        -11    1    1    2    0    0  0.20741432987E+02  0.59755636240E+02 -0.13319350365E+03  0.14744983052E+03  0.00000000000E+00 0.  1.
         11    1    1    2    0    0  0.93443101939E+02  0.19552415771E+02 -0.83649062106E+02  0.12692941288E+03  0.00000000000E+00 0. -1.
</event>
<event>
 6    1  0.5317355E-006  0.1209764E+03  0.7561462E-02  0.1241495E+00
         -1   -1    0    0    0  501 -0.00000000000E+00  0.00000000000E+00  0.49995998179E+02  0.49995998179E+02  0.00000000000E+00 0.  1.
          1   -1    0    0  501    0  0.00000000000E+00 -0.00000000000E+00 -0.45585159926E+03  0.45585159926E+03  0.00000000000E+00 0. -1.
          5    1    1    2  502    0 -0.24071881195E+01 -0.85168743909E+02 -0.25584051291E+03  0.26968750424E+03  0.41800000000E+01 0. -1.
         -5    1    1    2    0  502 -0.13243871498E+01  0.74723927563E+02 -0.19601697319E+02  0.77376471162E+02  0.41800000000E+01 0.  1.
        -11    1    1    2    0    0  0.25306328164E+02 -0.27980784068E+02 -0.95106781722E+02  0.10231634499E+03  0.00000000000E+00 0. -1.
         11    1    1    2    0    0 -0.21574752894E+02  0.38425600415E+02 -0.35306609128E+02  0.56467277053E+02  0.00000000000E+00 0.  1.
</event>
<event>
 6    1  0.5317355E-006  0.9480268E+02  0.7561462E-02  0.1291621E+00
         -2   -1    0    0    0  501 -0.00000000000E+00  0.00000000000E+00  0.84044092191E+02  0.84044092191E+02  0.00000000000E+00 0. -1.
          2   -1    0    0  501    0  0.00000000000E+00 -0.00000000000E+00 -0.22456157627E+03  0.22456157627E+03  0.00000000000E+00 0.  1.
          5    1    1    2  502    0 -0.14349846449E+02 -0.60228276845E+02  0.34302129475E+02  0.70904667769E+02  0.41800000000E+01 0.  1.
         -5    1    1    2    0  502 -0.61946264108E+01  0.52523082358E+02 -0.20432402422E+02  0.56850708399E+02  0.41800000000E+01 0.  1.
        -11    1    1    2    0    0  0.35653335464E+02  0.30655925466E+02 -0.14398743867E+03  0.15147055354E+03  0.00000000000E+00 0.  1.
         11    1    1    2    0    0 -0.15108862605E+02 -0.22950730979E+02 -0.10399772458E+02  0.29379738747E+02  0.00000000000E+00 0. -1.
</event>
<event>
 6    1  0.5317355E-006  0.9233112E+02  0.7561462E-02  0.1297303E+00
          2   -1    0    0  501    0  0.00000000000E+00  0.00000000000E+00  0.28865000773E+03  0.28865000773E+03  0.00000000000E+00 0. -1.
         -2   -1    0    0    0  501 -0.00000000000E+00 -0.00000000000E+00 -0.76529385873E+02  0.76529385873E+02  0.00000000000E+00 0.  1.
          5    1    1    2  502    0 -0.34442944663E+02 -0.48231347569E+02  0.70753296271E+02  0.92390912208E+02  0.41800000000E+01 0. -1.
         -5    1    1    2    0  502  0.15344385393E+02 -0.17965620679E+02 -0.46629687430E+02  0.52440574361E+02  0.41800000000E+01 0. -1.
        -11    1    1    2    0    0  0.66585889672E+01 -0.16413493375E+02  0.38350571916E+01  0.18123113294E+02  0.00000000000E+00 0.  1.
         11    1    1    2    0    0  0.12439970302E+02  0.82610461622E+02  0.18416195582E+03  0.20222479374E+03  0.00000000000E+00 0. -1.
</event>
<event>
 6    1  0.5317355E-006  0.1041184E+03  0.7561462E-02  0.1271866E+00
          3   -1    0    0  501    0  0.00000000000E+00  0.00000000000E+00  0.55577308167E+03  0.55577308167E+03  0.00000000000E+00 0. -1.
         -3   -1    0    0    0  501 -0.00000000000E+00 -0.00000000000E+00 -0.28937382338E+02  0.28937382338E+02  0.00000000000E+00 0.  1.
          5    1    1    2  502    0 -0.50695865588E+02 -0.88162583413E+01  0.10177703905E+03  0.11412201925E+03  0.41800000000E+01 0.  1.
         -5    1    1    2    0  502  0.65642052564E+02 -0.14251439975E+01  0.45686391364E+02  0.80097620789E+02  0.41800000000E+01 0.  1.
        -11    1    1    2    0    0 -0.23733341764E+02 -0.36347491555E+02  0.14442554517E+03  0.15080832122E+03  0.00000000000E+00 0.  1.
         11    1    1    2    0    0  0.87871547882E+01  0.46588893894E+02  0.23494672374E+03  0.23968250274E+03  0.00000000000E+00 0. -1.
</event>
<event>
 6    1  0.5317355E-006  0.1316883E+03  0.7561462E-02  0.1224972E+00
          1   -1    0    0  501    0  0.00000000000E+00  0.00000000000E+00  0.11607543801E+03  0.11607543801E+03  0.00000000000E+00 0. -1.
         -1   -1    0    0    0  501 -0.00000000000E+00 -0.00000000000E+00 -0.24134766583E+03  0.24134766583E+03  0.00000000000E+00 0.  1.
          5    1    1    2  502    0  0.22080291365E+01  0.61635036627E+02  0.95535606006E+01  0.62549948464E+02  0.41800000000E+01 0. -1.
         -5    1    1    2    0  502  0.64886683653E+02  0.42472355069E+02 -0.12767329349E+03  0.14943936874E+03  0.41800000000E+01 0. -1.
        -11    1    1    2    0    0 -0.10172854406E+02 -0.13736438904E+02  0.28161776868E+02  0.32943320975E+02  0.00000000000E+00 0. -1.
         11    1    1    2    0    0 -0.56921858384E+02 -0.90370952792E+02 -0.35314271800E+02  0.11249046565E+03  0.00000000000E+00 0.  1.
</event>
<event>
 6    1  0.5317355E-006  0.1701230E+03  0.7561462E-02  0.1177720E+00
         -2   -1    0    0    0  501 -0.00000000000E+00  0.00000000000E+00  0.63947088401E+02  0.63947088401E+02  0.00000000000E+00 0.  1.
          2   -1    0    0  501    0  0.00000000000E+00 -0.00000000000E+00 -0.54130084058E+03  0.54130084058E+03  0.00000000000E+00 0. -1.
          5    1    1    2  502    0 -0.38895397818E+02  0.11607868333E+03 -0.11491281318E+03  0.16795695796E+03  0.41800000000E+01 0. -1.
         -5    1    1    2    0  502 -0.52495140013E+02 -0.19493926826E+02 -0.22292541474E+02  0.60416741996E+02  0.41800000000E+01 0. -1.
        -11    1    1    2    0    0 -0.16480587661E+02 -0.31671308113E+02 -0.61655494437E+02  0.71246624633E+02  0.00000000000E+00 0. -1.
         11    1    1    2    0    0  0.10787112549E+03 -0.64913448387E+02 -0.27849290310E+03  0.30562760440E+03  0.00000000000E+00 0.  1.
</event>
<event>
 6    1  0.5317355E-006  0.1075192E+03  0.7561462E-02  0.1265234E+00
          3   -1    0    0  501    0  0.00000000000E+00  0.00000000000E+00  0.34867675229E+02  0.34867675229E+02  0.00000000000E+00 0. -1.
         -3   -1    0    0    0  501 -0.00000000000E+00 -0.00000000000E+00 -0.62566109321E+03  0.62566109321E+03  0.00000000000E+00 0.  1.
          5    1    1    2  502    0 -0.23656276093E+01  0.21665222842E+01  0.91689931966E+01  0.10575105155E+02  0.41800000000E+01 0. -1.
         -5    1    1    2    0  502  0.40304037195E+02  0.66360470037E+02 -0.39375736955E+03  0.40136076773E+03  0.41800000000E+01 0. -1.
        -11    1    1    2    0    0 -0.69336485804E+02 -0.16538330262E+02 -0.14893984941E+03  0.16511857368E+03  0.00000000000E+00 0. -1.
         11    1    1    2    0    0  0.31398076218E+02 -0.51988662059E+02 -0.57265192216E+02  0.83474321875E+02  0.00000000000E+00 0.  1.
</event>
<event>
 6    1  0.5317355E-006  0.1504512E+03  0.7561462E-02  0.1199920E+00
          2   -1    0    0  501    0  0.00000000000E+00  0.00000000000E+00  0.54363710260E+03  0.54363710260E+03  0.00000000000E+00 0. -1.
         -2   -1    0    0    0  501 -0.00000000000E+00 -0.00000000000E+00 -0.53432215632E+02  0.53432215632E+02  0.00000000000E+00 0.  1.
          5    1    1    2  502    0 -0.83733983567E+02  0.43202174114E+02  0.67424315855E+02  0.11593670092E+03  0.41800000000E+01 0. -1.
         -5    1    1    2    0  502 -0.45201476468E+02 -0.50808343510E+02  0.16057356299E+03  0.17443050988E+03  0.41800000000E+01 0. -1.
        -11    1    1    2    0    0  0.93022421176E+02  0.28012315306E+02  0.24189123028E+03  0.26067072704E+03  0.00000000000E+00 0.  1.
         11    1    1    2    0    0  0.35913038859E+02 -0.20406145911E+02  0.20315777839E+02  0.46031380386E+02  0.00000000000E+00 0. -1.
</event>
<event>
 6    1  0.5317355E-006  0.9737685E+02  0.7561462E-02  0.1285911E+00
          1   -1    0    0  501    0  0.00000000000E+00  0.00000000000E+00  0.83728974825E+03  0.83728974825E+03  0.00000000000E+00 0. -1.
         -1   -1    0    0    0  501 -0.00000000000E+00 -0.00000000000E+00 -0.16222533223E+02  0.16222533223E+02  0.00000000000E+00 0.  1.
          5    1    1    2  502    0 -0.18385563164E+02  0.39559049174E+02  0.58231808846E+02  0.72879100337E+02  0.41800000000E+01 0. -1.
         -5    1    1    2    0  502  0.54481437445E+02 -0.18818400756E+02  0.39273965213E+03  0.39696884763E+03  0.41800000000E+01 0. -1.
        -11    1    1    2    0    0  0.27241176466E+02 -0.32653486059E+01  0.51378407691E+02  0.58245042481E+02  0.00000000000E+00 0.  1.
         11    1    1    2    0    0 -0.63337050748E+02 -0.17475299812E+02  0.31871734636E+03  0.32541929103E+03  0.00000000000E+00 0. -1.
</event>
<event>
 6    1  0.5317355E-006  0.9266833E+02  0.7561462E-02  0.1296516E+00
          2   -1    0    0  501    0  0.00000000000E+00  0.00000000000E+00  0.69196971705E+03  0.69196971705E+03  0.00000000000E+00 0.  1.
         -2   -1    0    0    0  501 -0.00000000000E+00 -0.00000000000E+00 -0.21296179332E+02  0.21296179332E+02  0.00000000000E+00 0. -1.
          5    1    1    2  502    0 -0.28313367964E+02 -0.29852816902E+02  0.18939959820E+03  0.19386210997E+03  0.41800000000E+01 0.  1.
         -5    1    1    2    0  502  0.41750033099E+02  0.31205482214E+02  0.33521533845E+02  0.62112905385E+02  0.41800000000E+01 0.  1.
        -11    1    1    2    0    0  0.12808558179E+02  0.40395514887E+02  0.17052134763E+03  0.17570824335E+03  0.00000000000E+00 0. -1.
         11    1    1    2    0    0 -0.26245223314E+02 -0.41748180199E+02  0.27723105804E+03  0.28158263767E+03  0.00000000000E+00 0.  1.
</event>
<event>
 6    1  0.5317355E-006  0.2313512E+03  0.7561462E-02  0.1125692E+00
          1   -1    0    0  501    0  0.00000000000E+00  0.00000000000E+00  0.13948065347E+04  0.13948065347E+04  0.00000000000E+00 0. -1.
         -1   -1    0    0    0  501 -0.00000000000E+00 -0.00000000000E+00 -0.68923947594E+02  0.68923947594E+02  0.00000000000E+00 0.  1.
          5    1    1    2  502    0  0.38722751271E+00  0.38909516712E+01 -0.20853845408E+02  0.21625094643E+02  0.41800000000E+01 0. -1.
         -5    1    1    2    0  502  0.22682902111E+03  0.23624337113E+02  0.36327034707E+03  0.42894327315E+03  0.41800000000E+01 0.  1.
        -11    1    1    2    0    0 -0.24694072616E+02 -0.35957622639E+01  0.34786747441E+02  0.42811733510E+02  0.00000000000E+00 0.  1.
         11    1    1    2    0    0 -0.20252217601E+03 -0.23919526520E+02  0.94867933797E+03  0.97035038095E+03  0.00000000000E+00 0. -1.
</event>
<event>
 6    1  0.5317355E-006  0.6691262E+02  0.7561462E-02  0.1370918E+00
          1   -1    0    0  501    0  0.00000000000E+00  0.00000000000E+00  0.27574910569E+03  0.27574910569E+03  0.00000000000E+00 0. -1.
         -1   -1    0    0    0  501 -0.00000000000E+00 -0.00000000000E+00 -0.45639551109E+02  0.45639551109E+02  0.00000000000E+00 0.  1.
          5    1    1    2  502    0 -0.29046106141E+02 -0.26670395957E+02 -0.14816399833E+02  0.42331836796E+02  0.41800000000E+01 0.  1.
         -5    1    1    2    0  502  0.30414245362E+02  0.24856447311E+02  0.10418471203E+03  0.11142170307E+03  0.41800000000E+01 0.  1.
        -11    1    1    2    0    0  0.26399592867E+02  0.44700872990E+01  0.28224360529E+01  0.26923713141E+02  0.00000000000E+00 0.  1.
         11    1    1    2    0    0 -0.27767732088E+02 -0.26561386530E+01  0.13791880634E+03  0.14071140380E+03  0.00000000000E+00 0. -1.
</event>
<event>
 6    1  0.5317355E-006  0.1574265E+03  0.7561462E-02  0.1191633E+00
          1   -1    0    0  501    0  0.00000000000E+00  0.00000000000E+00  0.12226551596E+03  0.12226551596E+03  0.00000000000E+00 0. -1.
         -1   -1    0    0    0  501 -0.00000000000E+00 -0.00000000000E+00 -0.26915203816E+03  0.26915203816E+03  0.00000000000E+00 0.  1.
          5    1    1    2  502    0  0.69112846930E+01 -0.35228483350E+02 -0.10202295391E+03  0.10823570307E+03  0.41800000000E+01 0.  1.
         -5    1    1    2    0  502  0.10911891462E+03 -0.37791913700E+02 -0.29588050960E+02  0.11928156365E+03  0.41800000000E+01 0.  1.
        -11    1    1    2    0    0  0.34515310926E+01  0.38686146910E+02 -0.22982149202E+01  0.38907747576E+02  0.00000000000E+00 0. -1.
         11    1    1    2    0    0 -0.11948173040E+03  0.34334250139E+02 -0.12977302418E+02  0.12499253982E+03  0.00000000000E+00 0.  1.
</event>
<event>
 6    1  0.5317355E-006  0.1116564E+03  0.7561462E-02  0.1257533E+00
         -2   -1    0    0    0  501 -0.00000000000E+00  0.00000000000E+00  0.55727116421E+02  0.55727116421E+02  0.00000000000E+00 0. -1.
          2   -1    0    0  501    0  0.00000000000E+00 -0.00000000000E+00 -0.26006183393E+03  0.26006183393E+03  0.00000000000E+00 0.  1.
          5    1    1    2  502    0  0.51000281947E+02  0.45649003181E+02 -0.27541039462E+02  0.73897506756E+02  0.41800000000E+01 0. -1.
         -5    1    1    2    0  502  0.13837367916E+01 -0.58232172641E+02 -0.83144549033E+02  0.10160408009E+03  0.41800000000E+01 0. -1.
        -11    1    1    2    0    0  0.15822296033E+02 -0.15895381111E+02 -0.49118291778E+02  0.53996433026E+02  0.00000000000E+00 0.  1.
         11    1    1    2    0    0 -0.68206314771E+02  0.28478550570E+02 -0.44530837237E+02  0.86290930475E+02  0.00000000000E+00 0. -1.
</event>
<event>
 6    1  0.5827799E-006  0.1396148E+03  0.7561462E-02  0.1213848E+00
          2   -1    0    0  501    0  0.00000000000E+00  0.00000000000E+00  0.83333736373E+03  0.83333736373E+03  0.00000000000E+00 0. -1.
         -2   -1    0    0    0  501 -0.00000000000E+00 -0.00000000000E+00 -0.28877426071E+02  0.28877426071E+02  0.00000000000E+00 0.  1.
          5    1    1    2  502    0  0.16154260767E+02  0.64544148253E+02  0.81373147334E+02  0.10519490825E+03  0.41800000000E+01 0. -1.
         -5    1    1    2    0  502  0.79424900851E+02 -0.14300977648E+02  0.29478183905E+03  0.30565771358E+03  0.41800000000E+01 0. -1.
        -11    1    1    2    0    0 -0.91526665889E+01 -0.44175618508E+02  0.74424201232E+02  0.87029985093E+02  0.00000000000E+00 0.  1.
         11    1    1    2    0    0 -0.86426495028E+02 -0.60675520967E+01  0.35388075004E+03  0.36433218288E+03  0.00000000000E+00 0. -1.
</event>
<event>
 6    1  0.5317355E-006  0.1814589E+03  0.7561462E-02  0.1166399E+00
         -2   -1    0    0    0  501 -0.00000000000E+00  0.00000000000E+00  0.14111803849E+03  0.14111803849E+03  0.00000000000E+00 0.  1.
          2   -1    0    0  501    0  0.00000000000E+00 -0.00000000000E+00 -0.26518359083E+03  0.26518359083E+03  0.00000000000E+00 0. -1.
          5    1    1    2  502    0 -0.50664016519E+01 -0.24013316529E+02  0.26725758038E+01  0.25038427624E+02  0.41800000000E+01 0.  1.
         -5    1    1    2    0  502  0.11612925491E+03  0.12319464720E+03 -0.61743441143E+01  0.16946539431E+03  0.41800000000E+01 0.  1.
        -11    1    1    2    0    0 -0.99263942811E+02 -0.37884833484E+02 -0.10045160693E+03  0.14621599189E+03  0.00000000000E+00 0.  1.
         11    1    1    2    0    0 -0.11798910444E+02 -0.61296497184E+02 -0.20112177101E+02  0.65581815485E+02  0.00000000000E+00 0. -1.
</event>
<event>
 6    1  0.5317355E-006  0.9252786E+02  0.7561462E-02  0.1296843E+00
          2   -1    0    0  501    0  0.00000000000E+00  0.00000000000E+00  0.35682989640E+02  0.35682989640E+02  0.00000000000E+00 0.  1.
         -2   -1    0    0    0  501 -0.00000000000E+00 -0.00000000000E+00 -0.40254308862E+03  0.40254308862E+03  0.00000000000E+00 0. -1.
          5    1    1    2  502    0 -0.21258632988E+02  0.34392571176E+02 -0.21166770088E+03  0.21553530204E+03  0.41800000000E+01 0.  1.
         -5    1    1    2    0  502  0.55646761506E+02 -0.29370816944E+01 -0.37992762638E+02  0.67573004431E+02  0.41800000000E+01 0.  1.
        -11    1    1    2    0    0  0.15002439773E+02 -0.35927904889E+02 -0.15378441572E+02  0.41861486046E+02  0.00000000000E+00 0.  1.
         11    1    1    2    0    0 -0.49390568290E+02  0.44724154068E+01 -0.10182119390E+03  0.11325628575E+03  0.00000000000E+00 0. -1.
</event>
<event>
 6    1  0.5317355E-006  0.1347954E+03  0.7561462E-02  0.1220509E+00
         -3   -1    0    0    0  501 -0.00000000000E+00  0.00000000000E+00  0.12566194069E+04  0.12566194069E+04  0.00000000000E+00 0.  1.
          3   -1    0    0  501    0  0.00000000000E+00 -0.00000000000E+00 -0.17441838552E+02  0.17441838552E+02  0.00000000000E+00 0. -1.
          5    1    1    2  502    0 -0.24721443355E+01  0.74838133273E+02  0.51958851173E+03  0.52497290559E+03  0.41800000000E+01 0.  1.
         -5    1    1    2    0  502  0.64943489284E+02  0.52048023240E+01  0.14762052730E+03  0.16141263658E+03  0.41800000000E+01 0.  1.
        -11    1    1    2    0    0 -0.16032552475E+01 -0.67051344144E+02  0.37988589065E+03  0.38576125141E+03  0.00000000000E+00 0.  1.
         11    1    1    2    0    0 -0.60868089701E+02 -0.12991591453E+02  0.19208263872E+03  0.20191445191E+03  0.00000000000E+00 0. -1.
</event>
<event>
 6    1  0.5317355E-006  0.1182538E+03  0.7561462E-02  0.1246006E+00
          1   -1    0    0  501    0  0.00000000000E+00  0.00000000000E+00  0.86044606716E+02  0.86044606716E+02  0.00000000000E+00 0. -1.
         -1   -1    0    0    0  501 -0.00000000000E+00 -0.00000000000E+00 -0.18183052296E+03  0.18183052296E+03  0.00000000000E+00 0.  1.
          5    1    1    2  502    0 -0.54851571618E+02 -0.45793335805E+02 -0.66758407625E+02  0.97876871128E+02  0.41800000000E+01 0.  1.
         -5    1    1    2    0  502 -0.64244968338E+01  0.57875194757E+02 -0.32128468496E+01  0.58468855920E+02  0.41800000000E+01 0.  1.
        -11    1    1    2    0    0 -0.65817620430E+01  0.27307250231E+02 -0.16344880122E+02  0.32498624786E+02  0.00000000000E+00 0. -1.
         11    1    1    2    0    0  0.67857830494E+02 -0.39389109183E+02 -0.94697816445E+01  0.79030777840E+02  0.00000000000E+00 0.  1.
</event>
<event>
 6    1  0.5317355E-006  0.2602078E+03  0.7561462E-02  0.1107018E+00
         -2   -1    0    0    0  501 -0.00000000000E+00  0.00000000000E+00  0.20073427078E+03  0.20073427078E+03  0.00000000000E+00 0.  1.
          2   -1    0    0  501    0  0.00000000000E+00 -0.00000000000E+00 -0.34677033060E+03  0.34677033060E+03  0.00000000000E+00 0. -1.
          5    1    1    2  502    0  0.35108403462E+02 -0.19055175188E+03 -0.64462002712E+02  0.20424346338E+03  0.41800000000E+01 0. -1.
         -5    1    1    2    0  502 -0.50947699592E+02 -0.47357277164E+02  0.10202424581E+02  0.70426853269E+02  0.41800000000E+01 0. -1.
        -11    1    1    2    0    0 -0.39547060375E+02  0.12603620263E+03 -0.48222943589E+02  0.14062199915E+03  0.00000000000E+00 0. -1.
         11    1    1    2    0    0  0.55386356505E+02  0.11187282642E+03 -0.43553538107E+02  0.13221228558E+03  0.00000000000E+00 0.  1.
</event>
<event>
 6    1  0.5317355E-006  0.1430978E+03  0.7561462E-02  0.1209220E+00
         -1   -1    0    0    0  501 -0.00000000000E+00  0.00000000000E+00  0.22530179625E+02  0.22530179625E+02  0.00000000000E+00 0.  1.
          1   -1    0    0  501    0  0.00000000000E+00 -0.00000000000E+00 -0.11006204866E+04  0.11006204866E+04  0.00000000000E+00 0. -1.
          5    1    1    2  502    0  0.19249766575E+02 -0.38655713550E+02 -0.25305764349E+03  0.25674980240E+03  0.41800000000E+01 0. -1.
         -5    1    1    2    0  502 -0.11018411850E+03 -0.31490498677E+02 -0.27530556122E+03  0.29823282166E+03  0.41800000000E+01 0. -1.
        -11    1    1    2    0    0  0.43224190230E+02 -0.97164496062E-01 -0.80998691076E+02  0.91810282747E+02  0.00000000000E+00 0.  1.
         11    1    1    2    0    0  0.47710161696E+02  0.70243376723E+02 -0.46872841117E+03  0.47635775940E+03  0.00000000000E+00 0. -1.
</event>
<event>
 6    1  0.5317355E-006  0.1538726E+03  0.7561462E-02  0.1195794E+00
         -3   -1    0    0    0  501 -0.00000000000E+00  0.00000000000E+00  0.78296385270E+03  0.78296385270E+03  0.00000000000E+00 0.  1.
          3   -1    0    0  501    0  0.00000000000E+00 -0.00000000000E+00 -0.32175897100E+02  0.32175897100E+02  0.00000000000E+00 0. -1.
          5    1    1    2  502    0 -0.23690783791E+02 -0.12562531123E+02  0.44658900387E+02  0.52258589807E+02  0.41800000000E+01 0. -1.
         -5    1    1    2    0  502  0.89734311991E+02  0.10348275981E+03  0.42984179058E+03  0.45115669746E+03  0.41800000000E+01 0. -1.
        -11    1    1    2    0    0 -0.79412873364E+02 -0.36258834956E+02  0.15186836702E+03  0.17517165429E+03  0.00000000000E+00 0. -1.
         11    1    1    2    0    0  0.13369345164E+02 -0.54661393736E+02  0.12441889761E+03  0.13655280824E+03  0.00000000000E+00 0.  1.
</event>
<event>
 6    1  0.5317355E-006  0.1417328E+03  0.7561462E-02  0.1211016E+00
         -2   -1    0    0    0  501 -0.00000000000E+00  0.00000000000E+00  0.29767359037E+02  0.29767359037E+02  0.00000000000E+00 0.  1.
          2   -1    0    0  501    0  0.00000000000E+00 -0.00000000000E+00 -0.10836486164E+04  0.10836486164E+04  0.00000000000E+00 0. -1.
          5    1    1    2  502    0  0.14754056992E+02 -0.31121747561E+02 -0.23566858108E+03  0.23820872754E+03  0.41800000000E+01 0. -1.
         -5    1    1    2    0  502 -0.46336388807E+02 -0.89086772319E+02 -0.10473300890E+03  0.14515505324E+03  0.41800000000E+01 0. -1.
        -11    1    1    2    0    0 -0.26832341616E+02  0.25646664639E+02 -0.10179546823E+03  0.10835148045E+03  0.00000000000E+00 0.  1.
         11    1    1    2    0    0  0.58414673431E+02  0.94561855241E+02 -0.61168419914E+03  0.62170071419E+03  0.00000000000E+00 0. -1.
</event>
<event>
 6    1  0.9423647E-006  0.3630853E+03  0.7561462E-02  0.1057369E+00
          3   -1    0    0  501    0  0.00000000000E+00  0.00000000000E+00  0.10234052352E+04  0.10234052352E+04  0.00000000000E+00 0. -1.
         -3   -1    0    0    0  501 -0.00000000000E+00 -0.00000000000E+00 -0.14946736654E+03  0.14946736654E+03  0.00000000000E+00 0.  1.
          5    1    1    2  502    0 -0.16097867726E+03  0.51412243636E+02  0.62560027223E+02  0.18024589520E+03  0.41800000000E+01 0. -1.
         -5    1    1    2    0  502 -0.19439580536E+03  0.17159219545E+02  0.22995780181E+03  0.30163260926E+03  0.41800000000E+01 0. -1.
        -11    1    1    2    0    0  0.11380229769E+03 -0.22739895848E+02  0.11308858130E+03  0.16204040559E+03  0.00000000000E+00 0. -1.
         11    1    1    2    0    0  0.24157218494E+03 -0.45831567333E+02  0.46833145829E+03  0.52895369166E+03  0.00000000000E+00 0.  1.
</event>
<event>
 6    1  0.5317355E-006  0.1377990E+03  0.7561462E-02  0.1216322E+00
          1   -1    0    0  501    0  0.00000000000E+00  0.00000000000E+00  0.23254107943E+03  0.23254107943E+03  0.00000000000E+00 0. -1.
         -1   -1    0    0    0  501 -0.00000000000E+00 -0.00000000000E+00 -0.10475035294E+03  0.10475035294E+03  0.00000000000E+00 0.  1.
          5    1    1    2  502    0  0.70827725431E+02  0.52478767281E+02 -0.33838498182E+01  0.88314837624E+02  0.41800000000E+01 0.  1.
         -5    1    1    2    0  502 -0.46390796514E+02  0.52409427018E+02  0.40156145504E+02  0.80801252858E+02  0.41800000000E+01 0.  1.
        -11    1    1    2    0    0  0.12651762066E+02 -0.45389184607E+02 -0.70270933625E+01  0.47640583579E+02  0.00000000000E+00 0.  1.
         11    1    1    2    0    0 -0.37088690982E+02 -0.59499009693E+02  0.98045524167E+02  0.12053475832E+03  0.00000000000E+00 0. -1.
</event>
<event>
 6    1  0.5317355E-006  0.1195418E+03  0.7561462E-02  0.1243855E+00
         -1   -1    0    0    0  501 -0.00000000000E+00  0.00000000000E+00  0.61718394683E+02  0.61718394683E+02  0.00000000000E+00 0.  1.
          1   -1    0    0  501    0  0.00000000000E+00 -0.00000000000E+00 -0.29083220857E+03  0.29083220857E+03  0.00000000000E+00 0. -1.
          5    1    1    2  502    0 -0.44929189739E+02 -0.63024201948E+02 -0.83207388095E+02  0.11371729840E+03  0.41800000000E+01 0. -1.
         -5    1    1    2    0  502  0.36729828659E+02  0.87061708567E+02 -0.56942041535E+02  0.11040239991E+03  0.41800000000E+01 0.  1.
        -11    1    1    2    0    0  0.11381560775E+01  0.21185224380E+02  0.68096577935E+01  0.22281843967E+02  0.00000000000E+00 0.  1.
         11    1    1    2    0    0  0.70612050026E+01 -0.45222731000E+02 -0.95774042047E+02  0.10614906097E+03  0.00000000000E+00 0. -1.
</event>
<event>
 6    1  0.5317355E-006  0.9911343E+02  0.7561462E-02  0.1282171E+00
          2   -1    0    0  501    0  0.00000000000E+00  0.00000000000E+00  0.41682786375E+03  0.41682786375E+03  0.00000000000E+00 0. -1.
         -2   -1    0    0    0  501 -0.00000000000E+00 -0.00000000000E+00 -0.31416718464E+02  0.31416718464E+02  0.00000000000E+00 0.  1.
          5    1    1    2  502    0 -0.18968010662E+02 -0.44108124974E+02  0.17675082853E+03  0.18320382065E+03  0.41800000000E+01 0. -1.
         -5    1    1    2    0  502  0.50527976244E+02  0.23260691580E+02  0.35721055323E+02  0.66238979080E+02  0.41800000000E+01 0. -1.
        -11    1    1    2    0    0 -0.10921291364E+02 -0.33966515039E+02  0.40410771079E+02  0.53907598427E+02  0.00000000000E+00 0.  1.
         11    1    1    2    0    0 -0.20638674218E+02  0.54813948433E+02  0.13252849035E+03  0.14489418405E+03  0.00000000000E+00 0. -1.
</event>
<event>
 6    1  0.5317355E-006  0.3413665E+03  0.7561462E-02  0.1066215E+00
         -2   -1    0    0    0  501 -0.00000000000E+00  0.00000000000E+00  0.96950916691E+02  0.96950916691E+02  0.00000000000E+00 0.  1.
          2   -1    0    0  501    0  0.00000000000E+00 -0.00000000000E+00 -0.19791100997E+04  0.19791100997E+04  0.00000000000E+00 0. -1.
          5    1    1    2  502    0  0.15068063877E+02  0.11634074319E+02 -0.82479553246E+02  0.84751090483E+02  0.41800000000E+01 0.  1.
         -5    1    1    2    0  502  0.30525801163E+03  0.90172317037E+02 -0.25774714471E+03  0.40959072674E+03  0.41800000000E+01 0.  1.
        -11    1    1    2    0    0 -0.14663765726E+03 -0.64604622615E+01 -0.82283256492E+03  0.83582161374E+03  0.00000000000E+00 0. -1.
         11    1    1    2    0    0 -0.17368841824E+03 -0.95345929095E+02 -0.71909992016E+03  0.74589758547E+03  0.00000000000E+00 0.  1.
</event>
<event>
 6    1  0.5317355E-006  0.2387884E+03  0.7561462E-02  0.1120603E+00
          2   -1    0    0  501    0  0.00000000000E+00  0.00000000000E+00  0.12028264206E+04  0.12028264206E+04  0.00000000000E+00 0. -1.
         -2   -1    0    0    0  501 -0.00000000000E+00 -0.00000000000E+00 -0.80425727264E+02  0.80425727264E+02  0.00000000000E+00 0.  1.
          5    1    1    2  502    0  0.79690655640E+02 -0.20882849988E+03  0.17373265037E+03  0.28312620713E+03  0.41800000000E+01 0. -1.
         -5    1    1    2    0  502 -0.46320325337E+02  0.35231940011E+02  0.42156563159E+02  0.71982708713E+02  0.41800000000E+01 0.  1.
        -11    1    1    2    0    0  0.11836530533E+02  0.13700030570E+03  0.71048681310E+03  0.72367167887E+03  0.00000000000E+00 0. -1.
         11    1    1    2    0    0 -0.45206860836E+02  0.36596254174E+02  0.19602466669E+03  0.20447155313E+03  0.00000000000E+00 0.  1.
</event>
<event>
 6    1  0.5317355E-006  0.9390912E+02  0.7561462E-02  0.1293652E+00
          2   -1    0    0  501    0  0.00000000000E+00  0.00000000000E+00  0.42978830042E+03  0.42978830042E+03  0.00000000000E+00 0. -1.
         -2   -1    0    0    0  501 -0.00000000000E+00 -0.00000000000E+00 -0.36174744675E+02  0.36174744675E+02  0.00000000000E+00 0.  1.
          5    1    1    2  502    0 -0.96472932554E+01  0.52043522376E+02  0.30886014478E+02  0.61424887292E+02  0.41800000000E+01 0. -1.
         -5    1    1    2    0  502 -0.48560410111E+02 -0.45532269037E+02  0.16764715778E+03  0.18042822082E+03  0.41800000000E+01 0. -1.
        -11    1    1    2    0    0  0.51181550436E+01 -0.13536556928E+02 -0.62611755267E+01  0.15768202291E+02  0.00000000000E+00 0.  1.
         11    1    1    2    0    0  0.53089548322E+02  0.70253035894E+01  0.20134155901E+03  0.20834173469E+03  0.00000000000E+00 0. -1.
</event>
<event>
 6    1  0.5317355E-006  0.1073223E+03  0.7561462E-02  0.1265610E+00
         -1   -1    0    0    0  501 -0.00000000000E+00  0.00000000000E+00  0.10550718624E+03  0.10550718624E+03  0.00000000000E+00 0.  1.
          1   -1    0    0  501    0  0.00000000000E+00 -0.00000000000E+00 -0.36246644696E+03  0.36246644696E+03  0.00000000000E+00 0. -1.
          5    1    1    2  502    0  0.97607746745E+01  0.13444432192E+02 -0.24397983087E+02  0.29812068998E+02  0.41800000000E+01 0. -1.
         -5    1    1    2    0  502 -0.77681228181E+02 -0.41110972726E+02  0.70976815780E+02  0.11304718514E+03  0.41800000000E+01 0.  1.
        -11    1    1    2    0    0  0.85702196388E+02  0.31547297501E+02 -0.28440380866E+03  0.29870658652E+03  0.00000000000E+00 0. -1.
         11    1    1    2    0    0 -0.17781742882E+02 -0.38807569666E+01 -0.19134284745E+02  0.26407792548E+02  0.00000000000E+00 0.  1.
</event>
<event>
 6    1  0.5317355E-006  0.1766786E+03  0.7561462E-02  0.1171057E+00
          1   -1    0    0  501    0  0.00000000000E+00  0.00000000000E+00  0.19532890268E+03  0.19532890268E+03  0.00000000000E+00 0. -1.
         -1   -1    0    0    0  501 -0.00000000000E+00 -0.00000000000E+00 -0.18698813569E+03  0.18698813569E+03  0.00000000000E+00 0.  1.
          5    1    1    2  502    0  0.10009433552E+03 -0.93248673609E+02  0.63083767361E+01  0.13700897470E+03  0.41800000000E+01 0. -1.
         -5    1    1    2    0  502 -0.35900405169E+02 -0.48601423216E+02 -0.17427485959E+02  0.63024813342E+02  0.41800000000E+01 0. -1.
        -11    1    1    2    0    0 -0.42172917187E+02  0.83195506067E+02  0.56935809672E+02  0.10927823936E+03  0.00000000000E+00 0. -1.
         11    1    1    2    0    0 -0.22021013161E+02  0.58654590758E+02 -0.37475933464E+02  0.73005010970E+02  0.00000000000E+00 0.  1.
</event>
<event>
 6    1  0.5317355E-006  0.1423354E+03  0.7561462E-02  0.1210221E+00
          2   -1    0    0  501    0  0.00000000000E+00  0.00000000000E+00  0.94341874198E+03  0.94341874198E+03  0.00000000000E+00 0. -1.
         -2   -1    0    0    0  501 -0.00000000000E+00 -0.00000000000E+00 -0.25785416815E+02  0.25785416815E+02  0.00000000000E+00 0.  1.
          5    1    1    2  502    0 -0.80339545480E+02  0.54412466867E+02  0.44592065377E+03  0.45637469362E+03  0.41800000000E+01 0. -1.
         -5    1    1    2    0  502 -0.84985203468E+01 -0.65722410894E+02  0.10096811161E+03  0.12084573680E+03  0.41800000000E+01 0.  1.
        -11    1    1    2    0    0 -0.42709631139E+00  0.29953398514E+02  0.15316480319E+03  0.15606679798E+03  0.00000000000E+00 0. -1.
         11    1    1    2    0    0  0.89265162138E+02 -0.18643454486E+02  0.21757975660E+03  0.23591693040E+03  0.00000000000E+00 0.  1.
</event>
<event>
 6    1  0.5317355E-006  0.1080134E+03  0.7561462E-02  0.1264294E+00
         -2   -1    0    0    0  501 -0.00000000000E+00  0.00000000000E+00  0.90992323927E+02  0.90992323927E+02  0.00000000000E+00 0.  1.
          2   -1    0    0  501    0  0.00000000000E+00 -0.00000000000E+00 -0.21332240551E+03  0.21332240551E+03  0.00000000000E+00 0. -1.
          5    1    1    2  502    0 -0.88004074859E+01 -0.86575708936E+01  0.36751379585E+02  0.38994063742E+02  0.41800000000E+01 0. -1.
         -5    1    1    2    0  502  0.63559335409E+02 -0.58755182280E+02 -0.83412789921E+02  0.12027936849E+03  0.41800000000E+01 0. -1.
        -11    1    1    2    0    0 -0.15145869191E+01  0.62881109350E+02 -0.65188895276E+02  0.90586532962E+02  0.00000000000E+00 0. -1.
         11    1    1    2    0    0 -0.53244341004E+02  0.45316438231E+01 -0.10479775976E+02  0.54454764247E+02  0.00000000000E+00 0.  1.
</event>
<event>
 6    1  0.5317355E-006  0.9747469E+02  0.7561462E-02  0.1285698E+00
          1   -1    0    0  501    0  0.00000000000E+00  0.00000000000E+00  0.19510980541E+02  0.19510980541E+02  0.00000000000E+00 0. -1.
         -1   -1    0    0    0  501 -0.00000000000E+00 -0.00000000000E+00 -0.24448808153E+04  0.24448808153E+04  0.00000000000E+00 0.  1.
          5    1    1    2  502    0 -0.63473878768E+02 -0.22143874882E+02 -0.60576410414E+03  0.60949725737E+03  0.41800000000E+01 0. -1.
         -5    1    1    2    0  502  0.90779276751E+01  0.19244867572E+02 -0.16773901375E+04  0.16775303035E+04  0.41800000000E+01 0.  1.
        -11    1    1    2    0    0  0.32057703696E+02  0.46755998431E+02 -0.72765665275E+02  0.92242407810E+02  0.00000000000E+00 0.  1.
         11    1    1    2    0    0  0.22338247397E+02 -0.43856991121E+02 -0.69449927900E+02  0.85121827120E+02  0.00000000000E+00 0. -1.
</event>
<event>
 6    1  0.5317355E-006  0.1015436E+03  0.7561462E-02  0.1277083E+00
         -2   -1    0    0    0  501 -0.00000000000E+00  0.00000000000E+00  0.36992299157E+03  0.36992299157E+03  0.00000000000E+00 0.  1.
          2   -1    0    0  501    0  0.00000000000E+00 -0.00000000000E+00 -0.34139503017E+02  0.34139503017E+02  0.00000000000E+00 0. -1.
          5    1    1    2  502    0 -0.36536126487E+02  0.36843504412E+02  0.39156971437E+02  0.65138876012E+02  0.41800000000E+01 0.  1.
         -5    1    1    2    0  502  0.18861773454E+02 -0.52339226754E+02  0.17834483326E+03  0.18686763525E+03  0.41800000000E+01 0.  1.
        -11    1    1    2    0    0  0.23635623475E+02 -0.36183168405E+02  0.47586942862E+02  0.64283602138E+02  0.00000000000E+00 0. -1.
         11    1    1    2    0    0 -0.59612704426E+01  0.51678890746E+02  0.70694740995E+02  0.87772381183E+02  0.00000000000E+00 0.  1.
</event>
<event>
 6    1  0.5317355E-006  0.1193269E+03  0.7561462E-02  0.1244212E+00
         -1   -1    0    0    0  501 -0.00000000000E+00  0.00000000000E+00  0.34686222130E+02  0.34686222130E+02  0.00000000000E+00 0.  1.
          1   -1    0    0  501    0  0.00000000000E+00 -0.00000000000E+00 -0.58670155443E+03  0.58670155443E+03  0.00000000000E+00 0. -1.
          5    1    1    2  502    0 -0.65379482967E+02 -0.75998043365E+02 -0.12633745417E+03  0.16133444801E+03  0.41800000000E+01 0. -1.
         -5    1    1    2    0  502  0.40866134079E+02 -0.97148574524E+01 -0.13885541559E+03  0.14513000451E+03  0.41800000000E+01 0. -1.
        -11    1    1    2    0    0  0.96934642674E+01  0.79409383550E+02 -0.28787528049E+03  0.29878418727E+03  0.00000000000E+00 0. -1.
         11    1    1    2    0    0  0.14819884620E+02  0.63035172672E+01  0.10528179524E+01  0.16139136771E+02  0.00000000000E+00 0.  1.
</event>
<event>
 6    1  0.5317355E-006  0.1034055E+03  0.7561462E-02  0.1273293E+00
         -2   -1    0    0    0  501 -0.00000000000E+00  0.00000000000E+00  0.59458343437E+02  0.59458343437E+02  0.00000000000E+00 0.  1.
          2   -1    0    0  501    0  0.00000000000E+00 -0.00000000000E+00 -0.31529391138E+03  0.31529391138E+03  0.00000000000E+00 0. -1.
          5    1    1    2  502    0  0.56976779420E+01 -0.28136945404E+02 -0.10307272004E+03  0.10707758517E+03  0.41800000000E+01 0.  1.
         -5    1    1    2    0  502  0.64234721234E+02 -0.15994636121E+00  0.11413292649E+02  0.65374770699E+02  0.41800000000E+01 0.  1.
        -11    1    1    2    0    0 -0.88259840214E+02  0.33458760564E+02 -0.11038451572E+03  0.14523783723E+03  0.00000000000E+00 0. -1.
         11    1    1    2    0    0  0.18327441038E+02 -0.51618687988E+01 -0.53791624838E+02  0.57062061715E+02  0.00000000000E+00 0.  1.
</event>
<event>
 6    1  0.5317355E-006  0.1049983E+03  0.7561462E-02  0.1270123E+00
         -2   -1    0    0    0  501 -0.00000000000E+00  0.00000000000E+00  0.48247774787E+03  0.48247774787E+03  0.00000000000E+00 0.  1.
          2   -1    0    0  501    0  0.00000000000E+00 -0.00000000000E+00 -0.36847982312E+03  0.36847982312E+03  0.00000000000E+00 0. -1.
          5    1    1    2  502    0  0.14902418131E+02  0.65042606399E+02  0.25603553571E+03  0.26462103215E+03  0.41800000000E+01 0. -1.
         -5    1    1    2    0  502  0.50271973364E+01 -0.51741923219E+02  0.21278960815E+03  0.21908762874E+03  0.41800000000E+01 0.  1.
        -11    1    1    2    0    0 -0.20373820668E+02  0.36169123258E+02 -0.21388519052E+03  0.21787650807E+03  0.00000000000E+00 0.  1.
         11    1    1    2    0    0  0.44420519992E+00 -0.49469806438E+02 -0.14094202858E+03  0.14937240203E+03  0.00000000000E+00 0. -1.
</event>
<event>
 6    1  0.5317355E-006  0.9673671E+02  0.7561462E-02  0.1287312E+00
         -1   -1    0    0    0  501 -0.00000000000E+00  0.00000000000E+00  0.31128204279E+03  0.31128204279E+03  0.00000000000E+00 0.  1.
          1   -1    0    0  501    0  0.00000000000E+00 -0.00000000000E+00 -0.40357662861E+02  0.40357662861E+02  0.00000000000E+00 0. -1.
          5    1    1    2  502    0 -0.46653184862E+02 -0.51744455212E+02  0.15409386417E+03  0.16916382496E+03  0.41800000000E+01 0.  1.
         -5    1    1    2    0  502  0.39882548761E+02  0.22084180615E+02  0.27409906831E+02  0.53358261981E+02  0.41800000000E+01 0.  1.
        -11    1    1    2    0    0 -0.25905067050E+02  0.36258982383E+02  0.14083278319E+02  0.46734623466E+02  0.00000000000E+00 0. -1.
         11    1    1    2    0    0  0.32675703152E+02 -0.65987077858E+01  0.75337330609E+02  0.82382995237E+02  0.00000000000E+00 0.  1.
</event>
<event>
 6    1  0.5317355E-006  0.1062035E+03  0.7561462E-02  0.1267766E+00
         -3   -1    0    0    0  501 -0.00000000000E+00  0.00000000000E+00  0.91021947383E+03  0.91021947383E+03  0.00000000000E+00 0.  1.
          3   -1    0    0  501    0  0.00000000000E+00 -0.00000000000E+00 -0.16722399804E+02  0.16722399804E+02  0.00000000000E+00 0. -1.
          5    1    1    2  502    0  0.66718264508E+02  0.46469547816E+02  0.21613537365E+03  0.23096042482E+03  0.41800000000E+01 0.  1.
         -5    1    1    2    0  502 -0.12044781465E+02 -0.30178547946E+02  0.35421199790E+03  0.35572381615E+03  0.41800000000E+01 0.  1.
        -11    1    1    2    0    0  0.16252307731E+02 -0.21687316580E+02  0.40044374045E+02  0.48353170523E+02  0.00000000000E+00 0. -1.
         11    1    1    2    0    0 -0.70925790774E+02  0.53963167099E+01  0.28310532843E+03  0.29190446213E+03  0.00000000000E+00 0.  1.
</event>
<event>
 6    1  0.5317355E-006  0.1071302E+03  0.7561462E-02  0.1265979E+00
         -1   -1    0    0    0  501 -0.00000000000E+00  0.00000000000E+00  0.29079852101E+03  0.29079852101E+03  0.00000000000E+00 0.  1.
          1   -1    0    0  501    0  0.00000000000E+00 -0.00000000000E+00 -0.42367604835E+02  0.42367604835E+02  0.00000000000E+00 0. -1.
          5    1    1    2  502    0 -0.15277434273E+02  0.67603419716E+02  0.64547286323E+02  0.94802146215E+02  0.41800000000E+01 0.  1.
         -5    1    1    2    0  502  0.26671107876E+02 -0.48892327527E+02  0.80559882985E+02  0.98026398653E+02  0.41800000000E+01 0.  1.
        -11    1    1    2    0    0 -0.29547510393E+02 -0.46909108900E+02  0.38956892270E+02  0.67758094155E+02  0.00000000000E+00 0. -1.
         11    1    1    2    0    0  0.18153836789E+02  0.28198016711E+02  0.64366854600E+02  0.72579486824E+02  0.00000000000E+00 0.  1.
</event>
<event>
 6    1  0.5317355E-006  0.8342295E+02  0.7561462E-02  0.1319609E+00
          2   -1    0    0  501    0  0.00000000000E+00  0.00000000000E+00  0.18381226731E+03  0.18381226731E+03  0.00000000000E+00 0.  1.
         -2   -1    0    0    0  501 -0.00000000000E+00 -0.00000000000E+00 -0.12430171876E+03  0.12430171876E+03  0.00000000000E+00 0. -1.
          5    1    1    2  502    0 -0.25421368754E+02  0.30915242157E+02 -0.82675628114E+02  0.91949606149E+02  0.41800000000E+01 0. -1.
         -5    1    1    2    0  502 -0.46433289995E+02 -0.72946639347E+01  0.38343069393E+02  0.60802351206E+02  0.41800000000E+01 0. -1.
        -11    1    1    2    0    0  0.48755100610E+02 -0.36707817623E+01  0.11330759707E+03  0.12340642620E+03  0.00000000000E+00 0.  1.
         11    1    1    2    0    0  0.23099558140E+02 -0.19949796460E+02 -0.94644897964E+01  0.31955602516E+02  0.00000000000E+00 0. -1.
</event>
<event>
 6    1  0.5317355E-006  0.9608198E+02  0.7561462E-02  0.1288758E+00
         -3   -1    0    0    0  501 -0.00000000000E+00  0.00000000000E+00  0.61822933376E+02  0.61822933376E+02  0.00000000000E+00 0.  1.
          3   -1    0    0  501    0  0.00000000000E+00 -0.00000000000E+00 -0.20969483930E+03  0.20969483930E+03  0.00000000000E+00 0. -1.
          5    1    1    2  502    0  0.71969614277E+02  0.91837085093E+01 -0.23536431599E+02  0.76389802288E+02  0.41800000000E+01 0. -1.
         -5    1    1    2    0  502 -0.42600554782E+02  0.18091715281E+02 -0.73350543913E+02  0.86832552202E+02  0.41800000000E+01 0. -1.
        -11    1    1    2    0    0  0.16328689046E+02 -0.21440438464E+02 -0.55808265313E+02  0.61974841385E+02  0.00000000000E+00 0.  1.
         11    1    1    2    0    0 -0.45697748540E+02 -0.58349853267E+01  0.48233349021E+01  0.46320576799E+02  0.00000000000E+00 0. -1.
</event>
<event>
 6    1  0.6742328E-006  0.2078538E+03  0.7561462E-02  0.1143277E+00
         -1   -1    0    0    0  501 -0.00000000000E+00  0.00000000000E+00  0.47524264636E+02  0.47524264636E+02  0.00000000000E+00 0.  1.
          1   -1    0    0  501    0  0.00000000000E+00 -0.00000000000E+00 -0.11417721093E+04  0.11417721093E+04  0.00000000000E+00 0. -1.
          5    1    1    2  502    0 -0.11902143417E+03 -0.64601541958E+01 -0.42319614599E+03  0.43968202802E+03  0.41800000000E+01 0. -1.
         -5    1    1    2    0  502 -0.83346853076E+02  0.35832832873E+02 -0.95836292701E+02  0.13203316715E+03  0.41800000000E+01 0. -1.
        -11    1    1    2    0    0  0.13578227060E+03 -0.94269457668E+01 -0.24634583115E+03  0.28144619529E+03  0.00000000000E+00 0.  1.
         11    1    1    2    0    0  0.66586016646E+02 -0.19945732910E+02 -0.32886957483E+03  0.33613498349E+03  0.00000000000E+00 0. -1.
</event>
<event>
 6    1  0.5317355E-006  0.1073320E+03  0.7561462E-02  0.1265592E+00
          1   -1    0    0  501    0  0.00000000000E+00  0.00000000000E+00  0.13471163399E+03  0.13471163399E+03  0.00000000000E+00 0. -1.
         -1   -1    0    0    0  501 -0.00000000000E+00 -0.00000000000E+00 -0.12949830982E+03  0.12949830982E+03  0.00000000000E+00 0.  1.
          5    1    1    2  502    0 -0.48146624706E+01  0.54922629659E+02  0.49016151944E+02  0.73889997799E+02  0.41800000000E+01 0. -1.
         -5    1    1    2    0  502  0.16092162813E+02 -0.71951571338E+02 -0.63724673593E+02  0.97541236134E+02  0.41800000000E+01 0.  1.
        -11    1    1    2    0    0 -0.22573136670E+02 -0.29782317616E+02 -0.63772225046E+01  0.37910445903E+02  0.00000000000E+00 0.  1.
         11    1    1    2    0    0  0.11295636328E+02  0.46811259294E+02  0.26299068329E+02  0.54868263976E+02  0.00000000000E+00 0. -1.
</event>
<event>
 6    1  0.5317355E-006  0.1309195E+03  0.7561462E-02  0.1226098E+00
          1   -1    0    0  501    0  0.00000000000E+00  0.00000000000E+00  0.58650653173E+03  0.58650653173E+03  0.00000000000E+00 0. -1.
         -1   -1    0    0    0  501 -0.00000000000E+00 -0.00000000000E+00 -0.55483565829E+02  0.55483565829E+02  0.00000000000E+00 0.  1.
          5    1    1    2  502    0 -0.52570038696E+01  0.86295678747E+01  0.94219535623E+02  0.94851983766E+02  0.41800000000E+01 0. -1.
         -5    1    1    2    0  502 -0.10554226777E+03 -0.23580415591E+02  0.25310911927E+02  0.11114549450E+03  0.41800000000E+01 0. -1.
        -11    1    1    2    0    0  0.80144478706E+02  0.51278538701E+02  0.24427927641E+03  0.26215451718E+03  0.00000000000E+00 0.  1.
         11    1    1    2    0    0  0.30654792935E+02 -0.36327690985E+02  0.16721324195E+03  0.17383810211E+03  0.00000000000E+00 0. -1.
</event>
<event>
 6    1  0.5317355E-006  0.1090230E+03  0.7561462E-02  0.1262390E+00
          1   -1    0    0  501    0  0.00000000000E+00  0.00000000000E+00  0.10252948910E+04  0.10252948910E+04  0.00000000000E+00 0. -1.
         -1   -1    0    0    0  501 -0.00000000000E+00 -0.00000000000E+00 -0.16187999929E+02  0.16187999929E+02  0.00000000000E+00 0.  1.
          5    1    1    2  502    0 -0.58547907925E+02 -0.23421517409E+02  0.15178684055E+03  0.16441758533E+03  0.41800000000E+01 0.  1.
         -5    1    1    2    0  502 -0.19539439080E+01  0.43674402881E+02  0.52218402118E+03  0.52402757155E+03  0.41800000000E+01 0.  1.
        -11    1    1    2    0    0  0.58401096173E+02 -0.52551495415E+02  0.24263888360E+03  0.25504112519E+03  0.00000000000E+00 0. -1.
         11    1    1    2    0    0  0.21007556600E+01  0.32298609943E+02  0.92497145688E+02  0.97996608813E+02  0.00000000000E+00 0.  1.
</event>
<event>
 6    1  0.5317355E-006  0.1250909E+03  0.7561462E-02  0.1234927E+00
         -1   -1    0    0    0  501 -0.00000000000E+00  0.00000000000E+00  0.25683497594E+03  0.25683497594E+03  0.00000000000E+00 0.  1.
          1   -1    0    0  501    0  0.00000000000E+00 -0.00000000000E+00 -0.67547643009E+02  0.67547643009E+02  0.00000000000E+00 0. -1.
          5    1    1    2  502    0  0.89175075598E+02  0.48790570742E+02  0.99894574959E+02  0.14258019641E+03  0.41800000000E+01 0.  1.
         -5    1    1    2    0  502 -0.41155655780E+02  0.60664191772E+01  0.25598493093E+02  0.49023919600E+02  0.41800000000E+01 0.  1.
        -11    1    1    2    0    0 -0.29650071805E+02  0.15823035683E+02  0.47109278893E+02  0.57868638951E+02  0.00000000000E+00 0.  1.
         11    1    1    2    0    0 -0.18369348013E+02 -0.70680025602E+02  0.16684985983E+02  0.74909863988E+02  0.00000000000E+00 0. -1.
</event>
<event>
 6    1  0.5317355E-006  0.9600802E+02  0.7561462E-02  0.1288922E+00
         -1   -1    0    0    0  501 -0.00000000000E+00  0.00000000000E+00  0.54158259655E+02  0.54158259655E+02  0.00000000000E+00 0.  1.
          1   -1    0    0  501    0  0.00000000000E+00 -0.00000000000E+00 -0.33169565316E+03  0.33169565316E+03  0.00000000000E+00 0. -1.
          5    1    1    2  502    0  0.47802406172E+02  0.48355636490E+02 -0.21471808285E+02  0.71427225672E+02  0.41800000000E+01 0. -1.
         -5    1    1    2    0  502 -0.25718102857E+02  0.25539843071E+02 -0.15013976080E+03  0.15450930254E+03  0.41800000000E+01 0. -1.
        -11    1    1    2    0    0  0.10950481283E+02 -0.75763597774E+01  0.13763976851E+02  0.19151013722E+02  0.00000000000E+00 0.  1.
         11    1    1    2    0    0 -0.33034784599E+02 -0.66319119783E+02 -0.11968980127E+03  0.14076637088E+03  0.00000000000E+00 0. -1.
</event>
<event>
 6    1  0.5317355E-006  0.9607068E+02  0.7561462E-02  0.1288783E+00
         -2   -1    0    0    0  501 -0.00000000000E+00  0.00000000000E+00  0.12867746425E+03  0.12867746425E+03  0.00000000000E+00 0.  1.
          2   -1    0    0  501    0  0.00000000000E+00 -0.00000000000E+00 -0.40358254519E+03  0.40358254519E+03  0.00000000000E+00 0. -1.
          5    1    1    2  502    0  0.51793111035E+02 -0.24601497733E+02 -0.40012443500E+02  0.70044472132E+02  0.41800000000E+01 0. -1.
         -5    1    1    2    0  502  0.32415419425E+02  0.15919411043E+02  0.99406592879E+02  0.10584578486E+03  0.41800000000E+01 0.  1.
        -11    1    1    2    0    0 -0.88275232731E+01  0.20195385027E+02 -0.11845046159E+02  0.25021667851E+02  0.00000000000E+00 0.  1.
         11    1    1    2    0    0 -0.75381007187E+02 -0.11513298338E+02 -0.32245418416E+03  0.33134808459E+03  0.00000000000E+00 0. -1.
</event>
<event>
 6    1  0.5317355E-006  0.1835387E+03  0.7561462E-02  0.1164422E+00
          3   -1    0    0  501    0  0.00000000000E+00  0.00000000000E+00  0.36722640186E+03  0.36722640186E+03  0.00000000000E+00 0. -1.
         -3   -1    0    0    0  501 -0.00000000000E+00 -0.00000000000E+00 -0.96786938013E+02  0.96786938013E+02  0.00000000000E+00 0.  1.
          5    1    1    2  502    0  0.35600068419E+02  0.64871746994E+02  0.59829236931E+02  0.95250818481E+02  0.41800000000E+01 0. -1.
         -5    1    1    2    0  502  0.80964744622E+02 -0.70527518664E+02  0.53811473769E+02  0.12017723524E+03  0.41800000000E+01 0.  1.
        -11    1    1    2    0    0 -0.58047922402E+02 -0.69308405921E+02  0.42499373291E+02  0.99897012751E+02  0.00000000000E+00 0.  1.
         11    1    1    2    0    0 -0.58516890639E+02  0.74964177591E+02  0.11429937986E+03  0.14868827341E+03  0.00000000000E+00 0. -1.
</event>
<event>
 6    1  0.5317355E-006  0.1109770E+03  0.7561462E-02  0.1258771E+00
          1   -1    0    0  501    0  0.00000000000E+00  0.00000000000E+00  0.24564229710E+03  0.24564229710E+03  0.00000000000E+00 0. -1.
         -1   -1    0    0    0  501 -0.00000000000E+00 -0.00000000000E+00 -0.59593128476E+02  0.59593128476E+02  0.00000000000E+00 0.  1.
          5    1    1    2  502    0 -0.45740426895E+02  0.53316278573E+02  0.86780075700E+02  0.11172764274E+03  0.41800000000E+01 0. -1.
         -5    1    1    2    0  502  0.48283796340E+02 -0.17046603776E+01 -0.10136988338E+01  0.48504956873E+02  0.41800000000E+01 0. -1.
        -11    1    1    2    0    0  0.43073036711E+02 -0.30772522731E+02  0.64255238896E+02  0.83252449647E+02  0.00000000000E+00 0. -1.
         11    1    1    2    0    0 -0.45616406156E+02 -0.20839095464E+02  0.36027552866E+02  0.61750376322E+02  0.00000000000E+00 0.  1.
</event>
<event>
 6    1  0.5317355E-006  0.1016697E+03  0.7561462E-02  0.1276823E+00
         -3   -1    0    0    0  501 -0.00000000000E+00  0.00000000000E+00  0.81211968856E+03  0.81211968856E+03  0.00000000000E+00 0.  1.
          3   -1    0    0  501    0  0.00000000000E+00 -0.00000000000E+00 -0.20933075046E+02  0.20933075046E+02  0.00000000000E+00 0. -1.
          5    1    1    2  502    0  0.26323755768E+02  0.28228546241E+02  0.85633364373E+02  0.94023063311E+02  0.41800000000E+01 0.  1.
         -5    1    1    2    0  502 -0.31502373726E+02 -0.68058317871E+02  0.54507739571E+03  0.55022829252E+03  0.41800000000E+01 0.  1.
        -11    1    1    2    0    0 -0.31304457182E+02  0.42544010177E+02  0.13282917789E+03  0.14294597700E+03  0.00000000000E+00 0.  1.
         11    1    1    2    0    0  0.36483075140E+02 -0.27142385476E+01  0.27646675540E+02  0.45855430769E+02  0.00000000000E+00 0. -1.
</event>
<event>
 6    1  0.5317355E-006  0.1151003E+03  0.7561462E-02  0.1251406E+00
         -1   -1    0    0    0  501 -0.00000000000E+00  0.00000000000E+00  0.49520147385E+02  0.49520147385E+02  0.00000000000E+00 0.  1.
          1   -1    0    0  501    0  0.00000000000E+00 -0.00000000000E+00 -0.44952080647E+03  0.44952080647E+03  0.00000000000E+00 0. -1.
          5    1    1    2  502    0  0.34313619305E+02  0.94516160494E+02 -0.43705168930E+02  0.10971938414E+03  0.41800000000E+01 0.  1.
         -5    1    1    2    0  502 -0.19632213559E+01 -0.51615469689E+01 -0.10945101604E+03  0.10966992805E+03  0.41800000000E+01 0.  1.
        -11    1    1    2    0    0 -0.53384903545E+02 -0.86162522909E+02 -0.15373408268E+03  0.18414151204E+03  0.00000000000E+00 0.  1.
         11    1    1    2    0    0  0.21034505596E+02 -0.31920906161E+01 -0.93110391438E+02  0.95510129630E+02  0.00000000000E+00 0. -1.
</event>
<event>
 6    1  0.5317355E-006  0.1464444E+03  0.7561462E-02  0.1204911E+00
         -1   -1    0    0    0  501 -0.00000000000E+00  0.00000000000E+00  0.14022554487E+03  0.14022554487E+03  0.00000000000E+00 0.  1.
          1   -1    0    0  501    0  0.00000000000E+00 -0.00000000000E+00 -0.22584372173E+03  0.22584372173E+03  0.00000000000E+00 0. -1.
          5    1    1    2  502    0  0.86544970885E+02  0.68129385612E+02  0.51769446653E+02  0.12177517471E+03  0.41800000000E+01 0. -1.
         -5    1    1    2    0  502  0.52059020935E+01  0.29920951990E+02 -0.53606367240E+02  0.61753378801E+02  0.41800000000E+01 0. -1.
        -11    1    1    2    0    0 -0.79097670420E+02 -0.32943053677E+02 -0.78160805604E+02  0.11597757449E+03  0.00000000000E+00 0. -1.
         11    1    1    2    0    0 -0.12653202559E+02 -0.65107283926E+02 -0.56204506705E+01  0.66563138605E+02  0.00000000000E+00 0.  1.
</event>
<event>
 6    1  0.5317355E-006  0.1132918E+03  0.7561462E-02  0.1254593E+00
         -2   -1    0    0    0  501 -0.00000000000E+00  0.00000000000E+00  0.57349965111E+02  0.57349965111E+02  0.00000000000E+00 0.  1.
          2   -1    0    0  501    0  0.00000000000E+00 -0.00000000000E+00 -0.42266388640E+03  0.42266388640E+03  0.00000000000E+00 0. -1.
          5    1    1    2  502    0 -0.65700622933E+02 -0.32855267279E+02 -0.14553361658E+03  0.16307527831E+03  0.41800000000E+01 0. -1.
         -5    1    1    2    0  502 -0.25261625154E+02 -0.86797913064E+01  0.25412603126E+02  0.37104733932E+02  0.41800000000E+01 0. -1.
        -11    1    1    2    0    0  0.69296811442E+02  0.64307641176E+02 -0.22033441639E+03  0.23975982949E+03  0.00000000000E+00 0. -1.
         11    1    1    2    0    0  0.21665436644E+02 -0.22772582591E+02 -0.24858491445E+02  0.40074009779E+02  0.00000000000E+00 0.  1.
</event>
<event>
 6    1  0.5317355E-006  0.9766008E+02  0.7561462E-02  0.1285295E+00
         -2   -1    0    0    0  501 -0.00000000000E+00  0.00000000000E+00  0.10514669332E+03  0.10514669332E+03  0.00000000000E+00 0.  1.
          2   -1    0    0  501    0  0.00000000000E+00 -0.00000000000E+00 -0.11366379089E+03  0.11366379089E+03  0.00000000000E+00 0. -1.
          5    1    1    2  502    0  0.59077429495E+02 -0.37422284460E+01  0.26156897187E+02  0.64852159717E+02  0.41800000000E+01 0. -1.
         -5    1    1    2    0  502 -0.57456424609E+02 -0.45506597639E+02  0.11533212262E+02  0.74314053466E+02  0.41800000000E+01 0.  1.
        -11    1    1    2    0    0  0.14515134854E+02  0.42785877333E+02 -0.23142769239E+02  0.50763256466E+02  0.00000000000E+00 0. -1.
         11    1    1    2    0    0 -0.16136139740E+02  0.64629487511E+01 -0.23064437776E+02  0.28881014563E+02  0.00000000000E+00 0.  1.
</event>
<event>
 6    1  0.5980234E-006  0.9590900E+02  0.7561462E-02  0.1289142E+00
          2   -1    0    0  501    0  0.00000000000E+00  0.00000000000E+00  0.87285987613E+03  0.87285987613E+03  0.00000000000E+00 0. -1.
         -2   -1    0    0    0  501 -0.00000000000E+00 -0.00000000000E+00 -0.13248510335E+02  0.13248510335E+02  0.00000000000E+00 0.  1.
          5    1    1    2  502    0  0.58088122745E+02  0.71072300591E+01  0.38142416098E+03  0.38591010055E+03  0.41800000000E+01 0.  1.
         -5    1    1    2    0  502 -0.51076444157E+02  0.43090231006E+01  0.11107151066E+03  0.12239985175E+03  0.41800000000E+01 0.  1.
        -11    1    1    2    0    0  0.33243650482E+02  0.11768226021E+02  0.87315039384E+02  0.94167656569E+02  0.00000000000E+00 0.  1.
         11    1    1    2    0    0 -0.40255329071E+02 -0.23184479181E+02  0.27980065477E+03  0.28363077760E+03  0.00000000000E+00 0. -1.
</event>
<event>
 6    1  0.5317355E-006  0.1912037E+03  0.7561462E-02  0.1157380E+00
          2   -1    0    0  501    0  0.00000000000E+00  0.00000000000E+00  0.81986675921E+03  0.81986675921E+03  0.00000000000E+00 0. -1.
         -2   -1    0    0    0  501 -0.00000000000E+00 -0.00000000000E+00 -0.51962261862E+02  0.51962261862E+02  0.00000000000E+00 0.  1.
          5    1    1    2  502    0  0.13926943391E+02  0.84187365597E+02  0.32548268435E+03  0.33650842856E+03  0.41800000000E+01 0. -1.
         -5    1    1    2    0  502  0.10144533282E+03  0.39839583551E+02  0.17149030069E+03  0.20323568485E+03  0.41800000000E+01 0. -1.
        -11    1    1    2    0    0 -0.33602016241E+02 -0.95602479607E+02  0.17979585294E+03  0.20638672035E+03  0.00000000000E+00 0. -1.
         11    1    1    2    0    0 -0.81770259970E+02 -0.28424469540E+02  0.91135659372E+02  0.12569818731E+03  0.00000000000E+00 0.  1.
</event>
<event>
 6    1  0.5317355E-006  0.4161933E+03  0.7561462E-02  0.1038312E+00
         -1   -1    0    0    0  501 -0.00000000000E+00  0.00000000000E+00  0.27002480915E+03  0.27002480915E+03  0.00000000000E+00 0.  1.
          1   -1    0    0  501    0  0.00000000000E+00 -0.00000000000E+00 -0.77141872928E+03  0.77141872928E+03  0.00000000000E+00 0. -1.
          5    1    1    2  502    0  0.16054930936E+03 -0.43321827736E+02  0.27499663341E+02  0.16860179530E+03  0.41800000000E+01 0. -1.
         -5    1    1    2    0  502  0.25064307257E+03 -0.10427503333E+02 -0.10233815028E+03  0.27096356223E+03  0.41800000000E+01 0. -1.
        -11    1    1    2    0    0 -0.13793941255E+03  0.87726861612E+01 -0.85399999366E+02  0.16247277141E+03  0.00000000000E+00 0.  1.
         11    1    1    2    0    0 -0.27325296938E+03  0.44976644908E+02 -0.34115543383E+03  0.43940540949E+03  0.00000000000E+00 0. -1.
</event>
<event>
 6    1  0.5317355E-006  0.1233866E+03  0.7561462E-02  0.1237612E+00
          3   -1    0    0  501    0  0.00000000000E+00  0.00000000000E+00  0.12154685010E+03  0.12154685010E+03  0.00000000000E+00 0. -1.
         -3   -1    0    0    0  501 -0.00000000000E+00 -0.00000000000E+00 -0.15438742200E+03  0.15438742200E+03  0.00000000000E+00 0.  1.
          5    1    1    2  502    0 -0.25141526319E+02 -0.30229462019E+02 -0.59274515317E+01  0.39981543257E+02  0.41800000000E+01 0. -1.
         -5    1    1    2    0  502  0.48804426761E+01  0.10976339380E+03 -0.27057497246E+02  0.11323162940E+03  0.41800000000E+01 0. -1.
        -11    1    1    2    0    0 -0.17458267669E+02 -0.17768108745E+02  0.34544627694E+02  0.42589060812E+02  0.00000000000E+00 0. -1.
         11    1    1    2    0    0  0.37719351312E+02 -0.61765823038E+02 -0.34400250814E+02  0.80132038630E+02  0.00000000000E+00 0.  1.
</event>
<event>
 6    1  0.5317355E-006  0.1333032E+03  0.7561462E-02  0.1222635E+00
         -4   -1    0    0    0  501 -0.00000000000E+00  0.00000000000E+00  0.38116824053E+03  0.38116824053E+03  0.00000000000E+00 0.  1.
          4   -1    0    0  501    0  0.00000000000E+00 -0.00000000000E+00 -0.13952313420E+03  0.13952313420E+03  0.00000000000E+00 0. -1.
          5    1    1    2  502    0 -0.51195889876E+02 -0.39651526206E+02  0.27060787809E+03  0.27827928194E+03  0.41800000000E+01 0.  1.
         -5    1    1    2    0  502  0.40403792115E+01 -0.65635401860E+02  0.43485289006E+02  0.78947915751E+02  0.41800000000E+01 0.  1.
        -11    1    1    2    0    0  0.10331167390E+01  0.85713905934E+02 -0.14634020862E+02  0.86960310299E+02  0.00000000000E+00 0.  1.
         11    1    1    2    0    0  0.46122393925E+02  0.19573022133E+02 -0.57814039905E+02  0.76503866745E+02  0.00000000000E+00 0. -1.
</event>
<event>
 6    1  0.5317355E-006  0.8729070E+02  0.7561462E-02  0.1309549E+00
         -1   -1    0    0    0  501 -0.00000000000E+00  0.00000000000E+00  0.71789913377E+03  0.71789913377E+03  0.00000000000E+00 0.  1.
          1   -1    0    0  501    0  0.00000000000E+00 -0.00000000000E+00 -0.25622221432E+02  0.25622221432E+02  0.00000000000E+00 0. -1.
          5    1    1    2  502    0  0.23038285962E+02  0.21182674222E+02  0.23847081576E+02  0.39567966930E+02  0.41800000000E+01 0.  1.
         -5    1    1    2    0  502 -0.32885845030E+02  0.36339675178E+02  0.49118966047E+03  0.49364643800E+03  0.41800000000E+01 0.  1.
        -11    1    1    2    0    0  0.39040804217E+02 -0.50430063059E+02  0.16667673435E+03  0.17846150685E+03  0.00000000000E+00 0.  1.
         11    1    1    2    0    0 -0.29193245149E+02 -0.70922863405E+01  0.10563435939E+02  0.31845443421E+02  0.00000000000E+00 0. -1.
</event>
<event>
 6    1  0.5317355E-006  0.1095951E+03  0.7561462E-02  0.1261321E+00
          3   -1    0    0  501    0  0.00000000000E+00  0.00000000000E+00  0.75649240999E+03  0.75649240999E+03  0.00000000000E+00 0. -1.
         -3   -1    0    0    0  501 -0.00000000000E+00 -0.00000000000E+00 -0.19710850391E+02  0.19710850391E+02  0.00000000000E+00 0.  1.
          5    1    1    2  502    0 -0.24045048055E+02 -0.37328307897E+02  0.26368006423E+03  0.26742515884E+03  0.41800000000E+01 0. -1.
         -5    1    1    2    0  502  0.67916751388E+02  0.65331085876E+01  0.10227150277E+03  0.12301341108E+03  0.41800000000E+01 0. -1.
        -11    1    1    2    0    0 -0.41890626517E+01 -0.31824399459E+02  0.10590931936E+03  0.11066672750E+03  0.00000000000E+00 0.  1.
         11    1    1    2    0    0 -0.39682640682E+02  0.62619598768E+02  0.26492067323E+03  0.27509796297E+03  0.00000000000E+00 0. -1.
</event>
<event>
 6    1  0.5317355E-006  0.9466134E+02  0.7561462E-02  0.1291941E+00
          3   -1    0    0  501    0  0.00000000000E+00  0.00000000000E+00  0.95096694309E+02  0.95096694309E+02  0.00000000000E+00 0. -1.
         -3   -1    0    0    0  501 -0.00000000000E+00 -0.00000000000E+00 -0.15425247263E+03  0.15425247263E+03  0.00000000000E+00 0.  1.
          5    1    1    2  502    0 -0.88379731467E+02 -0.19440190566E+02 -0.54271429919E+02  0.10560188658E+03  0.41800000000E+01 0. -1.
         -5    1    1    2    0  502  0.37980118798E+02  0.31403965971E+01  0.55006083447E+01  0.38730874078E+02  0.41800000000E+01 0. -1.
        -11    1    1    2    0    0  0.35612846261E+02  0.24746040472E+02  0.35518939396E+02  0.56055654431E+02  0.00000000000E+00 0. -1.
         11    1    1    2    0    0  0.14786766408E+02 -0.84462465034E+01 -0.45903896139E+02  0.48960751849E+02  0.00000000000E+00 0.  1.
</event>
<event>
 6    1  0.5317355E-006  0.2336649E+03  0.7561462E-02  0.1124086E+00
          2   -1    0    0  501    0  0.00000000000E+00  0.00000000000E+00  0.62792804988E+03  0.62792804988E+03  0.00000000000E+00 0. -1.
         -2   -1    0    0    0  501 -0.00000000000E+00 -0.00000000000E+00 -0.97386779721E+02  0.97386779721E+02  0.00000000000E+00 0.  1.
          5    1    1    2  502    0  0.71412457416E+02 -0.24569032528E+02  0.32683663148E+02  0.82395817068E+02  0.41800000000E+01 0. -1.
         -5    1    1    2    0  502  0.14158058380E+03  0.85559377738E+02  0.22958945488E+03  0.28300929140E+03  0.41800000000E+01 0. -1.
        -11    1    1    2    0    0 -0.37136107145E+02  0.67841151022E+01  0.80299067177E+01  0.38595259728E+02  0.00000000000E+00 0.  1.
         11    1    1    2    0    0 -0.17585693407E+03 -0.67774460313E+02  0.26023824541E+03  0.32131446140E+03  0.00000000000E+00 0. -1.
</event>
<event>
 6    1  0.5317355E-006  0.7338299E+02  0.7561462E-02  0.1348953E+00
         -1   -1    0    0    0  501 -0.00000000000E+00  0.00000000000E+00  0.43673714948E+03  0.43673714948E+03  0.00000000000E+00 0.  1.
          1   -1    0    0  501    0  0.00000000000E+00 -0.00000000000E+00 -0.15870834492E+02  0.15870834492E+02  0.00000000000E+00 0. -1.
          5    1    1    2  502    0  0.45087162848E+02  0.25007630499E+02  0.97717424546E+02  0.11056401447E+03  0.41800000000E+01 0. -1.
         -5    1    1    2    0  502 -0.41707231661E+02 -0.42412695436E+02  0.27941838296E+03  0.28571040415E+03  0.41800000000E+01 0.  1.
        -11    1    1    2    0    0  0.12705356736E+02  0.14112894655E+02  0.21295495775E+02  0.28532403082E+02  0.00000000000E+00 0. -1.
         11    1    1    2    0    0 -0.16085287923E+02  0.32921702815E+01  0.22435011710E+02  0.27801162263E+02  0.00000000000E+00 0.  1.
</event>
<event>
 6    1  0.5317355E-006  0.1225687E+03  0.7561462E-02  0.1238919E+00
         -1   -1    0    0    0  501 -0.00000000000E+00  0.00000000000E+00  0.25385799886E+02  0.25385799886E+02  0.00000000000E+00 0.  1.
          1   -1    0    0  501    0  0.00000000000E+00 -0.00000000000E+00 -0.73075985514E+03  0.73075985514E+03  0.00000000000E+00 0. -1.
          5    1    1    2  502    0  0.60228460206E+02  0.20714091560E+02 -0.20425721479E+03  0.21399771775E+03  0.41800000000E+01 0. -1.
         -5    1    1    2    0  502 -0.50883066847E+01 -0.64631460193E+02 -0.69543428971E+02  0.95167628028E+02  0.41800000000E+01 0. -1.
        -11    1    1    2    0    0  0.26247615527E+02  0.12889689183E+02 -0.10864082412E+03  0.11250737787E+03  0.00000000000E+00 0.  1.
         11    1    1    2    0    0 -0.81387769048E+02  0.31027679450E+02 -0.32293258737E+03  0.33447293138E+03  0.00000000000E+00 0. -1.
</event>
<event>
 6    1  0.5317355E-006  0.1545294E+03  0.7561462E-02  0.1195015E+00
         -2   -1    0    0    0  501 -0.00000000000E+00  0.00000000000E+00  0.17831910287E+02  0.17831910287E+02  0.00000000000E+00 0.  1.
          2   -1    0    0  501    0  0.00000000000E+00 -0.00000000000E+00 -0.14484531913E+04  0.14484531913E+04  0.00000000000E+00 0. -1.
          5    1    1    2  502    0  0.11436956505E+03 -0.46635550304E+02 -0.61428151968E+03  0.62658960236E+03  0.41800000000E+01 0.  1.
         -5    1    1    2    0  502  0.31041190776E+01  0.38726582924E+02 -0.86098891584E+02  0.94550913863E+02  0.41800000000E+01 0.  1.
        -11    1    1    2    0    0 -0.42318037664E+02 -0.39214141209E+02 -0.23181892714E+03  0.23889030989E+03  0.00000000000E+00 0.  1.
         11    1    1    2    0    0 -0.75155646459E+02  0.47123108588E+02 -0.49842194258E+03  0.50625427544E+03  0.00000000000E+00 0. -1.
</event>
<event>
 6    1  0.5317355E-006  0.9382809E+02  0.7561462E-02  0.1293838E+00
         -1   -1    0    0    0  501 -0.00000000000E+00  0.00000000000E+00  0.29591790482E+02  0.29591790482E+02  0.00000000000E+00 0.  1.
          1   -1    0    0  501    0  0.00000000000E+00 -0.00000000000E+00 -0.49258640080E+03  0.49258640080E+03  0.00000000000E+00 0. -1.
          5    1    1    2  502    0 -0.23928690576E+02 -0.18544534913E+02 -0.14378529700E+03  0.14699716338E+03  0.41800000000E+01 0.  1.
         -5    1    1    2    0  502  0.56286219555E+02  0.25760486808E+02 -0.27977500790E+02  0.68058461214E+02  0.41800000000E+01 0.  1.
        -11    1    1    2    0    0 -0.55191770461E+02  0.20737580382E+02 -0.14560035069E+03  0.15708482068E+03  0.00000000000E+00 0.  1.
         11    1    1    2    0    0  0.22834241482E+02 -0.27953532277E+02 -0.14563146184E+03  0.15003774601E+03  0.00000000000E+00 0. -1.
</event>
<event>
 6    1  0.5317355E-006  0.1363467E+03  0.7561462E-02  0.1218331E+00
         -1   -1    0    0    0  501 -0.00000000000E+00  0.00000000000E+00  0.32445573771E+03  0.32445573771E+03  0.00000000000E+00 0.  1.
          1   -1    0    0  501    0  0.00000000000E+00 -0.00000000000E+00 -0.68561400045E+02  0.68561400045E+02  0.00000000000E+00 0. -1.
          5    1    1    2  502    0 -0.70345266409E+02 -0.10614065090E+03  0.80538415407E+02  0.15072558853E+03  0.41800000000E+01 0.  1.
         -5    1    1    2    0  502  0.62295370754E+01  0.27872363331E+02  0.44473909822E+02  0.53019589065E+02  0.41800000000E+01 0.  1.
        -11    1    1    2    0    0  0.41858367028E+01  0.49978837790E+02  0.95992737619E+01  0.51064190119E+02  0.00000000000E+00 0. -1.
         11    1    1    2    0    0  0.59929892631E+02  0.28289449783E+02  0.12128273868E+03  0.13820777004E+03  0.00000000000E+00 0.  1.
</event>
<event>
 6    1  0.5317355E-006  0.1752126E+03  0.7561462E-02  0.1172518E+00
         -2   -1    0    0    0  501 -0.00000000000E+00  0.00000000000E+00  0.41486176594E+02  0.41486176594E+02  0.00000000000E+00 0.  1.
          2   -1    0    0  501    0  0.00000000000E+00 -0.00000000000E+00 -0.85671646470E+03  0.85671646470E+03  0.00000000000E+00 0. -1.
          5    1    1    2  502    0 -0.70581932846E+01 -0.27053132208E+02 -0.11151053487E+03  0.11503808866E+03  0.41800000000E+01 0. -1.
         -5    1    1    2    0  502 -0.13001192475E+03  0.93167470779E+02 -0.25441946573E+03  0.30054952193E+03  0.41800000000E+01 0. -1.
        -11    1    1    2    0    0  0.58305042530E+02 -0.59190983957E+02 -0.32375216335E+03  0.33424319565E+03  0.00000000000E+00 0.  1.
         11    1    1    2    0    0  0.78765075507E+02 -0.69233546144E+01 -0.12554812415E+03  0.14837183505E+03  0.00000000000E+00 0. -1.
</event>
<event>
 6    1  0.5317355E-006  0.2508590E+03  0.7561462E-02  0.1112763E+00
         -2   -1    0    0    0  501 -0.00000000000E+00  0.00000000000E+00  0.51306408513E+02  0.51306408513E+02  0.00000000000E+00 0.  1.
          2   -1    0    0  501    0  0.00000000000E+00 -0.00000000000E+00 -0.12755382938E+04  0.12755382938E+04  0.00000000000E+00 0. -1.
          5    1    1    2  502    0  0.10085239384E+03 -0.31521708224E+02 -0.20336444261E+03  0.22921472979E+03  0.41800000000E+01 0. -1.
         -5    1    1    2    0  502  0.12498633967E+03  0.86010694362E+02 -0.47483027352E+03  0.49849843099E+03  0.41800000000E+01 0. -1.
        -11    1    1    2    0    0 -0.18851621780E+03 -0.73462247376E+02 -0.48053878474E+03  0.52139485019E+03  0.00000000000E+00 0.  1.
         11    1    1    2    0    0 -0.37322515706E+02  0.18973261239E+02 -0.65498384422E+02  0.77736691353E+02  0.00000000000E+00 0. -1.
</event>
<event>
 6    1  0.5317355E-006  0.1269230E+03  0.7561462E-02  0.1232094E+00
         -2   -1    0    0    0  501 -0.00000000000E+00  0.00000000000E+00  0.49966211627E+02  0.49966211627E+02  0.00000000000E+00 0.  1.
          2   -1    0    0  501    0  0.00000000000E+00 -0.00000000000E+00 -0.38511909194E+03  0.38511909194E+03  0.00000000000E+00 0. -1.
          5    1    1    2  502    0  0.17102835338E+02 -0.29027723787E+02 -0.38000811285E+02  0.50957332968E+02  0.41800000000E+01 0.  1.
         -5    1    1    2    0  502 -0.64999667776E+02  0.94441639433E+02 -0.10042310143E+03  0.15246787127E+03  0.41800000000E+01 0.  1.
        -11    1    1    2    0    0  0.26190053948E+02  0.89714434286E+01 -0.99027990723E+01  0.29401890287E+02  0.00000000000E+00 0.  1.
         11    1    1    2    0    0  0.21706778490E+02 -0.74385359075E+02 -0.18682616853E+03  0.20225820904E+03  0.00000000000E+00 0. -1.
</event>
<event>
 6    1  0.5317355E-006  0.1313083E+03  0.7561462E-02  0.1225527E+00
         -2   -1    0    0    0  501 -0.00000000000E+00  0.00000000000E+00  0.57486387811E+02  0.57486387811E+02  0.00000000000E+00 0.  1.
          2   -1    0    0  501    0  0.00000000000E+00 -0.00000000000E+00 -0.42260352824E+03  0.42260352824E+03  0.00000000000E+00 0. -1.
          5    1    1    2  502    0  0.21392219991E+02 -0.72477436974E+02 -0.17589882920E+03  0.19149014716E+03  0.41800000000E+01 0.  1.
         -5    1    1    2    0  502 -0.60939169175E+02 -0.30654771767E+02 -0.33043943186E+02  0.75912264839E+02  0.41800000000E+01 0.  1.
        -11    1    1    2    0    0  0.31504598733E+02  0.25471252915E+02 -0.11996928677E+03  0.12662525118E+03  0.00000000000E+00 0. -1.
         11    1    1    2    0    0  0.80423504510E+01  0.77660955825E+02 -0.36205081276E+02  0.86062252879E+02  0.00000000000E+00 0.  1.
</event>
<event>
 6    1  0.5317355E-006  0.4731905E+03  0.7561462E-02  0.1021024E+00
          2   -1    0    0  501    0  0.00000000000E+00  0.00000000000E+00  0.24271629441E+03  0.24271629441E+03  0.00000000000E+00 0. -1.
         -2   -1    0    0    0  501 -0.00000000000E+00 -0.00000000000E+00 -0.10485879774E+04  0.10485879774E+04  0.00000000000E+00 0.  1.
          5    1    1    2  502    0  0.10249868756E+03  0.60595181188E+02 -0.10634496617E+03  0.15970122468E+03  0.41800000000E+01 0. -1.
         -5    1    1    2    0  502  0.18401027346E+03  0.30329165302E+03 -0.51260115946E+03  0.62339636557E+03  0.41800000000E+01 0. -1.
        -11    1    1    2    0    0 -0.15175608877E+03 -0.26480139733E+03 -0.12611424967E+03  0.33023399958E+03  0.00000000000E+00 0. -1.
         11    1    1    2    0    0 -0.13475287224E+03 -0.99085436877E+02 -0.60811307659E+02  0.17797268194E+03  0.00000000000E+00 0.  1.
</event>
<event>
 6    1  0.5317355E-006  0.8566870E+02  0.7561462E-02  0.1313693E+00
         -2   -1    0    0    0  501 -0.00000000000E+00  0.00000000000E+00  0.31630606167E+02  0.31630606167E+02  0.00000000000E+00 0.  1.
          2   -1    0    0  501    0  0.00000000000E+00 -0.00000000000E+00 -0.53401106014E+03  0.53401106014E+03  0.00000000000E+00 0. -1.
          5    1    1    2  502    0  0.16444839304E+02 -0.79045261872E+01 -0.16352220910E+01  0.18789907538E+02  0.41800000000E+01 0.  1.
         -5    1    1    2    0  502 -0.29997709577E+02  0.67511988106E+02 -0.38748199310E+03  0.39448383807E+03  0.41800000000E+01 0.  1.
        -11    1    1    2    0    0 -0.18848280193E+02 -0.20830659265E+02 -0.94299213956E+02  0.98394693883E+02  0.00000000000E+00 0. -1.
         11    1    1    2    0    0  0.32401150466E+02 -0.38776802655E+02 -0.18964024823E+02  0.53973226818E+02  0.00000000000E+00 0.  1.
</event>
<event>
 6    1  0.5317355E-006  0.1726509E+03  0.7561462E-02  0.1175111E+00
          1   -1    0    0  501    0  0.00000000000E+00  0.00000000000E+00  0.50097505486E+03  0.50097505486E+03  0.00000000000E+00 0. -1.
         -1   -1    0    0    0  501 -0.00000000000E+00 -0.00000000000E+00 -0.70955709396E+02  0.70955709396E+02  0.00000000000E+00 0.  1.
          5    1    1    2  502    0 -0.12616820221E+03 -0.18061808805E+01  0.91576022811E+02  0.15596575871E+03  0.41800000000E+01 0.  1.
         -5    1    1    2    0  502 -0.17437794998E+02  0.58027146197E+02  0.11818696449E+03  0.13287910808E+03  0.41800000000E+01 0.  1.
        -11    1    1    2    0    0  0.10171689334E+03 -0.56644299115E+02  0.92687387779E+02  0.14881483416E+03  0.00000000000E+00 0.  1.
         11    1    1    2    0    0  0.41889103867E+02  0.42333379830E+00  0.12756897039E+03  0.13427106330E+03  0.00000000000E+00 0. -1.
</event>
<event>
 6    1  0.5317355E-006  0.1312641E+03  0.7561462E-02  0.1225592E+00
          1   -1    0    0  501    0  0.00000000000E+00  0.00000000000E+00  0.22169811864E+03  0.22169811864E+03  0.00000000000E+00 0. -1.
         -1   -1    0    0    0  501 -0.00000000000E+00 -0.00000000000E+00 -0.11114591686E+03  0.11114591686E+03  0.00000000000E+00 0.  1.
          5    1    1    2  502    0 -0.57717761493E+02  0.43228233909E+02 -0.30535597922E+02  0.78421395927E+02  0.41800000000E+01 0. -1.
         -5    1    1    2    0  502 -0.53674642098E+02 -0.54500174969E+02  0.47904304790E+02  0.90352261141E+02  0.41800000000E+01 0. -1.
        -11    1    1    2    0    0  0.33444640849E+02  0.12572990091E+02  0.76376292775E+02  0.84320591669E+02  0.00000000000E+00 0. -1.
         11    1    1    2    0    0  0.77947762741E+02 -0.13010490318E+01  0.16807202138E+02  0.79749786763E+02  0.00000000000E+00 0.  1.
</event>
<event>
 6    1  0.5317355E-006  0.1008073E+03  0.7561462E-02  0.1278607E+00
          1   -1    0    0  501    0  0.00000000000E+00  0.00000000000E+00  0.76923116024E+03  0.76923116024E+03  0.00000000000E+00 0. -1.
         -1   -1    0    0    0  501 -0.00000000000E+00 -0.00000000000E+00 -0.21319832827E+02  0.21319832827E+02  0.00000000000E+00 0.  1.
          5    1    1    2  502    0  0.17271557622E+02  0.71733704481E+02  0.26931513746E+03  0.27927074091E+03  0.41800000000E+01 0.  1.
         -5    1    1    2    0  502 -0.28410754768E+01 -0.24404453593E+02  0.38467848832E+01  0.25217438787E+02  0.41800000000E+01 0.  1.
        -11    1    1    2    0    0 -0.93460266094E+01  0.26853526355E+02  0.97790165521E+02  0.10183995563E+03  0.00000000000E+00 0.  1.
         11    1    1    2    0    0 -0.50844555356E+01 -0.74182777243E+02  0.37695923954E+03  0.38422285773E+03  0.00000000000E+00 0. -1.
</event>
<event>
 6    1  0.5317355E-006  0.1096908E+03  0.7561462E-02  0.1261144E+00
          1   -1    0    0  501    0  0.00000000000E+00  0.00000000000E+00  0.52062426748E+02  0.52062426748E+02  0.00000000000E+00 0. -1.
         -1   -1    0    0    0  501 -0.00000000000E+00 -0.00000000000E+00 -0.24908230623E+03  0.24908230623E+03  0.00000000000E+00 0.  1.
          5    1    1    2  502    0  0.69174404594E+02 -0.33604207200E+02 -0.72684357223E+02  0.10590009054E+03  0.41800000000E+01 0.  1.
         -5    1    1    2    0  502 -0.44539431280E+02  0.20466135903E+02 -0.74443027893E+02  0.89229257867E+02  0.41800000000E+01 0.  1.
        -11    1    1    2    0    0 -0.57949622800E+02  0.14810175174E+02 -0.36507317312E+02  0.70073420701E+02  0.00000000000E+00 0.  1.
         11    1    1    2    0    0  0.33314649486E+02 -0.16721038777E+01 -0.13385177052E+02  0.35941963865E+02  0.00000000000E+00 0. -1.
</event>
<event>
 6    1  0.5317355E-006  0.1722315E+03  0.7561462E-02  0.1175541E+00
          1   -1    0    0  501    0  0.00000000000E+00  0.00000000000E+00  0.10727346003E+04  0.10727346003E+04  0.00000000000E+00 0. -1.
         -1   -1    0    0    0  501 -0.00000000000E+00 -0.00000000000E+00 -0.36394669999E+02  0.36394669999E+02  0.00000000000E+00 0.  1.
          5    1    1    2  502    0  0.46633785795E+02 -0.33676912620E+02  0.54417014938E+02  0.79293936312E+02  0.41800000000E+01 0.  1.
         -5    1    1    2    0  502  0.11770772522E+03  0.26783992543E+02  0.44689271096E+03  0.46292878323E+03  0.41800000000E+01 0.  1.
        -11    1    1    2    0    0 -0.12245381536E+03  0.14889510603E+02  0.48831319039E+03  0.50365306147E+03  0.00000000000E+00 0. -1.
         11    1    1    2    0    0 -0.41887695656E+02 -0.79965905271E+01  0.46717013990E+02  0.63253489260E+02  0.00000000000E+00 0.  1.
</event>
<event>
 6    1  0.5317355E-006  0.9990466E+02  0.7561462E-02  0.1280497E+00
          1   -1    0    0  501    0  0.00000000000E+00  0.00000000000E+00  0.63800343666E+03  0.63800343666E+03  0.00000000000E+00 0. -1.
         -1   -1    0    0    0  501 -0.00000000000E+00 -0.00000000000E+00 -0.18610350651E+02  0.18610350651E+02  0.00000000000E+00 0.  1.
          5    1    1    2  502    0  0.58203258037E+02  0.36186984766E+02  0.17664912622E+03  0.18952441348E+03  0.41800000000E+01 0.  1.
         -5    1    1    2    0  502 -0.45468230604E+02 -0.30911402197E+02  0.20815349759E+03  0.21533282550E+03  0.41800000000E+01 0.  1.
        -11    1    1    2    0    0  0.23294909618E+02  0.21040145196E+02  0.17229723401E+03  0.17513331314E+03  0.00000000000E+00 0. -1.
         11    1    1    2    0    0 -0.36029937050E+02 -0.26315727765E+02  0.62293228194E+02  0.76623235187E+02  0.00000000000E+00 0.  1.
</event>
<event>
 6    1  0.5317355E-006  0.1452635E+03  0.7561462E-02  0.1206417E+00
          1   -1    0    0  501    0  0.00000000000E+00  0.00000000000E+00  0.23099277098E+03  0.23099277098E+03  0.00000000000E+00 0.  1.
         -1   -1    0    0    0  501 -0.00000000000E+00 -0.00000000000E+00 -0.11277610983E+03  0.11277610983E+03  0.00000000000E+00 0. -1.
          5    1    1    2  502    0 -0.65460299841E+02 -0.11314090849E+02 -0.19443051394E+02  0.69343811220E+02  0.41800000000E+01 0. -1.
         -5    1    1    2    0  502 -0.43591380458E+01 -0.84945800774E+02  0.70448074760E+02  0.11052237235E+03  0.41800000000E+01 0. -1.
        -11    1    1    2    0    0 -0.14340698650E+02  0.23613908788E+02 -0.90632817238E+01  0.29076027955E+02  0.00000000000E+00 0. -1.
         11    1    1    2    0    0  0.84160136537E+02  0.72645982834E+02  0.76274919503E+02  0.13482666928E+03  0.00000000000E+00 0.  1.
</event>
<event>
 6    1  0.5317355E-006  0.1393436E+03  0.7561462E-02  0.1214215E+00
         -1   -1    0    0    0  501 -0.00000000000E+00  0.00000000000E+00  0.15184796008E+03  0.15184796008E+03  0.00000000000E+00 0.  1.
          1   -1    0    0  501    0  0.00000000000E+00 -0.00000000000E+00 -0.18507928101E+03  0.18507928101E+03  0.00000000000E+00 0. -1.
          5    1    1    2  502    0  0.61355107215E+01 -0.54010021275E+02  0.52250787952E+02  0.75513867147E+02  0.41800000000E+01 0. -1.
         -5    1    1    2    0  502  0.94678962099E+02  0.20141974821E+02  0.32815729416E+00  0.96888518933E+02  0.41800000000E+01 0. -1.
        -11    1    1    2    0    0  0.16234310665E+01 -0.14082806546E+02  0.91241000435E+01  0.16858534048E+02  0.00000000000E+00 0.  1.
         11    1    1    2    0    0 -0.10243790389E+03  0.47950853000E+02 -0.94934366221E+02  0.14766632096E+03  0.00000000000E+00 0. -1.
</event>
<event>
 6    1  0.5317355E-006  0.1246289E+03  0.7561462E-02  0.1235650E+00
          3   -1    0    0  501    0  0.00000000000E+00  0.00000000000E+00  0.12925953891E+03  0.12925953891E+03  0.00000000000E+00 0. -1.
         -3   -1    0    0    0  501 -0.00000000000E+00 -0.00000000000E+00 -0.14799994708E+03  0.14799994708E+03  0.00000000000E+00 0.  1.
          5    1    1    2  502    0  0.20782757385E+02 -0.10160108961E+03 -0.16368699481E+02  0.10507193316E+03  0.41800000000E+01 0. -1.
         -5    1    1    2    0  502  0.11409644273E+02  0.33606091221E+02 -0.34048538844E+02  0.49359140461E+02  0.41800000000E+01 0. -1.
        -11    1    1    2    0    0 -0.36101634867E+02 -0.51647651444E+01  0.33530455850E+02  0.49540834759E+02  0.00000000000E+00 0.  1.
         11    1    1    2    0    0  0.39092332091E+01  0.73159763534E+02 -0.18536256883E+01  0.73287577616E+02  0.00000000000E+00 0. -1.
</event>
<event>
 6    1  0.5317355E-006  0.1193316E+03  0.7561462E-02  0.1244204E+00
         -2   -1    0    0    0  501 -0.00000000000E+00  0.00000000000E+00  0.17911437774E+04  0.17911437774E+04  0.00000000000E+00 0.  1.
          2   -1    0    0  501    0  0.00000000000E+00 -0.00000000000E+00 -0.17484201000E+02  0.17484201000E+02  0.00000000000E+00 0. -1.
          5    1    1    2  502    0  0.11376644701E+02 -0.65103693596E+01  0.77453418321E+03  0.77465636660E+03  0.41800000000E+01 0. -1.
         -5    1    1    2    0  502 -0.40089761177E+02  0.99760879311E+02  0.67317035068E+03  0.68171490773E+03  0.41800000000E+01 0. -1.
        -11    1    1    2    0    0 -0.19114780612E+02 -0.47163485587E+02  0.62704944908E+02  0.80756915038E+02  0.00000000000E+00 0. -1.
         11    1    1    2    0    0  0.47827897088E+02 -0.46087024365E+02  0.26325009759E+03  0.27149978902E+03  0.00000000000E+00 0.  1.
</event>
<event>
 6    1  0.5317355E-006  0.9691980E+02  0.7561462E-02  0.1286910E+00
          1   -1    0    0  501    0  0.00000000000E+00  0.00000000000E+00  0.37526122831E+03  0.37526122831E+03  0.00000000000E+00 0. -1.
         -1   -1    0    0    0  501 -0.00000000000E+00 -0.00000000000E+00 -0.38934311557E+02  0.38934311557E+02  0.00000000000E+00 0.  1.
          5    1    1    2  502    0  0.30296841045E+02  0.58146503688E+02  0.14261512251E+03  0.15702057202E+03  0.41800000000E+01 0. -1.
         -5    1    1    2    0  502  0.24458164454E+01 -0.30071415152E+02 -0.82511950194E+01  0.31556721100E+02  0.41800000000E+01 0. -1.
        -11    1    1    2    0    0  0.67678419875E+01  0.28155620064E+02  0.37540773705E+02  0.47411520928E+02  0.00000000000E+00 0. -1.
         11    1    1    2    0    0 -0.39510499478E+02 -0.56230708600E+02  0.16442221556E+03  0.17820672583E+03  0.00000000000E+00 0.  1.
</event>
<event>
 6    1  0.5317355E-006  0.7284392E+02  0.7561462E-02  0.1350681E+00
          1   -1    0    0  501    0  0.00000000000E+00  0.00000000000E+00  0.13409320198E+03  0.13409320198E+03  0.00000000000E+00 0. -1.
         -1   -1    0    0    0  501 -0.00000000000E+00 -0.00000000000E+00 -0.10394763093E+03  0.10394763093E+03  0.00000000000E+00 0.  1.
          5    1    1    2  502    0 -0.52314420564E+02 -0.22510915370E+02  0.35471545923E+02  0.67225314279E+02  0.41800000000E+01 0. -1.
         -5    1    1    2    0  502  0.37064293489E+02 -0.94299691264E+01 -0.50738483575E+02  0.63675366391E+02  0.41800000000E+01 0. -1.
        -11    1    1    2    0    0  0.26543886505E+02  0.17569944505E+02 -0.21081403948E+02  0.38179922120E+02  0.00000000000E+00 0.  1.
         11    1    1    2    0    0 -0.11293759430E+02  0.14370939992E+02  0.66493912656E+02  0.68960230123E+02  0.00000000000E+00 0. -1.
</event>
<event>
 6    1  0.5317355E-006  0.1211789E+03  0.7561462E-02  0.1241165E+00
         -1   -1    0    0    0  501 -0.00000000000E+00  0.00000000000E+00  0.36728794809E+02  0.36728794809E+02  0.00000000000E+00 0.  1.
          1   -1    0    0  501    0  0.00000000000E+00 -0.00000000000E+00 -0.50979852301E+03  0.50979852301E+03  0.00000000000E+00 0. -1.
          5    1    1    2  502    0  0.95045369481E+02 -0.18995259580E+02 -0.84731358459E+02  0.12880728882E+03  0.41800000000E+01 0. -1.
         -5    1    1    2    0  502 -0.91370690277E+02  0.25222634562E+02 -0.27653139936E+03  0.29235572778E+03  0.41800000000E+01 0.  1.
        -11    1    1    2    0    0  0.22134087277E+02  0.43723517582E+01 -0.79682993947E+02  0.82815546873E+02  0.00000000000E+00 0. -1.
         11    1    1    2    0    0 -0.25808766480E+02 -0.10599726740E+02 -0.32123976433E+02  0.42548754342E+02  0.00000000000E+00 0.  1.
</event>
<event>
 6    1  0.9382385E-006  0.3756542E+03  0.7561462E-02  0.1052552E+00
          1   -1    0    0  501    0  0.00000000000E+00  0.00000000000E+00  0.57676700397E+03  0.57676700397E+03  0.00000000000E+00 0. -1.
         -1   -1    0    0    0  501 -0.00000000000E+00 -0.00000000000E+00 -0.25764538990E+03  0.25764538990E+03  0.00000000000E+00 0.  1.
          5    1    1    2  502    0 -0.21104185410E+02  0.25184315184E+02  0.24810290110E+02  0.41384287700E+02  0.41800000000E+01 0. -1.
         -5    1    1    2    0  502  0.13278230202E+03  0.32021823963E+03  0.60202330426E+02  0.35187022283E+03  0.41800000000E+01 0. -1.
        -11    1    1    2    0    0 -0.12869958138E+02 -0.16758067586E+03  0.81155141832E+02  0.18664157037E+03  0.00000000000E+00 0.  1.
         11    1    1    2    0    0 -0.98808158474E+02 -0.17782187896E+03  0.15295385171E+03  0.25451631297E+03  0.00000000000E+00 0. -1.
</event>
<event>
 6    1  0.5317355E-006  0.9265408E+02  0.7561462E-02  0.1296549E+00
         -1   -1    0    0    0  501 -0.00000000000E+00  0.00000000000E+00  0.38529456137E+03  0.38529456137E+03  0.00000000000E+00 0.  1.
          1   -1    0    0  501    0  0.00000000000E+00 -0.00000000000E+00 -0.33486528503E+02  0.33486528503E+02  0.00000000000E+00 0. -1.
          5    1    1    2  502    0 -0.18764893650E+02 -0.50328410137E+02  0.84175181124E+02  0.99940000089E+02  0.41800000000E+01 0. -1.
         -5    1    1    2    0  502  0.12289499835E+02  0.52464200351E+02  0.18452070759E+03  0.19227295196E+03  0.41800000000E+01 0.  1.
        -11    1    1    2    0    0  0.10602061764E+02 -0.38937103153E+02  0.79756357317E+02  0.89384440750E+02  0.00000000000E+00 0. -1.
         11    1    1    2    0    0 -0.41266679490E+01  0.36801312939E+02  0.33557868263E+01  0.37183697068E+02  0.00000000000E+00 0.  1.
</event>
<event>
 6    1  0.5317355E-006  0.1807385E+03  0.7561462E-02  0.1167090E+00
         -4   -1    0    0    0  501 -0.00000000000E+00  0.00000000000E+00  0.20942257537E+03  0.20942257537E+03  0.00000000000E+00 0. -1.
          4   -1    0    0  501    0  0.00000000000E+00 -0.00000000000E+00 -0.16654703574E+03  0.16654703574E+03  0.00000000000E+00 0.  1.
          5    1    1    2  502    0 -0.25345503002E+02 -0.84217271635E+02  0.10506541399E+02  0.88672448800E+02  0.41800000000E+01 0. -1.
         -5    1    1    2    0  502  0.95782823158E+02 -0.50554984500E+02  0.28322252573E+02  0.11202579194E+03  0.41800000000E+01 0. -1.
        -11    1    1    2    0    0 -0.45837212239E+02  0.24330579046E+02 -0.26223833973E+02  0.58143929785E+02  0.00000000000E+00 0.  1.
         11    1    1    2    0    0 -0.24600107916E+02  0.11044167709E+03  0.30270579631E+02  0.11712744059E+03  0.00000000000E+00 0. -1.
</event>
<event>
 6    1  0.5317355E-006  0.1014851E+03  0.7561462E-02  0.1277204E+00
          1   -1    0    0  501    0  0.00000000000E+00  0.00000000000E+00  0.14234841472E+03  0.14234841472E+03  0.00000000000E+00 0.  1.
         -1   -1    0    0    0  501 -0.00000000000E+00 -0.00000000000E+00 -0.13551047134E+03  0.13551047134E+03  0.00000000000E+00 0. -1.
          5    1    1    2  502    0  0.49416915297E+02 -0.37195848198E+02 -0.50716057669E+02  0.80094653668E+02  0.41800000000E+01 0. -1.
         -5    1    1    2    0  502 -0.32879101775E+02 -0.45551874367E+02  0.43183265595E+02  0.70980810219E+02  0.41800000000E+01 0. -1.
        -11    1    1    2    0    0 -0.11593000759E+01  0.20217679915E+02  0.49463556734E+02  0.53448498600E+02  0.00000000000E+00 0.  1.
         11    1    1    2    0    0 -0.15378513445E+02  0.62530042650E+02 -0.35092821280E+02  0.73334923569E+02  0.00000000000E+00 0. -1.
</event>
<event>
 6    1  0.5317355E-006  0.9284883E+02  0.7561462E-02  0.1296096E+00
          2   -1    0    0  501    0  0.00000000000E+00  0.00000000000E+00  0.72059038696E+03  0.72059038696E+03  0.00000000000E+00 0. -1.
         -2   -1    0    0    0  501 -0.00000000000E+00 -0.00000000000E+00 -0.17359013873E+02  0.17359013873E+02  0.00000000000E+00 0.  1.
          5    1    1    2  502    0  0.17747150636E+02 -0.31016177536E+02  0.29178789372E+03  0.29399763936E+03  0.41800000000E+01 0. -1.
         -5    1    1    2    0  502  0.24529646878E+01  0.57142559217E+02  0.71606458319E+02  0.91740102368E+02  0.41800000000E+01 0. -1.
        -11    1    1    2    0    0  0.26155440897E+02  0.15215290694E+02  0.10153737821E+03  0.10595023045E+03  0.00000000000E+00 0.  1.
         11    1    1    2    0    0 -0.46355556221E+02 -0.41341672375E+02  0.23829964283E+03  0.24626142865E+03  0.00000000000E+00 0. -1.
</event>
<event>
 6    1  0.5317355E-006  0.4249426E+02  0.7561462E-02  0.1490620E+00
          1   -1    0    0  501    0  0.00000000000E+00  0.00000000000E+00  0.10980611131E+03  0.10980611131E+03  0.00000000000E+00 0. -1.
         -1   -1    0    0    0  501 -0.00000000000E+00 -0.00000000000E+00 -0.11460507139E+03  0.11460507139E+03  0.00000000000E+00 0.  1.
          5    1    1    2  502    0 -0.17129837524E+01 -0.33951506776E+01  0.52747891022E+02  0.53049729205E+02  0.41800000000E+01 0. -1.
         -5    1    1    2    0  502  0.13563258232E+02 -0.19105452866E+02 -0.72266535344E+02  0.76084852854E+02  0.41800000000E+01 0. -1.
        -11    1    1    2    0    0  0.17869555004E+01  0.36178450764E+02 -0.29698365606E+02  0.46840862816E+02  0.00000000000E+00 0.  1.
         11    1    1    2    0    0 -0.13637229980E+02 -0.13677847221E+02  0.44418049853E+02  0.48435737827E+02  0.00000000000E+00 0. -1.
</event>
<event>
 6    1  0.5317355E-006  0.9759058E+02  0.7561462E-02  0.1285446E+00
         -2   -1    0    0    0  501 -0.00000000000E+00  0.00000000000E+00  0.22999642668E+03  0.22999642668E+03  0.00000000000E+00 0. -1.
          2   -1    0    0  501    0  0.00000000000E+00 -0.00000000000E+00 -0.63815106072E+02  0.63815106072E+02  0.00000000000E+00 0.  1.
          5    1    1    2  502    0  0.38234992895E+02  0.56051476599E+02  0.71008008109E+02  0.98302046399E+02  0.41800000000E+01 0. -1.
         -5    1    1    2    0  502 -0.14925405599E+02 -0.56336744792E+02  0.82310110239E+02  0.10094069147E+03  0.41800000000E+01 0. -1.
        -11    1    1    2    0    0 -0.32575807077E+02 -0.25501859738E+02 -0.24616720751E+02  0.48140533829E+02  0.00000000000E+00 0.  1.
         11    1    1    2    0    0  0.92662197818E+01  0.25787127932E+02  0.37479923009E+02  0.46428261057E+02  0.00000000000E+00 0. -1.
</event>
<event>
 6    1  0.5317355E-006  0.1087109E+03  0.7561462E-02  0.1262976E+00
         -3   -1    0    0    0  501 -0.00000000000E+00  0.00000000000E+00  0.32708479357E+02  0.32708479357E+02  0.00000000000E+00 0.  1.
          3   -1    0    0  501    0  0.00000000000E+00 -0.00000000000E+00 -0.41781381205E+03  0.41781381205E+03  0.00000000000E+00 0. -1.
          5    1    1    2  502    0  0.41395637846E+02  0.64158484621E+02 -0.83927015762E+02  0.11353909616E+03  0.41800000000E+01 0.  1.
         -5    1    1    2    0  502 -0.78360386469E+01 -0.47800328114E+02 -0.10958391397E+03  0.11988486756E+03  0.41800000000E+01 0.  1.
        -11    1    1    2    0    0 -0.49710778228E+01  0.34035769859E+02 -0.30753333199E+02  0.46140142474E+02  0.00000000000E+00 0.  1.
         11    1    1    2    0    0 -0.28588521376E+02 -0.50393926367E+02 -0.16084106976E+03  0.17095818521E+03  0.00000000000E+00 0. -1.
</event>
<event>
 6    1  0.5317355E-006  0.1656556E+03  0.7561462E-02  0.1182456E+00
          2   -1    0    0  501    0  0.00000000000E+00  0.00000000000E+00  0.18070447866E+03  0.18070447866E+03  0.00000000000E+00 0. -1.
         -2   -1    0    0    0  501 -0.00000000000E+00 -0.00000000000E+00 -0.20248623482E+03  0.20248623482E+03  0.00000000000E+00 0.  1.
          5    1    1    2  502    0  0.51556858018E+02 -0.82550149120E+01 -0.24203213350E+00  0.52381159393E+02  0.41800000000E+01 0.  1.
         -5    1    1    2    0  502 -0.20127739111E+02 -0.11797081741E+03 -0.87233318216E+02  0.14815317698E+03  0.41800000000E+01 0.  1.
        -11    1    1    2    0    0 -0.61895406022E+02  0.10555999284E+03  0.76470674458E+02  0.14429732301E+03  0.00000000000E+00 0. -1.
         11    1    1    2    0    0  0.30466287115E+02  0.20665839480E+02 -0.10777080268E+02  0.38359054096E+02  0.00000000000E+00 0.  1.
</event>
<event>
 6    1  0.5317355E-006  0.1684140E+03  0.7561462E-02  0.1179512E+00
         -3   -1    0    0    0  501 -0.00000000000E+00  0.00000000000E+00  0.34942617117E+03  0.34942617117E+03  0.00000000000E+00 0.  1.
          3   -1    0    0  501    0  0.00000000000E+00 -0.00000000000E+00 -0.10915712836E+03  0.10915712836E+03  0.00000000000E+00 0. -1.
          5    1    1    2  502    0 -0.27687838653E+02 -0.45049195612E+02 -0.10594986414E+01  0.53053193796E+02  0.41800000000E+01 0. -1.
         -5    1    1    2    0  502 -0.12043939378E+03 -0.85047055637E+01  0.17626543961E+03  0.21369360120E+03  0.41800000000E+01 0. -1.
        -11    1    1    2    0    0  0.14068324150E+03  0.37991741813E+02  0.24513992463E+02  0.14777037156E+03  0.00000000000E+00 0. -1.
         11    1    1    2    0    0  0.74439909394E+01  0.15562159363E+02  0.40549109373E+02  0.44066132983E+02  0.00000000000E+00 0.  1.
</event>
<event>
 6    1  0.5317355E-006  0.1170796E+03  0.7561462E-02  0.1247994E+00
          1   -1    0    0  501    0  0.00000000000E+00  0.00000000000E+00  0.34852783009E+03  0.34852783009E+03  0.00000000000E+00 0. -1.
         -1   -1    0    0    0  501 -0.00000000000E+00 -0.00000000000E+00 -0.57929758814E+02  0.57929758814E+02  0.00000000000E+00 0.  1.
          5    1    1    2  502    0  0.54183768065E+02  0.11266331363E+02  0.16274620435E+02  0.57837242451E+02  0.41800000000E+01 0. -1.
         -5    1    1    2    0  502 -0.50886733409E+02 -0.75361184721E+02  0.65460683247E+02  0.11212199272E+03  0.41800000000E+01 0.  1.
        -11    1    1    2    0    0 -0.20288113918E+02 -0.10407566383E+01  0.37968891980E+01  0.20666569824E+02  0.00000000000E+00 0.  1.
         11    1    1    2    0    0  0.16991079263E+02  0.65135609996E+02  0.20506587839E+03  0.21583178391E+03  0.00000000000E+00 0. -1.
</event>
<event>
 6    1  0.5317355E-006  0.9891875E+02  0.7561462E-02  0.1282586E+00
          2   -1    0    0  501    0  0.00000000000E+00  0.00000000000E+00  0.21660214554E+03  0.21660214554E+03  0.00000000000E+00 0. -1.
         -2   -1    0    0    0  501 -0.00000000000E+00 -0.00000000000E+00 -0.87016624762E+02  0.87016624762E+02  0.00000000000E+00 0.  1.
          5    1    1    2  502    0 -0.38604370215E+02 -0.25888605067E+02 -0.36151475947E+02  0.59033201549E+02  0.41800000000E+01 0. -1.
         -5    1    1    2    0  502 -0.12400472980E+02  0.65180867982E+02  0.48311224131E+02  0.82181287761E+02  0.41800000000E+01 0. -1.
        -11    1    1    2    0    0  0.18867377185E+02 -0.47845209354E+02  0.13337179437E+02  0.53132121502E+02  0.00000000000E+00 0.  1.
         11    1    1    2    0    0  0.32137466009E+02  0.85529464385E+01  0.10408859315E+03  0.10927215949E+03  0.00000000000E+00 0. -1.
</event>
<event>
 6    1  0.5317355E-006  0.1024646E+03  0.7561462E-02  0.1275197E+00
          3   -1    0    0  501    0  0.00000000000E+00  0.00000000000E+00  0.67145488576E+03  0.67145488576E+03  0.00000000000E+00 0. -1.
         -3   -1    0    0    0  501 -0.00000000000E+00 -0.00000000000E+00 -0.29208052553E+02  0.29208052553E+02  0.00000000000E+00 0.  1.
          5    1    1    2  502    0  0.61311959048E+02  0.42009649429E+02  0.39871421537E+03  0.40560382753E+03  0.41800000000E+01 0. -1.
         -5    1    1    2    0  502  0.19745045046E+02 -0.17009941245E+02  0.69420341976E+01  0.27292290923E+02  0.41800000000E+01 0. -1.
        -11    1    1    2    0    0 -0.69399880945E+02  0.72731917747E+01  0.74467346133E+02  0.10205208687E+03  0.00000000000E+00 0.  1.
         11    1    1    2    0    0 -0.11657123149E+02 -0.32272899959E+02  0.16212323751E+03  0.16571473300E+03  0.00000000000E+00 0. -1.
</event>
<event>
 6    1  0.5317355E-006  0.1054759E+03  0.7561462E-02  0.1269185E+00
          4   -1    0    0  501    0  0.00000000000E+00  0.00000000000E+00  0.10657440367E+03  0.10657440367E+03  0.00000000000E+00 0. -1.
         -4   -1    0    0    0  501 -0.00000000000E+00 -0.00000000000E+00 -0.14757217221E+03  0.14757217221E+03  0.00000000000E+00 0.  1.
          5    1    1    2  502    0  0.23889857888E+02 -0.97084827504E+02 -0.31163451934E+02  0.10480850241E+03  0.41800000000E+01 0.  1.
         -5    1    1    2    0  502 -0.18998376450E+02  0.34271712324E+02 -0.40992876840E+01  0.39620261645E+02  0.41800000000E+01 0.  1.
        -11    1    1    2    0    0  0.70688290197E+01  0.58245677398E+02  0.34109164718E+02  0.67867240971E+02  0.00000000000E+00 0. -1.
         11    1    1    2    0    0 -0.11960310458E+02  0.45674377817E+01 -0.39844193637E+02  0.41850570853E+02  0.00000000000E+00 0.  1.
</event>
<event>
 6    1  0.5317355E-006  0.2376604E+03  0.7561462E-02  0.1121361E+00
          2   -1    0    0  501    0  0.00000000000E+00  0.00000000000E+00  0.25876103295E+04  0.25876103295E+04  0.00000000000E+00 0. -1.
         -2   -1    0    0    0  501 -0.00000000000E+00 -0.00000000000E+00 -0.22597991097E+02  0.22597991097E+02  0.00000000000E+00 0.  1.
          5    1    1    2  502    0 -0.81201177562E+02  0.21458491626E+03  0.12216537582E+04  0.12430187830E+04  0.41800000000E+01 0. -1.
         -5    1    1    2    0  502  0.48672474724E+01 -0.79829077018E+01  0.15903193109E+02  0.18915624874E+02  0.41800000000E+01 0.  1.
        -11    1    1    2    0    0  0.92701068457E+02 -0.14692091255E+03  0.10127496149E+04  0.10275412522E+04  0.00000000000E+00 0. -1.
         11    1    1    2    0    0 -0.16367138368E+02 -0.59681096005E+02  0.31470577226E+03  0.32073266053E+03  0.00000000000E+00 0.  1.
</event>
<event>
 6    1  0.5317355E-006  0.8039518E+02  0.7561462E-02  0.1327934E+00
         -1   -1    0    0    0  501 -0.00000000000E+00  0.00000000000E+00  0.41850265277E+02  0.41850265277E+02  0.00000000000E+00 0.  1.
          1   -1    0    0  501    0  0.00000000000E+00 -0.00000000000E+00 -0.32454166309E+03  0.32454166309E+03  0.00000000000E+00 0. -1.
          5    1    1    2  502    0 -0.15629942573E+02  0.19155419523E+02 -0.11451770187E+03  0.11723054910E+03  0.41800000000E+01 0.  1.
         -5    1    1    2    0  502  0.13691182111E+02 -0.41382758869E+02  0.12697053067E+02  0.45592419938E+02  0.41800000000E+01 0.  1.
        -11    1    1    2    0    0  0.71407858225E+01 -0.34363883609E+02 -0.87316432633E+02  0.94106464850E+02  0.00000000000E+00 0.  1.
         11    1    1    2    0    0 -0.52020253604E+01  0.56591222955E+02 -0.93554316374E+02  0.10946249447E+03  0.00000000000E+00 0. -1.
</event>
<event>
 6    1  0.5317355E-006  0.1921820E+03  0.7561462E-02  0.1156508E+00
         -2   -1    0    0    0  501 -0.00000000000E+00  0.00000000000E+00  0.18658893465E+03  0.18658893465E+03  0.00000000000E+00 0.  1.
          2   -1    0    0  501    0  0.00000000000E+00 -0.00000000000E+00 -0.31056169563E+03  0.31056169563E+03  0.00000000000E+00 0. -1.
          5    1    1    2  502    0  0.52059698038E+02 -0.16122316661E+03 -0.76456477919E+01  0.16964389156E+03  0.41800000000E+01 0.  1.
         -5    1    1    2    0  502  0.24301424565E+02 -0.91702197663E+01  0.53668586283E+02  0.59769906475E+02  0.41800000000E+01 0.  1.
        -11    1    1    2    0    0 -0.41016835989E+02  0.12162385429E+03 -0.58594432378E+02  0.14109589034E+03  0.00000000000E+00 0.  1.
         11    1    1    2    0    0 -0.35344286614E+02  0.48769532091E+02 -0.11140126709E+03  0.12664094190E+03  0.00000000000E+00 0. -1.
</event>
<event>
 6    1  0.5317355E-006  0.1253785E+03  0.7561462E-02  0.1234479E+00
         -1   -1    0    0    0  501 -0.00000000000E+00  0.00000000000E+00  0.95097610547E+02  0.95097610547E+02  0.00000000000E+00 0.  1.
          1   -1    0    0  501    0  0.00000000000E+00 -0.00000000000E+00 -0.21717138355E+03  0.21717138355E+03  0.00000000000E+00 0. -1.
          5    1    1    2  502    0  0.21251759680E+01  0.29868481049E+02  0.15515696203E+02  0.33983109948E+02  0.41800000000E+01 0. -1.
         -5    1    1    2    0  502 -0.27729020958E+02 -0.10249793141E+03 -0.13069831340E+02  0.10706548200E+03  0.41800000000E+01 0.  1.
        -11    1    1    2    0    0  0.34413982362E+02  0.89135312623E+02 -0.11699554976E+03  0.15105424457E+03  0.00000000000E+00 0. -1.
         11    1    1    2    0    0 -0.88101373719E+01 -0.16505862267E+02 -0.75240881129E+01  0.20166157582E+02  0.00000000000E+00 0.  1.
</event>
<event>
 6    1  0.5317355E-006  0.1598048E+03  0.7561462E-02  0.1188917E+00
         -3   -1    0    0    0  501 -0.00000000000E+00  0.00000000000E+00  0.50965464624E+02  0.50965464624E+02  0.00000000000E+00 0.  1.
          3   -1    0    0  501    0  0.00000000000E+00 -0.00000000000E+00 -0.60323647792E+03  0.60323647792E+03  0.00000000000E+00 0. -1.
          5    1    1    2  502    0 -0.42267066093E+02 -0.96877275591E+02 -0.11995480676E+03  0.15993229651E+03  0.41800000000E+01 0.  1.
         -5    1    1    2    0  502  0.63227116104E+02 -0.22158967602E+02 -0.55023732432E+02  0.86797301726E+02  0.41800000000E+01 0.  1.
        -11    1    1    2    0    0  0.29779683679E+02  0.70304077587E+02 -0.13414193033E+03  0.15434879448E+03  0.00000000000E+00 0.  1.
         11    1    1    2    0    0 -0.50739733691E+02  0.48732165606E+02 -0.24315054377E+03  0.25312354983E+03  0.00000000000E+00 0. -1.
</event>
<event>
 6    1  0.5317355E-006  0.2446218E+03  0.7561462E-02  0.1116752E+00
         -2   -1    0    0    0  501 -0.00000000000E+00  0.00000000000E+00  0.13250609728E+03  0.13250609728E+03  0.00000000000E+00 0.  1.
          2   -1    0    0  501    0  0.00000000000E+00 -0.00000000000E+00 -0.50190991435E+03  0.50190991435E+03  0.00000000000E+00 0. -1.
          5    1    1    2  502    0 -0.33610217381E+02 -0.23660266785E+03 -0.14036436145E+03  0.27718242280E+03  0.41800000000E+01 0. -1.
         -5    1    1    2    0  502  0.86403711379E+01  0.91438697620E+01  0.77804084552E+01  0.15371191345E+02  0.41800000000E+01 0. -1.
        -11    1    1    2    0    0 -0.20747410458E+02  0.69503468669E+02 -0.11976186323E+03  0.14001461024E+03  0.00000000000E+00 0.  1.
         11    1    1    2    0    0  0.45717256701E+02  0.15795532942E+03 -0.11705800085E+03  0.20184778724E+03  0.00000000000E+00 0. -1.
</event>
<event>
 6    1  0.5317355E-006  0.1655910E+03  0.7561462E-02  0.1182525E+00
          2   -1    0    0  501    0  0.00000000000E+00  0.00000000000E+00  0.55712557591E+03  0.55712557591E+03  0.00000000000E+00 0.  1.
         -2   -1    0    0    0  501 -0.00000000000E+00 -0.00000000000E+00 -0.62564906495E+02  0.62564906495E+02  0.00000000000E+00 0. -1.
          5    1    1    2  502    0  0.23696805643E+02 -0.41260533645E+02  0.64804154749E+02  0.80504789343E+02  0.41800000000E+01 0. -1.
         -5    1    1    2    0  502  0.11405422767E+03  0.80873594768E+02  0.11169572266E+03  0.17900366488E+03  0.41800000000E+01 0. -1.
        -11    1    1    2    0    0 -0.82174802660E+02 -0.27524567823E+02  0.89224990562E+02  0.12438407843E+03  0.00000000000E+00 0. -1.
         11    1    1    2    0    0 -0.55576230656E+02 -0.12088493300E+02  0.22883580144E+03  0.23579794974E+03  0.00000000000E+00 0.  1.
</event>
<event>
 6    1  0.5317355E-006  0.9815483E+02  0.7561462E-02  0.1284225E+00
         -2   -1    0    0    0  501 -0.00000000000E+00  0.00000000000E+00  0.22136248402E+03  0.22136248402E+03  0.00000000000E+00 0.  1.
          2   -1    0    0  501    0  0.00000000000E+00 -0.00000000000E+00 -0.91696657478E+02  0.91696657478E+02  0.00000000000E+00 0. -1.
          5    1    1    2  502    0  0.11705489129E+01  0.54495549312E+02  0.14516052830E+03  0.15511346317E+03  0.41800000000E+01 0. -1.
         -5    1    1    2    0  502  0.17607211050E+02 -0.48536161620E+02  0.26457938537E+02  0.58165864366E+02  0.41800000000E+01 0. -1.
        -11    1    1    2    0    0 -0.53523358270E+02 -0.11256931873E+02 -0.31474797485E+02  0.63104130391E+02  0.00000000000E+00 0. -1.
         11    1    1    2    0    0  0.34745598307E+02  0.52975441810E+01 -0.10477842805E+02  0.36675683578E+02  0.00000000000E+00 0.  1.
</event>
<event>
 6    1  0.5317355E-006  0.1895776E+03  0.7561462E-02  0.1158843E+00
         -3   -1    0    0    0  501 -0.00000000000E+00  0.00000000000E+00  0.29652432438E+03  0.29652432438E+03  0.00000000000E+00 0.  1.
          3   -1    0    0  501    0  0.00000000000E+00 -0.00000000000E+00 -0.14386152890E+03  0.14386152890E+03  0.00000000000E+00 0. -1.
          5    1    1    2  502    0  0.10217576280E+02  0.28359382748E+02 -0.10246821839E+02  0.32111107311E+02  0.41800000000E+01 0. -1.
         -5    1    1    2    0  502 -0.17498769218E+03 -0.17668252672E+00  0.30205856288E+02  0.17762485690E+03  0.41800000000E+01 0. -1.
        -11    1    1    2    0    0  0.33359842817E+02  0.13254560009E+02  0.71242694070E+02  0.79775208757E+02  0.00000000000E+00 0.  1.
         11    1    1    2    0    0  0.13141027309E+03 -0.41437260230E+02  0.61461066965E+02  0.15087468032E+03  0.00000000000E+00 0. -1.
</event>
<event>
 6    1  0.5317355E-006  0.1189586E+03  0.7561462E-02  0.1244825E+00
          2   -1    0    0  501    0  0.00000000000E+00  0.00000000000E+00  0.31388407800E+03  0.31388407800E+03  0.00000000000E+00 0. -1.
         -2   -1    0    0    0  501 -0.00000000000E+00 -0.00000000000E+00 -0.77080091414E+02  0.77080091414E+02  0.00000000000E+00 0.  1.
          5    1    1    2  502    0 -0.33031579830E+02 -0.31728931782E+02  0.63214509999E+02  0.78175169027E+02  0.41800000000E+01 0. -1.
         -5    1    1    2    0  502  0.65106191940E+02 -0.56795205141E+02 -0.10211658414E+02  0.87099149958E+02  0.41800000000E+01 0. -1.
        -11    1    1    2    0    0 -0.20834389133E+02  0.53687477863E+01  0.11552227890E+03  0.11750868966E+03  0.00000000000E+00 0. -1.
         11    1    1    2    0    0 -0.11240222977E+02  0.83155389137E+02  0.68278856104E+02  0.10818116077E+03  0.00000000000E+00 0.  1.
</event>
<event>
 6    1  0.5317355E-006  0.1826751E+03  0.7561462E-02  0.1165239E+00
          2   -1    0    0  501    0  0.00000000000E+00  0.00000000000E+00  0.18277978801E+03  0.18277978801E+03  0.00000000000E+00 0. -1.
         -2   -1    0    0    0  501 -0.00000000000E+00 -0.00000000000E+00 -0.20791956561E+03  0.20791956561E+03  0.00000000000E+00 0.  1.
          5    1    1    2  502    0 -0.53052706249E+02  0.84980385095E+02  0.22447920436E+02  0.10275036264E+03  0.41800000000E+01 0.  1.
         -5    1    1    2    0  502  0.53278494605E+02  0.76368133126E+02 -0.42344235022E+02  0.10237771429E+03  0.41800000000E+01 0.  1.
        -11    1    1    2    0    0  0.23875493683E+02 -0.30054317563E+02  0.28591455388E+02  0.47862015461E+02  0.00000000000E+00 0. -1.
         11    1    1    2    0    0 -0.24101282040E+02 -0.13129420066E+03 -0.33834918406E+02  0.13770926122E+03  0.00000000000E+00 0.  1.
</event>
<event>
 6    1  0.5317355E-006  0.1109364E+03  0.7561462E-02  0.1258846E+00
          2   -1    0    0  501    0  0.00000000000E+00  0.00000000000E+00  0.30292392372E+03  0.30292392372E+03  0.00000000000E+00 0. -1.
         -2   -1    0    0    0  501 -0.00000000000E+00 -0.00000000000E+00 -0.46785114970E+02  0.46785114970E+02  0.00000000000E+00 0.  1.
          5    1    1    2  502    0 -0.21889465226E+02  0.54372680982E+02  0.42020347941E+02  0.72240702974E+02  0.41800000000E+01 0. -1.
         -5    1    1    2    0  502 -0.85794100149E+01 -0.91472872499E+02  0.66446719869E+02  0.11346158672E+03  0.41800000000E+01 0.  1.
        -11    1    1    2    0    0 -0.34705577736E+01  0.37039406369E+02  0.70891364867E+02  0.80059652811E+02  0.00000000000E+00 0. -1.
         11    1    1    2    0    0  0.33939433015E+02  0.60785147739E-01  0.76780376077E+02  0.83947096190E+02  0.00000000000E+00 0.  1.
</event>
<event>
 6    1  0.5317355E-006  0.1010669E+03  0.7561462E-02  0.1278068E+00
          3   -1    0    0  501    0  0.00000000000E+00  0.00000000000E+00  0.31676023793E+03  0.31676023793E+03  0.00000000000E+00 0. -1.
         -3   -1    0    0    0  501 -0.00000000000E+00 -0.00000000000E+00 -0.47790054637E+02  0.47790054637E+02  0.00000000000E+00 0.  1.
          5    1    1    2  502    0 -0.23562977418E+02 -0.50031820100E+02  0.52486755889E+02  0.76359209471E+02  0.41800000000E+01 0.  1.
         -5    1    1    2    0  502  0.49329297373E+02  0.46306440059E+02  0.20634627502E+02  0.70858494356E+02  0.41800000000E+01 0.  1.
        -11    1    1    2    0    0 -0.20049326336E+02 -0.34679389823E+02  0.39584711567E+02  0.56316826570E+02  0.00000000000E+00 0. -1.
         11    1    1    2    0    0 -0.57169936195E+01  0.38404769864E+02  0.15626408834E+03  0.16101576217E+03  0.00000000000E+00 0.  1.
</event>
<event>
 6    1  0.5317355E-006  0.1094120E+03  0.7561462E-02  0.1261663E+00
          2   -1    0    0  501    0  0.00000000000E+00  0.00000000000E+00  0.45138779880E+03  0.45138779880E+03  0.00000000000E+00 0. -1.
         -2   -1    0    0    0  501 -0.00000000000E+00 -0.00000000000E+00 -0.58930200546E+02  0.58930200546E+02  0.00000000000E+00 0.  1.
          5    1    1    2  502    0  0.40974944749E+02  0.47699055169E+02  0.68418779597E+02  0.93020147079E+02  0.41800000000E+01 0. -1.
         -5    1    1    2    0  502 -0.94983244938E+01 -0.48483934873E+02 -0.22788161939E+02  0.54568148526E+02  0.41800000000E+01 0.  1.
        -11    1    1    2    0    0  0.18280633768E+02 -0.38634637309E+02  0.14120869125E+03  0.14753545762E+03  0.00000000000E+00 0.  1.
         11    1    1    2    0    0 -0.49757254022E+02  0.39419517013E+02  0.20561828935E+03  0.21519424612E+03  0.00000000000E+00 0. -1.
</event>
<event>
 6    1  0.5317355E-006  0.9836675E+02  0.7561462E-02  0.1283768E+00
          2   -1    0    0  501    0  0.00000000000E+00  0.00000000000E+00  0.92704393090E+02  0.92704393090E+02  0.00000000000E+00 0. -1.
         -2   -1    0    0    0  501 -0.00000000000E+00 -0.00000000000E+00 -0.14643042767E+03  0.14643042767E+03  0.00000000000E+00 0.  1.
          5    1    1    2  502    0  0.29342498708E+02  0.43683604661E+02 -0.44517019446E+02  0.69054159665E+02  0.41800000000E+01 0. -1.
         -5    1    1    2    0  502 -0.49219020183E+02 -0.51346971889E+02 -0.24177881858E+02  0.75240054765E+02  0.41800000000E+01 0. -1.
        -11    1    1    2    0    0  0.34547388266E+02 -0.21046591582E+02  0.37775284940E+02  0.55348470670E+02  0.00000000000E+00 0. -1.
         11    1    1    2    0    0 -0.14670866791E+02  0.28709958809E+02 -0.22806418217E+02  0.39492135661E+02  0.00000000000E+00 0.  1.
</event>
<event>
 6    1  0.5317355E-006  0.1792233E+03  0.7561462E-02  0.1168557E+00
         -1   -1    0    0    0  501 -0.00000000000E+00  0.00000000000E+00  0.11877584741E+03  0.11877584741E+03  0.00000000000E+00 0.  1.
          1   -1    0    0  501    0  0.00000000000E+00 -0.00000000000E+00 -0.31372183115E+03  0.31372183115E+03  0.00000000000E+00 0. -1.
          5    1    1    2  502    0 -0.12323905564E+02  0.19785911176E+02 -0.25551588581E+02  0.34838441533E+02  0.41800000000E+01 0.  1.
         -5    1    1    2    0  502  0.16955805008E+03 -0.44085961098E+02 -0.63662753550E+02  0.18645085921E+03  0.41800000000E+01 0.  1.
        -11    1    1    2    0    0 -0.13306335713E+03  0.24743325049E+02 -0.39937902298E+02  0.14111387312E+03  0.00000000000E+00 0.  1.
         11    1    1    2    0    0 -0.24170787378E+02 -0.44327512736E+00 -0.65793739315E+02  0.70094504694E+02  0.00000000000E+00 0. -1.
</event>
<event>
 6    1  0.5317355E-006  0.1970944E+03  0.7561462E-02  0.1152214E+00
         -2   -1    0    0    0  501 -0.00000000000E+00  0.00000000000E+00  0.47660033517E+03  0.47660033517E+03  0.00000000000E+00 0.  1.
          2   -1    0    0  501    0  0.00000000000E+00 -0.00000000000E+00 -0.25394327239E+03  0.25394327239E+03  0.00000000000E+00 0. -1.
          5    1    1    2  502    0  0.89984245260E+01  0.11960321783E+03  0.15341971891E+03  0.19478445500E+03  0.41800000000E+01 0. -1.
         -5    1    1    2    0  502 -0.75455654870E+02  0.48970793375E+02  0.24908795883E+03  0.26486596250E+03  0.41800000000E+01 0.  1.
        -11    1    1    2    0    0  0.11904595045E+02 -0.73938741216E+02 -0.20407725009E+02  0.77621724252E+02  0.00000000000E+00 0.  1.
         11    1    1    2    0    0  0.54552635299E+02 -0.94635269986E+02 -0.15944288995E+03  0.19327146581E+03  0.00000000000E+00 0. -1.
</event>
<event>
 6    1  0.5317355E-006  0.2186306E+03  0.7561462E-02  0.1134908E+00
          2   -1    0    0  501    0  0.00000000000E+00  0.00000000000E+00  0.72334361132E+03  0.72334361132E+03  0.00000000000E+00 0. -1.
         -2   -1    0    0    0  501 -0.00000000000E+00 -0.00000000000E+00 -0.90381792099E+02  0.90381792099E+02  0.00000000000E+00 0.  1.
          5    1    1    2  502    0 -0.17938258754E+03  0.27083739215E+02  0.17381651567E+03  0.25127931702E+03  0.41800000000E+01 0.  1.
         -5    1    1    2    0  502 -0.18577004938E+02  0.37475950762E+02 -0.80501133944E+01  0.42799868267E+02  0.41800000000E+01 0.  1.
        -11    1    1    2    0    0  0.83827554853E+02 -0.25377758862E+01  0.10208042871E+03  0.13211325893E+03  0.00000000000E+00 0.  1.
         11    1    1    2    0    0  0.11413203762E+03 -0.62021914091E+02  0.36511498823E+03  0.38753295921E+03  0.00000000000E+00 0. -1.
</event>
<event>
 6    1  0.5317355E-006  0.1076223E+03  0.7561462E-02  0.1265037E+00
         -2   -1    0    0    0  501 -0.00000000000E+00  0.00000000000E+00  0.87213281429E+02  0.87213281429E+02  0.00000000000E+00 0. -1.
          2   -1    0    0  501    0  0.00000000000E+00 -0.00000000000E+00 -0.27024592035E+03  0.27024592035E+03  0.00000000000E+00 0.  1.
          5    1    1    2  502    0  0.53326807941E+02  0.60535075022E+02 -0.31445874834E+02  0.86686557188E+02  0.41800000000E+01 0. -1.
         -5    1    1    2    0  502 -0.15692226000E+02 -0.22094334622E+02  0.41644503077E+02  0.49861233596E+02  0.41800000000E+01 0. -1.
        -11    1    1    2    0    0  0.24370265885E+02 -0.37871200101E+02 -0.78920816958E+02  0.90866016781E+02  0.00000000000E+00 0.  1.
         11    1    1    2    0    0 -0.62004847825E+02 -0.56954029804E+00 -0.11431045021E+03  0.13004539422E+03  0.00000000000E+00 0. -1.
</event>
<event>
 6    1  0.5317355E-006  0.1036146E+03  0.7561462E-02  0.1272873E+00
          1   -1    0    0  501    0  0.00000000000E+00  0.00000000000E+00  0.47240007322E+03  0.47240007322E+03  0.00000000000E+00 0. -1.
         -1   -1    0    0    0  501 -0.00000000000E+00 -0.00000000000E+00 -0.38829815013E+02  0.38829815013E+02  0.00000000000E+00 0.  1.
          5    1    1    2  502    0  0.87979136153E+02  0.12164196732E+02  0.54187124849E+02  0.10412498730E+03  0.41800000000E+01 0. -1.
         -5    1    1    2    0  502 -0.21433374322E+02  0.18689741341E+02  0.11578484094E+03  0.11929919429E+03  0.41800000000E+01 0. -1.
        -11    1    1    2    0    0 -0.24352903374E+02 -0.39593247064E+02  0.43950144211E+02  0.63971120766E+02  0.00000000000E+00 0.  1.
         11    1    1    2    0    0 -0.42192858457E+02  0.87393089912E+01  0.21964814821E+03  0.22383458588E+03  0.00000000000E+00 0. -1.
</event>
<event>
 6    1  0.5317355E-006  0.8207491E+02  0.7561462E-02  0.1323264E+00
          4   -1    0    0  501    0  0.00000000000E+00  0.00000000000E+00  0.10018329844E+03  0.10018329844E+03  0.00000000000E+00 0.  1.
         -4   -1    0    0    0  501 -0.00000000000E+00 -0.00000000000E+00 -0.17535968918E+03  0.17535968918E+03  0.00000000000E+00 0. -1.
          5    1    1    2  502    0  0.76103950405E+02 -0.29174883655E+02 -0.41537148867E+02  0.91573971409E+02  0.41800000000E+01 0. -1.
         -5    1    1    2    0  502 -0.32836752466E+02  0.18266960604E+02 -0.79866945191E+02  0.88363654838E+02  0.41800000000E+01 0. -1.
        -11    1    1    2    0    0 -0.23161067608E+02  0.74471395612E+01  0.64050266512E+02  0.68515192335E+02  0.00000000000E+00 0.  1.
         11    1    1    2    0    0 -0.20106130331E+02  0.34607834899E+01 -0.17822563196E+02  0.27090169031E+02  0.00000000000E+00 0. -1.
</event>
<event>
 6    1  0.5317355E-006  0.1140959E+03  0.7561462E-02  0.1253168E+00
          2   -1    0    0  501    0  0.00000000000E+00  0.00000000000E+00  0.58227580622E+03  0.58227580622E+03  0.00000000000E+00 0. -1.
         -2   -1    0    0    0  501 -0.00000000000E+00 -0.00000000000E+00 -0.26350388510E+02  0.26350388510E+02  0.00000000000E+00 0.  1.
          5    1    1    2  502    0 -0.37928314796E+02  0.36495061463E+01  0.33670763127E+02  0.51020276831E+02  0.41800000000E+01 0. -1.
         -5    1    1    2    0  502  0.80047373582E+02 -0.38297987983E+02  0.21509413560E+03  0.23271716196E+03  0.41800000000E+01 0. -1.
        -11    1    1    2    0    0 -0.68503518151E+02  0.24409687068E+02  0.25912112583E+03  0.26913253737E+03  0.00000000000E+00 0. -1.
         11    1    1    2    0    0  0.26384459365E+02  0.10238794769E+02  0.48039393147E+02  0.55756218561E+02  0.00000000000E+00 0.  1.
</event>
<event>
 6    1  0.5317355E-006  0.1095524E+03  0.7561462E-02  0.1261401E+00
          1   -1    0    0  501    0  0.00000000000E+00  0.00000000000E+00  0.62664374330E+02  0.62664374330E+02  0.00000000000E+00 0. -1.
         -1   -1    0    0    0  501 -0.00000000000E+00 -0.00000000000E+00 -0.29758716984E+03  0.29758716984E+03  0.00000000000E+00 0.  1.
          5    1    1    2  502    0  0.52377390641E+02  0.23046978857E+02 -0.76137122234E+02  0.95335659996E+02  0.41800000000E+01 0. -1.
         -5    1    1    2    0  502 -0.61325641466E+02  0.29410881456E+02 -0.14046723652E+03  0.15612287208E+03  0.41800000000E+01 0.  1.
        -11    1    1    2    0    0  0.12936014467E+02 -0.72249002737E+02  0.99354204648E+01  0.74067343996E+02  0.00000000000E+00 0. -1.
         11    1    1    2    0    0 -0.39877636421E+01  0.19791142424E+02 -0.28253857212E+02  0.34725668096E+02  0.00000000000E+00 0.  1.
</event>
<event>
 6    1  0.5317355E-006  0.8973530E+02  0.7561462E-02  0.1303494E+00
         -1   -1    0    0    0  501 -0.00000000000E+00  0.00000000000E+00  0.25264962611E+02  0.25264962611E+02  0.00000000000E+00 0.  1.
          1   -1    0    0  501    0  0.00000000000E+00 -0.00000000000E+00 -0.50219964178E+03  0.50219964178E+03  0.00000000000E+00 0. -1.
          5    1    1    2  502    0 -0.42762282278E+02  0.95963427054E+01 -0.19679782936E+02  0.48223115156E+02  0.41800000000E+01 0. -1.
         -5    1    1    2    0  502  0.31983640219E+02 -0.32836642853E+02 -0.20148244713E+03  0.20667328627E+03  0.41800000000E+01 0.  1.
        -11    1    1    2    0    0  0.47889581111E+02  0.20842465504E+02 -0.18959803885E+03  0.19666020615E+03  0.00000000000E+00 0. -1.
         11    1    1    2    0    0 -0.37110939052E+02  0.23978346436E+01 -0.66174410256E+02  0.75907996819E+02  0.00000000000E+00 0.  1.
</event>
<event>
 6    1  0.5317355E-006  0.9279192E+02  0.7561462E-02  0.1296228E+00
          2   -1    0    0  501    0  0.00000000000E+00  0.00000000000E+00  0.59693495989E+03  0.59693495989E+03  0.00000000000E+00 0.  1.
         -2   -1    0    0    0  501 -0.00000000000E+00 -0.00000000000E+00 -0.26052167075E+02  0.26052167075E+02  0.00000000000E+00 0. -1.
          5    1    1    2  502    0 -0.37327212430E+02  0.19760343250E+01  0.18904600071E+03  0.19275136389E+03  0.41800000000E+01 0. -1.
         -5    1    1    2    0  502  0.27467217868E+02 -0.46352586604E+02  0.25573917936E+02  0.59787189438E+02  0.41800000000E+01 0. -1.
        -11    1    1    2    0    0 -0.33212620603E+02  0.37866373748E+02  0.11901077932E+03  0.12923043768E+03  0.00000000000E+00 0.  1.
         11    1    1    2    0    0  0.43072615165E+02  0.65101785308E+01  0.23725209485E+03  0.24121813596E+03  0.00000000000E+00 0. -1.
</event>
<event>
 6    1  0.5317355E-006  0.1195877E+03  0.7561462E-02  0.1243779E+00
         -3   -1    0    0    0  501 -0.00000000000E+00  0.00000000000E+00  0.24205760087E+02  0.24205760087E+02  0.00000000000E+00 0.  1.
          3   -1    0    0  501    0  0.00000000000E+00 -0.00000000000E+00 -0.66289380333E+03  0.66289380333E+03  0.00000000000E+00 0. -1.
          5    1    1    2  502    0  0.42844410370E+02 -0.39114665342E+02 -0.92555112019E+02  0.10931386786E+03  0.41800000000E+01 0. -1.
         -5    1    1    2    0  502  0.32159156918E+01  0.74429856435E+02 -0.15670541102E+03  0.17356325615E+03  0.41800000000E+01 0.  1.
        -11    1    1    2    0    0 -0.70221274753E+02 -0.41350029778E+02 -0.26187055604E+03  0.27425725243E+03  0.00000000000E+00 0. -1.
         11    1    1    2    0    0  0.24160948692E+02  0.60348386848E+01 -0.12755696416E+03  0.12996518698E+03  0.00000000000E+00 0.  1.
</event>
<event>
 6    1  0.5317355E-006  0.2339513E+03  0.7561462E-02  0.1123889E+00
          2   -1    0    0  501    0  0.00000000000E+00  0.00000000000E+00  0.11715665299E+04  0.11715665299E+04  0.00000000000E+00 0. -1.
         -2   -1    0    0    0  501 -0.00000000000E+00 -0.00000000000E+00 -0.49058901868E+02  0.49058901868E+02  0.00000000000E+00 0.  1.
          5    1    1    2  502    0 -0.39345915490E+02  0.19038574674E+03  0.55321868176E+03  0.58639851285E+03  0.41800000000E+01 0. -1.
         -5    1    1    2    0  502  0.44760879672E+02  0.17601308355E+02  0.14351784145E+03  0.15142055878E+03  0.41800000000E+01 0. -1.
        -11    1    1    2    0    0  0.39072436639E+02 -0.12562940585E+03  0.21301802425E+03  0.25037188655E+03  0.00000000000E+00 0.  1.
         11    1    1    2    0    0 -0.44487400821E+02 -0.82357649238E+02  0.21275308055E+03  0.23243447357E+03  0.00000000000E+00 0. -1.
</event>
<event>
 6    1  0.5317355E-006  0.9081995E+02  0.7561462E-02  0.1300878E+00
         -2   -1    0    0    0  501 -0.00000000000E+00  0.00000000000E+00  0.14774613595E+03  0.14774613595E+03  0.00000000000E+00 0.  1.
          2   -1    0    0  501    0  0.00000000000E+00 -0.00000000000E+00 -0.10955447011E+03  0.10955447011E+03  0.00000000000E+00 0. -1.
          5    1    1    2  502    0  0.50154999174E+02 -0.27053544876E+02  0.84531973083E+02  0.10203207881E+03  0.41800000000E+01 0. -1.
         -5    1    1    2    0  502 -0.47829446405E+02 -0.31657754890E+01 -0.63900711405E+01  0.48538474296E+02  0.41800000000E+01 0. -1.
        -11    1    1    2    0    0  0.22880799467E+01  0.53046552945E+02  0.77401463738E+01  0.53657077400E+02  0.00000000000E+00 0.  1.
         11    1    1    2    0    0 -0.46136327157E+01 -0.22827232580E+02 -0.47690382469E+02  0.53072975554E+02  0.00000000000E+00 0. -1.
</event>
<event>
 6    1  0.5317355E-006  0.1039041E+03  0.7561462E-02  0.1272294E+00
         -2   -1    0    0    0  501 -0.00000000000E+00  0.00000000000E+00  0.43605035712E+02  0.43605035712E+02  0.00000000000E+00 0.  1.
          2   -1    0    0  501    0  0.00000000000E+00 -0.00000000000E+00 -0.40702068820E+03  0.40702068820E+03  0.00000000000E+00 0. -1.
          5    1    1    2  502    0 -0.18421549675E+01 -0.23611189580E+02  0.12743780624E+01  0.24082737546E+02  0.41800000000E+01 0.  1.
         -5    1    1    2    0  502  0.20358058485E+02  0.98482063029E+02 -0.19105272802E+03  0.21594393848E+03  0.41800000000E+01 0.  1.
        -11    1    1    2    0    0 -0.26391752576E+02 -0.44545524683E+02 -0.17155553582E+03  0.17919857769E+03  0.00000000000E+00 0.  1.
         11    1    1    2    0    0  0.78758490581E+01 -0.30325348766E+02 -0.20817667116E+01  0.31400470200E+02  0.00000000000E+00 0. -1.
</event>
<event>
 6    1  0.5317355E-006  0.1184101E+03  0.7561462E-02  0.1245743E+00
         -1   -1    0    0    0  501 -0.00000000000E+00  0.00000000000E+00  0.37863454030E+03  0.37863454030E+03  0.00000000000E+00 0. -1.
          1   -1    0    0  501    0  0.00000000000E+00 -0.00000000000E+00 -0.72670261834E+02  0.72670261834E+02  0.00000000000E+00 0.  1.
          5    1    1    2  502    0 -0.74817158482E+02  0.24688077924E+02  0.23100370440E+03  0.24410508443E+03  0.41800000000E+01 0. -1.
         -5    1    1    2    0  502 -0.25197523087E+02 -0.48657378047E+02  0.28821167932E+02  0.62053104105E+02  0.41800000000E+01 0. -1.
        -11    1    1    2    0    0  0.46441511517E+02  0.85469143170E+01  0.70055322042E+02  0.84484388397E+02  0.00000000000E+00 0. -1.
         11    1    1    2    0    0  0.53573170052E+02  0.15422385805E+02 -0.23915915910E+02  0.60662225207E+02  0.00000000000E+00 0.  1.
</event>
<event>
 6    1  0.5317355E-006  0.1874197E+03  0.7561462E-02  0.1160809E+00
         -1   -1    0    0    0  501 -0.00000000000E+00  0.00000000000E+00  0.19090244381E+03  0.19090244381E+03  0.00000000000E+00 0.  1.
          1   -1    0    0  501    0  0.00000000000E+00 -0.00000000000E+00 -0.30278101285E+03  0.30278101285E+03  0.00000000000E+00 0. -1.
          5    1    1    2  502    0  0.51528230149E+01 -0.39077174120E+02 -0.19199191846E+02  0.44041554125E+02  0.41800000000E+01 0.  1.
         -5    1    1    2    0  502 -0.12915638029E+03 -0.68152057980E+02  0.10203455118E+03  0.17819819194E+03  0.41800000000E+01 0.  1.
        -11    1    1    2    0    0  0.12981096810E+03  0.62624358437E+02 -0.14989655184E+03  0.20794632471E+03  0.00000000000E+00 0. -1.
         11    1    1    2    0    0 -0.58074108211E+01  0.44604873663E+02 -0.44817376532E+02  0.63497385884E+02  0.00000000000E+00 0.  1.
</event>
<event>
 6    1  0.5317355E-006  0.8446684E+02  0.7561462E-02  0.1316833E+00
         -2   -1    0    0    0  501 -0.00000000000E+00  0.00000000000E+00  0.35467829112E+02  0.35467829112E+02  0.00000000000E+00 0.  1.
          2   -1    0    0  501    0  0.00000000000E+00 -0.00000000000E+00 -0.40106240602E+03  0.40106240602E+03  0.00000000000E+00 0. -1.
          5    1    1    2  502    0 -0.32407705939E+02  0.40808686683E+02 -0.16280950288E+03  0.17099711969E+03  0.41800000000E+01 0. -1.
         -5    1    1    2    0  502  0.44687128042E+01  0.86140645140E+01  0.17784011845E+02  0.20686105938E+02  0.41800000000E+01 0.  1.
        -11    1    1    2    0    0  0.40084665482E+02  0.13274727655E+02 -0.95405031546E+02  0.10433177294E+03  0.00000000000E+00 0.  1.
         11    1    1    2    0    0 -0.12145672347E+02 -0.62697478852E+02 -0.12516405432E+03  0.14051523656E+03  0.00000000000E+00 0. -1.
</event>
<event>
 6    1  0.7164214E-006  0.1040972E+03  0.7561462E-02  0.1271909E+00
         -2   -1    0    0    0  501 -0.00000000000E+00  0.00000000000E+00  0.11865488860E+03  0.11865488860E+03  0.00000000000E+00 0.  1.
          2   -1    0    0  501    0  0.00000000000E+00 -0.00000000000E+00 -0.19623963348E+03  0.19623963348E+03  0.00000000000E+00 0. -1.
          5    1    1    2  502    0 -0.56052430820E+02 -0.34609452551E+02  0.58339190200E+02  0.88094396643E+02  0.41800000000E+01 0. -1.
         -5    1    1    2    0  502 -0.40054039806E+02  0.19975130913E+02 -0.54159739969E+02  0.70385238462E+02  0.41800000000E+01 0. -1.
        -11    1    1    2    0    0  0.28179494220E+02  0.34321272642E+01  0.19158040673E+02  0.34247538809E+02  0.00000000000E+00 0.  1.
         11    1    1    2    0    0  0.67926976406E+02  0.11202194373E+02 -0.10092223578E+03  0.12216734816E+03  0.00000000000E+00 0. -1.
</event>
<event>
 6    1  0.5317355E-006  0.1161186E+03  0.7561462E-02  0.1249641E+00
          2   -1    0    0  501    0  0.00000000000E+00  0.00000000000E+00  0.31682580551E+03  0.31682580551E+03  0.00000000000E+00 0. -1.
         -2   -1    0    0    0  501 -0.00000000000E+00 -0.00000000000E+00 -0.43233868336E+02  0.43233868336E+02  0.00000000000E+00 0.  1.
          5    1    1    2  502    0 -0.56924543696E+01  0.56578088513E+02  0.52112150977E+02  0.77243982393E+02  0.41800000000E+01 0.  1.
         -5    1    1    2    0  502 -0.33163709298E+02 -0.65866741415E+02  0.84816497752E+02  0.11247030688E+03  0.41800000000E+01 0.  1.
        -11    1    1    2    0    0  0.77096290373E+01 -0.41264929479E+02  0.63454104145E+02  0.76083218371E+02  0.00000000000E+00 0. -1.
         11    1    1    2    0    0  0.31146534631E+02  0.50553582382E+02  0.73209184304E+02  0.94262166204E+02  0.00000000000E+00 0.  1.
</event>
<event>
 6    1  0.5317355E-006  0.9542722E+02  0.7561462E-02  0.1290217E+00
         -1   -1    0    0    0  501 -0.00000000000E+00  0.00000000000E+00  0.14879873180E+03  0.14879873180E+03  0.00000000000E+00 0. -1.
          1   -1    0    0  501    0  0.00000000000E+00 -0.00000000000E+00 -0.98519069942E+02  0.98519069942E+02  0.00000000000E+00 0.  1.
          5    1    1    2  502    0 -0.31459659669E+02  0.36245409868E+02  0.15195130218E+02  0.50515386817E+02  0.41800000000E+01 0. -1.
         -5    1    1    2    0  502  0.36763336660E+02 -0.72030130816E+02  0.49341917747E+02  0.94826050823E+02  0.41800000000E+01 0. -1.
        -11    1    1    2    0    0  0.21790904935E+02  0.89204954056E+01 -0.46435476172E+02  0.52064116467E+02  0.00000000000E+00 0.  1.
         11    1    1    2    0    0 -0.27094581926E+02  0.26864225543E+02  0.32178090062E+02  0.49912247634E+02  0.00000000000E+00 0. -1.
</event>
<event>
 6    1  0.5317355E-006  0.7142690E+02  0.7561462E-02  0.1355307E+00
         -1   -1    0    0    0  501 -0.00000000000E+00  0.00000000000E+00  0.41526117756E+02  0.41526117756E+02  0.00000000000E+00 0.  1.
          1   -1    0    0  501    0  0.00000000000E+00 -0.00000000000E+00 -0.32803944877E+03  0.32803944877E+03  0.00000000000E+00 0. -1.
          5    1    1    2  502    0 -0.34958722917E+02 -0.40006602626E+02 -0.19677833348E+01  0.53329027114E+02  0.41800000000E+01 0.  1.
         -5    1    1    2    0  502  0.21816362853E+02  0.42182096556E+01 -0.13185303825E+03  0.13377758809E+03  0.41800000000E+01 0.  1.
        -11    1    1    2    0    0  0.26085221029E+02 -0.28139567975E+01 -0.13591349116E+03  0.13842266501E+03  0.00000000000E+00 0. -1.
         11    1    1    2    0    0 -0.12942860965E+02  0.38602349768E+02 -0.16779018265E+02  0.44036286304E+02  0.00000000000E+00 0.  1.
</event>
<event>
 6    1  0.5317355E-006  0.9038829E+02  0.7561462E-02  0.1301914E+00
          2   -1    0    0  501    0  0.00000000000E+00  0.00000000000E+00  0.25479600269E+03  0.25479600269E+03  0.00000000000E+00 0. -1.
         -2   -1    0    0    0  501 -0.00000000000E+00 -0.00000000000E+00 -0.43399251408E+02  0.43399251408E+02  0.00000000000E+00 0.  1.
          5    1    1    2  502    0  0.54922392269E+02  0.11951110667E+02  0.30665069131E+02  0.64164765125E+02  0.41800000000E+01 0. -1.
         -5    1    1    2    0  502 -0.68778935059E+02 -0.13290141339E+00  0.60398222055E+02  0.91629565087E+02  0.41800000000E+01 0. -1.
        -11    1    1    2    0    0  0.29715455109E+02  0.73684044981E+01  0.14862414366E+02  0.34032234983E+02  0.00000000000E+00 0. -1.
         11    1    1    2    0    0 -0.15858912319E+02 -0.19186613751E+02  0.10547104573E+03  0.10836868891E+03  0.00000000000E+00 0.  1.
</event>
<event>
 6    1  0.5317355E-006  0.1231583E+03  0.7561462E-02  0.1237976E+00
          1   -1    0    0  501    0  0.00000000000E+00  0.00000000000E+00  0.74109889658E+03  0.74109889658E+03  0.00000000000E+00 0. -1.
         -1   -1    0    0    0  501 -0.00000000000E+00 -0.00000000000E+00 -0.24394919069E+02  0.24394919069E+02  0.00000000000E+00 0.  1.
          5    1    1    2  502    0 -0.51786230380E+02 -0.33605834033E+02  0.15734701421E+03  0.16907608056E+03  0.41800000000E+01 0.  1.
         -5    1    1    2    0  502 -0.11160746835E+02  0.87172656431E+02  0.23948373473E+03  0.25513440752E+03  0.41800000000E+01 0.  1.
        -11    1    1    2    0    0  0.16297064853E+01 -0.31116462506E+02  0.27033175899E+02  0.41251457930E+02  0.00000000000E+00 0.  1.
         11    1    1    2    0    0  0.61317270730E+02 -0.22450359891E+02  0.29284005266E+03  0.30003186963E+03  0.00000000000E+00 0. -1.
</event>
<event>
 6    1  0.5317355E-006  0.1546239E+03  0.7561462E-02  0.1194904E+00
         -1   -1    0    0    0  501 -0.00000000000E+00  0.00000000000E+00  0.72352090811E+02  0.72352090811E+02  0.00000000000E+00 0.  1.
          1   -1    0    0  501    0  0.00000000000E+00 -0.00000000000E+00 -0.39888493752E+03  0.39888493752E+03  0.00000000000E+00 0. -1.
          5    1    1    2  502    0 -0.87687130994E+02 -0.87946913275E+02 -0.10167143854E+03  0.16055605348E+03  0.41800000000E+01 0.  1.
         -5    1    1    2    0  502 -0.33831537241E+02  0.40300331940E+02 -0.79189314093E+02  0.95168847492E+02  0.41800000000E+01 0.  1.
        -11    1    1    2    0    0  0.27319764482E+02  0.16428189076E+01 -0.95401712475E+02  0.99249962864E+02  0.00000000000E+00 0. -1.
         11    1    1    2    0    0  0.94198903753E+02  0.46003762427E+02 -0.50270381608E+02  0.11626216449E+03  0.00000000000E+00 0.  1.
</event>
<event>
 6    1  0.5317355E-006  0.1462326E+03  0.7561462E-02  0.1205180E+00
         -3   -1    0    0    0  501 -0.00000000000E+00  0.00000000000E+00  0.59251127553E+02  0.59251127553E+02  0.00000000000E+00 0.  1.
          3   -1    0    0  501    0  0.00000000000E+00 -0.00000000000E+00 -0.39988369168E+03  0.39988369168E+03  0.00000000000E+00 0. -1.
          5    1    1    2  502    0 -0.28252076834E+02 -0.36477034405E+02 -0.28579717545E+02  0.54433689378E+02  0.41800000000E+01 0.  1.
         -5    1    1    2    0  502 -0.50403984397E+02  0.10320856710E+03 -0.10407941535E+03  0.15505665760E+03  0.41800000000E+01 0.  1.
        -11    1    1    2    0    0  0.11194277168E+02 -0.62623573553E+02 -0.14006291317E+03  0.15383316760E+03  0.00000000000E+00 0. -1.
         11    1    1    2    0    0  0.67461784063E+02 -0.41079591447E+01 -0.67910518060E+02  0.95811304659E+02  0.00000000000E+00 0.  1.
</event>
<event>
 6    1  0.5317355E-006  0.1657436E+03  0.7561462E-02  0.1182361E+00
         -1   -1    0    0    0  501 -0.00000000000E+00  0.00000000000E+00  0.34686428026E+02  0.34686428026E+02  0.00000000000E+00 0.  1.
          1   -1    0    0  501    0  0.00000000000E+00 -0.00000000000E+00 -0.83657430204E+03  0.83657430204E+03  0.00000000000E+00 0. -1.
          5    1    1    2  502    0  0.56009403759E+02  0.33888188162E+02 -0.21128755852E+03  0.22123599932E+03  0.41800000000E+01 0.  1.
         -5    1    1    2    0  502 -0.48518100073E+02  0.96787948251E+02 -0.18376236272E+03  0.21332602118E+03  0.41800000000E+01 0.  1.
        -11    1    1    2    0    0  0.24789390794E+02 -0.12147071052E+03 -0.29671580687E+03  0.32157412436E+03  0.00000000000E+00 0.  1.
         11    1    1    2    0    0 -0.32280694481E+02 -0.92054258965E+01 -0.11012214590E+03  0.11512458521E+03  0.00000000000E+00 0. -1.
</event>
<event>
 6    1  0.5317355E-006  0.1097556E+03  0.7561462E-02  0.1261023E+00
         -1   -1    0    0    0  501 -0.00000000000E+00  0.00000000000E+00  0.76159977055E+03  0.76159977055E+03  0.00000000000E+00 0.  1.
          1   -1    0    0  501    0  0.00000000000E+00 -0.00000000000E+00 -0.18540998716E+02  0.18540998716E+02  0.00000000000E+00 0. -1.
          5    1    1    2  502    0  0.36240295824E+02  0.74629160328E+02  0.25106949237E+03  0.26445459537E+03  0.41800000000E+01 0.  1.
         -5    1    1    2    0  502 -0.35393925523E+02 -0.24248976483E+02  0.28900945516E+03  0.29220657145E+03  0.41800000000E+01 0.  1.
        -11    1    1    2    0    0  0.15584103639E+02  0.17536199038E+02  0.56950001257E+02  0.61592898991E+02  0.00000000000E+00 0.  1.
         11    1    1    2    0    0 -0.16430473940E+02 -0.67916382884E+02  0.14602982304E+03  0.16188670346E+03  0.00000000000E+00 0. -1.
</event>
<event>
 6    1  0.5317355E-006  0.1480436E+03  0.7561462E-02  0.1202898E+00
         -1   -1    0    0    0  501 -0.00000000000E+00  0.00000000000E+00  0.22466824185E+03  0.22466824185E+03  0.00000000000E+00 0.  1.
          1   -1    0    0  501    0  0.00000000000E+00 -0.00000000000E+00 -0.13839712444E+03  0.13839712444E+03  0.00000000000E+00 0. -1.
          5    1    1    2  502    0  0.11856173553E+03  0.77138321182E+02 -0.42080145655E+02  0.14763270906E+03  0.41800000000E+01 0. -1.
         -5    1    1    2    0  502 -0.11402454226E+02 -0.16330899496E+02  0.20955525459E+02  0.29211653291E+02  0.41800000000E+01 0. -1.
        -11    1    1    2    0    0 -0.99422685476E+02 -0.32070874343E+02  0.11514104725E+03  0.15546984315E+03  0.00000000000E+00 0. -1.
         11    1    1    2    0    0 -0.77365958289E+01 -0.28736547343E+02 -0.77453096393E+01  0.30751160785E+02  0.00000000000E+00 0.  1.
</event>
<event>
 6    1  0.5317355E-006  0.2711093E+03  0.7561462E-02  0.1100646E+00
         -2   -1    0    0    0  501 -0.00000000000E+00  0.00000000000E+00  0.38684518847E+03  0.38684518847E+03  0.00000000000E+00 0.  1.
          2   -1    0    0  501    0  0.00000000000E+00 -0.00000000000E+00 -0.22925912817E+03  0.22925912817E+03  0.00000000000E+00 0. -1.
          5    1    1    2  502    0  0.11793772815E+03  0.61088180357E+00  0.14354703952E+02  0.11888318141E+03  0.41800000000E+01 0.  1.
         -5    1    1    2    0  502  0.13432043476E+03  0.72472426161E+02  0.15571828046E+03  0.21808229414E+03  0.41800000000E+01 0.  1.
        -11    1    1    2    0    0 -0.19463389846E+03 -0.85485653298E+02 -0.36133357390E+02  0.21562878024E+03  0.00000000000E+00 0. -1.
         11    1    1    2    0    0 -0.57624264446E+02  0.12402345334E+02  0.23646433277E+02  0.63510060852E+02  0.00000000000E+00 0.  1.
</event>
<event>
 6    1  0.5317355E-006  0.1237293E+03  0.7561462E-02  0.1237069E+00
          1   -1    0    0  501    0  0.00000000000E+00  0.00000000000E+00  0.31488248647E+03  0.31488248647E+03  0.00000000000E+00 0. -1.
         -1   -1    0    0    0  501 -0.00000000000E+00 -0.00000000000E+00 -0.60538484568E+02  0.60538484568E+02  0.00000000000E+00 0.  1.
          5    1    1    2  502    0  0.99781809999E+02 -0.45000780831E+01  0.99211346204E+02  0.14084397014E+03  0.41800000000E+01 0. -1.
         -5    1    1    2    0  502 -0.76817755001E+02 -0.19145189661E+02  0.62358979112E+02  0.10086436658E+03  0.41800000000E+01 0.  1.
        -11    1    1    2    0    0 -0.38519988856E+02 -0.16042477760E+01  0.24345989572E+01  0.38630175051E+02  0.00000000000E+00 0.  1.
         11    1    1    2    0    0  0.15555933859E+02  0.25249515521E+02  0.90339077630E+02  0.95082459262E+02  0.00000000000E+00 0. -1.
</event>
<event>
 6    1  0.5317355E-006  0.1024918E+03  0.7561462E-02  0.1275142E+00
          1   -1    0    0  501    0  0.00000000000E+00  0.00000000000E+00  0.13210673550E+03  0.13210673550E+03  0.00000000000E+00 0. -1.
         -1   -1    0    0    0  501 -0.00000000000E+00 -0.00000000000E+00 -0.10368773503E+03  0.10368773503E+03  0.00000000000E+00 0.  1.
          5    1    1    2  502    0 -0.65953989366E+02  0.48344136113E+02 -0.18356651482E+02  0.83913784705E+02  0.41800000000E+01 0. -1.
         -5    1    1    2    0  502  0.32797828952E+02 -0.32323209544E+02  0.78834627660E+01  0.46905317869E+02  0.41800000000E+01 0. -1.
        -11    1    1    2    0    0  0.28219428994E+02  0.23691580025E+02 -0.13330065595E+02  0.39183131391E+02  0.00000000000E+00 0.  1.
         11    1    1    2    0    0  0.49367314191E+01 -0.39712506594E+02  0.52222254789E+02  0.65792236566E+02  0.00000000000E+00 0. -1.
</event>
<event>
 6    1  0.5317355E-006  0.1767248E+03  0.7561462E-02  0.1171011E+00
         -1   -1    0    0    0  501 -0.00000000000E+00  0.00000000000E+00  0.15293465637E+03  0.15293465637E+03  0.00000000000E+00 0.  1.
          1   -1    0    0  501    0  0.00000000000E+00 -0.00000000000E+00 -0.24894302104E+03  0.24894302104E+03  0.00000000000E+00 0. -1.
          5    1    1    2  502    0 -0.56093788884E+01 -0.10930121584E+03  0.10889032341E+02  0.11006481881E+03  0.41800000000E+01 0. -1.
         -5    1    1    2    0  502  0.76117307200E+02 -0.11104874159E+02  0.22740887309E+02  0.80322991983E+02  0.41800000000E+01 0. -1.
        -11    1    1    2    0    0 -0.65597822781E+02  0.23232273618E+02 -0.59314856303E+02  0.91438859733E+02  0.00000000000E+00 0. -1.
         11    1    1    2    0    0 -0.49101055307E+01  0.97173816381E+02 -0.70323428014E+02  0.12005100688E+03  0.00000000000E+00 0.  1.
</event>
<event>
 6    1  0.5317355E-006  0.9260399E+02  0.7561462E-02  0.1296666E+00
         -1   -1    0    0    0  501 -0.00000000000E+00  0.00000000000E+00  0.80057543905E+02  0.80057543905E+02  0.00000000000E+00 0.  1.
          1   -1    0    0  501    0  0.00000000000E+00 -0.00000000000E+00 -0.24233631928E+03  0.24233631928E+03  0.00000000000E+00 0. -1.
          5    1    1    2  502    0  0.29292086058E+02  0.40865363018E+02  0.61827689295E+01  0.50830140978E+02  0.41800000000E+01 0. -1.
         -5    1    1    2    0  502 -0.29924921186E+02 -0.69621968186E+02  0.18803617314E+01  0.75919217081E+02  0.41800000000E+01 0.  1.
        -11    1    1    2    0    0  0.24152195942E+02  0.25488517590E+02 -0.16817365865E+03  0.17180038581E+03  0.00000000000E+00 0. -1.
         11    1    1    2    0    0 -0.23519360814E+02  0.32680875773E+01 -0.21682473823E+01  0.23844119321E+02  0.00000000000E+00 0.  1.
</event>
<event>
 6    1  0.5317355E-006  0.1829202E+03  0.7561462E-02  0.1165006E+00
          1   -1    0    0  501    0  0.00000000000E+00  0.00000000000E+00  0.12912611058E+03  0.12912611058E+03  0.00000000000E+00 0. -1.
         -1   -1    0    0    0  501 -0.00000000000E+00 -0.00000000000E+00 -0.29352268460E+03  0.29352268460E+03  0.00000000000E+00 0.  1.
          5    1    1    2  502    0  0.21347185247E+01 -0.21505357129E+02  0.16645030806E+02  0.27596500847E+02  0.41800000000E+01 0. -1.
         -5    1    1    2    0  502 -0.16230651638E+03  0.15425191437E+02 -0.10381263030E+03  0.19332841591E+03  0.41800000000E+01 0. -1.
        -11    1    1    2    0    0  0.40362840185E+02 -0.35666817772E+02 -0.13287952035E+01  0.53879926266E+02  0.00000000000E+00 0.  1.
         11    1    1    2    0    0  0.11980895767E+03  0.41746983465E+02 -0.75900179319E+02  0.14784395215E+03  0.00000000000E+00 0. -1.
</event>
<event>
 6    1  0.5317355E-006  0.1557451E+03  0.7561462E-02  0.1193586E+00
          1   -1    0    0  501    0  0.00000000000E+00  0.00000000000E+00  0.16666708061E+03  0.16666708061E+03  0.00000000000E+00 0. -1.
         -1   -1    0    0    0  501 -0.00000000000E+00 -0.00000000000E+00 -0.20417959662E+03  0.20417959662E+03  0.00000000000E+00 0.  1.
          5    1    1    2  502    0  0.88663545246E+02 -0.11670347770E+02 -0.65649507628E+02  0.11101689747E+03  0.41800000000E+01 0. -1.
         -5    1    1    2    0  502  0.61463064372E+02  0.13917482303E+02  0.56333014429E+02  0.84630287192E+02  0.41800000000E+01 0. -1.
        -11    1    1    2    0    0 -0.12650977515E+02 -0.16279072619E+02  0.20119149815E+02  0.28806867700E+02  0.00000000000E+00 0. -1.
         11    1    1    2    0    0 -0.13747563210E+03  0.14031938086E+02 -0.48315172622E+02  0.14639262486E+03  0.00000000000E+00 0.  1.
</event>
<event>
 6    1  0.5317355E-006  0.1095206E+03  0.7561462E-02  0.1261460E+00
         -3   -1    0    0    0  501 -0.00000000000E+00  0.00000000000E+00  0.86687379063E+02  0.86687379063E+02  0.00000000000E+00 0.  1.
          3   -1    0    0  501    0  0.00000000000E+00 -0.00000000000E+00 -0.16300740694E+03  0.16300740694E+03  0.00000000000E+00 0. -1.
          5    1    1    2  502    0  0.69592437434E+02  0.20361671428E+02  0.70065735584E+01  0.72967592015E+02  0.41800000000E+01 0. -1.
         -5    1    1    2    0  502 -0.28031595196E+02 -0.42854735057E+02 -0.39056086794E+02  0.64537965274E+02  0.41800000000E+01 0. -1.
        -11    1    1    2    0    0  0.23687081279E+02 -0.50326077867E+01 -0.32298119388E+02  0.40367975880E+02  0.00000000000E+00 0.  1.
         11    1    1    2    0    0 -0.65247923517E+02  0.27525671416E+02 -0.11972395250E+02  0.71821252831E+02  0.00000000000E+00 0. -1.
</event>
<event>
 6    1  0.5317355E-006  0.1196951E+03  0.7561462E-02  0.1243601E+00
          1   -1    0    0  501    0  0.00000000000E+00  0.00000000000E+00  0.57815928041E+03  0.57815928041E+03  0.00000000000E+00 0. -1.
         -1   -1    0    0    0  501 -0.00000000000E+00 -0.00000000000E+00 -0.28687639499E+02  0.28687639499E+02  0.00000000000E+00 0.  1.
          5    1    1    2  502    0  0.29231782770E+02 -0.19895129289E+02  0.46993355279E+02  0.58958978398E+02  0.41800000000E+01 0.  1.
         -5    1    1    2    0  502 -0.74968422100E+02  0.71128032235E+02  0.24943262527E+03  0.27002512518E+03  0.41800000000E+01 0.  1.
        -11    1    1    2    0    0  0.61867754476E+02 -0.19682512648E+02  0.89772204661E+02  0.11078839776E+03  0.00000000000E+00 0.  1.
         11    1    1    2    0    0 -0.16131115146E+02 -0.31550390297E+02  0.16327345570E+03  0.16707441857E+03  0.00000000000E+00 0. -1.
</event>
<event>
 6    1  0.5317355E-006  0.2592468E+03  0.7561462E-02  0.1107597E+00
         -1   -1    0    0    0  501 -0.00000000000E+00  0.00000000000E+00  0.13459889164E+03  0.13459889164E+03  0.00000000000E+00 0.  1.
          1   -1    0    0  501    0  0.00000000000E+00 -0.00000000000E+00 -0.61193808174E+03  0.61193808174E+03  0.00000000000E+00 0. -1.
          5    1    1    2  502    0  0.48131690127E+01  0.32284559232E+02 -0.14082252952E+03  0.14461644644E+03  0.41800000000E+01 0.  1.
         -5    1    1    2    0  502  0.19708827460E+02  0.22102290160E+03 -0.20008952415E+03  0.29881909408E+03  0.41800000000E+01 0.  1.
        -11    1    1    2    0    0 -0.40643111601E+02 -0.81378848231E+02 -0.15469730781E+02  0.92269670155E+02  0.00000000000E+00 0.  1.
         11    1    1    2    0    0  0.16121115128E+02 -0.17192861261E+03 -0.12095740564E+03  0.21083176270E+03  0.00000000000E+00 0. -1.
</event>
<event>
 6    1  0.5317355E-006  0.1088276E+03  0.7561462E-02  0.1262756E+00
         -1   -1    0    0    0  501 -0.00000000000E+00  0.00000000000E+00  0.36212690878E+03  0.36212690878E+03  0.00000000000E+00 0.  1.
          1   -1    0    0  501    0  0.00000000000E+00 -0.00000000000E+00 -0.44113283177E+02  0.44113283177E+02  0.00000000000E+00 0. -1.
          5    1    1    2  502    0  0.58594271265E+02  0.43049491417E+02  0.15412240462E+03  0.17046329618E+03  0.41800000000E+01 0.  1.
         -5    1    1    2    0  502 -0.41259125355E+02 -0.34081969286E+02  0.12390818022E+03  0.13503557154E+03  0.41800000000E+01 0.  1.
        -11    1    1    2    0    0  0.30237998383E+02  0.19240953941E+02  0.24130208237E+02  0.43206687032E+02  0.00000000000E+00 0.  1.
         11    1    1    2    0    0 -0.47573144293E+02 -0.28208476073E+02  0.15852832529E+02  0.57534637215E+02  0.00000000000E+00 0. -1.
</event>
<event>
 6    1  0.5317355E-006  0.1106961E+03  0.7561462E-02  0.1259286E+00
         -3   -1    0    0    0  501 -0.00000000000E+00  0.00000000000E+00  0.16231051740E+03  0.16231051740E+03  0.00000000000E+00 0.  1.
          3   -1    0    0  501    0  0.00000000000E+00 -0.00000000000E+00 -0.75553287439E+02  0.75553287439E+02  0.00000000000E+00 0. -1.
          5    1    1    2  502    0 -0.24861326296E+02  0.72435631713E+02  0.33136223387E+02  0.83549314702E+02  0.41800000000E+01 0. -1.
         -5    1    1    2    0  502  0.14158777546E+02 -0.48785135394E+02  0.18352860443E+02  0.54173428020E+02  0.41800000000E+01 0. -1.
        -11    1    1    2    0    0 -0.39983933071E+02 -0.94177746374E+01  0.15545885966E+02  0.43921338248E+02  0.00000000000E+00 0. -1.
         11    1    1    2    0    0  0.50686481821E+02 -0.14232721681E+02  0.19722260163E+02  0.56219723868E+02  0.00000000000E+00 0.  1.
</event>
<event>
 6    1  0.5317355E-006  0.1301778E+03  0.7561462E-02  0.1227192E+00
         -2   -1    0    0    0  501 -0.00000000000E+00  0.00000000000E+00  0.46361292586E+02  0.46361292586E+02  0.00000000000E+00 0.  1.
          2   -1    0    0  501    0  0.00000000000E+00 -0.00000000000E+00 -0.60384284341E+03  0.60384284341E+03  0.00000000000E+00 0. -1.
          5    1    1    2  502    0  0.46126843355E+02  0.10682773563E+02 -0.28955774447E+02  0.55657134338E+02  0.41800000000E+01 0. -1.
         -5    1    1    2    0  502 -0.74065976956E+01 -0.10535066323E+03 -0.17649953056E+03  0.20572597459E+03  0.41800000000E+01 0. -1.
        -11    1    1    2    0    0  0.77434922172E+00  0.38274974261E+02 -0.94997175048E+01  0.39443857622E+02  0.00000000000E+00 0.  1.
         11    1    1    2    0    0 -0.39494594881E+02  0.56392915408E+02 -0.34252652830E+03  0.34937716944E+03  0.00000000000E+00 0. -1.
</event>
<event>
 6    1  0.5317355E-006  0.1741521E+03  0.7561462E-02  0.1173586E+00
         -2   -1    0    0    0  501 -0.00000000000E+00  0.00000000000E+00  0.26651536600E+03  0.26651536600E+03  0.00000000000E+00 0.  1.
          2   -1    0    0  501    0  0.00000000000E+00 -0.00000000000E+00 -0.15225592729E+03  0.15225592729E+03  0.00000000000E+00 0. -1.
          5    1    1    2  502    0 -0.33451983752E+02  0.14660720627E+03  0.10546211273E+03  0.18371836536E+03  0.41800000000E+01 0. -1.
         -5    1    1    2    0  502 -0.31763038763E+02 -0.30629392553E+02  0.51593524904E+02  0.68017751592E+02  0.41800000000E+01 0.  1.
        -11    1    1    2    0    0  0.77078157471E+02 -0.63856202936E+02 -0.51998786074E+02  0.11279419651E+03  0.00000000000E+00 0.  1.
         11    1    1    2    0    0 -0.11863134956E+02 -0.52121610785E+02  0.92025871443E+01  0.54240979821E+02  0.00000000000E+00 0. -1.
</event>
<event>
 6    1  0.5317355E-006  0.1500926E+03  0.7561462E-02  0.1200359E+00
          2   -1    0    0  501    0  0.00000000000E+00  0.00000000000E+00  0.77578677053E+02  0.77578677053E+02  0.00000000000E+00 0. -1.
         -2   -1    0    0    0  501 -0.00000000000E+00 -0.00000000000E+00 -0.36410911420E+03  0.36410911420E+03  0.00000000000E+00 0.  1.
          5    1    1    2  502    0 -0.13338608369E+02 -0.32484147512E+02 -0.37319697711E+02  0.51413719473E+02  0.41800000000E+01 0. -1.
         -5    1    1    2    0  502  0.11845353760E+03  0.45869428952E+02 -0.20276473501E+03  0.23930368832E+03  0.41800000000E+01 0. -1.
        -11    1    1    2    0    0 -0.58960675390E+02  0.36834220695E+02 -0.44873536565E+02  0.82745122760E+02  0.00000000000E+00 0.  1.
         11    1    1    2    0    0 -0.46154253840E+02 -0.50219502136E+02 -0.15724678637E+01  0.68225260699E+02  0.00000000000E+00 0. -1.
</event>
<event>
 6    1  0.5317355E-006  0.1608331E+03  0.7561462E-02  0.1187759E+00
         -3   -1    0    0    0  501 -0.00000000000E+00  0.00000000000E+00  0.39047732980E+03  0.39047732980E+03  0.00000000000E+00 0.  1.
          3   -1    0    0  501    0  0.00000000000E+00 -0.00000000000E+00 -0.94751323556E+02  0.94751323556E+02  0.00000000000E+00 0. -1.
          5    1    1    2  502    0  0.10145813545E+02  0.19831456615E+02  0.98152108790E+01  0.24698885978E+02  0.41800000000E+01 0. -1.
         -5    1    1    2    0  502 -0.13110932258E+03 -0.88846556116E+02  0.24015993335E+03  0.28771101993E+03  0.41800000000E+01 0.  1.
        -11    1    1    2    0    0  0.21387466587E+02  0.43126404257E+01 -0.26103563083E+02  0.34020855370E+02  0.00000000000E+00 0. -1.
         11    1    1    2    0    0  0.99576042448E+02  0.64702459075E+02  0.71854425100E+02  0.13879789208E+03  0.00000000000E+00 0.  1.
</event>
<event>
 6    1  0.5317355E-006  0.1239493E+03  0.7561462E-02  0.1236721E+00
         -2   -1    0    0    0  501 -0.00000000000E+00  0.00000000000E+00  0.23861680093E+03  0.23861680093E+03  0.00000000000E+00 0.  1.
          2   -1    0    0  501    0  0.00000000000E+00 -0.00000000000E+00 -0.10766961037E+03  0.10766961037E+03  0.00000000000E+00 0. -1.
          5    1    1    2  502    0 -0.37638463847E+02 -0.74788192483E+02  0.41712764366E+02  0.93634154061E+02  0.41800000000E+01 0.  1.
         -5    1    1    2    0  502 -0.28820461871E+02  0.28097166585E+02  0.11867258303E+03  0.12538231197E+03  0.41800000000E+01 0.  1.
        -11    1    1    2    0    0 -0.23869926711E+02  0.13111345546E+02 -0.96332415459E+01  0.28887369661E+02  0.00000000000E+00 0.  1.
         11    1    1    2    0    0  0.90328852430E+02  0.33579680351E+02 -0.19804915286E+02  0.98382575608E+02  0.00000000000E+00 0. -1.
</event>
<event>
 6    1  0.5317355E-006  0.1839206E+03  0.7561462E-02  0.1164062E+00
         -2   -1    0    0    0  501 -0.00000000000E+00  0.00000000000E+00  0.72472617841E+02  0.72472617841E+02  0.00000000000E+00 0. -1.
          2   -1    0    0  501    0  0.00000000000E+00 -0.00000000000E+00 -0.48743144544E+03  0.48743144544E+03  0.00000000000E+00 0.  1.
          5    1    1    2  502    0  0.11406931370E+02 -0.24493690906E+02 -0.62274754730E+02  0.68012325752E+02  0.41800000000E+01 0. -1.
         -5    1    1    2    0  502  0.99003843691E+02  0.13008746763E+03 -0.15010696967E+03  0.22197766789E+03  0.41800000000E+01 0. -1.
        -11    1    1    2    0    0 -0.31904209929E+02 -0.91897544854E+02 -0.94401356745E+02  0.13555313909E+03  0.00000000000E+00 0. -1.
         11    1    1    2    0    0 -0.78506565132E+02 -0.13696231873E+02 -0.10817574646E+03  0.13436093055E+03  0.00000000000E+00 0.  1.
</event>
<event>
 6    1  0.5317355E-006  0.5365511E+02  0.7561462E-02  0.1426568E+00
         -2   -1    0    0    0  501 -0.00000000000E+00  0.00000000000E+00  0.18447360664E+03  0.18447360664E+03  0.00000000000E+00 0. -1.
          2   -1    0    0  501    0  0.00000000000E+00 -0.00000000000E+00 -0.91801071815E+02  0.91801071815E+02  0.00000000000E+00 0.  1.
          5    1    1    2  502    0 -0.96402746119E+01 -0.78038521033E+01 -0.27235730943E+02  0.30217419517E+02  0.41800000000E+01 0. -1.
         -5    1    1    2    0  502 -0.27167133063E+02 -0.10418107289E+02  0.14022340537E+03  0.14327130171E+03  0.41800000000E+01 0. -1.
        -11    1    1    2    0    0 -0.57293984119E+01  0.21417090993E+02 -0.47350336882E+02  0.52283574816E+02  0.00000000000E+00 0.  1.
         11    1    1    2    0    0  0.42536806087E+02 -0.31951316007E+01  0.27035197283E+02  0.50502382420E+02  0.00000000000E+00 0. -1.
</event>
<event>
 6    1  0.5317355E-006  0.1073031E+03  0.7561462E-02  0.1265647E+00
         -2   -1    0    0    0  501 -0.00000000000E+00  0.00000000000E+00  0.23537494015E+03  0.23537494015E+03  0.00000000000E+00 0. -1.
          2   -1    0    0  501    0  0.00000000000E+00 -0.00000000000E+00 -0.12029918614E+03  0.12029918614E+03  0.00000000000E+00 0.  1.
          5    1    1    2  502    0  0.88183652025E+02 -0.45220617147E+02  0.11280704739E+03  0.15021372454E+03  0.41800000000E+01 0.  1.
         -5    1    1    2    0  502 -0.42018438651E+02 -0.48638829844E+01  0.63993487672E+02  0.76823469127E+02  0.41800000000E+01 0.  1.
        -11    1    1    2    0    0 -0.20844356440E+02  0.53706048450E+01 -0.72933071485E+02  0.76043168713E+02  0.00000000000E+00 0.  1.
         11    1    1    2    0    0 -0.25320856935E+02  0.44713895286E+02  0.11208290429E+02  0.52593763907E+02  0.00000000000E+00 0. -1.
</event>
<event>
 6    1  0.5317355E-006  0.8450321E+02  0.7561462E-02  0.1316737E+00
          1   -1    0    0  501    0  0.00000000000E+00  0.00000000000E+00  0.12465204364E+03  0.12465204364E+03  0.00000000000E+00 0. -1.
         -1   -1    0    0    0  501 -0.00000000000E+00 -0.00000000000E+00 -0.11012060811E+03  0.11012060811E+03  0.00000000000E+00 0.  1.
          5    1    1    2  502    0 -0.17966913140E+02 -0.32299323227E+02 -0.52231115087E+02  0.64121899784E+02  0.41800000000E+01 0. -1.
         -5    1    1    2    0  502  0.37981825706E+02  0.52436899669E+02  0.24219587329E+02  0.69255384926E+02  0.41800000000E+01 0.  1.
        -11    1    1    2    0    0  0.15503657479E+02 -0.26636605034E+02 -0.14361289056E+02  0.34001746224E+02  0.00000000000E+00 0.  1.
         11    1    1    2    0    0 -0.35518570045E+02  0.64990285918E+01  0.56904252352E+02  0.67393620814E+02  0.00000000000E+00 0. -1.
</event>
<event>
 6    1  0.5317355E-006  0.1694832E+03  0.7561462E-02  0.1178388E+00
          2   -1    0    0  501    0  0.00000000000E+00  0.00000000000E+00  0.68448396135E+03  0.68448396135E+03  0.00000000000E+00 0. -1.
         -2   -1    0    0    0  501 -0.00000000000E+00 -0.00000000000E+00 -0.56836231629E+02  0.56836231629E+02  0.00000000000E+00 0.  1.
          5    1    1    2  502    0 -0.43409814644E+02 -0.14284356930E+02  0.10543821510E+02  0.47086085337E+02  0.41800000000E+01 0. -1.
         -5    1    1    2    0  502 -0.10752962934E+03  0.73309377329E+02  0.27499002739E+03  0.30425954966E+03  0.41800000000E+01 0. -1.
        -11    1    1    2    0    0  0.97427068273E+02 -0.29736977452E+02  0.29733766140E+03  0.31430241225E+03  0.00000000000E+00 0. -1.
         11    1    1    2    0    0  0.53512375716E+02 -0.29288042947E+02  0.44776219412E+02  0.75672145729E+02  0.00000000000E+00 0.  1.
</event>
<event>
 6    1  0.5317355E-006  0.9709129E+02  0.7561462E-02  0.1286534E+00
         -3   -1    0    0    0  501 -0.00000000000E+00  0.00000000000E+00  0.37353463134E+02  0.37353463134E+02  0.00000000000E+00 0.  1.
          3   -1    0    0  501    0  0.00000000000E+00 -0.00000000000E+00 -0.36975779531E+03  0.36975779531E+03  0.00000000000E+00 0. -1.
          5    1    1    2  502    0  0.62937607385E+02  0.15289278639E+02 -0.11789004774E+03  0.13457503565E+03  0.41800000000E+01 0. -1.
         -5    1    1    2    0  502 -0.41058663134E+02 -0.60763868554E+01 -0.43687525041E+01  0.41943947049E+02  0.41800000000E+01 0. -1.
        -11    1    1    2    0    0 -0.11405636045E+02 -0.46993873815E+02 -0.70095190206E+02  0.85157785315E+02  0.00000000000E+00 0.  1.
         11    1    1    2    0    0 -0.10473308206E+02  0.37780982031E+02 -0.14005034173E+03  0.14543449043E+03  0.00000000000E+00 0. -1.
</event>
<event>
 6    1  0.5317355E-006  0.1183059E+03  0.7561462E-02  0.1245918E+00
         -3   -1    0    0    0  501 -0.00000000000E+00  0.00000000000E+00  0.31071252437E+02  0.31071252437E+02  0.00000000000E+00 0.  1.
          3   -1    0    0  501    0  0.00000000000E+00 -0.00000000000E+00 -0.57420481377E+03  0.57420481377E+03  0.00000000000E+00 0. -1.
          5    1    1    2  502    0  0.10056306114E+03  0.31345144818E+02 -0.15232004461E+03  0.18524123666E+03  0.41800000000E+01 0. -1.
         -5    1    1    2    0  502 -0.35922927455E+02 -0.84455235628E+01 -0.59330914381E+02  0.69995809778E+02  0.41800000000E+01 0. -1.
        -11    1    1    2    0    0 -0.46616290387E+02 -0.45504997272E+02 -0.30122798550E+03  0.30819163284E+03  0.00000000000E+00 0. -1.
         11    1    1    2    0    0 -0.18023843300E+02  0.22605376017E+02 -0.30254616847E+02  0.41847386928E+02  0.00000000000E+00 0.  1.
</event>
<event>
 6    1  0.5317355E-006  0.1191877E+03  0.7561462E-02  0.1244443E+00
         -1   -1    0    0    0  501 -0.00000000000E+00  0.00000000000E+00  0.40759755886E+02  0.40759755886E+02  0.00000000000E+00 0.  1.
          1   -1    0    0  501    0  0.00000000000E+00 -0.00000000000E+00 -0.46147684630E+03  0.46147684630E+03  0.00000000000E+00 0. -1.
          5    1    1    2  502    0 -0.93883174888E+02 -0.53818064544E+00 -0.15100978210E+03  0.17786446204E+03  0.41800000000E+01 0. -1.
         -5    1    1    2    0  502  0.27385412999E+02 -0.48657626910E+02 -0.88479610106E+02  0.10470739853E+03  0.41800000000E+01 0. -1.
        -11    1    1    2    0    0  0.41281713194E+02  0.47790431391E+02 -0.18373540155E+03  0.19428536476E+03  0.00000000000E+00 0. -1.
         11    1    1    2    0    0  0.25216048695E+02  0.14053761641E+01  0.25077033438E+01  0.25379376864E+02  0.00000000000E+00 0.  1.
</event>
<event>
 6    1  0.5317355E-006  0.1112406E+03  0.7561462E-02  0.1258290E+00
         -2   -1    0    0    0  501 -0.00000000000E+00  0.00000000000E+00  0.11818187667E+03  0.11818187667E+03  0.00000000000E+00 0.  1.
          2   -1    0    0  501    0  0.00000000000E+00 -0.00000000000E+00 -0.21951753274E+03  0.21951753274E+03  0.00000000000E+00 0. -1.
          5    1    1    2  502    0 -0.42837467578E+02  0.45045232093E+02  0.70209822808E+02  0.93866997297E+02  0.41800000000E+01 0.  1.
         -5    1    1    2    0  502 -0.28869934410E+02  0.25565981353E+02 -0.55102030241E+02  0.67385448370E+02  0.41800000000E+01 0.  1.
        -11    1    1    2    0    0  0.27675596181E+02 -0.72207295758E+02 -0.37277042980E+02  0.85845268466E+02  0.00000000000E+00 0.  1.
         11    1    1    2    0    0  0.44031805807E+02  0.15960823120E+01 -0.79166405658E+02  0.90601695272E+02  0.00000000000E+00 0. -1.
</event>
<event>
 6    1  0.5317355E-006  0.1531599E+03  0.7561462E-02  0.1196643E+00
          2   -1    0    0  501    0  0.00000000000E+00  0.00000000000E+00  0.29434907544E+03  0.29434907544E+03  0.00000000000E+00 0. -1.
         -2   -1    0    0    0  501 -0.00000000000E+00 -0.00000000000E+00 -0.13684145442E+03  0.13684145442E+03  0.00000000000E+00 0.  1.
          5    1    1    2  502    0 -0.50929940531E+02 -0.58252989019E+02 -0.69761344113E+01  0.77803653021E+02  0.41800000000E+01 0. -1.
         -5    1    1    2    0  502  0.59498851998E+02 -0.60669568106E+02 -0.44934787258E+02  0.96215993417E+02  0.41800000000E+01 0.  1.
        -11    1    1    2    0    0  0.28635354264E+02  0.95703575176E+02  0.11046780060E+03  0.14893721088E+03  0.00000000000E+00 0.  1.
         11    1    1    2    0    0 -0.37204265731E+02  0.23218981949E+02  0.98950742085E+02  0.10823367254E+03  0.00000000000E+00 0. -1.
</event>
<event>
 6    1  0.5317355E-006  0.2662580E+03  0.7561462E-02  0.1103441E+00
          1   -1    0    0  501    0  0.00000000000E+00  0.00000000000E+00  0.10005515525E+04  0.10005515525E+04  0.00000000000E+00 0. -1.
         -1   -1    0    0    0  501 -0.00000000000E+00 -0.00000000000E+00 -0.81974967187E+02  0.81974967187E+02  0.00000000000E+00 0.  1.
          5    1    1    2  502    0 -0.17870196137E+03 -0.15885397461E+03  0.22719779693E+03  0.32985646511E+03  0.41800000000E+01 0.  1.
         -5    1    1    2    0  502  0.20079765153E+02 -0.26655197480E+02  0.48544949702E+02  0.59057438676E+02  0.41800000000E+01 0.  1.
        -11    1    1    2    0    0  0.13657485936E+03  0.94441776928E+02  0.38500505496E+03  0.41928610016E+03  0.00000000000E+00 0.  1.
         11    1    1    2    0    0  0.22047336852E+02  0.91067395166E+02  0.25782878370E+03  0.27432651572E+03  0.00000000000E+00 0. -1.
</event>
<event>
 6    1  0.5317355E-006  0.1150219E+03  0.7561462E-02  0.1251543E+00
         -1   -1    0    0    0  501 -0.00000000000E+00  0.00000000000E+00  0.20490105397E+03  0.20490105397E+03  0.00000000000E+00 0.  1.
          1   -1    0    0  501    0  0.00000000000E+00 -0.00000000000E+00 -0.69084206360E+02  0.69084206360E+02  0.00000000000E+00 0. -1.
          5    1    1    2  502    0  0.40826289221E+02  0.35084373565E+02  0.54979281206E+02  0.77057724610E+02  0.41800000000E+01 0. -1.
         -5    1    1    2    0  502 -0.21319946663E+02 -0.71257261996E+02  0.34218039435E+02  0.81978558999E+02  0.41800000000E+01 0. -1.
        -11    1    1    2    0    0  0.37506263840E+02  0.99622533219E+01  0.38218055472E+01  0.38994519052E+02  0.00000000000E+00 0. -1.
         11    1    1    2    0    0 -0.57012606399E+02  0.26210635108E+02  0.42797721426E+02  0.75954457673E+02  0.00000000000E+00 0.  1.
</event>
<event>
 6    1  0.5317355E-006  0.1053163E+03  0.7561462E-02  0.1269498E+00
          2   -1    0    0  501    0  0.00000000000E+00  0.00000000000E+00  0.11428036244E+02  0.11428036244E+02  0.00000000000E+00 0. -1.
         -2   -1    0    0    0  501 -0.00000000000E+00 -0.00000000000E+00 -0.11114969873E+04  0.11114969873E+04  0.00000000000E+00 0.  1.
          5    1    1    2  502    0 -0.35636789788E+01  0.42503499696E+02 -0.36612430251E+03  0.36862409659E+03  0.41800000000E+01 0. -1.
         -5    1    1    2    0  502  0.19972955797E+02 -0.69302452386E+02 -0.22129703394E+03  0.23279089007E+03  0.41800000000E+01 0. -1.
        -11    1    1    2    0    0 -0.29761816017E+02 -0.26948855971E+02 -0.23239996389E+03  0.23584263768E+03  0.00000000000E+00 0.  1.
         11    1    1    2    0    0  0.13352539199E+02  0.53747808661E+02 -0.28024765075E+03  0.28566739924E+03  0.00000000000E+00 0. -1.
</event>
<event>
 6    1  0.5317355E-006  0.2780639E+03  0.7561462E-02  0.1096751E+00
         -1   -1    0    0    0  501 -0.00000000000E+00  0.00000000000E+00  0.26254505171E+03  0.26254505171E+03  0.00000000000E+00 0.  1.
          1   -1    0    0  501    0  0.00000000000E+00 -0.00000000000E+00 -0.45789860824E+03  0.45789860824E+03  0.00000000000E+00 0. -1.
          5    1    1    2  502    0 -0.25170136482E+03 -0.44986510802E+02  0.63473307907E+02  0.26348376880E+03  0.41800000000E+01 0.  1.
         -5    1    1    2    0  502 -0.11917261615E+02  0.20967375639E+02  0.40281380453E+02  0.47135061014E+02  0.41800000000E+01 0.  1.
        -11    1    1    2    0    0  0.14909795718E+03 -0.25314840623E+02 -0.12817039923E+03  0.19823898009E+03  0.00000000000E+00 0. -1.
         11    1    1    2    0    0  0.11452066926E+03  0.49333975786E+02 -0.17093784567E+03  0.21158585004E+03  0.00000000000E+00 0.  1.
</event>
<event>
 6    1  0.5317355E-006  0.8529613E+02  0.7561462E-02  0.1314660E+00
          1   -1    0    0  501    0  0.00000000000E+00  0.00000000000E+00  0.37104047221E+03  0.37104047221E+03  0.00000000000E+00 0. -1.
         -1   -1    0    0    0  501 -0.00000000000E+00 -0.00000000000E+00 -0.36044926066E+02  0.36044926066E+02  0.00000000000E+00 0.  1.
          5    1    1    2  502    0  0.31437530517E+02  0.25212185355E+02 -0.53349524481E+01  0.40864492325E+02  0.41800000000E+01 0.  1.
         -5    1    1    2    0  502 -0.13561748018E+02 -0.31215121775E+02  0.13902641304E+03  0.14319260023E+03  0.41800000000E+01 0.  1.
        -11    1    1    2    0    0  0.10308721878E+02 -0.40291202471E+02  0.95011123530E+02  0.10371482217E+03  0.00000000000E+00 0.  1.
         11    1    1    2    0    0 -0.28184504376E+02  0.46294138890E+02  0.10629296202E+03  0.11931348355E+03  0.00000000000E+00 0. -1.
</event>
<event>
 6    1  0.5317355E-006  0.1610964E+03  0.7561462E-02  0.1187464E+00
          1   -1    0    0  501    0  0.00000000000E+00  0.00000000000E+00  0.31910569591E+03  0.31910569591E+03  0.00000000000E+00 0. -1.
         -1   -1    0    0    0  501 -0.00000000000E+00 -0.00000000000E+00 -0.11429711153E+03  0.11429711153E+03  0.00000000000E+00 0.  1.
          5    1    1    2  502    0  0.48340431402E+02 -0.12687241032E+03  0.38747134409E+02  0.14125232258E+03  0.41800000000E+01 0. -1.
         -5    1    1    2    0  502  0.75157061316E+01 -0.17544677101E+02  0.98779071314E+02  0.10069299312E+03  0.41800000000E+01 0. -1.
        -11    1    1    2    0    0  0.22613468953E+01  0.80109867008E+02 -0.24991111065E+01  0.80180733585E+02  0.00000000000E+00 0.  1.
         11    1    1    2    0    0 -0.58117484429E+02  0.64307220414E+02  0.69781489767E+02  0.11127675817E+03  0.00000000000E+00 0. -1.
</event>
<event>
 6    1  0.5317355E-006  0.1713582E+03  0.7561462E-02  0.1176439E+00
         -1   -1    0    0    0  501 -0.00000000000E+00  0.00000000000E+00  0.65466222054E+02  0.65466222054E+02  0.00000000000E+00 0.  1.
          1   -1    0    0  501    0  0.00000000000E+00 -0.00000000000E+00 -0.66950052250E+03  0.66950052250E+03  0.00000000000E+00 0. -1.
          5    1    1    2  502    0  0.21837349317E+02  0.13570078739E+03 -0.72031277550E+02  0.15523385865E+03  0.41800000000E+01 0. -1.
         -5    1    1    2    0  502  0.40939566956E+02  0.13502346603E+02 -0.11144008937E+03  0.11956055965E+03  0.41800000000E+01 0. -1.
        -11    1    1    2    0    0 -0.20012146334E+02 -0.44315072956E+02 -0.25484174997E+03  0.25943906648E+03  0.00000000000E+00 0. -1.
         11    1    1    2    0    0 -0.42764769939E+02 -0.10488806104E+03 -0.16572118356E+03  0.20073325977E+03  0.00000000000E+00 0.  1.
</event>
<event>
 6    1  0.5317355E-006  0.1585671E+03  0.7561462E-02  0.1190324E+00
         -2   -1    0    0    0  501 -0.00000000000E+00  0.00000000000E+00  0.84697188077E+02  0.84697188077E+02  0.00000000000E+00 0.  1.
          2   -1    0    0  501    0  0.00000000000E+00 -0.00000000000E+00 -0.46400621626E+03  0.46400621626E+03  0.00000000000E+00 0. -1.
          5    1    1    2  502    0  0.73133845323E+02 -0.51683299674E+02 -0.29260413520E+02  0.94304649919E+02  0.41800000000E+01 0. -1.
         -5    1    1    2    0  502 -0.48774767857E+02 -0.78543325647E+02 -0.32067830053E+02  0.97948201145E+02  0.41800000000E+01 0. -1.
        -11    1    1    2    0    0 -0.62219079006E+01  0.95974703199E+02 -0.11552940314E+03  0.15032264893E+03  0.00000000000E+00 0.  1.
         11    1    1    2    0    0 -0.18137169566E+02  0.34251922122E+02 -0.20245138147E+03  0.20612790434E+03  0.00000000000E+00 0. -1.
</event>
<event>
 6    1  0.5317355E-006  0.1940103E+03  0.7561462E-02  0.1154893E+00
         -2   -1    0    0    0  501 -0.00000000000E+00  0.00000000000E+00  0.11201654633E+03  0.11201654633E+03  0.00000000000E+00 0.  1.
          2   -1    0    0  501    0  0.00000000000E+00 -0.00000000000E+00 -0.39328368964E+03  0.39328368964E+03  0.00000000000E+00 0. -1.
          5    1    1    2  502    0 -0.17269220294E+03 -0.36163141306E+02 -0.15940349893E+03  0.23781782443E+03  0.41800000000E+01 0. -1.
         -5    1    1    2    0  502  0.44162040150E+01 -0.25899307631E+02  0.84284185391E+01  0.27906766792E+02  0.41800000000E+01 0. -1.
        -11    1    1    2    0    0  0.17853621965E+02  0.23736599995E+02 -0.64442728766E+02  0.70958038920E+02  0.00000000000E+00 0.  1.
         11    1    1    2    0    0  0.15042237696E+03  0.38325848943E+02 -0.65849334152E+02  0.16861760583E+03  0.00000000000E+00 0. -1.
</event>
<event>
 6    1  0.5317355E-006  0.1342239E+03  0.7561462E-02  0.1221319E+00
         -2   -1    0    0    0  501 -0.00000000000E+00  0.00000000000E+00  0.40714868431E+02  0.40714868431E+02  0.00000000000E+00 0.  1.
          2   -1    0    0  501    0  0.00000000000E+00 -0.00000000000E+00 -0.47657985043E+03  0.47657985043E+03  0.00000000000E+00 0. -1.
          5    1    1    2  502    0 -0.96383201724E+01 -0.63544228639E+02 -0.88020517598E+02  0.10906809858E+03  0.41800000000E+01 0. -1.
         -5    1    1    2    0  502  0.84937562066E+02  0.21141458107E+02 -0.11991786144E+03  0.14852311804E+03  0.41800000000E+01 0. -1.
        -11    1    1    2    0    0 -0.72087365553E+02 -0.17832949467E+01 -0.18259723114E+03  0.19631993591E+03  0.00000000000E+00 0. -1.
         11    1    1    2    0    0 -0.32118763402E+01  0.44186065478E+02 -0.45329371823E+02  0.63383566340E+02  0.00000000000E+00 0.  1.
</event>
<event>
 6    1  0.5317355E-006  0.1171247E+03  0.7561462E-02  0.1247917E+00
         -1   -1    0    0    0  501 -0.00000000000E+00  0.00000000000E+00  0.18991403958E+03  0.18991403958E+03  0.00000000000E+00 0.  1.
          1   -1    0    0  501    0  0.00000000000E+00 -0.00000000000E+00 -0.11128496782E+03  0.11128496782E+03  0.00000000000E+00 0. -1.
          5    1    1    2  502    0  0.45618733005E+01  0.14337079462E+02  0.79844446010E+02  0.81357055590E+02  0.41800000000E+01 0.  1.
         -5    1    1    2    0  502 -0.85754215631E+02 -0.38963538156E+02  0.10857530707E+02  0.94906802587E+02  0.41800000000E+01 0.  1.
        -11    1    1    2    0    0  0.83343203252E+02  0.51118584317E+02 -0.94764166035E+01  0.98229331987E+02  0.00000000000E+00 0.  1.
         11    1    1    2    0    0 -0.21508609209E+01 -0.26492125623E+02 -0.25964883553E+01  0.26705817241E+02  0.00000000000E+00 0. -1.
</event>
<event>
 6    1  0.5317355E-006  0.1484787E+03  0.7561462E-02  0.1202355E+00
          2   -1    0    0  501    0  0.00000000000E+00  0.00000000000E+00  0.22343296198E+02  0.22343296198E+02  0.00000000000E+00 0. -1.
         -2   -1    0    0    0  501 -0.00000000000E+00 -0.00000000000E+00 -0.11737544382E+04  0.11737544382E+04  0.00000000000E+00 0.  1.
          5    1    1    2  502    0 -0.20672237921E+02  0.44986116219E+02 -0.29224887547E+03  0.29644218608E+03  0.41800000000E+01 0. -1.
         -5    1    1    2    0  502  0.11354843234E+03  0.80248312232E+01 -0.52537775414E+03  0.53758432022E+03  0.41800000000E+01 0. -1.
        -11    1    1    2    0    0  0.61765413536E+01 -0.31373652199E+02 -0.13724913732E+03  0.14092473668E+03  0.00000000000E+00 0.  1.
         11    1    1    2    0    0 -0.99052735771E+02 -0.21637295243E+02 -0.19653537508E+03  0.22114649142E+03  0.00000000000E+00 0. -1.
</event>
<event>
 6    1  0.5317355E-006  0.5842003E+02  0.7561462E-02  0.1404584E+00
          2   -1    0    0  501    0  0.00000000000E+00  0.00000000000E+00  0.31666564221E+03  0.31666564221E+03  0.00000000000E+00 0. -1.
         -2   -1    0    0    0  501 -0.00000000000E+00 -0.00000000000E+00 -0.43425425117E+02  0.43425425117E+02  0.00000000000E+00 0.  1.
          5    1    1    2  502    0 -0.22141565854E+02 -0.12040639475E+01  0.16505509991E+03  0.16659038722E+03  0.41800000000E+01 0.  1.
         -5    1    1    2    0  502 -0.21352050206E+02 -0.47697622028E+01 -0.19990024467E+02  0.29928818180E+02  0.41800000000E+01 0.  1.
        -11    1    1    2    0    0 -0.10089787752E+02  0.14580299678E+02  0.10161597048E+03  0.10315131804E+03  0.00000000000E+00 0. -1.
         11    1    1    2    0    0  0.53583403812E+02 -0.86064735276E+01  0.26559171167E+02  0.60420543888E+02  0.00000000000E+00 0.  1.
</event>
<event>
 6    1  0.5317355E-006  0.1468118E+03  0.7561462E-02  0.1204446E+00
         -3   -1    0    0    0  501 -0.00000000000E+00  0.00000000000E+00  0.60993296457E+02  0.60993296457E+02  0.00000000000E+00 0.  1.
          3   -1    0    0  501    0  0.00000000000E+00 -0.00000000000E+00 -0.47724332806E+03  0.47724332806E+03  0.00000000000E+00 0. -1.
          5    1    1    2  502    0 -0.10093361842E+03 -0.65053800189E+02 -0.99478803369E+02  0.15599069513E+03  0.41800000000E+01 0. -1.
         -5    1    1    2    0  502 -0.22567926479E+01  0.36542298768E+02 -0.93773436951E+00  0.36861693641E+02  0.41800000000E+01 0. -1.
        -11    1    1    2    0    0  0.26325052808E+02 -0.30077511345E+02 -0.61937954050E+02  0.73715502074E+02  0.00000000000E+00 0.  1.
         11    1    1    2    0    0  0.76865358263E+02  0.58589012766E+02 -0.25389553982E+03  0.27166873367E+03  0.00000000000E+00 0. -1.
</event>
<event>
 6    1  0.5317355E-006  0.1188478E+03  0.7561462E-02  0.1245010E+00
         -1   -1    0    0    0  501 -0.00000000000E+00  0.00000000000E+00  0.14737735660E+02  0.14737735660E+02  0.00000000000E+00 0.  1.
          1   -1    0    0  501    0  0.00000000000E+00 -0.00000000000E+00 -0.11011669375E+04  0.11011669375E+04  0.00000000000E+00 0. -1.
          5    1    1    2  502    0  0.34561194293E+02 -0.85569747398E+02 -0.39670198592E+03  0.40731633389E+03  0.41800000000E+01 0.  1.
         -5    1    1    2    0  502  0.14707107479E+02  0.44654247348E+02 -0.26074124193E+03  0.26497880756E+03  0.41800000000E+01 0.  1.
        -11    1    1    2    0    0 -0.29301018867E+02 -0.19025960021E+02 -0.61485575148E+02  0.70717839423E+02  0.00000000000E+00 0.  1.
         11    1    1    2    0    0 -0.19967282905E+02  0.59941460071E+02 -0.36750039880E+03  0.37289169224E+03  0.00000000000E+00 0. -1.
</event>
<event>
 6    1  0.5317355E-006  0.1933944E+03  0.7561462E-02  0.1155435E+00
          2   -1    0    0  501    0  0.00000000000E+00  0.00000000000E+00  0.13427224308E+03  0.13427224308E+03  0.00000000000E+00 0. -1.
         -2   -1    0    0    0  501 -0.00000000000E+00 -0.00000000000E+00 -0.41602643131E+03  0.41602643131E+03  0.00000000000E+00 0.  1.
          5    1    1    2  502    0 -0.28700568765E+02 -0.93718380503E+01 -0.14202230840E+03  0.14525619601E+03  0.41800000000E+01 0.  1.
         -5    1    1    2    0  502 -0.74776687536E+02 -0.13825589433E+03 -0.12847439088E+03  0.20305020765E+03  0.41800000000E+01 0.  1.
        -11    1    1    2    0    0 -0.14581295544E+02  0.24340488625E+02 -0.13176752845E+02  0.31284187408E+02  0.00000000000E+00 0.  1.
         11    1    1    2    0    0  0.11805855185E+03  0.12328724375E+03  0.19192638953E+01  0.17070808332E+03  0.00000000000E+00 0. -1.
</event>
<event>
 6    1  0.5317355E-006  0.1310744E+03  0.7561462E-02  0.1225870E+00
          2   -1    0    0  501    0  0.00000000000E+00  0.00000000000E+00  0.22004697686E+03  0.22004697686E+03  0.00000000000E+00 0. -1.
         -2   -1    0    0    0  501 -0.00000000000E+00 -0.00000000000E+00 -0.12653688007E+03  0.12653688007E+03  0.00000000000E+00 0.  1.
          5    1    1    2  502    0  0.41167695817E+01  0.93093506313E+02 -0.34634625476E+02  0.99500645181E+02  0.41800000000E+01 0. -1.
         -5    1    1    2    0  502 -0.30536004262E+02  0.28348431081E+02  0.68155328891E+02  0.79991889322E+02  0.41800000000E+01 0. -1.
        -11    1    1    2    0    0  0.26052863706E+02 -0.58348724606E+02  0.78610898588E+02  0.10130645955E+03  0.00000000000E+00 0. -1.
         11    1    1    2    0    0  0.36637097505E+00 -0.63093212788E+02 -0.18621505211E+02  0.65784862878E+02  0.00000000000E+00 0.  1.
</event>
<event>
 6    1  0.5317355E-006  0.1117960E+03  0.7561462E-02  0.1257280E+00
         -1   -1    0    0    0  501 -0.00000000000E+00  0.00000000000E+00  0.15136368974E+03  0.15136368974E+03  0.00000000000E+00 0.  1.
          1   -1    0    0  501    0  0.00000000000E+00 -0.00000000000E+00 -0.28648214948E+03  0.28648214948E+03  0.00000000000E+00 0. -1.
          5    1    1    2  502    0  0.73558289622E+02  0.51217870036E+02  0.11280779138E+03  0.14414285407E+03  0.41800000000E+01 0.  1.
         -5    1    1    2    0  502 -0.21485116415E+02 -0.18954447035E+02 -0.81500511872E+01  0.30079511700E+02  0.41800000000E+01 0.  1.
        -11    1    1    2    0    0  0.23710044026E+02 -0.41115501074E+01 -0.27877885195E+02  0.36827265917E+02  0.00000000000E+00 0.  1.
         11    1    1    2    0    0 -0.75783217233E+02 -0.28151872894E+02 -0.21189831474E+03  0.22679620754E+03  0.00000000000E+00 0. -1.
</event>
<event>
 6    1  0.5317355E-006  0.1190167E+03  0.7561462E-02  0.1244728E+00
          1   -1    0    0  501    0  0.00000000000E+00  0.00000000000E+00  0.24843661060E+03  0.24843661060E+03  0.00000000000E+00 0. -1.
         -1   -1    0    0    0  501 -0.00000000000E+00 -0.00000000000E+00 -0.64793357997E+02  0.64793357997E+02  0.00000000000E+00 0.  1.
          5    1    1    2  502    0 -0.10158142671E+03 -0.12410780598E+02  0.58419710019E+02  0.11791161371E+03  0.41800000000E+01 0. -1.
         -5    1    1    2    0  502  0.35786540904E+02  0.41172252464E+00  0.44926165172E+02  0.57590613318E+02  0.41800000000E+01 0. -1.
        -11    1    1    2    0    0 -0.15632739132E+02  0.91244725625E+01 -0.59751723308E+01  0.19061511396E+02  0.00000000000E+00 0.  1.
         11    1    1    2    0    0  0.81427624941E+02  0.28745855110E+01  0.86272549747E+02  0.11866623018E+03  0.00000000000E+00 0. -1.
</event>
<event>
 6    1  0.5317355E-006  0.9585674E+02  0.7561462E-02  0.1289258E+00
         -2   -1    0    0    0  501 -0.00000000000E+00  0.00000000000E+00  0.15580854771E+03  0.15580854771E+03  0.00000000000E+00 0.  1.
          2   -1    0    0  501    0  0.00000000000E+00 -0.00000000000E+00 -0.34014275318E+03  0.34014275318E+03  0.00000000000E+00 0. -1.
          5    1    1    2  502    0  0.37764441954E+02  0.62030276983E+02 -0.64528515233E+02  0.97238418420E+02  0.41800000000E+01 0. -1.
         -5    1    1    2    0  502 -0.24283083934E+01 -0.63434689958E+01  0.12712474382E+03  0.12737468027E+03  0.41800000000E+01 0.  1.
        -11    1    1    2    0    0 -0.17450138289E+02  0.23805603440E+02 -0.86593919115E+02  0.91486178788E+02  0.00000000000E+00 0.  1.
         11    1    1    2    0    0 -0.17885995271E+02 -0.79492411427E+02 -0.16033651494E+03  0.17985202341E+03  0.00000000000E+00 0. -1.
</event>
<event>
 6    1  0.5317355E-006  0.1332878E+03  0.7561462E-02  0.1222657E+00
          1   -1    0    0  501    0  0.00000000000E+00  0.00000000000E+00  0.29267829376E+02  0.29267829376E+02  0.00000000000E+00 0. -1.
         -1   -1    0    0    0  501 -0.00000000000E+00 -0.00000000000E+00 -0.84761005215E+03  0.84761005215E+03  0.00000000000E+00 0.  1.
          5    1    1    2  502    0 -0.19490551506E+02  0.10788045634E+03 -0.55826159408E+03  0.56893897237E+03  0.41800000000E+01 0.  1.
         -5    1    1    2    0  502 -0.98328972868E+01 -0.14475315734E+02 -0.89502670705E+01  0.20094783285E+02  0.41800000000E+01 0.  1.
        -11    1    1    2    0    0  0.60001910876E+02 -0.89781355172E+02 -0.21265679217E+03  0.23850331717E+03  0.00000000000E+00 0.  1.
         11    1    1    2    0    0 -0.30678462084E+02 -0.36237854313E+01 -0.38473569452E+02  0.49340808699E+02  0.00000000000E+00 0. -1.
</event>
<event>
 6    1  0.5317355E-006  0.1318358E+03  0.7561462E-02  0.1224757E+00
         -1   -1    0    0    0  501 -0.00000000000E+00  0.00000000000E+00  0.16314535472E+03  0.16314535472E+03  0.00000000000E+00 0.  1.
          1   -1    0    0  501    0  0.00000000000E+00 -0.00000000000E+00 -0.14265224244E+03  0.14265224244E+03  0.00000000000E+00 0. -1.
          5    1    1    2  502    0 -0.40882417628E+02  0.99852676500E+01  0.39742240538E+02  0.58034435676E+02  0.41800000000E+01 0.  1.
         -5    1    1    2    0  502  0.58636532077E+02  0.90583875673E+02 -0.11824856202E+01  0.10799329654E+03  0.41800000000E+01 0.  1.
        -11    1    1    2    0    0  0.17292111259E+02 -0.31066025208E+02 -0.45046788864E+02  0.57387526702E+02  0.00000000000E+00 0. -1.
         11    1    1    2    0    0 -0.35046225707E+02 -0.69503118115E+02  0.26980146225E+02  0.82382338243E+02  0.00000000000E+00 0.  1.
</event>
<event>
 6    1  0.5317355E-006  0.9616037E+02  0.7561462E-02  0.1288584E+00
          2   -1    0    0  501    0  0.00000000000E+00  0.00000000000E+00  0.27978422902E+03  0.27978422902E+03  0.00000000000E+00 0. -1.
         -2   -1    0    0    0  501 -0.00000000000E+00 -0.00000000000E+00 -0.77859804190E+02  0.77859804190E+02  0.00000000000E+00 0.  1.
          5    1    1    2  502    0 -0.26518531231E+02 -0.41014374533E+02  0.90872501729E+01  0.49854407355E+02  0.41800000000E+01 0. -1.
         -5    1    1    2    0  502 -0.34885323410E+01  0.87272932187E+02  0.53552694409E+01  0.87606425913E+02  0.41800000000E+01 0. -1.
        -11    1    1    2    0    0  0.84226762851E+01 -0.21048117142E+02 -0.63398484897E+01  0.23540569022E+02  0.00000000000E+00 0.  1.
         11    1    1    2    0    0  0.21584387286E+02 -0.25210440512E+02  0.19382175371E+03  0.19664263092E+03  0.00000000000E+00 0. -1.
</event>
<event>
 6    1  0.5317355E-006  0.1569089E+03  0.7561462E-02  0.1192231E+00
         -2   -1    0    0    0  501 -0.00000000000E+00  0.00000000000E+00  0.25323266091E+02  0.25323266091E+02  0.00000000000E+00 0.  1.
          2   -1    0    0  501    0  0.00000000000E+00 -0.00000000000E+00 -0.10218375842E+04  0.10218375842E+04  0.00000000000E+00 0. -1.
          5    1    1    2  502    0  0.54184687839E+02  0.23488766218E+02 -0.12393462603E+03  0.13734979601E+03  0.41800000000E+01 0. -1.
         -5    1    1    2    0  502  0.36424931157E+02 -0.99441176328E+02 -0.42015695354E+03  0.43331819852E+03  0.41800000000E+01 0. -1.
        -11    1    1    2    0    0 -0.73896133730E+02  0.31833549235E+01 -0.25127742274E+03  0.26193723582E+03  0.00000000000E+00 0. -1.
         11    1    1    2    0    0 -0.16713485266E+02  0.72769055186E+02 -0.20114531580E+03  0.21455561995E+03  0.00000000000E+00 0.  1.
</event>
<event>
 6    1  0.5317355E-006  0.8483918E+02  0.7561462E-02  0.1315854E+00
         -2   -1    0    0    0  501 -0.00000000000E+00  0.00000000000E+00  0.43302385210E+02  0.43302385210E+02  0.00000000000E+00 0. -1.
          2   -1    0    0  501    0  0.00000000000E+00 -0.00000000000E+00 -0.31180091931E+03  0.31180091931E+03  0.00000000000E+00 0.  1.
          5    1    1    2  502    0 -0.49500280124E+02 -0.11305778978E+02 -0.13452874197E+03  0.14385253973E+03  0.41800000000E+01 0. -1.
         -5    1    1    2    0  502  0.28839396597E+02 -0.18159565101E+02  0.10536201563E+02  0.35916076401E+02  0.41800000000E+01 0. -1.
        -11    1    1    2    0    0  0.42923041059E+02 -0.51590904684E+01 -0.11971551240E+03  0.12728239304E+03  0.00000000000E+00 0.  1.
         11    1    1    2    0    0 -0.22262157531E+02  0.34624434547E+02 -0.24790481291E+02  0.48052295349E+02  0.00000000000E+00 0. -1.
</event>
<event>
 6    1  0.5317355E-006  0.1068529E+03  0.7561462E-02  0.1266511E+00
         -2   -1    0    0    0  501 -0.00000000000E+00  0.00000000000E+00  0.29137033084E+02  0.29137033084E+02  0.00000000000E+00 0.  1.
          2   -1    0    0  501    0  0.00000000000E+00 -0.00000000000E+00 -0.61606119936E+03  0.61606119936E+03  0.00000000000E+00 0. -1.
          5    1    1    2  502    0 -0.60006227836E+02 -0.21314404302E+02 -0.35365660618E+02  0.72960630211E+02  0.41800000000E+01 0.  1.
         -5    1    1    2    0  502  0.16665085135E+02  0.42340708819E+02 -0.14323462488E+03  0.15034656914E+03  0.41800000000E+01 0.  1.
        -11    1    1    2    0    0  0.72672730015E+02 -0.16418624392E+02 -0.25245179035E+03  0.26321626729E+03  0.00000000000E+00 0. -1.
         11    1    1    2    0    0 -0.29331587314E+02 -0.46076801250E+01 -0.15587209042E+03  0.15867476581E+03  0.00000000000E+00 0.  1.
</event>
<event>
 6    1  0.5317355E-006  0.1338775E+03  0.7561462E-02  0.1221813E+00
          2   -1    0    0  501    0  0.00000000000E+00  0.00000000000E+00  0.59319712274E+03  0.59319712274E+03  0.00000000000E+00 0. -1.
         -2   -1    0    0    0  501 -0.00000000000E+00 -0.00000000000E+00 -0.56506701920E+02  0.56506701920E+02  0.00000000000E+00 0.  1.
          5    1    1    2  502    0  0.34880104985E+02 -0.18485581405E+01 -0.17948987558E+02  0.39492751807E+02  0.41800000000E+01 0.  1.
         -5    1    1    2    0  502  0.74429977651E+02  0.61174543381E+02  0.16076329319E+03  0.18746854448E+03  0.41800000000E+01 0.  1.
        -11    1    1    2    0    0 -0.45044674213E+02  0.48689818785E+01  0.51831755307E+02  0.68842287278E+02  0.00000000000E+00 0.  1.
         11    1    1    2    0    0 -0.64265408422E+02 -0.64194967119E+02  0.34204435988E+03  0.35390024110E+03  0.00000000000E+00 0. -1.
</event>
<event>
 6    1  0.5317355E-006  0.1129591E+03  0.7561462E-02  0.1255186E+00
         -2   -1    0    0    0  501 -0.00000000000E+00  0.00000000000E+00  0.67683329790E+02  0.67683329790E+02  0.00000000000E+00 0.  1.
          2   -1    0    0  501    0  0.00000000000E+00 -0.00000000000E+00 -0.19802704901E+03  0.19802704901E+03  0.00000000000E+00 0. -1.
          5    1    1    2  502    0 -0.20187428145E+01 -0.47390514356E+02 -0.39153013279E+02  0.61647116902E+02  0.41800000000E+01 0.  1.
         -5    1    1    2    0  502  0.31994044458E+02  0.75109274571E+02 -0.30644680381E+02  0.87301723024E+02  0.41800000000E+01 0.  1.
        -11    1    1    2    0    0 -0.44203774615E+02  0.18705492709E+02 -0.15262402197E+02  0.50366755589E+02  0.00000000000E+00 0.  1.
         11    1    1    2    0    0  0.14228472971E+02 -0.46424252924E+02 -0.45283623363E+02  0.66394783286E+02  0.00000000000E+00 0. -1.
</event>
<event>
 6    1  0.5317355E-006  0.1008621E+03  0.7561462E-02  0.1278494E+00
          1   -1    0    0  501    0  0.00000000000E+00  0.00000000000E+00  0.23954730101E+03  0.23954730101E+03  0.00000000000E+00 0. -1.
         -1   -1    0    0    0  501 -0.00000000000E+00 -0.00000000000E+00 -0.10567475568E+03  0.10567475568E+03  0.00000000000E+00 0.  1.
          5    1    1    2  502    0  0.75046072808E+02  0.54259311880E+01 -0.60867838995E+02  0.96869603061E+02  0.41800000000E+01 0.  1.
         -5    1    1    2    0  502  0.30755699677E+01 -0.30873056314E+02  0.43716630765E+02  0.53770074784E+02  0.41800000000E+01 0.  1.
        -11    1    1    2    0    0 -0.10715366793E+02  0.25493269663E+02 -0.16373623723E+01  0.27702108930E+02  0.00000000000E+00 0.  1.
         11    1    1    2    0    0 -0.67406275983E+02 -0.46144536620E-01  0.15266111593E+03  0.16688026991E+03  0.00000000000E+00 0. -1.
</event>
<event>
 6    1  0.5317355E-006  0.1608453E+03  0.7561462E-02  0.1187746E+00
          3   -1    0    0  501    0  0.00000000000E+00  0.00000000000E+00  0.90351532114E+02  0.90351532114E+02  0.00000000000E+00 0. -1.
         -3   -1    0    0    0  501 -0.00000000000E+00 -0.00000000000E+00 -0.41128251719E+03  0.41128251719E+03  0.00000000000E+00 0.  1.
          5    1    1    2  502    0 -0.20603811332E+02  0.14809154959E+02 -0.32992372788E+02  0.41830577025E+02  0.41800000000E+01 0. -1.
         -5    1    1    2    0  502  0.96694864654E+02 -0.11920983129E+03 -0.25851740185E+03  0.30068189202E+03  0.41800000000E+01 0. -1.
        -11    1    1    2    0    0 -0.61904874625E+02  0.34041354564E+02  0.18239132115E+02  0.72963643435E+02  0.00000000000E+00 0. -1.
         11    1    1    2    0    0 -0.14186178696E+02  0.70359321770E+02 -0.47660342548E+02  0.86157936824E+02  0.00000000000E+00 0.  1.
</event>
<event>
 6    1  0.5317355E-006  0.9337297E+02  0.7561462E-02  0.1294883E+00
          3   -1    0    0  501    0  0.00000000000E+00  0.00000000000E+00  0.51684447427E+02  0.51684447427E+02  0.00000000000E+00 0. -1.
         -3   -1    0    0    0  501 -0.00000000000E+00 -0.00000000000E+00 -0.34016592467E+03  0.34016592467E+03  0.00000000000E+00 0.  1.
          5    1    1    2  502    0 -0.49716393499E+02  0.18406196931E+02  0.27088444506E+01  0.53247705174E+02  0.41800000000E+01 0. -1.
         -5    1    1    2    0  502 -0.10261412921E+02  0.27778296260E+02 -0.15504287773E+03  0.15790090776E+03  0.41800000000E+01 0. -1.
        -11    1    1    2    0    0  0.11288131744E+02 -0.53274648289E+02 -0.26589182024E+02  0.60601936185E+02  0.00000000000E+00 0. -1.
         11    1    1    2    0    0  0.48689674675E+02  0.70901550988E+01 -0.10955826194E+03  0.12009982298E+03  0.00000000000E+00 0.  1.
</event>
<event>
 6    1  0.5317355E-006  0.9991251E+02  0.7561462E-02  0.1280480E+00
          3   -1    0    0  501    0  0.00000000000E+00  0.00000000000E+00  0.48694012785E+03  0.48694012785E+03  0.00000000000E+00 0. -1.
         -3   -1    0    0    0  501 -0.00000000000E+00 -0.00000000000E+00 -0.30288621793E+02  0.30288621793E+02  0.00000000000E+00 0.  1.
          5    1    1    2  502    0 -0.80845873209E+02  0.16436844868E+02  0.87078017713E+02  0.12002615820E+03  0.41800000000E+01 0.  1.
         -5    1    1    2    0  502  0.40161622776E+02  0.90142091402E+01  0.11701655898E+03  0.12411510539E+03  0.41800000000E+01 0.  1.
        -11    1    1    2    0    0  0.64037204298E-01 -0.34278464980E+02  0.26735001508E+02  0.43471571950E+02  0.00000000000E+00 0.  1.
         11    1    1    2    0    0  0.40620213229E+02  0.88274109723E+01  0.22582192785E+03  0.22961591410E+03  0.00000000000E+00 0. -1.
</event>
<event>
 6    1  0.5317355E-006  0.9891429E+02  0.7561462E-02  0.1282596E+00
          2   -1    0    0  501    0  0.00000000000E+00  0.00000000000E+00  0.33095032213E+03  0.33095032213E+03  0.00000000000E+00 0. -1.
         -2   -1    0    0    0  501 -0.00000000000E+00 -0.00000000000E+00 -0.63321742620E+02  0.63321742620E+02  0.00000000000E+00 0.  1.
          5    1    1    2  502    0  0.20906823525E+02 -0.83126307551E+01  0.12044420273E+03  0.12259883145E+03  0.41800000000E+01 0. -1.
         -5    1    1    2    0  502  0.61873498089E+02 -0.35093959867E+02 -0.52479009753E+01  0.71448783402E+02  0.41800000000E+01 0. -1.
        -11    1    1    2    0    0 -0.47850629405E+02  0.48799716279E+02  0.33427457207E+02  0.76082126276E+02  0.00000000000E+00 0.  1.
         11    1    1    2    0    0 -0.34929692210E+02 -0.53931256570E+01  0.11900482055E+03  0.12414232363E+03  0.00000000000E+00 0. -1.
</event>
<event>
 6    1  0.5317355E-006  0.1459031E+03  0.7561462E-02  0.1205600E+00
          3   -1    0    0  501    0  0.00000000000E+00  0.00000000000E+00  0.55729702623E+02  0.55729702623E+02  0.00000000000E+00 0. -1.
         -3   -1    0    0    0  501 -0.00000000000E+00 -0.00000000000E+00 -0.40711404877E+03  0.40711404877E+03  0.00000000000E+00 0.  1.
          5    1    1    2  502    0  0.58442285111E+01 -0.54122585700E+02 -0.29636621068E+02  0.62122548226E+02  0.41800000000E+01 0. -1.
         -5    1    1    2    0  502 -0.98992634966E+02  0.79526070622E+01 -0.15268794011E+03  0.18219183624E+03  0.41800000000E+01 0. -1.
        -11    1    1    2    0    0  0.10982879422E+03  0.28409047240E+02 -0.14680999153E+03  0.18553331674E+03  0.00000000000E+00 0. -1.
         11    1    1    2    0    0 -0.16680387768E+02  0.17760931398E+02 -0.22249793432E+02  0.32996050188E+02  0.00000000000E+00 0.  1.
</event>
<event>
 6    1  0.5317355E-006  0.1393984E+03  0.7561462E-02  0.1214141E+00
         -1   -1    0    0    0  501 -0.00000000000E+00  0.00000000000E+00  0.19590180588E+02  0.19590180588E+02  0.00000000000E+00 0.  1.
          1   -1    0    0  501    0  0.00000000000E+00 -0.00000000000E+00 -0.10804530528E+04  0.10804530528E+04  0.00000000000E+00 0. -1.
          5    1    1    2  502    0 -0.37608365389E+02 -0.79899079999E+02 -0.38081070183E+03  0.39093799401E+03  0.41800000000E+01 0.  1.
         -5    1    1    2    0  502 -0.48479229981E+02  0.37753662035E+02 -0.13448800640E+03  0.14791913670E+03  0.41800000000E+01 0.  1.
        -11    1    1    2    0    0  0.21526901290E+02  0.58388026861E+02 -0.20754945123E+03  0.21667797273E+03  0.00000000000E+00 0.  1.
         11    1    1    2    0    0  0.64560694080E+02 -0.16242608896E+02 -0.33801471271E+03  0.34450812991E+03  0.00000000000E+00 0. -1.
</event>
<event>
 6    1  0.5317355E-006  0.1081446E+03  0.7561462E-02  0.1264045E+00
          2   -1    0    0  501    0  0.00000000000E+00  0.00000000000E+00  0.34907333552E+02  0.34907333552E+02  0.00000000000E+00 0. -1.
         -2   -1    0    0    0  501 -0.00000000000E+00 -0.00000000000E+00 -0.35875791197E+03  0.35875791197E+03  0.00000000000E+00 0.  1.
          5    1    1    2  502    0  0.43293138684E+02 -0.43771997872E+02 -0.90309267933E+02  0.10937787678E+03  0.41800000000E+01 0. -1.
         -5    1    1    2    0  502 -0.29609327375E+02  0.56403989529E+02 -0.12342551864E+03  0.13895845910E+03  0.41800000000E+01 0. -1.
        -11    1    1    2    0    0  0.88074711600E+01  0.36052699666E+02 -0.66696172760E+02  0.76326588829E+02  0.00000000000E+00 0.  1.
         11    1    1    2    0    0 -0.22491282469E+02 -0.48684691323E+02 -0.43419619078E+02  0.69002320810E+02  0.00000000000E+00 0. -1.
</event>
<event>
 6    1  0.5317355E-006  0.1009197E+03  0.7561462E-02  0.1278374E+00
         -4   -1    0    0    0  501 -0.00000000000E+00  0.00000000000E+00  0.74137987459E+02  0.74137987459E+02  0.00000000000E+00 0.  1.
          4   -1    0    0  501    0  0.00000000000E+00 -0.00000000000E+00 -0.18633098437E+03  0.18633098437E+03  0.00000000000E+00 0. -1.
          5    1    1    2  502    0  0.44411740227E+02  0.55911168731E+02 -0.28083107383E+02  0.76841361123E+02  0.41800000000E+01 0. -1.
         -5    1    1    2    0  502 -0.57788733387E+02 -0.15546461710E+02 -0.11451628923E+02  0.61072435544E+02  0.41800000000E+01 0. -1.
        -11    1    1    2    0    0 -0.21723401951E+02 -0.21104392963E+02  0.90117055616E+01  0.31599247330E+02  0.00000000000E+00 0.  1.
         11    1    1    2    0    0  0.35100395111E+02 -0.19260314058E+02 -0.81669966171E+02  0.90955927838E+02  0.00000000000E+00 0. -1.
</event>
<event>
 6    1  0.5317355E-006  0.1496419E+03  0.7561462E-02  0.1200914E+00
          2   -1    0    0  501    0  0.00000000000E+00  0.00000000000E+00  0.16293446405E+04  0.16293446405E+04  0.00000000000E+00 0. -1.
         -2   -1    0    0    0  501 -0.00000000000E+00 -0.00000000000E+00 -0.14231815342E+02  0.14231815342E+02  0.00000000000E+00 0.  1.
          5    1    1    2  502    0 -0.12569530266E+03 -0.30755535547E+02  0.85235269224E+03  0.86212980255E+03  0.41800000000E+01 0. -1.
         -5    1    1    2    0  502  0.17309918887E+02  0.21026787935E+02  0.11657418296E+03  0.11978635830E+03  0.41800000000E+01 0.  1.
        -11    1    1    2    0    0  0.11051063568E+03  0.35751226228E+02  0.52631810218E+03  0.53898190642E+03  0.00000000000E+00 0.  1.
         11    1    1    2    0    0 -0.21252519078E+01 -0.26022478615E+02  0.11986784783E+03  0.12267838861E+03  0.00000000000E+00 0. -1.
</event>
<event>
 6    1  0.5317355E-006  0.2085975E+03  0.7561462E-02  0.1142681E+00
          3   -1    0    0  501    0  0.00000000000E+00  0.00000000000E+00  0.66298574547E+03  0.66298574547E+03  0.00000000000E+00 0. -1.
         -3   -1    0    0    0  501 -0.00000000000E+00 -0.00000000000E+00 -0.69777080804E+02  0.69777080804E+02  0.00000000000E+00 0.  1.
          5    1    1    2  502    0 -0.16945723456E+03 -0.91392605597E+02  0.28323219053E+03  0.34250008592E+03  0.41800000000E+01 0.  1.
         -5    1    1    2    0  502 -0.41706059241E+01  0.29160136611E+02  0.33829541283E+02  0.45051279498E+02  0.41800000000E+01 0.  1.
        -11    1    1    2    0    0  0.94438609531E+02  0.66593920689E+02  0.10313487265E+03  0.15488771158E+03  0.00000000000E+00 0.  1.
         11    1    1    2    0    0  0.79189230957E+02 -0.43614517036E+01  0.17301206021E+03  0.19032374928E+03  0.00000000000E+00 0. -1.
</event>
<event>
 6    1  0.5317355E-006  0.8818391E+02  0.7561462E-02  0.1307310E+00
          1   -1    0    0  501    0  0.00000000000E+00  0.00000000000E+00  0.11269393819E+03  0.11269393819E+03  0.00000000000E+00 0. -1.
         -1   -1    0    0    0  501 -0.00000000000E+00 -0.00000000000E+00 -0.12076104568E+03  0.12076104568E+03  0.00000000000E+00 0.  1.
          5    1    1    2  502    0  0.44127563339E+02  0.26788647389E+02 -0.57618093129E+02  0.77473805451E+02  0.41800000000E+01 0. -1.
         -5    1    1    2    0  502 -0.21956064093E+02 -0.47817388967E+02  0.20364345729E+02  0.56575174901E+02  0.41800000000E+01 0. -1.
        -11    1    1    2    0    0 -0.85297480463E+01  0.44139887679E+02  0.48659734874E+02  0.66248442126E+02  0.00000000000E+00 0. -1.
         11    1    1    2    0    0 -0.13641751199E+02 -0.23111146101E+02 -0.19473094971E+02  0.33157561395E+02  0.00000000000E+00 0.  1.
</event>
<event>
 6    1  0.5317355E-006  0.1037107E+03  0.7561462E-02  0.1272681E+00
         -1   -1    0    0    0  501 -0.00000000000E+00  0.00000000000E+00  0.13212242105E+03  0.13212242105E+03  0.00000000000E+00 0.  1.
          1   -1    0    0  501    0  0.00000000000E+00 -0.00000000000E+00 -0.15715044828E+03  0.15715044828E+03  0.00000000000E+00 0. -1.
          5    1    1    2  502    0 -0.27721173668E+02 -0.89342121001E+01 -0.28798820461E+02  0.41171933101E+02  0.41800000000E+01 0. -1.
         -5    1    1    2    0  502  0.46309649910E+02 -0.52417287646E+02  0.85131797021E+02  0.11025901769E+03  0.41800000000E+01 0. -1.
        -11    1    1    2    0    0  0.27878836665E+01 -0.21849015178E+02 -0.43047628601E+01  0.22442877330E+02  0.00000000000E+00 0.  1.
         11    1    1    2    0    0 -0.21376359908E+02  0.83200514924E+02 -0.77056240930E+02  0.11539904121E+03  0.00000000000E+00 0. -1.
</event>
<event>
 6    1  0.5317355E-006  0.1223609E+03  0.7561462E-02  0.1239252E+00
          1   -1    0    0  501    0  0.00000000000E+00  0.00000000000E+00  0.64553950850E+03  0.64553950850E+03  0.00000000000E+00 0. -1.
         -1   -1    0    0    0  501 -0.00000000000E+00 -0.00000000000E+00 -0.32700210824E+02  0.32700210824E+02  0.00000000000E+00 0.  1.
          5    1    1    2  502    0 -0.13089518874E+02  0.11473556180E+02 -0.58539487356E+01  0.18833988201E+02  0.41800000000E+01 0.  1.
         -5    1    1    2    0  502 -0.21938507218E+02 -0.96088026409E+02  0.26982777188E+03  0.28729550257E+03  0.41800000000E+01 0.  1.
        -11    1    1    2    0    0 -0.26818272362E+02  0.51387695548E+02  0.18413067938E+03  0.19303891337E+03  0.00000000000E+00 0. -1.
         11    1    1    2    0    0  0.61846298453E+02  0.33226774680E+02  0.16473479515E+03  0.17907131518E+03  0.00000000000E+00 0.  1.
</event>
<event>
 6    1  0.5317355E-006  0.1589333E+03  0.7561462E-02  0.1189906E+00
         -2   -1    0    0    0  501 -0.00000000000E+00  0.00000000000E+00  0.68185484019E+02  0.68185484019E+02  0.00000000000E+00 0.  1.
          2   -1    0    0  501    0  0.00000000000E+00 -0.00000000000E+00 -0.56648865573E+03  0.56648865573E+03  0.00000000000E+00 0. -1.
          5    1    1    2  502    0 -0.58573012493E+02 -0.60143884429E+02 -0.78829137796E+02  0.11523710337E+03  0.41800000000E+01 0.  1.
         -5    1    1    2    0  502 -0.66559729681E+02  0.50039616854E+02 -0.13046562796E+02  0.84391030750E+02  0.41800000000E+01 0.  1.
        -11    1    1    2    0    0  0.12172549315E+03  0.33929388457E+02 -0.37323247372E+03  0.39404413271E+03  0.00000000000E+00 0.  1.
         11    1    1    2    0    0  0.34072490199E+01 -0.23825120882E+02 -0.33194997405E+02  0.41001872928E+02  0.00000000000E+00 0. -1.
</event>
<event>
 6    1  0.5317355E-006  0.1114974E+03  0.7561462E-02  0.1257822E+00
          2   -1    0    0  501    0  0.00000000000E+00  0.00000000000E+00  0.18823608149E+03  0.18823608149E+03  0.00000000000E+00 0. -1.
         -2   -1    0    0    0  501 -0.00000000000E+00 -0.00000000000E+00 -0.95323149945E+02  0.95323149945E+02  0.00000000000E+00 0.  1.
          5    1    1    2  502    0  0.52782283060E+02 -0.18633299534E+02 -0.24914563981E+02  0.61411539265E+02  0.41800000000E+01 0.  1.
         -5    1    1    2    0  502 -0.69142865708E+02 -0.76962461383E+01  0.79944869689E+00  0.69699925402E+02  0.41800000000E+01 0.  1.
        -11    1    1    2    0    0  0.21968990774E+02  0.59552715107E+02  0.68715305649E+02  0.93546542762E+02  0.00000000000E+00 0. -1.
         11    1    1    2    0    0 -0.56084081271E+01 -0.33223169435E+02  0.48312741180E+02  0.58901224006E+02  0.00000000000E+00 0.  1.
</event>
<event>
 6    1  0.5317355E-006  0.2699409E+03  0.7561462E-02  0.1101313E+00
         -1   -1    0    0    0  501 -0.00000000000E+00  0.00000000000E+00  0.22905444153E+03  0.22905444153E+03  0.00000000000E+00 0.  1.
          1   -1    0    0  501    0  0.00000000000E+00 -0.00000000000E+00 -0.37202535161E+03  0.37202535161E+03  0.00000000000E+00 0. -1.
          5    1    1    2  502    0  0.22191348633E+02 -0.41411069412E+02  0.23125041525E+01  0.47224492580E+02  0.41800000000E+01 0.  1.
         -5    1    1    2    0  502  0.22746739929E+03  0.45080729895E+02  0.32988691494E+02  0.23426356122E+03  0.41800000000E+01 0.  1.
        -11    1    1    2    0    0 -0.13656556267E+03  0.35493421325E+02 -0.12531720078E+03  0.18871761093E+03  0.00000000000E+00 0.  1.
         11    1    1    2    0    0 -0.11309318526E+03 -0.39163081809E+02 -0.52954904957E+02  0.13087412841E+03  0.00000000000E+00 0. -1.
</event>
<event>
 6    1  0.5317355E-006  0.1203187E+03  0.7561462E-02  0.1242572E+00
          2   -1    0    0  501    0  0.00000000000E+00  0.00000000000E+00  0.47950864692E+03  0.47950864692E+03  0.00000000000E+00 0. -1.
         -2   -1    0    0    0  501 -0.00000000000E+00 -0.00000000000E+00 -0.38222955744E+02  0.38222955744E+02  0.00000000000E+00 0.  1.
          5    1    1    2  502    0  0.45651853944E+02  0.61059819311E+02  0.60171391268E+02  0.97213486873E+02  0.41800000000E+01 0. -1.
         -5    1    1    2    0  502 -0.67089436227E+02 -0.11093022453E+02  0.20009264267E+03  0.21137309586E+03  0.41800000000E+01 0.  1.
        -11    1    1    2    0    0 -0.28222874041E+02 -0.40350771768E+01  0.97952644428E+02  0.10201731724E+03  0.00000000000E+00 0.  1.
         11    1    1    2    0    0  0.49660456324E+02 -0.45931719681E+02  0.83069012809E+02  0.10712770269E+03  0.00000000000E+00 0. -1.
</event>
<event>
 6    1  0.5317355E-006  0.1811182E+03  0.7561462E-02  0.1166725E+00
          3   -1    0    0  501    0  0.00000000000E+00  0.00000000000E+00  0.76375494596E+03  0.76375494596E+03  0.00000000000E+00 0. -1.
         -3   -1    0    0    0  501 -0.00000000000E+00 -0.00000000000E+00 -0.53638116580E+02  0.53638116580E+02  0.00000000000E+00 0.  1.
          5    1    1    2  502    0  0.12547399278E+03  0.90013086938E+02  0.17521856009E+03  0.23359172692E+03  0.41800000000E+01 0. -1.
         -5    1    1    2    0  502  0.26458964366E+02 -0.35526583786E+02  0.96894657086E+02  0.10662205177E+03  0.41800000000E+01 0. -1.
        -11    1    1    2    0    0 -0.95820906498E+02 -0.46764826456E+02  0.38540660936E+03  0.39988354512E+03  0.00000000000E+00 0. -1.
         11    1    1    2    0    0 -0.56112050650E+02 -0.77216766966E+01  0.52597002836E+02  0.77295738734E+02  0.00000000000E+00 0.  1.
</event>
<event>
 6    1  0.5317355E-006  0.1338552E+03  0.7561462E-02  0.1221845E+00
          1   -1    0    0  501    0  0.00000000000E+00  0.00000000000E+00  0.70677318607E+03  0.70677318607E+03  0.00000000000E+00 0. -1.
         -1   -1    0    0    0  501 -0.00000000000E+00 -0.00000000000E+00 -0.40914223586E+02  0.40914223586E+02  0.00000000000E+00 0.  1.
          5    1    1    2  502    0 -0.57828309114E+01 -0.12357359937E+02  0.10165739471E+03  0.10265400030E+03  0.41800000000E+01 0.  1.
         -5    1    1    2    0  502  0.40298163292E+02  0.11804971859E+03  0.10373516272E+03  0.16229027823E+03  0.41800000000E+01 0.  1.
        -11    1    1    2    0    0 -0.15492559631E+02  0.50294233333E+01  0.11511998573E+02  0.19945942298E+02  0.00000000000E+00 0.  1.
         11    1    1    2    0    0 -0.19022772749E+02 -0.11072178198E+03  0.44895440648E+03  0.46279718883E+03  0.00000000000E+00 0. -1.
</event>
<event>
 6    1  0.5317355E-006  0.7929420E+02  0.7561462E-02  0.1331066E+00
         -2   -1    0    0    0  501 -0.00000000000E+00  0.00000000000E+00  0.25902508218E+02  0.25902508218E+02  0.00000000000E+00 0.  1.
          2   -1    0    0  501    0  0.00000000000E+00 -0.00000000000E+00 -0.52415182131E+03  0.52415182131E+03  0.00000000000E+00 0. -1.
          5    1    1    2  502    0  0.36493868928E+02  0.54343996479E+02 -0.63886180173E+02  0.91564124196E+02  0.41800000000E+01 0. -1.
         -5    1    1    2    0  502 -0.28956361885E+02 -0.11413005002E+02 -0.21388736268E+03  0.21618048916E+03  0.41800000000E+01 0. -1.
        -11    1    1    2    0    0  0.18095888786E+02 -0.13596558683E+02 -0.47923108226E+01  0.23136418089E+02  0.00000000000E+00 0.  1.
         11    1    1    2    0    0 -0.25633395829E+02 -0.29334432794E+02 -0.21568345941E+03  0.21917329809E+03  0.00000000000E+00 0. -1.
</event>
<event>
 6    1  0.5317355E-006  0.1010470E+03  0.7561462E-02  0.1278109E+00
         -2   -1    0    0    0  501 -0.00000000000E+00  0.00000000000E+00  0.51463059008E+02  0.51463059008E+02  0.00000000000E+00 0.  1.
          2   -1    0    0  501    0  0.00000000000E+00 -0.00000000000E+00 -0.30661221344E+03  0.30661221344E+03  0.00000000000E+00 0. -1.
          5    1    1    2  502    0 -0.22084036969E+02 -0.49247605891E+02 -0.46627306511E+02  0.71446549863E+02  0.41800000000E+01 0.  1.
         -5    1    1    2    0  502 -0.21774925270E+02  0.78372086553E+02 -0.80206390553E+02  0.11431040551E+03  0.41800000000E+01 0.  1.
        -11    1    1    2    0    0  0.84692703913E+01  0.10430629975E+02  0.14614312683E+02  0.19852070870E+02  0.00000000000E+00 0.  1.
         11    1    1    2    0    0  0.35389691848E+02 -0.39555110638E+02 -0.14292977005E+03  0.15246624621E+03  0.00000000000E+00 0. -1.
</event>
<event>
 6    1  0.5317355E-006  0.1363005E+03  0.7561462E-02  0.1218395E+00
          2   -1    0    0  501    0  0.00000000000E+00  0.00000000000E+00  0.54619599928E+03  0.54619599928E+03  0.00000000000E+00 0. -1.
         -2   -1    0    0    0  501 -0.00000000000E+00 -0.00000000000E+00 -0.49700688575E+02  0.49700688575E+02  0.00000000000E+00 0.  1.
          5    1    1    2  502    0  0.84723357314E+01 -0.10020977486E+03  0.41894677192E+02  0.10902484041E+03  0.41800000000E+01 0. -1.
         -5    1    1    2    0  502  0.33648231845E+02  0.18917160654E+02  0.77363435126E+02  0.86560013678E+02  0.41800000000E+01 0. -1.
        -11    1    1    2    0    0 -0.72059082880E+02  0.71771650542E+02  0.30588465257E+03  0.32234934764E+03  0.00000000000E+00 0.  1.
         11    1    1    2    0    0  0.29938515304E+02  0.95209636641E+01  0.71352545811E+02  0.77962486116E+02  0.00000000000E+00 0. -1.
</event>
<event>
 6    1  0.5317355E-006  0.1121672E+03  0.7561462E-02  0.1256608E+00
         -4   -1    0    0    0  501 -0.00000000000E+00  0.00000000000E+00  0.52972453066E+02  0.52972453066E+02  0.00000000000E+00 0.  1.
          4   -1    0    0  501    0  0.00000000000E+00 -0.00000000000E+00 -0.28471818786E+03  0.28471818786E+03  0.00000000000E+00 0. -1.
          5    1    1    2  502    0 -0.39088571802E+02 -0.85069278215E+01 -0.50828956163E+02  0.64817740250E+02  0.41800000000E+01 0. -1.
         -5    1    1    2    0  502  0.81220321921E+02  0.24318428070E+02 -0.26176138625E+02  0.88830114657E+02  0.41800000000E+01 0. -1.
        -11    1    1    2    0    0 -0.52987855466E+02  0.23849103620E+02 -0.82315012382E+02  0.10075839337E+03  0.00000000000E+00 0.  1.
         11    1    1    2    0    0  0.10856105347E+02 -0.39660603869E+02 -0.72425627619E+02  0.83284392647E+02  0.00000000000E+00 0. -1.
</event>
<event>
 6    1  0.5317355E-006  0.1035798E+03  0.7561462E-02  0.1272943E+00
          2   -1    0    0  501    0  0.00000000000E+00  0.00000000000E+00  0.14441871599E+02  0.14441871599E+02  0.00000000000E+00 0. -1.
         -2   -1    0    0    0  501 -0.00000000000E+00 -0.00000000000E+00 -0.12229659424E+04  0.12229659424E+04  0.00000000000E+00 0.  1.
          5    1    1    2  502    0  0.52926242366E+02 -0.15470750887E+02 -0.76476082794E+03  0.76675754161E+03  0.41800000000E+01 0. -1.
         -5    1    1    2    0  502 -0.25983222875E+01  0.47350480663E+02 -0.12561411970E+03  0.13433241889E+03  0.41800000000E+01 0. -1.
        -11    1    1    2    0    0 -0.74603255694E+02 -0.20050716196E+02 -0.18540552249E+03  0.20085538268E+03  0.00000000000E+00 0.  1.
         11    1    1    2    0    0  0.24275335616E+02 -0.11829013580E+02 -0.13274360069E+03  0.13546247083E+03  0.00000000000E+00 0. -1.
</event>
<event>
 6    1  0.5317355E-006  0.1926179E+03  0.7561462E-02  0.1156121E+00
         -1   -1    0    0    0  501 -0.00000000000E+00  0.00000000000E+00  0.13589080240E+03  0.13589080240E+03  0.00000000000E+00 0.  1.
          1   -1    0    0  501    0  0.00000000000E+00 -0.00000000000E+00 -0.41011685975E+03  0.41011685975E+03  0.00000000000E+00 0. -1.
          5    1    1    2  502    0 -0.11576768185E+01  0.15321803263E+02 -0.20117766064E+02  0.25657255938E+02  0.41800000000E+01 0. -1.
         -5    1    1    2    0  502  0.83032824814E+02 -0.17282704309E+03  0.68706344701E+01  0.19190704739E+03  0.41800000000E+01 0. -1.
        -11    1    1    2    0    0 -0.51453183879E+02  0.96691177029E+02 -0.22783901873E+03  0.25279879806E+03  0.00000000000E+00 0. -1.
         11    1    1    2    0    0 -0.30421964116E+02  0.60814062802E+02 -0.33139907020E+02  0.75644560759E+02  0.00000000000E+00 0.  1.
</event>
<event>
 6    1  0.5317355E-006  0.6940134E+02  0.7561462E-02  0.1362141E+00
         -1   -1    0    0    0  501 -0.00000000000E+00  0.00000000000E+00  0.17300382134E+03  0.17300382134E+03  0.00000000000E+00 0.  1.
          1   -1    0    0  501    0  0.00000000000E+00 -0.00000000000E+00 -0.68106368841E+02  0.68106368841E+02  0.00000000000E+00 0. -1.
          5    1    1    2  502    0 -0.52771455403E+01 -0.18542461664E+02 -0.29629959463E+02  0.35596039771E+02  0.41800000000E+01 0. -1.
         -5    1    1    2    0  502 -0.19322565339E+02  0.17999750234E+02  0.10084088185E+03  0.10432501326E+03  0.41800000000E+01 0.  1.
        -11    1    1    2    0    0  0.41735167330E+02 -0.33966585931E+02  0.32035246742E+02  0.62624357767E+02  0.00000000000E+00 0.  1.
         11    1    1    2    0    0 -0.17135456451E+02  0.34509297361E+02  0.16512833740E+01  0.38564779384E+02  0.00000000000E+00 0. -1.
</event>
<event>
 6    1  0.5317355E-006  0.2639507E+03  0.7561462E-02  0.1104793E+00
          2   -1    0    0  501    0  0.00000000000E+00  0.00000000000E+00  0.10831049535E+03  0.10831049535E+03  0.00000000000E+00 0.  1.
         -2   -1    0    0    0  501 -0.00000000000E+00 -0.00000000000E+00 -0.82352071641E+03  0.82352071641E+03  0.00000000000E+00 0. -1.
          5    1    1    2  502    0 -0.51372508787E+02  0.40919519168E+02 -0.12080149106E+03  0.13756458247E+03  0.41800000000E+01 0. -1.
         -5    1    1    2    0  502 -0.18534696663E+03 -0.88005207060E+02 -0.46064832223E+03  0.50429432248E+03  0.41800000000E+01 0. -1.
        -11    1    1    2    0    0  0.48839757132E+02 -0.25934820847E+02 -0.35638167826E+02  0.65787657012E+02  0.00000000000E+00 0. -1.
         11    1    1    2    0    0  0.18787971828E+03  0.73020508739E+02 -0.98122239943E+02  0.22418464981E+03  0.00000000000E+00 0.  1.
</event>
<event>
 6    1  0.5317355E-006  0.1090736E+03  0.7561462E-02  0.1262295E+00
         -1   -1    0    0    0  501 -0.00000000000E+00  0.00000000000E+00  0.17555749329E+03  0.17555749329E+03  0.00000000000E+00 0.  1.
          1   -1    0    0  501    0  0.00000000000E+00 -0.00000000000E+00 -0.81569288807E+02  0.81569288807E+02  0.00000000000E+00 0. -1.
          5    1    1    2  502    0  0.18768434329E+02  0.70803509573E+02  0.11687594167E+02  0.74293090880E+02  0.41800000000E+01 0.  1.
         -5    1    1    2    0  502  0.19998862144E+02 -0.43992181816E+02  0.60774406424E+02  0.77757748322E+02  0.41800000000E+01 0.  1.
        -11    1    1    2    0    0 -0.63458869426E+02 -0.55692846690E+01  0.31426823418E+02  0.71033022396E+02  0.00000000000E+00 0.  1.
         11    1    1    2    0    0  0.24691572953E+02 -0.21242043088E+02 -0.99006195220E+01  0.34042920503E+02  0.00000000000E+00 0. -1.
</event>
<event>
 6    1  0.5317355E-006  0.1438008E+03  0.7561462E-02  0.1208304E+00
         -1   -1    0    0    0  501 -0.00000000000E+00  0.00000000000E+00  0.19055540787E+03  0.19055540787E+03  0.00000000000E+00 0.  1.
          1   -1    0    0  501    0  0.00000000000E+00 -0.00000000000E+00 -0.12094447780E+03  0.12094447780E+03  0.00000000000E+00 0. -1.
          5    1    1    2  502    0  0.37749609352E+02 -0.11499860720E+03  0.19942255528E+02  0.12273906721E+03  0.41800000000E+01 0.  1.
         -5    1    1    2    0  502 -0.27965321424E+02  0.11915576705E+02  0.39872665755E+02  0.50312444236E+02  0.41800000000E+01 0.  1.
        -11    1    1    2    0    0  0.36684566244E+02  0.23234575936E+02  0.14934135027E+02  0.45919835675E+02  0.00000000000E+00 0. -1.
         11    1    1    2    0    0 -0.46468854173E+02  0.79848454561E+02 -0.51381262376E+01  0.92528538544E+02  0.00000000000E+00 0.  1.
</event>
<event>
 6    1  0.5317355E-006  0.1942628E+03  0.7561462E-02  0.1154672E+00
          2   -1    0    0  501    0  0.00000000000E+00  0.00000000000E+00  0.12174796388E+04  0.12174796388E+04  0.00000000000E+00 0. -1.
         -2   -1    0    0    0  501 -0.00000000000E+00 -0.00000000000E+00 -0.37485655671E+02  0.37485655671E+02  0.00000000000E+00 0.  1.
          5    1    1    2  502    0  0.17829503774E+03  0.18268359464E+02  0.38492720712E+03  0.42462840298E+03  0.41800000000E+01 0.  1.
         -5    1    1    2    0  502 -0.75287942615E+01 -0.20909349571E+02  0.12973721447E+02  0.26070548339E+02  0.41800000000E+01 0.  1.
        -11    1    1    2    0    0 -0.16723588311E+02 -0.25054041955E+02  0.99505425871E+02  0.10396496142E+03  0.00000000000E+00 0.  1.
         11    1    1    2    0    0 -0.15404265517E+03  0.27695032063E+02  0.68258762872E+03  0.70030138176E+03  0.00000000000E+00 0. -1.
</event>
<event>
 6    1  0.5317355E-006  0.1247912E+03  0.7561462E-02  0.1235396E+00
          1   -1    0    0  501    0  0.00000000000E+00  0.00000000000E+00  0.11763339810E+04  0.11763339810E+04  0.00000000000E+00 0. -1.
         -1   -1    0    0    0  501 -0.00000000000E+00 -0.00000000000E+00 -0.21540091309E+02  0.21540091309E+02  0.00000000000E+00 0.  1.
          5    1    1    2  502    0  0.18640335053E+02 -0.67837161642E+02  0.14193869582E+03  0.15847210594E+03  0.41800000000E+01 0.  1.
         -5    1    1    2    0  502 -0.42145330299E+02 -0.43526609150E+02  0.57242502484E+03  0.57563762562E+03  0.41800000000E+01 0.  1.
        -11    1    1    2    0    0  0.36140601685E+00  0.76670901611E+02  0.39384720029E+03  0.40124079422E+03  0.00000000000E+00 0. -1.
         11    1    1    2    0    0  0.23143589229E+02  0.34692869182E+02  0.46582968772E+02  0.62523546557E+02  0.00000000000E+00 0.  1.
</event>
<event>
 6    1  0.5317355E-006  0.1093468E+03  0.7561462E-02  0.1261784E+00
          1   -1    0    0  501    0  0.00000000000E+00  0.00000000000E+00  0.11231195831E+03  0.11231195831E+03  0.00000000000E+00 0. -1.
         -1   -1    0    0    0  501 -0.00000000000E+00 -0.00000000000E+00 -0.12373403600E+03  0.12373403600E+03  0.00000000000E+00 0.  1.
          5    1    1    2  502    0  0.77958051195E+02  0.15704665059E+02  0.13244537280E+02  0.80727841656E+02  0.41800000000E+01 0. -1.
         -5    1    1    2    0  502 -0.35706450674E+02  0.47484545350E+01 -0.36079826333E+02  0.51153931505E+02  0.41800000000E+01 0.  1.
        -11    1    1    2    0    0 -0.71307029834E+02 -0.10454096297E+02  0.13667580319E+02  0.73353823247E+02  0.00000000000E+00 0.  1.
         11    1    1    2    0    0  0.29055429313E+02 -0.99990232974E+01 -0.22543689602E+01  0.30810397902E+02  0.00000000000E+00 0. -1.
</event>
<event>
 6    1  0.5317355E-006  0.1153873E+03  0.7561462E-02  0.1250907E+00
         -1   -1    0    0    0  501 -0.00000000000E+00  0.00000000000E+00  0.58411364768E+03  0.58411364768E+03  0.00000000000E+00 0.  1.
          1   -1    0    0  501    0  0.00000000000E+00 -0.00000000000E+00 -0.37862633081E+02  0.37862633081E+02  0.00000000000E+00 0. -1.
          5    1    1    2  502    0  0.61626218573E+02 -0.62243433870E+01  0.10513974967E+03  0.12209984696E+03  0.41800000000E+01 0. -1.
         -5    1    1    2    0  502 -0.76514540116E+02  0.17737524802E+02  0.38481618709E+03  0.39277228120E+03  0.41800000000E+01 0.  1.
        -11    1    1    2    0    0 -0.35987004701E+02  0.54780947058E+01  0.30946944581E+02  0.47778524547E+02  0.00000000000E+00 0.  1.
         11    1    1    2    0    0  0.50875326244E+02 -0.16991276121E+02  0.25348133264E+02  0.59325628059E+02  0.00000000000E+00 0. -1.
</event>
<event>
 6    1  0.5317355E-006  0.1402765E+03  0.7561462E-02  0.1212957E+00
         -1   -1    0    0    0  501 -0.00000000000E+00  0.00000000000E+00  0.10340448705E+03  0.10340448705E+03  0.00000000000E+00 0.  1.
          1   -1    0    0  501    0  0.00000000000E+00 -0.00000000000E+00 -0.29342317028E+03  0.29342317028E+03  0.00000000000E+00 0. -1.
          5    1    1    2  502    0  0.10563633965E+03  0.77112928438E+02  0.28797083935E+01  0.13088622963E+03  0.41800000000E+01 0.  1.
         -5    1    1    2    0  502 -0.89573484928E+00 -0.33494824421E+02 -0.19041375646E+02  0.38765345225E+02  0.41800000000E+01 0.  1.
        -11    1    1    2    0    0 -0.58686656789E+02 -0.11548533873E+02 -0.15787443666E+03  0.16882485028E+03  0.00000000000E+00 0. -1.
         11    1    1    2    0    0 -0.46053948011E+02 -0.32069570144E+02 -0.15982579315E+02  0.58351232191E+02  0.00000000000E+00 0.  1.
</event>
<event>
 6    1  0.5317355E-006  0.1529278E+03  0.7561462E-02  0.1196921E+00
          2   -1    0    0  501    0  0.00000000000E+00  0.00000000000E+00  0.32839619816E+03  0.32839619816E+03  0.00000000000E+00 0. -1.
         -2   -1    0    0    0  501 -0.00000000000E+00 -0.00000000000E+00 -0.78988085907E+02  0.78988085907E+02  0.00000000000E+00 0.  1.
          5    1    1    2  502    0 -0.20439182851E+02 -0.15846877014E+02  0.59625502760E+02  0.65127234595E+02  0.41800000000E+01 0.  1.
         -5    1    1    2    0  502  0.68884675253E+00  0.13347065026E+03  0.68915470807E+02  0.15027209823E+03  0.41800000000E+01 0.  1.
        -11    1    1    2    0    0 -0.33417510774E+02 -0.41900430534E+02  0.26361127451E+02  0.59726754020E+02  0.00000000000E+00 0.  1.
         11    1    1    2    0    0  0.53167846872E+02 -0.75723342710E+02  0.94506011230E+02  0.13225819722E+03  0.00000000000E+00 0. -1.
</event>
<event>
 6    1  0.5317355E-006  0.1796215E+03  0.7561462E-02  0.1168170E+00
         -2   -1    0    0    0  501 -0.00000000000E+00  0.00000000000E+00  0.19178359110E+02  0.19178359110E+02  0.00000000000E+00 0.  1.
          2   -1    0    0  501    0  0.00000000000E+00 -0.00000000000E+00 -0.19186947249E+04  0.19186947249E+04  0.00000000000E+00 0. -1.
          5    1    1    2  502    0 -0.24250047424E+02 -0.14166490052E+02 -0.18297648215E+03  0.18516646473E+03  0.41800000000E+01 0. -1.
         -5    1    1    2    0  502  0.15805352548E+03 -0.62869622050E+02 -0.97466054784E+03  0.98940091076E+03  0.41800000000E+01 0. -1.
        -11    1    1    2    0    0 -0.46228012764E+02  0.35285016243E+01 -0.87609959908E+02  0.99121060138E+02  0.00000000000E+00 0.  1.
         11    1    1    2    0    0 -0.87575465294E+02  0.73507610477E+02 -0.65426937594E+03  0.66418464843E+03  0.00000000000E+00 0. -1.
</event>
<event>
 6    1  0.5317355E-006  0.9329781E+02  0.7561462E-02  0.1295057E+00
         -2   -1    0    0    0  501 -0.00000000000E+00  0.00000000000E+00  0.10734517777E+03  0.10734517777E+03  0.00000000000E+00 0.  1.
          2   -1    0    0  501    0  0.00000000000E+00 -0.00000000000E+00 -0.22098211224E+03  0.22098211224E+03  0.00000000000E+00 0. -1.
          5    1    1    2  502    0 -0.13054881761E+02 -0.17689946974E+02  0.59784940768E+02  0.63836319634E+02  0.41800000000E+01 0.  1.
         -5    1    1    2    0  502  0.67536330467E+02 -0.34078682637E+02 -0.36237896846E+02  0.83983153734E+02  0.41800000000E+01 0.  1.
        -11    1    1    2    0    0 -0.76220983301E+01  0.39205170393E+02 -0.56810131606E+01  0.40341240425E+02  0.00000000000E+00 0. -1.
         11    1    1    2    0    0 -0.46859350377E+02  0.12563459218E+02 -0.13150296523E+03  0.14016657622E+03  0.00000000000E+00 0.  1.
</event>
<event>
 6    1  0.5317355E-006  0.9073462E+02  0.7561462E-02  0.1301082E+00
         -2   -1    0    0    0  501 -0.00000000000E+00  0.00000000000E+00  0.28689567817E+03  0.28689567817E+03  0.00000000000E+00 0.  1.
          2   -1    0    0  501    0  0.00000000000E+00 -0.00000000000E+00 -0.45776472005E+02  0.45776472005E+02  0.00000000000E+00 0. -1.
          5    1    1    2  502    0  0.50072710321E+02  0.31804240284E+02  0.90024551987E+02  0.10789197551E+03  0.41800000000E+01 0.  1.
         -5    1    1    2    0  502 -0.73647626080E+01 -0.57352473691E+02  0.77475325892E+01  0.58489679671E+02  0.41800000000E+01 0.  1.
        -11    1    1    2    0    0 -0.25006025462E+02 -0.78667282426E+01  0.11773691432E+03  0.12061993084E+03  0.00000000000E+00 0.  1.
         11    1    1    2    0    0 -0.17701922251E+02  0.33414961649E+02  0.25610207262E+02  0.45670564146E+02  0.00000000000E+00 0. -1.
</event>
<event>
 6    1  0.5317355E-006  0.6931047E+02  0.7561462E-02  0.1362454E+00
          2   -1    0    0  501    0  0.00000000000E+00  0.00000000000E+00  0.58449279713E+02  0.58449279713E+02  0.00000000000E+00 0.  1.
         -2   -1    0    0    0  501 -0.00000000000E+00 -0.00000000000E+00 -0.22204107702E+03  0.22204107702E+03  0.00000000000E+00 0. -1.
          5    1    1    2  502    0 -0.47663038808E+01 -0.36150072781E+02  0.12559314566E+02  0.38791161327E+02  0.41800000000E+01 0. -1.
         -5    1    1    2    0  502  0.24190750936E+02  0.16919839235E+02 -0.13531438663E+03  0.13856019998E+03  0.41800000000E+01 0. -1.
        -11    1    1    2    0    0 -0.39745675113E+02 -0.54683190928E+01 -0.55067055256E+02  0.68132237439E+02  0.00000000000E+00 0. -1.
         11    1    1    2    0    0  0.20321228058E+02  0.24698552639E+02  0.14230330013E+02  0.35006757983E+02  0.00000000000E+00 0.  1.
</event>
<event>
 6    1  0.5317355E-006  0.1177389E+03  0.7561462E-02  0.1246874E+00
         -1   -1    0    0    0  501 -0.00000000000E+00  0.00000000000E+00  0.43799028071E+02  0.43799028071E+02  0.00000000000E+00 0.  1.
          1   -1    0    0  501    0  0.00000000000E+00 -0.00000000000E+00 -0.37134862593E+03  0.37134862593E+03  0.00000000000E+00 0. -1.
          5    1    1    2  502    0 -0.41252999925E+02 -0.13228940111E+02 -0.96593352508E+02  0.10594603819E+03  0.41800000000E+01 0. -1.
         -5    1    1    2    0  502  0.84767239821E+02  0.33165384911E+02 -0.58847237419E+02  0.10847072165E+03  0.41800000000E+01 0.  1.
        -11    1    1    2    0    0  0.97491634084E+01  0.27706707276E+02 -0.71745507787E+02  0.77525000502E+02  0.00000000000E+00 0.  1.
         11    1    1    2    0    0 -0.53263403304E+02 -0.47643152076E+02 -0.10036350014E+03  0.12320589366E+03  0.00000000000E+00 0. -1.
</event>
<event>
 6    1  0.5317355E-006  0.9093339E+02  0.7561462E-02  0.1300607E+00
          1   -1    0    0  501    0  0.00000000000E+00  0.00000000000E+00  0.44719691763E+03  0.44719691763E+03  0.00000000000E+00 0. -1.
         -1   -1    0    0    0  501 -0.00000000000E+00 -0.00000000000E+00 -0.32569943548E+02  0.32569943548E+02  0.00000000000E+00 0.  1.
          5    1    1    2  502    0 -0.69342323344E+02  0.13389610179E+01  0.22797460644E+03  0.23832759849E+03  0.41800000000E+01 0.  1.
         -5    1    1    2    0  502  0.17432495909E+02  0.13252403951E+02 -0.51070311068E+01  0.22870773726E+02  0.41800000000E+01 0.  1.
        -11    1    1    2    0    0  0.46016407553E+02 -0.41851944000E+02  0.69946422010E+02  0.93603402356E+02  0.00000000000E+00 0.  1.
         11    1    1    2    0    0  0.58934198824E+01  0.27260579031E+02  0.12181297674E+03  0.12496508660E+03  0.00000000000E+00 0. -1.
</event>
<event>
 6    1  0.5317355E-006  0.1841409E+03  0.7561462E-02  0.1163855E+00
         -2   -1    0    0    0  501 -0.00000000000E+00  0.00000000000E+00  0.16657353292E+03  0.16657353292E+03  0.00000000000E+00 0.  1.
          2   -1    0    0  501    0  0.00000000000E+00 -0.00000000000E+00 -0.24589850467E+03  0.24589850467E+03  0.00000000000E+00 0. -1.
          5    1    1    2  502    0  0.75312416437E+02  0.52210788459E+02  0.40770940004E+02  0.10038759111E+03  0.41800000000E+01 0.  1.
         -5    1    1    2    0  502  0.90764754446E+02 -0.32779012936E+02 -0.49698801736E+02  0.10862848444E+03  0.41800000000E+01 0.  1.
        -11    1    1    2    0    0 -0.93089680840E+02 -0.43969917944E+02 -0.73331139870E+02  0.12639817419E+03  0.00000000000E+00 0.  1.
         11    1    1    2    0    0 -0.72987490042E+02  0.24538142421E+02  0.29340298524E+01  0.77057787843E+02  0.00000000000E+00 0. -1.
</event>
<event>
 6    1  0.5770033E-006  0.2087460E+03  0.7561462E-02  0.1142563E+00
         -1   -1    0    0    0  501 -0.00000000000E+00  0.00000000000E+00  0.85118909309E+02  0.85118909309E+02  0.00000000000E+00 0.  1.
          1   -1    0    0  501    0  0.00000000000E+00 -0.00000000000E+00 -0.66475700659E+03  0.66475700659E+03  0.00000000000E+00 0. -1.
          5    1    1    2  502    0  0.13438115197E+03  0.63273541668E+02 -0.58488297069E+02  0.15968778405E+03  0.41800000000E+01 0. -1.
         -5    1    1    2    0  502  0.54803310600E+02 -0.32288697604E+02 -0.10051317407E+03  0.11902240716E+03  0.41800000000E+01 0. -1.
        -11    1    1    2    0    0 -0.76903633178E+02 -0.49359826671E+02 -0.24905045637E+03  0.26528605523E+03  0.00000000000E+00 0.  1.
         11    1    1    2    0    0 -0.11228082939E+03  0.18374982607E+02 -0.17158616978E+03  0.20587966946E+03  0.00000000000E+00 0. -1.
</event>
<event>
 6    1  0.5317355E-006  0.1204359E+03  0.7561462E-02  0.1242380E+00
         -2   -1    0    0    0  501 -0.00000000000E+00  0.00000000000E+00  0.51243234548E+02  0.51243234548E+02  0.00000000000E+00 0.  1.
          2   -1    0    0  501    0  0.00000000000E+00 -0.00000000000E+00 -0.48367803489E+03  0.48367803489E+03  0.00000000000E+00 0. -1.
          5    1    1    2  502    0 -0.58273877661E+02 -0.74805993952E+02 -0.16455165624E+03  0.18996447436E+03  0.41800000000E+01 0. -1.
         -5    1    1    2    0  502 -0.13175180798E+02  0.28841167808E+01  0.22194344074E+02  0.26305224339E+02  0.41800000000E+01 0.  1.
        -11    1    1    2    0    0 -0.19492426787E+02  0.11144280294E+02 -0.52818760739E+02  0.57393128259E+02  0.00000000000E+00 0.  1.
         11    1    1    2    0    0  0.90941485246E+02  0.60777596877E+02 -0.23725872744E+03  0.26125844248E+03  0.00000000000E+00 0. -1.
</event>
<event>
 6    1  0.5317355E-006  0.1153341E+03  0.7561462E-02  0.1250999E+00
         -4   -1    0    0    0  501 -0.00000000000E+00  0.00000000000E+00  0.21776652992E+03  0.21776652992E+03  0.00000000000E+00 0. -1.
          4   -1    0    0  501    0  0.00000000000E+00 -0.00000000000E+00 -0.64863702133E+02  0.64863702133E+02  0.00000000000E+00 0.  1.
          5    1    1    2  502    0 -0.77792711072E+02 -0.31712991542E+02  0.50792993084E+02  0.98258945012E+02  0.41800000000E+01 0. -1.
         -5    1    1    2    0  502  0.32038509626E+02  0.34656188543E+02  0.49296093659E+02  0.68374664558E+02  0.41800000000E+01 0. -1.
        -11    1    1    2    0    0 -0.22554539544E+02 -0.18436285425E+02  0.15027034180E+01  0.29169538767E+02  0.00000000000E+00 0.  1.
         11    1    1    2    0    0  0.68308740989E+02  0.15493088425E+02  0.51311037625E+02  0.86827083716E+02  0.00000000000E+00 0. -1.
</event>
<event>
 6    1  0.5317355E-006  0.1123387E+03  0.7561462E-02  0.1256299E+00
         -2   -1    0    0    0  501 -0.00000000000E+00  0.00000000000E+00  0.21749628086E+02  0.21749628086E+02  0.00000000000E+00 0.  1.
          2   -1    0    0  501    0  0.00000000000E+00 -0.00000000000E+00 -0.10051290142E+04  0.10051290142E+04  0.00000000000E+00 0. -1.
          5    1    1    2  502    0 -0.48994958741E+01  0.21347105249E+02 -0.32952992756E+03  0.33028343816E+03  0.41800000000E+01 0.  1.
         -5    1    1    2    0  502 -0.59594721406E+01  0.71673851888E+02 -0.78006046526E+02  0.10618414217E+03  0.41800000000E+01 0.  1.
        -11    1    1    2    0    0 -0.20867721598E+02 -0.96213528592E+02 -0.43238033139E+03  0.44344701584E+03  0.00000000000E+00 0. -1.
         11    1    1    2    0    0  0.31726689612E+02  0.31925714550E+01 -0.14346308067E+03  0.14696404615E+03  0.00000000000E+00 0.  1.
</event>
<event>
 6    1  0.5317355E-006  0.1398771E+03  0.7561462E-02  0.1213494E+00
         -2   -1    0    0    0  501 -0.00000000000E+00  0.00000000000E+00  0.75125826795E+02  0.75125826795E+02  0.00000000000E+00 0.  1.
          2   -1    0    0  501    0  0.00000000000E+00 -0.00000000000E+00 -0.32734852579E+03  0.32734852579E+03  0.00000000000E+00 0. -1.
          5    1    1    2  502    0 -0.55993936704E+02  0.12767297551E+02 -0.21504412026E+02  0.61467365088E+02  0.41800000000E+01 0. -1.
         -5    1    1    2    0  502 -0.51572022466E+01 -0.10679781937E+03 -0.93903985695E+02  0.14236503042E+03  0.41800000000E+01 0. -1.
        -11    1    1    2    0    0  0.58410749686E+02  0.70840862764E+02 -0.14687782324E+03  0.17321471784E+03  0.00000000000E+00 0. -1.
         11    1    1    2    0    0  0.27403892645E+01  0.23189659058E+02  0.10063521971E+02  0.25427239232E+02  0.00000000000E+00 0.  1.
</event>
<event>
 6    1  0.5317355E-006  0.9347160E+02  0.7561462E-02  0.1294656E+00
         -2   -1    0    0    0  501 -0.00000000000E+00  0.00000000000E+00  0.30159077463E+02  0.30159077463E+02  0.00000000000E+00 0. -1.
          2   -1    0    0  501    0  0.00000000000E+00 -0.00000000000E+00 -0.43980428387E+03  0.43980428387E+03  0.00000000000E+00 0.  1.
          5    1    1    2  502    0  0.67484779362E+02  0.96899373764E+00 -0.42386944372E+02  0.79807642789E+02  0.41800000000E+01 0.  1.
         -5    1    1    2    0  502 -0.32775313355E+02 -0.83580378580E+01 -0.14060485560E+03  0.14467645206E+03  0.41800000000E+01 0.  1.
        -11    1    1    2    0    0 -0.55707095737E+02  0.21749134407E+02 -0.19950473321E+03  0.20827492392E+03  0.00000000000E+00 0.  1.
         11    1    1    2    0    0  0.20997629731E+02 -0.14360090287E+02 -0.27148673224E+02  0.37204342558E+02  0.00000000000E+00 0. -1.
</event>
<event>
 6    1  0.5317355E-006  0.1171693E+03  0.7561462E-02  0.1247841E+00
         -4   -1    0    0    0  501 -0.00000000000E+00  0.00000000000E+00  0.98675760077E+03  0.98675760077E+03  0.00000000000E+00 0.  1.
          4   -1    0    0  501    0  0.00000000000E+00 -0.00000000000E+00 -0.27630352809E+02  0.27630352809E+02  0.00000000000E+00 0. -1.
          5    1    1    2  502    0 -0.20622097730E+02  0.22802486334E+02  0.41774830639E+03  0.41889896656E+03  0.41800000000E+01 0.  1.
         -5    1    1    2    0  502 -0.35460785108E+02 -0.94791370774E+02  0.35281755858E+03  0.36707025662E+03  0.41800000000E+01 0.  1.
        -11    1    1    2    0    0  0.48279676045E+02  0.24967463597E+02  0.16788219130E+03  0.17646169985E+03  0.00000000000E+00 0.  1.
         11    1    1    2    0    0  0.78032067929E+01  0.47021420843E+02  0.20679191695E+02  0.51957030549E+02  0.00000000000E+00 0. -1.
</event>
<event>
 6    1  0.5317355E-006  0.1068142E+03  0.7561462E-02  0.1266586E+00
          1   -1    0    0  501    0  0.00000000000E+00  0.00000000000E+00  0.57535530018E+03  0.57535530018E+03  0.00000000000E+00 0. -1.
         -1   -1    0    0    0  501 -0.00000000000E+00 -0.00000000000E+00 -0.28193434545E+02  0.28193434545E+02  0.00000000000E+00 0.  1.
          5    1    1    2  502    0  0.69382755088E+02 -0.44587579591E+02  0.27037399371E+03  0.28270406406E+03  0.41800000000E+01 0. -1.
         -5    1    1    2    0  502 -0.15957847502E+02  0.99365135410E+01 -0.27922679972E+01  0.19459094501E+02  0.41800000000E+01 0. -1.
        -11    1    1    2    0    0  0.17066697973E+02 -0.17240177436E+02  0.76222490814E+02  0.79989774369E+02  0.00000000000E+00 0. -1.
         11    1    1    2    0    0 -0.70491605559E+02  0.51891243486E+02  0.20335764910E+03  0.22139580180E+03  0.00000000000E+00 0.  1.
</event>
<event>
 6    1  0.5582258E-006  0.2752092E+03  0.7561462E-02  0.1098335E+00
          1   -1    0    0  501    0  0.00000000000E+00  0.00000000000E+00  0.19750781279E+03  0.19750781279E+03  0.00000000000E+00 0. -1.
         -1   -1    0    0    0  501 -0.00000000000E+00 -0.00000000000E+00 -0.45582724876E+03  0.45582724876E+03  0.00000000000E+00 0.  1.
          5    1    1    2  502    0  0.14583346075E+03 -0.22188732405E+03 -0.25305051282E+03  0.36681523589E+03  0.41800000000E+01 0. -1.
         -5    1    1    2    0  502  0.35600131495E+01  0.12091630740E+02  0.26633132560E+01  0.13544255796E+02  0.41800000000E+01 0. -1.
        -11    1    1    2    0    0 -0.41669630480E+02  0.13277144594E+03 -0.17241392566E+02  0.14022082791E+03  0.00000000000E+00 0.  1.
         11    1    1    2    0    0 -0.10772384342E+03  0.77024247369E+02  0.93091561605E+01  0.13275474196E+03  0.00000000000E+00 0. -1.
</event>
<event>
 6    1  0.5317355E-006  0.1262168E+03  0.7561462E-02  0.1233180E+00
          2   -1    0    0  501    0  0.00000000000E+00  0.00000000000E+00  0.21102439070E+03  0.21102439070E+03  0.00000000000E+00 0. -1.
         -2   -1    0    0    0  501 -0.00000000000E+00 -0.00000000000E+00 -0.23478041909E+03  0.23478041909E+03  0.00000000000E+00 0.  1.
          5    1    1    2  502    0 -0.35566637020E+02 -0.20479572809E+02 -0.11274548359E+02  0.42766650699E+02  0.41800000000E+01 0.  1.
         -5    1    1    2    0  502 -0.24314728752E+02  0.10275392611E+03 -0.16687483949E+03  0.19752027698E+03  0.41800000000E+01 0.  1.
        -11    1    1    2    0    0  0.21726933932E+02 -0.10302626296E+02 -0.67327198410E+01  0.24970648432E+02  0.00000000000E+00 0.  1.
         11    1    1    2    0    0  0.38154431840E+02 -0.71971727004E+02  0.16112607930E+03  0.18054723368E+03  0.00000000000E+00 0. -1.
</event>
<event>
 6    1  0.5317355E-006  0.1160565E+03  0.7561462E-02  0.1249748E+00
          2   -1    0    0  501    0  0.00000000000E+00  0.00000000000E+00  0.91038351538E+03  0.91038351538E+03  0.00000000000E+00 0. -1.
         -2   -1    0    0    0  501 -0.00000000000E+00 -0.00000000000E+00 -0.23693617905E+02  0.23693617905E+02  0.00000000000E+00 0.  1.
          5    1    1    2  502    0 -0.89934697107E+01  0.67915154302E+02  0.62035828840E+02  0.92516307434E+02  0.41800000000E+01 0.  1.
         -5    1    1    2    0  502  0.34581564837E+02  0.15314344358E+02  0.27198878566E+03  0.27463755332E+03  0.41800000000E+01 0.  1.
        -11    1    1    2    0    0 -0.35195560669E+02  0.59809934394E+01  0.18987275390E+03  0.19319979929E+03  0.00000000000E+00 0.  1.
         11    1    1    2    0    0  0.96074655423E+01 -0.89210492099E+02  0.36279252907E+03  0.37372347323E+03  0.00000000000E+00 0. -1.
</event>
<event>
 6    1  0.5317355E-006  0.1206510E+03  0.7561462E-02  0.1242027E+00
         -1   -1    0    0    0  501 -0.00000000000E+00  0.00000000000E+00  0.72769574286E+03  0.72769574286E+03  0.00000000000E+00 0.  1.
          1   -1    0    0  501    0  0.00000000000E+00 -0.00000000000E+00 -0.30964182399E+02  0.30964182399E+02  0.00000000000E+00 0. -1.
          5    1    1    2  502    0 -0.14944420443E+02  0.60815622908E+02  0.57034044591E+02  0.84807018191E+02  0.41800000000E+01 0. -1.
         -5    1    1    2    0  502  0.26762668266E+02 -0.77802561502E+02  0.48214437012E+03  0.48913203230E+03  0.41800000000E+01 0.  1.
        -11    1    1    2    0    0  0.29092350262E+02  0.39811055221E+02  0.73806936839E+02  0.88762316819E+02  0.00000000000E+00 0.  1.
         11    1    1    2    0    0 -0.40910598086E+02 -0.22824116627E+02  0.83746208911E+02  0.95958557943E+02  0.00000000000E+00 0. -1.
</event>
<event>
 6    1  0.5317355E-006  0.2634926E+03  0.7561462E-02  0.1105063E+00
         -1   -1    0    0    0  501 -0.00000000000E+00  0.00000000000E+00  0.15391310212E+03  0.15391310212E+03  0.00000000000E+00 0.  1.
          1   -1    0    0  501    0  0.00000000000E+00 -0.00000000000E+00 -0.11391164684E+04  0.11391164684E+04  0.00000000000E+00 0. -1.
          5    1    1    2  502    0  0.90187628593E+01 -0.28316003735E+02 -0.10627734923E+02  0.31836383285E+02  0.41800000000E+01 0. -1.
         -5    1    1    2    0  502 -0.23117694086E+03 -0.74815395544E+02  0.91612069133E+01  0.24319029896E+03  0.41800000000E+01 0. -1.
        -11    1    1    2    0    0  0.10298621728E+03  0.84753888379E+02 -0.39091686823E+03  0.41304404173E+03  0.00000000000E+00 0.  1.
         11    1    1    2    0    0  0.11917196072E+03  0.18377510901E+02 -0.59281997002E+03  0.60495884652E+03  0.00000000000E+00 0. -1.
</event>
<event>
 6    1  0.5317355E-006  0.2204023E+03  0.7561462E-02  0.1133583E+00
         -3   -1    0    0    0  501 -0.00000000000E+00  0.00000000000E+00  0.70623131333E+02  0.70623131333E+02  0.00000000000E+00 0.  1.
          3   -1    0    0  501    0  0.00000000000E+00 -0.00000000000E+00 -0.84917161126E+03  0.84917161126E+03  0.00000000000E+00 0. -1.
          5    1    1    2  502    0  0.96683868463E+01  0.12904514197E+03 -0.20852123452E+03  0.24544796601E+03  0.41800000000E+01 0.  1.
         -5    1    1    2    0  502 -0.66343245635E+02  0.69705005285E+02 -0.50556032631E+02  0.10878234617E+03  0.41800000000E+01 0.  1.
        -11    1    1    2    0    0  0.60928151867E+02 -0.10677044980E+03 -0.37122390307E+03  0.39104904405E+03  0.00000000000E+00 0. -1.
         11    1    1    2    0    0 -0.42532930782E+01 -0.91979697450E+02 -0.14824730971E+03  0.17451538637E+03  0.00000000000E+00 0.  1.
</event>
<event>
 6    1  0.5317355E-006  0.2015812E+03  0.7561462E-02  0.1148412E+00
         -2   -1    0    0    0  501 -0.00000000000E+00  0.00000000000E+00  0.56387874337E+02  0.56387874337E+02  0.00000000000E+00 0.  1.
          2   -1    0    0  501    0  0.00000000000E+00 -0.00000000000E+00 -0.80160011074E+03  0.80160011074E+03  0.00000000000E+00 0. -1.
          5    1    1    2  502    0  0.28235154391E+02  0.20694020747E+02 -0.15161213445E+03  0.15565724574E+03  0.41800000000E+01 0. -1.
         -5    1    1    2    0  502 -0.37131985002E+02  0.16025529378E+03 -0.19740853566E+03  0.25699833822E+03  0.41800000000E+01 0. -1.
        -11    1    1    2    0    0  0.22836076087E+02 -0.99287746614E+00 -0.45110871153E+02  0.50571364159E+02  0.00000000000E+00 0.  1.
         11    1    1    2    0    0 -0.13939245476E+02 -0.17995643706E+03 -0.35108069513E+03  0.39476103696E+03  0.00000000000E+00 0. -1.
</event>
<event>
 6    1  0.5346431E-006  0.2536368E+03  0.7561462E-02  0.1111028E+00
         -2   -1    0    0    0  501 -0.00000000000E+00  0.00000000000E+00  0.88631380841E+03  0.88631380841E+03  0.00000000000E+00 0. -1.
          2   -1    0    0  501    0  0.00000000000E+00 -0.00000000000E+00 -0.82212212466E+02  0.82212212466E+02  0.00000000000E+00 0.  1.
          5    1    1    2  502    0 -0.39319260225E+02  0.88124734445E+02  0.28519021977E+03  0.30110281782E+03  0.41800000000E+01 0.  1.
         -5    1    1    2    0  502  0.67567318945E+02  0.14602307569E+03  0.25683116206E+03  0.30309701323E+03  0.41800000000E+01 0.  1.
        -11    1    1    2    0    0 -0.56220975422E+02 -0.12507144677E+03  0.11419441514E+03  0.17844895439E+03  0.00000000000E+00 0.  1.
         11    1    1    2    0    0  0.27972916702E+02 -0.10907636337E+03  0.14788579898E+03  0.18587723544E+03  0.00000000000E+00 0. -1.
</event>
<event>
 6    1  0.5317355E-006  0.1504389E+03  0.7561462E-02  0.1199935E+00
         -1   -1    0    0    0  501 -0.00000000000E+00  0.00000000000E+00  0.47062656322E+02  0.47062656322E+02  0.00000000000E+00 0.  1.
          1   -1    0    0  501    0  0.00000000000E+00 -0.00000000000E+00 -0.58356855416E+03  0.58356855416E+03  0.00000000000E+00 0. -1.
          5    1    1    2  502    0 -0.67921440344E+02  0.13382835910E+03 -0.24173066731E+03  0.28456025667E+03  0.41800000000E+01 0. -1.
         -5    1    1    2    0  502  0.81153040763E+01 -0.23328324923E+02 -0.53759818737E+02  0.59309859337E+02  0.41800000000E+01 0.  1.
        -11    1    1    2    0    0  0.16415345196E+02 -0.33541374624E+02 -0.88832379977E+01  0.38384883573E+02  0.00000000000E+00 0.  1.
         11    1    1    2    0    0  0.43390791071E+02 -0.76958659557E+02 -0.23213217380E+03  0.24837621090E+03  0.00000000000E+00 0. -1.
</event>
<event>
 6    1  0.5317355E-006  0.1689930E+03  0.7561462E-02  0.1178902E+00
          2   -1    0    0  501    0  0.00000000000E+00  0.00000000000E+00  0.35502898492E+02  0.35502898492E+02  0.00000000000E+00 0. -1.
         -2   -1    0    0    0  501 -0.00000000000E+00 -0.00000000000E+00 -0.10464487404E+04  0.10464487404E+04  0.00000000000E+00 0.  1.
          5    1    1    2  502    0  0.29264197199E+02 -0.15795603829E+02 -0.35230620366E+03  0.35389691702E+03  0.41800000000E+01 0.  1.
         -5    1    1    2    0  502 -0.25795289922E+02 -0.13096552490E+03 -0.35683483799E+03  0.38100648249E+03  0.41800000000E+01 0.  1.
        -11    1    1    2    0    0  0.36254607717E+02  0.11337983230E+03 -0.19879932439E+03  0.23171222309E+03  0.00000000000E+00 0.  1.
         11    1    1    2    0    0 -0.39723514994E+02  0.33381296432E+02 -0.10300547583E+03  0.11533601625E+03  0.00000000000E+00 0. -1.
</event>
<event>
 6    1  0.5317355E-006  0.1250257E+03  0.7561462E-02  0.1235029E+00
         -3   -1    0    0    0  501 -0.00000000000E+00  0.00000000000E+00  0.31702325325E+03  0.31702325325E+03  0.00000000000E+00 0.  1.
          3   -1    0    0  501    0  0.00000000000E+00 -0.00000000000E+00 -0.57351779274E+02  0.57351779274E+02  0.00000000000E+00 0. -1.
          5    1    1    2  502    0 -0.49305820905E+02  0.76181808233E+01  0.65139913091E+02  0.82157052842E+02  0.41800000000E+01 0.  1.
         -5    1    1    2    0  502  0.73862795897E+02  0.49732221087E+02  0.14579460876E+03  0.17088752668E+03  0.41800000000E+01 0.  1.
        -11    1    1    2    0    0 -0.52054640689E+02 -0.64055180514E+02  0.39916058292E+02  0.91684477844E+02  0.00000000000E+00 0.  1.
         11    1    1    2    0    0  0.27497665698E+02  0.67047786044E+01  0.88208938338E+01  0.29645975157E+02  0.00000000000E+00 0. -1.
</event>
<event>
 6    1  0.5317355E-006  0.1125113E+03  0.7561462E-02  0.1255989E+00
         -2   -1    0    0    0  501 -0.00000000000E+00  0.00000000000E+00  0.10473896601E+03  0.10473896601E+03  0.00000000000E+00 0. -1.
          2   -1    0    0  501    0  0.00000000000E+00 -0.00000000000E+00 -0.18343256374E+03  0.18343256374E+03  0.00000000000E+00 0.  1.
          5    1    1    2  502    0  0.70470916461E+02  0.18634853978E+02  0.41826897214E+02  0.84144931994E+02  0.41800000000E+01 0. -1.
         -5    1    1    2    0  502 -0.28521159213E+02 -0.68390718138E+01 -0.38232660046E+02  0.48367738424E+02  0.41800000000E+01 0. -1.
        -11    1    1    2    0    0 -0.63493534514E+01  0.50357775314E+02 -0.64093588181E+02  0.81757005019E+02  0.00000000000E+00 0.  1.
         11    1    1    2    0    0 -0.35600403797E+02 -0.62153557478E+02 -0.18194246716E+02  0.73901854315E+02  0.00000000000E+00 0. -1.
</event>
<event>
 6    1  0.5317355E-006  0.2329856E+03  0.7561462E-02  0.1124556E+00
         -2   -1    0    0    0  501 -0.00000000000E+00  0.00000000000E+00  0.11300607224E+03  0.11300607224E+03  0.00000000000E+00 0.  1.
          2   -1    0    0  501    0  0.00000000000E+00 -0.00000000000E+00 -0.65222268088E+03  0.65222268088E+03  0.00000000000E+00 0. -1.
          5    1    1    2  502    0  0.27162390131E+02  0.55084219421E+01 -0.37895109257E+02  0.47134380823E+02  0.41800000000E+01 0. -1.
         -5    1    1    2    0  502 -0.41921662631E+01 -0.20068484523E+03 -0.62603502732E+02  0.21030609197E+03  0.41800000000E+01 0.  1.
        -11    1    1    2    0    0  0.54155461885E+02  0.10769946995E+03 -0.12763630057E+03  0.17556484586E+03  0.00000000000E+00 0.  1.
         11    1    1    2    0    0 -0.77125685753E+02  0.87476953339E+02 -0.31108169608E+03  0.33222343446E+03  0.00000000000E+00 0. -1.
</event>
<event>
 6    1  0.5317355E-006  0.9801733E+02  0.7561462E-02  0.1284521E+00
         -1   -1    0    0    0  501 -0.00000000000E+00  0.00000000000E+00  0.14860126381E+03  0.14860126381E+03  0.00000000000E+00 0.  1.
          1   -1    0    0  501    0  0.00000000000E+00 -0.00000000000E+00 -0.75557410375E+02  0.75557410375E+02  0.00000000000E+00 0. -1.
          5    1    1    2  502    0  0.34345294970E+02  0.30533448047E+02  0.87597677905E+01  0.46969103334E+02  0.41800000000E+01 0. -1.
         -5    1    1    2    0  502 -0.64938182303E+02 -0.50094289307E+02  0.47730315610E+02  0.94984529110E+02  0.41800000000E+01 0. -1.
        -11    1    1    2    0    0  0.47515309365E+02  0.17859182014E+02 -0.89566309858E+01  0.51544895430E+02  0.00000000000E+00 0. -1.
         11    1    1    2    0    0 -0.16922422032E+02  0.17016592454E+01  0.25510401018E+02  0.30660146310E+02  0.00000000000E+00 0.  1.
</event>
<event>
 6    1  0.5317355E-006  0.1216060E+03  0.7561462E-02  0.1240471E+00
          1   -1    0    0  501    0  0.00000000000E+00  0.00000000000E+00  0.31595303031E+03  0.31595303031E+03  0.00000000000E+00 0. -1.
         -1   -1    0    0    0  501 -0.00000000000E+00 -0.00000000000E+00 -0.60434847685E+02  0.60434847685E+02  0.00000000000E+00 0.  1.
          5    1    1    2  502    0  0.54300520958E+02 -0.51773771700E+02  0.40071125111E+02  0.85160069751E+02  0.41800000000E+01 0. -1.
         -5    1    1    2    0  502  0.11234161880E+02  0.65547010650E+02  0.29811721349E+02  0.72998822785E+02  0.41800000000E+01 0. -1.
        -11    1    1    2    0    0 -0.13688592190E+02  0.30388809448E+02  0.19354888714E+02  0.38541782690E+02  0.00000000000E+00 0.  1.
         11    1    1    2    0    0 -0.51846090647E+02 -0.44162048398E+02  0.16628044745E+03  0.17968720277E+03  0.00000000000E+00 0. -1.
</event>
<event>
 6    1  0.5317355E-006  0.1017681E+03  0.7561462E-02  0.1276621E+00
          1   -1    0    0  501    0  0.00000000000E+00  0.00000000000E+00  0.69289322224E+03  0.69289322224E+03  0.00000000000E+00 0. -1.
         -1   -1    0    0    0  501 -0.00000000000E+00 -0.00000000000E+00 -0.17979973310E+02  0.17979973310E+02  0.00000000000E+00 0.  1.
          5    1    1    2  502    0  0.65336935248E+02  0.25029384193E+02  0.11587390453E+03  0.13542385067E+03  0.41800000000E+01 0.  1.
         -5    1    1    2    0  502 -0.40471292652E+02 -0.56488236521E+01  0.23178979398E+03  0.23540139280E+03  0.41800000000E+01 0.  1.
        -11    1    1    2    0    0 -0.39859649437E+02 -0.46581605771E+02  0.22224094850E+03  0.23054213679E+03  0.00000000000E+00 0. -1.
         11    1    1    2    0    0  0.14994006841E+02  0.27201045229E+02  0.10500860193E+03  0.10950581529E+03  0.00000000000E+00 0.  1.
</event>
<event>
 6    1  0.5317355E-006  0.1551717E+03  0.7561462E-02  0.1194258E+00
         -1   -1    0    0    0  501 -0.00000000000E+00  0.00000000000E+00  0.66579704765E+03  0.66579704765E+03  0.00000000000E+00 0.  1.
          1   -1    0    0  501    0  0.00000000000E+00 -0.00000000000E+00 -0.37164081511E+02  0.37164081511E+02  0.00000000000E+00 0. -1.
          5    1    1    2  502    0  0.80689033260E+02  0.55153342031E+02  0.21386531535E+03  0.23517750049E+03  0.41800000000E+01 0.  1.
         -5    1    1    2    0  502 -0.44875598327E+02  0.51345437681E+02  0.10427280561E+03  0.12466139613E+03  0.41800000000E+01 0.  1.
        -11    1    1    2    0    0 -0.65640815788E+02 -0.85160743601E+02  0.20589707847E+03  0.23228145830E+03  0.00000000000E+00 0. -1.
         11    1    1    2    0    0  0.29827380855E+02 -0.21338036111E+02  0.10459776671E+03  0.11084077424E+03  0.00000000000E+00 0.  1.
</event>
<event>
 6    1  0.5317355E-006  0.1053890E+03  0.7561462E-02  0.1269355E+00
         -1   -1    0    0    0  501 -0.00000000000E+00  0.00000000000E+00  0.15452601609E+03  0.15452601609E+03  0.00000000000E+00 0.  1.
          1   -1    0    0  501    0  0.00000000000E+00 -0.00000000000E+00 -0.92056687579E+02  0.92056687579E+02  0.00000000000E+00 0. -1.
          5    1    1    2  502    0  0.26293467786E+01 -0.59325214199E+02  0.50421589393E+02  0.78014124242E+02  0.41800000000E+01 0.  1.
         -5    1    1    2    0  502  0.26605230086E+02  0.60776681276E+02  0.25407981444E+02  0.71166573445E+02  0.41800000000E+01 0.  1.
        -11    1    1    2    0    0  0.19233783411E+02 -0.24462062606E+02 -0.27921025670E+02  0.41808068668E+02  0.00000000000E+00 0. -1.
         11    1    1    2    0    0 -0.48468360276E+02  0.23010595529E+02  0.14560783343E+02  0.55593937314E+02  0.00000000000E+00 0.  1.
</event>
<event>
 6    1  0.5317355E-006  0.1120375E+03  0.7561462E-02  0.1256843E+00
          1   -1    0    0  501    0  0.00000000000E+00  0.00000000000E+00  0.46666304412E+03  0.46666304412E+03  0.00000000000E+00 0. -1.
         -1   -1    0    0    0  501 -0.00000000000E+00 -0.00000000000E+00 -0.53561862341E+02  0.53561862341E+02  0.00000000000E+00 0.  1.
          5    1    1    2  502    0  0.62057016998E+01  0.41765553135E+02 -0.12577670518E+02  0.44255421791E+02  0.41800000000E+01 0.  1.
         -5    1    1    2    0  502  0.68775757908E+02  0.29971555647E+02  0.15332144057E+03  0.17074347883E+03  0.41800000000E+01 0.  1.
        -11    1    1    2    0    0 -0.57391145433E+02 -0.39146297416E+02  0.25505852546E+03  0.26435019876E+03  0.00000000000E+00 0. -1.
         11    1    1    2    0    0 -0.17590314175E+02 -0.32590811367E+02  0.17298886264E+02  0.40875807078E+02  0.00000000000E+00 0.  1.
</event>
<event>
 6    1  0.5317355E-006  0.9191181E+02  0.7561462E-02  0.1298287E+00
         -1   -1    0    0    0  501 -0.00000000000E+00  0.00000000000E+00  0.51123035175E+03  0.51123035175E+03  0.00000000000E+00 0.  1.
          1   -1    0    0  501    0  0.00000000000E+00 -0.00000000000E+00 -0.24105490133E+02  0.24105490133E+02  0.00000000000E+00 0. -1.
          5    1    1    2  502    0  0.18878183687E+01  0.58130465425E+02  0.25494809267E+03  0.26153148420E+03  0.41800000000E+01 0.  1.
         -5    1    1    2    0  502  0.14555866100E+02 -0.48075060002E+02  0.62986677805E+02  0.80671423770E+02  0.41800000000E+01 0.  1.
        -11    1    1    2    0    0 -0.29102846142E+02 -0.35968978334E+02  0.41262345086E+02  0.61994549582E+02  0.00000000000E+00 0. -1.
         11    1    1    2    0    0  0.12659161674E+02  0.25913572911E+02  0.12792774605E+03  0.13113838433E+03  0.00000000000E+00 0.  1.
</event>
<event>
 6    1  0.5317355E-006  0.3098851E+03  0.7561462E-02  0.1080401E+00
         -1   -1    0    0    0  501 -0.00000000000E+00  0.00000000000E+00  0.34561662609E+03  0.34561662609E+03  0.00000000000E+00 0.  1.
          1   -1    0    0  501    0  0.00000000000E+00 -0.00000000000E+00 -0.45973285151E+03  0.45973285151E+03  0.00000000000E+00 0. -1.
          5    1    1    2  502    0 -0.27535179954E+03  0.38566897439E+01  0.12236670255E+02  0.27568223749E+03  0.41800000000E+01 0. -1.
         -5    1    1    2    0  502  0.69602528792E+02 -0.96220715624E+02  0.13016413514E+03  0.17624730525E+03  0.41800000000E+01 0.  1.
        -11    1    1    2    0    0  0.13943313744E+02  0.62164934740E+01 -0.72231708741E+02  0.73827369837E+02  0.00000000000E+00 0.  1.
         11    1    1    2    0    0  0.19180595701E+03  0.86147532406E+02 -0.18428532208E+03  0.27959256503E+03  0.00000000000E+00 0. -1.
</event>
<event>
 6    1  0.5317355E-006  0.9776693E+02  0.7561462E-02  0.1285063E+00
          1   -1    0    0  501    0  0.00000000000E+00  0.00000000000E+00  0.68021885228E+02  0.68021885228E+02  0.00000000000E+00 0. -1.
         -1   -1    0    0    0  501 -0.00000000000E+00 -0.00000000000E+00 -0.21221412746E+03  0.21221412746E+03  0.00000000000E+00 0.  1.
          5    1    1    2  502    0  0.40130167833E+02 -0.11856746482E+02 -0.10576780554E+03  0.11382141229E+03  0.41800000000E+01 0.  1.
         -5    1    1    2    0  502 -0.46586099549E+02  0.45926225333E+02 -0.24225109632E+02  0.69884269913E+02  0.41800000000E+01 0.  1.
        -11    1    1    2    0    0 -0.25818006808E+02  0.14502667031E+02  0.12807551329E+02  0.32263449871E+02  0.00000000000E+00 0.  1.
         11    1    1    2    0    0  0.32273938524E+02 -0.48572145882E+02 -0.27006878390E+02  0.64266880613E+02  0.00000000000E+00 0. -1.
</event>
<event>
 6    1  0.5317355E-006  0.1093065E+03  0.7561462E-02  0.1261860E+00
         -1   -1    0    0    0  501 -0.00000000000E+00  0.00000000000E+00  0.10492410061E+03  0.10492410061E+03  0.00000000000E+00 0.  1.
          1   -1    0    0  501    0  0.00000000000E+00 -0.00000000000E+00 -0.14239117771E+03  0.14239117771E+03  0.00000000000E+00 0. -1.
          5    1    1    2  502    0 -0.26242559245E+02  0.30785527315E+02  0.59148073650E+01  0.41095960312E+02  0.41800000000E+01 0.  1.
         -5    1    1    2    0  502  0.40389470339E+02 -0.85356155618E+02 -0.21983546329E+02  0.97044996395E+02  0.41800000000E+01 0.  1.
        -11    1    1    2    0    0 -0.15909961430E+02  0.68021209973E+02  0.14017245667E+02  0.71249526700E+02  0.00000000000E+00 0.  1.
         11    1    1    2    0    0  0.17630503365E+01 -0.13450581670E+02 -0.35415583803E+02  0.37924794921E+02  0.00000000000E+00 0. -1.
</event>
<event>
 6    1  0.5317355E-006  0.1315885E+03  0.7561462E-02  0.1225118E+00
          3   -1    0    0  501    0  0.00000000000E+00  0.00000000000E+00  0.35332811745E+03  0.35332811745E+03  0.00000000000E+00 0. -1.
         -3   -1    0    0    0  501 -0.00000000000E+00 -0.00000000000E+00 -0.57935505536E+02  0.57935505536E+02  0.00000000000E+00 0.  1.
          5    1    1    2  502    0 -0.57135849433E+02 -0.16606567470E+01  0.63182642037E+02  0.85304054570E+02  0.41800000000E+01 0. -1.
         -5    1    1    2    0  502  0.33579123169E+02  0.88930353314E+02  0.63876280848E+02  0.11460286606E+03  0.41800000000E+01 0. -1.
        -11    1    1    2    0    0  0.45450193747E+02 -0.50685697213E+02  0.46937714283E+02  0.82691650339E+02  0.00000000000E+00 0.  1.
         11    1    1    2    0    0 -0.21893467483E+02 -0.36583999354E+02  0.12139597475E+03  0.12866505202E+03  0.00000000000E+00 0. -1.
</event>
<event>
 6    1  0.5317355E-006  0.7255459E+02  0.7561462E-02  0.1351615E+00
          1   -1    0    0  501    0  0.00000000000E+00  0.00000000000E+00  0.24225332860E+03  0.24225332860E+03  0.00000000000E+00 0. -1.
         -1   -1    0    0    0  501 -0.00000000000E+00 -0.00000000000E+00 -0.23726561425E+03  0.23726561425E+03  0.00000000000E+00 0.  1.
          5    1    1    2  502    0  0.11549007679E+02  0.10632577834E+02  0.12474440721E+02  0.20482074140E+02  0.41800000000E+01 0. -1.
         -5    1    1    2    0  502  0.20924533803E+02  0.29402276216E+02 -0.22020841968E+03  0.22318501397E+03  0.41800000000E+01 0.  1.
        -11    1    1    2    0    0  0.25225572947E+02 -0.16938612405E+02  0.29394251906E+02  0.42276094496E+02  0.00000000000E+00 0.  1.
         11    1    1    2    0    0 -0.57699114430E+02 -0.23096241644E+02  0.18332744141E+03  0.19357576025E+03  0.00000000000E+00 0. -1.
</event>
<event>
 6    1  0.5317355E-006  0.1629460E+03  0.7561462E-02  0.1185410E+00
         -1   -1    0    0    0  501 -0.00000000000E+00  0.00000000000E+00  0.41245138749E+03  0.41245138749E+03  0.00000000000E+00 0.  1.
          1   -1    0    0  501    0  0.00000000000E+00 -0.00000000000E+00 -0.79931125417E+02  0.79931125417E+02  0.00000000000E+00 0. -1.
          5    1    1    2  502    0 -0.11855433802E+03 -0.40273856393E+02  0.23453057892E+03  0.26589317295E+03  0.41800000000E+01 0. -1.
         -5    1    1    2    0  502 -0.10261303045E+02  0.43576682177E+02  0.30805891022E+02  0.54504099767E+02  0.41800000000E+01 0. -1.
        -11    1    1    2    0    0  0.86608065633E+02  0.39807592790E+02  0.56225699062E+02  0.11066585160E+03  0.00000000000E+00 0. -1.
         11    1    1    2    0    0  0.42207575429E+02 -0.43110418574E+02  0.10958093069E+02  0.61319388589E+02  0.00000000000E+00 0.  1.
</event>
<event>
 6    1  0.5317355E-006  0.1083640E+03  0.7561462E-02  0.1263630E+00
          1   -1    0    0  501    0  0.00000000000E+00  0.00000000000E+00  0.56379965068E+03  0.56379965068E+03  0.00000000000E+00 0. -1.
         -1   -1    0    0    0  501 -0.00000000000E+00 -0.00000000000E+00 -0.24550456927E+02  0.24550456927E+02  0.00000000000E+00 0.  1.
          5    1    1    2  502    0 -0.11669653661E+02 -0.38045221126E+02  0.34068737958E+02  0.52552554392E+02  0.41800000000E+01 0. -1.
         -5    1    1    2    0  502  0.26276658500E+01  0.78743238815E+02  0.21951682687E+03  0.23326489656E+03  0.41800000000E+01 0. -1.
        -11    1    1    2    0    0  0.15796394971E+02  0.26191824419E+02  0.64658641916E+02  0.71528160433E+02  0.00000000000E+00 0.  1.
         11    1    1    2    0    0 -0.67544071603E+01 -0.66889842108E+02  0.22100498701E+03  0.23100449623E+03  0.00000000000E+00 0. -1.
</event>
<event>
 6    1  0.5317355E-006  0.1314863E+03  0.7561462E-02  0.1225267E+00
         -1   -1    0    0    0  501 -0.00000000000E+00  0.00000000000E+00  0.22229251624E+03  0.22229251624E+03  0.00000000000E+00 0.  1.
          1   -1    0    0  501    0  0.00000000000E+00 -0.00000000000E+00 -0.12279221488E+03  0.12279221488E+03  0.00000000000E+00 0. -1.
          5    1    1    2  502    0  0.24730012400E+02  0.12580820811E+03  0.56580521846E+01  0.12840858498E+03  0.41800000000E+01 0.  1.
         -5    1    1    2    0  502 -0.19925757967E+02 -0.20382379178E+02 -0.21641351960E+02  0.36031898731E+02  0.41800000000E+01 0.  1.
        -11    1    1    2    0    0 -0.64451753220E+01 -0.48013666927E+02  0.11323735667E+03  0.12316473295E+03  0.00000000000E+00 0. -1.
         11    1    1    2    0    0  0.16409208887E+01 -0.57412162009E+02  0.22462444672E+01  0.57479514457E+02  0.00000000000E+00 0.  1.
</event>
<event>
 6    1  0.5317355E-006  0.1150574E+03  0.7561462E-02  0.1251481E+00
          1   -1    0    0  501    0  0.00000000000E+00  0.00000000000E+00  0.27793531131E+02  0.27793531131E+02  0.00000000000E+00 0. -1.
         -1   -1    0    0    0  501 -0.00000000000E+00 -0.00000000000E+00 -0.68534073650E+03  0.68534073650E+03  0.00000000000E+00 0.  1.
          5    1    1    2  502    0  0.97476241206E+02  0.13545955517E+02 -0.33739698655E+03  0.35148159190E+03  0.41800000000E+01 0.  1.
         -5    1    1    2    0  502 -0.39715702233E+02  0.88572300592E+01 -0.12432695042E+03  0.13088334703E+03  0.41800000000E+01 0.  1.
        -11    1    1    2    0    0 -0.70826985144E+02 -0.80265736334E+01 -0.19872913981E+03  0.21112593095E+03  0.00000000000E+00 0.  1.
         11    1    1    2    0    0  0.13066446171E+02 -0.14376611942E+02  0.29058714188E+01  0.19643397750E+02  0.00000000000E+00 0. -1.
</event>
<event>
 6    1  0.5317355E-006  0.1195657E+03  0.7561462E-02  0.1243815E+00
         -2   -1    0    0    0  501 -0.00000000000E+00  0.00000000000E+00  0.58604061811E+02  0.58604061811E+02  0.00000000000E+00 0.  1.
          2   -1    0    0  501    0  0.00000000000E+00 -0.00000000000E+00 -0.35428735414E+03  0.35428735414E+03  0.00000000000E+00 0. -1.
          5    1    1    2  502    0  0.30284889573E+02 -0.90409011344E+02 -0.71927932900E+02  0.11950758888E+03  0.41800000000E+01 0.  1.
         -5    1    1    2    0  502 -0.29017674505E+02  0.22650561155E+02  0.55877072175E+01  0.37466895071E+02  0.41800000000E+01 0.  1.
        -11    1    1    2    0    0  0.32681775109E+02  0.64790856921E+02 -0.10981354303E+03  0.13162434349E+03  0.00000000000E+00 0.  1.
         11    1    1    2    0    0 -0.33948990177E+02  0.29675932679E+01 -0.11952952362E+03  0.12429258852E+03  0.00000000000E+00 0. -1.
</event>
<event>
 6    1  0.5317355E-006  0.7223035E+02  0.7561462E-02  0.1352669E+00
          3   -1    0    0  501    0  0.00000000000E+00  0.00000000000E+00  0.47803958578E+02  0.47803958578E+02  0.00000000000E+00 0. -1.
         -3   -1    0    0    0  501 -0.00000000000E+00 -0.00000000000E+00 -0.29388303149E+03  0.29388303149E+03  0.00000000000E+00 0.  1.
          5    1    1    2  502    0  0.40078100502E+01  0.40640848996E+02  0.99006170078E+01  0.42228376309E+02  0.41800000000E+01 0. -1.
         -5    1    1    2    0  502 -0.10489067012E+02  0.43085078825E+01 -0.15192935116E+03  0.15240926452E+03  0.41800000000E+01 0. -1.
        -11    1    1    2    0    0  0.94199976856E+01 -0.67716190613E+02 -0.10355523136E+03  0.12408829425E+03  0.00000000000E+00 0.  1.
         11    1    1    2    0    0 -0.29387407237E+01  0.22766833734E+02 -0.49510740550E+00  0.22961054999E+02  0.00000000000E+00 0. -1.
</event>
<event>
 6    1  0.5317355E-006  0.2025610E+03  0.7561462E-02  0.1147596E+00
          2   -1    0    0  501    0  0.00000000000E+00  0.00000000000E+00  0.23260099498E+04  0.23260099498E+04  0.00000000000E+00 0. -1.
         -2   -1    0    0    0  501 -0.00000000000E+00 -0.00000000000E+00 -0.20487219669E+02  0.20487219669E+02  0.00000000000E+00 0.  1.
          5    1    1    2  502    0  0.11206262346E+03 -0.10158573360E+03  0.12603994673E+04  0.12694494801E+04  0.41800000000E+01 0. -1.
         -5    1    1    2    0  502 -0.23673785562E+02 -0.53983667035E+02  0.26611897053E+03  0.27260128999E+03  0.41800000000E+01 0. -1.
        -11    1    1    2    0    0  0.75248767439E+01  0.55856441181E+02  0.14605821225E+03  0.15655531661E+03  0.00000000000E+00 0.  1.
         11    1    1    2    0    0 -0.95913714640E+02  0.99712959455E+02  0.63294608004E+03  0.64789108281E+03  0.00000000000E+00 0. -1.
</event>
<event>
 6    1  0.5317355E-006  0.1215369E+03  0.7561462E-02  0.1240583E+00
          2   -1    0    0  501    0  0.00000000000E+00  0.00000000000E+00  0.95835288072E+02  0.95835288072E+02  0.00000000000E+00 0. -1.
         -2   -1    0    0    0  501 -0.00000000000E+00 -0.00000000000E+00 -0.21472189453E+03  0.21472189453E+03  0.00000000000E+00 0.  1.
          5    1    1    2  502    0  0.10817958677E+02  0.66097061119E+02 -0.71365714175E+02  0.97961151883E+02  0.41800000000E+01 0.  1.
         -5    1    1    2    0  502 -0.68914209230E+02 -0.26631497165E+02 -0.43658368035E+02  0.85918160912E+02  0.41800000000E+01 0.  1.
        -11    1    1    2    0    0  0.38046385574E+02  0.17278195864E+02  0.35446863108E+02  0.54795470723E+02  0.00000000000E+00 0. -1.
         11    1    1    2    0    0  0.20049864979E+02 -0.56743759818E+02 -0.39309387357E+02  0.71882399086E+02  0.00000000000E+00 0.  1.
</event>
<event>
 6    1  0.5317355E-006  0.1843764E+03  0.7561462E-02  0.1163634E+00
          1   -1    0    0  501    0  0.00000000000E+00  0.00000000000E+00  0.49452942568E+03  0.49452942568E+03  0.00000000000E+00 0. -1.
         -1   -1    0    0    0  501 -0.00000000000E+00 -0.00000000000E+00 -0.79697102199E+02  0.79697102199E+02  0.00000000000E+00 0.  1.
          5    1    1    2  502    0 -0.32679441947E+01 -0.11359714507E+02 -0.88172277386E+01  0.15327702957E+02  0.41800000000E+01 0. -1.
         -5    1    1    2    0  502  0.71709483015E+02  0.16112915427E+03  0.19461530856E+03  0.26267364740E+03  0.41800000000E+01 0. -1.
        -11    1    1    2    0    0 -0.17642028981E+02  0.37997919735E+01  0.58326345246E+02  0.61054419622E+02  0.00000000000E+00 0.  1.
         11    1    1    2    0    0 -0.50799509840E+02 -0.15356923173E+03  0.17070789741E+03  0.23517075790E+03  0.00000000000E+00 0. -1.
</event>
<event>
 6    1  0.5317355E-006  0.9920744E+02  0.7561462E-02  0.1281971E+00
          1   -1    0    0  501    0  0.00000000000E+00  0.00000000000E+00  0.27633001815E+02  0.27633001815E+02  0.00000000000E+00 0. -1.
         -1   -1    0    0    0  501 -0.00000000000E+00 -0.00000000000E+00 -0.46704750424E+03  0.46704750424E+03  0.00000000000E+00 0.  1.
          5    1    1    2  502    0  0.35053882777E+02 -0.60469189043E+02 -0.25873115811E+03  0.26803839669E+03  0.41800000000E+01 0. -1.
         -5    1    1    2    0  502 -0.20891170218E+02  0.28042403324E+02 -0.22521347010E+02  0.41803120080E+02  0.41800000000E+01 0. -1.
        -11    1    1    2    0    0 -0.28656479395E+02  0.57483668413E+02 -0.12692632508E+03  0.14225279590E+03  0.00000000000E+00 0.  1.
         11    1    1    2    0    0  0.14493766836E+02 -0.25056882693E+02 -0.31235672229E+02  0.42586193385E+02  0.00000000000E+00 0. -1.
</event>
<event>
 6    1  0.5317355E-006  0.1524514E+03  0.7561462E-02  0.1197493E+00
          1   -1    0    0  501    0  0.00000000000E+00  0.00000000000E+00  0.46461922421E+02  0.46461922421E+02  0.00000000000E+00 0. -1.
         -1   -1    0    0    0  501 -0.00000000000E+00 -0.00000000000E+00 -0.83261309079E+03  0.83261309079E+03  0.00000000000E+00 0.  1.
          5    1    1    2  502    0 -0.28839896085E+02  0.41297470500E+02 -0.46432863929E+02  0.68634568029E+02  0.41800000000E+01 0. -1.
         -5    1    1    2    0  502 -0.14204694127E+01  0.10489259344E+03 -0.51581784847E+03  0.52639338816E+03  0.41800000000E+01 0. -1.
        -11    1    1    2    0    0  0.19001528178E+02 -0.79470995746E+02 -0.19315425575E+03  0.20972664054E+03  0.00000000000E+00 0.  1.
         11    1    1    2    0    0  0.11258837319E+02 -0.66719068195E+02 -0.30746200216E+02  0.74320416484E+02  0.00000000000E+00 0. -1.
</event>
<event>
 6    1  0.5317355E-006  0.9393315E+02  0.7561462E-02  0.1293597E+00
          2   -1    0    0  501    0  0.00000000000E+00  0.00000000000E+00  0.14485995954E+02  0.14485995954E+02  0.00000000000E+00 0. -1.
         -2   -1    0    0    0  501 -0.00000000000E+00 -0.00000000000E+00 -0.10161884083E+04  0.10161884083E+04  0.00000000000E+00 0.  1.
          5    1    1    2  502    0  0.63123859843E+02  0.32719731058E+02 -0.18698984663E+03  0.20009467166E+03  0.41800000000E+01 0. -1.
         -5    1    1    2    0  502 -0.81224718812E+01 -0.31292524026E+01 -0.43989004506E+03  0.43999601238E+03  0.41800000000E+01 0.  1.
        -11    1    1    2    0    0 -0.20451981972E+02  0.31058833512E+02 -0.17539545737E+03  0.17929445382E+03  0.00000000000E+00 0.  1.
         11    1    1    2    0    0 -0.34549405989E+02 -0.60649312168E+02 -0.19942706325E+03  0.21128926636E+03  0.00000000000E+00 0. -1.
</event>
<event>
 6    1  0.5317355E-006  0.1036675E+03  0.7561462E-02  0.1272767E+00
         -2   -1    0    0    0  501 -0.00000000000E+00  0.00000000000E+00  0.35076526799E+03  0.35076526799E+03  0.00000000000E+00 0.  1.
          2   -1    0    0  501    0  0.00000000000E+00 -0.00000000000E+00 -0.35378694254E+02  0.35378694254E+02  0.00000000000E+00 0. -1.
          5    1    1    2  502    0  0.17303878845E+01  0.68216662013E+02  0.11818541731E+03  0.13653487644E+03  0.41800000000E+01 0.  1.
         -5    1    1    2    0  502 -0.16542882454E+02 -0.55625692205E+02  0.94842545715E+02  0.11126754006E+03  0.41800000000E+01 0.  1.
        -11    1    1    2    0    0  0.36033111480E+02  0.20513153818E+02  0.86534610343E+02  0.95955267650E+02  0.00000000000E+00 0.  1.
         11    1    1    2    0    0 -0.21220616911E+02 -0.33104123626E+02  0.15824000361E+02  0.42386278093E+02  0.00000000000E+00 0. -1.
</event>
<event>
 6    1  0.5317355E-006  0.1223843E+03  0.7561462E-02  0.1239215E+00
         -1   -1    0    0    0  501 -0.00000000000E+00  0.00000000000E+00  0.18833690428E+03  0.18833690428E+03  0.00000000000E+00 0.  1.
          1   -1    0    0  501    0  0.00000000000E+00 -0.00000000000E+00 -0.15373673556E+03  0.15373673556E+03  0.00000000000E+00 0. -1.
          5    1    1    2  502    0 -0.64559812971E+00  0.33879368043E+02  0.90885972760E+01  0.35331337030E+02  0.41800000000E+01 0.  1.
         -5    1    1    2    0  502  0.19985093012E+02 -0.97872320302E+02  0.12265780121E+03  0.15824286278E+03  0.41800000000E+01 0.  1.
        -11    1    1    2    0    0 -0.13189394364E+01  0.83833656289E+02 -0.83858495440E+02  0.11858359408E+03  0.00000000000E+00 0. -1.
         11    1    1    2    0    0 -0.18020555445E+02 -0.19840704029E+02 -0.13287734326E+02  0.29915845942E+02  0.00000000000E+00 0.  1.
</event>
<event>
 6    1  0.5317355E-006  0.9388990E+02  0.7561462E-02  0.1293696E+00
         -1   -1    0    0    0  501 -0.00000000000E+00  0.00000000000E+00  0.11326400385E+04  0.11326400385E+04  0.00000000000E+00 0.  1.
          1   -1    0    0  501    0  0.00000000000E+00 -0.00000000000E+00 -0.16012609943E+02  0.16012609943E+02  0.00000000000E+00 0. -1.
          5    1    1    2  502    0  0.26268971557E+02 -0.21085934291E+02  0.53076864507E+03  0.53185289553E+03  0.41800000000E+01 0. -1.
         -5    1    1    2    0  502 -0.37078340955E+02  0.70335520821E+02  0.33318095382E+03  0.34256227061E+03  0.41800000000E+01 0. -1.
        -11    1    1    2    0    0 -0.36007825362E+01  0.11360154538E+02 -0.19706990653E+01  0.12079006615E+02  0.00000000000E+00 0. -1.
         11    1    1    2    0    0  0.14410151934E+02 -0.60609741068E+02  0.25464852875E+03  0.26215847571E+03  0.00000000000E+00 0.  1.
</event>
<event>
 6    1  0.5317355E-006  0.1303401E+03  0.7561462E-02  0.1226952E+00
          1   -1    0    0  501    0  0.00000000000E+00  0.00000000000E+00  0.12101229773E+03  0.12101229773E+03  0.00000000000E+00 0. -1.
         -1   -1    0    0    0  501 -0.00000000000E+00 -0.00000000000E+00 -0.19471548168E+03  0.19471548168E+03  0.00000000000E+00 0.  1.
          5    1    1    2  502    0 -0.46514990589E+02 -0.19586045196E+02 -0.66192497458E+02  0.83343725832E+02  0.41800000000E+01 0.  1.
         -5    1    1    2    0  502  0.74843778909E+02 -0.49896477172E+02 -0.48959306315E+02  0.10249749143E+03  0.41800000000E+01 0.  1.
        -11    1    1    2    0    0 -0.65450681369E+01  0.89896580031E+02  0.43258603122E+02  0.99977696324E+02  0.00000000000E+00 0.  1.
         11    1    1    2    0    0 -0.21783720183E+02 -0.20414057664E+02 -0.18099832977E+01  0.29908865824E+02  0.00000000000E+00 0. -1.
</event>
<event>
 6    1  0.5317355E-006  0.1944159E+03  0.7561462E-02  0.1154538E+00
         -2   -1    0    0    0  501 -0.00000000000E+00  0.00000000000E+00  0.14884286441E+03  0.14884286441E+03  0.00000000000E+00 0.  1.
          2   -1    0    0  501    0  0.00000000000E+00 -0.00000000000E+00 -0.35693103359E+03  0.35693103359E+03  0.00000000000E+00 0. -1.
          5    1    1    2  502    0  0.75842220261E+02  0.98988875580E+02  0.36556903794E+02  0.13001815057E+03  0.41800000000E+01 0. -1.
         -5    1    1    2    0  502  0.58613992350E+02  0.39565680662E+02 -0.75096763101E+02  0.10323778094E+03  0.41800000000E+01 0. -1.
        -11    1    1    2    0    0 -0.63929728852E+02 -0.60476580945E+02 -0.20983601572E+02  0.90469545200E+02  0.00000000000E+00 0.  1.
         11    1    1    2    0    0 -0.70526483760E+02 -0.78077975297E+02 -0.14856470831E+03  0.18204842129E+03  0.00000000000E+00 0. -1.
</event>
<event>
 6    1  0.5317355E-006  0.9574762E+02  0.7561462E-02  0.1289501E+00
          3   -1    0    0  501    0  0.00000000000E+00  0.00000000000E+00  0.16691937590E+03  0.16691937590E+03  0.00000000000E+00 0. -1.
         -3   -1    0    0    0  501 -0.00000000000E+00 -0.00000000000E+00 -0.13854018994E+03  0.13854018994E+03  0.00000000000E+00 0.  1.
          5    1    1    2  502    0 -0.24884926584E+02 -0.30970012165E+02  0.23273040274E+02  0.46233191845E+02  0.41800000000E+01 0. -1.
         -5    1    1    2    0  502 -0.42001575479E+02  0.52905580306E+02 -0.88533436088E+02  0.11143955526E+03  0.41800000000E+01 0. -1.
        -11    1    1    2    0    0  0.87201562657E+00  0.10345464114E+02 -0.14015919766E+02  0.17442334875E+02  0.00000000000E+00 0.  1.
         11    1    1    2    0    0  0.66014486437E+02 -0.32281032255E+02  0.10765550154E+03  0.13034448387E+03  0.00000000000E+00 0. -1.
</event>
<event>
 6    1  0.5317355E-006  0.8827992E+02  0.7561462E-02  0.1307071E+00
         -2   -1    0    0    0  501 -0.00000000000E+00  0.00000000000E+00  0.13715325301E+03  0.13715325301E+03  0.00000000000E+00 0.  1.
          2   -1    0    0  501    0  0.00000000000E+00 -0.00000000000E+00 -0.97126227891E+02  0.97126227891E+02  0.00000000000E+00 0. -1.
          5    1    1    2  502    0  0.27726754669E+02 -0.31045518957E+02  0.70820658673E+02  0.82253481791E+02  0.41800000000E+01 0.  1.
         -5    1    1    2    0  502 -0.47610649745E+02  0.39349171574E+01 -0.26338845969E+02  0.54712564820E+02  0.41800000000E+01 0.  1.
        -11    1    1    2    0    0  0.28733632775E+00  0.53721676408E+02  0.18785172962E+02  0.56912070789E+02  0.00000000000E+00 0.  1.
         11    1    1    2    0    0  0.19596558749E+02 -0.26611074608E+02 -0.23239960546E+02  0.40401363502E+02  0.00000000000E+00 0. -1.
</event>
<event>
 6    1  0.5317355E-006  0.1135765E+03  0.7561462E-02  0.1254086E+00
         -2   -1    0    0    0  501 -0.00000000000E+00  0.00000000000E+00  0.14512616354E+03  0.14512616354E+03  0.00000000000E+00 0.  1.
          2   -1    0    0  501    0  0.00000000000E+00 -0.00000000000E+00 -0.14274013276E+03  0.14274013276E+03  0.00000000000E+00 0. -1.
          5    1    1    2  502    0 -0.14547102780E+01  0.90339197758E+01 -0.44847292022E+02  0.45961722011E+02  0.41800000000E+01 0.  1.
         -5    1    1    2    0  502 -0.84739757096E+02  0.21165679398E+02  0.67723276639E+02  0.11060165919E+03  0.41800000000E+01 0.  1.
        -11    1    1    2    0    0  0.33369236037E+02 -0.60251596352E+02 -0.91753208969E+01  0.69483431768E+02  0.00000000000E+00 0. -1.
         11    1    1    2    0    0  0.52825231337E+02  0.30051997178E+02 -0.11314632945E+02  0.61819483327E+02  0.00000000000E+00 0.  1.
</event>
<event>
 6    1  0.5317355E-006  0.1122476E+03  0.7561462E-02  0.1256463E+00
          2   -1    0    0  501    0  0.00000000000E+00  0.00000000000E+00  0.82748160178E+03  0.82748160178E+03  0.00000000000E+00 0. -1.
         -2   -1    0    0    0  501 -0.00000000000E+00 -0.00000000000E+00 -0.16045526063E+02  0.16045526063E+02  0.00000000000E+00 0.  1.
          5    1    1    2  502    0 -0.42346060472E+02 -0.67783018160E+02  0.23547232896E+03  0.24870146058E+03  0.41800000000E+01 0. -1.
         -5    1    1    2    0  502  0.65971457633E+01  0.49088822250E+02  0.20599435338E+03  0.21190653795E+03  0.41800000000E+01 0. -1.
        -11    1    1    2    0    0 -0.20257669039E+02 -0.18573706737E+02  0.16272223250E+03  0.16502690898E+03  0.00000000000E+00 0. -1.
         11    1    1    2    0    0  0.56006583748E+02  0.37267902647E+02  0.20724716087E+03  0.21789222033E+03  0.00000000000E+00 0.  1.
</event>
<event>
 6    1  0.5317355E-006  0.1006605E+03  0.7561462E-02  0.1278913E+00
          2   -1    0    0  501    0  0.00000000000E+00  0.00000000000E+00  0.17007194116E+03  0.17007194116E+03  0.00000000000E+00 0. -1.
         -2   -1    0    0    0  501 -0.00000000000E+00 -0.00000000000E+00 -0.14126510263E+03  0.14126510263E+03  0.00000000000E+00 0.  1.
          5    1    1    2  502    0  0.36233256634E+02 -0.45840825864E+02  0.69056720246E+01  0.58986362053E+02  0.41800000000E+01 0. -1.
         -5    1    1    2    0  502 -0.64167591239E+02 -0.21446160534E+02 -0.74672627722E+02  0.10085083687E+03  0.41800000000E+01 0. -1.
        -11    1    1    2    0    0  0.25949619077E+02  0.40538423317E+02  0.11104149352E+03  0.12102462468E+03  0.00000000000E+00 0. -1.
         11    1    1    2    0    0  0.19847155282E+01  0.26748563080E+02 -0.14467699297E+02  0.30475220189E+02  0.00000000000E+00 0.  1.
</event>
<event>
 6    1  0.5317355E-006  0.1105590E+03  0.7561462E-02  0.1259538E+00
          2   -1    0    0  501    0  0.00000000000E+00  0.00000000000E+00  0.44662488204E+03  0.44662488204E+03  0.00000000000E+00 0. -1.
         -2   -1    0    0    0  501 -0.00000000000E+00 -0.00000000000E+00 -0.31666809360E+02  0.31666809360E+02  0.00000000000E+00 0.  1.
          5    1    1    2  502    0  0.11642212619E+02 -0.81994981508E+02  0.99236312872E+02  0.12932144563E+03  0.41800000000E+01 0. -1.
         -5    1    1    2    0  502  0.65856221147E+01  0.46517548232E+02  0.79812159734E+02  0.92707636975E+02  0.41800000000E+01 0. -1.
        -11    1    1    2    0    0 -0.19916320946E+02 -0.24191618828E+02  0.36476813137E+02  0.48087962716E+02  0.00000000000E+00 0.  1.
         11    1    1    2    0    0  0.16884862118E+01  0.59669052103E+02  0.19943278693E+03  0.20817464607E+03  0.00000000000E+00 0. -1.
</event>
<event>
 6    1  0.5317355E-006  0.1391012E+03  0.7561462E-02  0.1214543E+00
          2   -1    0    0  501    0  0.00000000000E+00  0.00000000000E+00  0.29051908364E+02  0.29051908364E+02  0.00000000000E+00 0. -1.
         -2   -1    0    0    0  501 -0.00000000000E+00 -0.00000000000E+00 -0.10148691098E+04  0.10148691098E+04  0.00000000000E+00 0.  1.
          5    1    1    2  502    0 -0.88622975298E+02 -0.33741743028E+02 -0.27635470700E+03  0.29220187106E+03  0.41800000000E+01 0.  1.
         -5    1    1    2    0  502 -0.20873748915E+02  0.41878866043E+02 -0.47767751307E+03  0.47998211603E+03  0.41800000000E+01 0.  1.
        -11    1    1    2    0    0 -0.71402553091E+01  0.15706454914E+02 -0.62121763170E+02  0.64473168304E+02  0.00000000000E+00 0. -1.
         11    1    1    2    0    0  0.11663697952E+03 -0.23843577929E+02 -0.16966321821E+03  0.20726386278E+03  0.00000000000E+00 0.  1.
</event>
<event>
 6    1  0.5317355E-006  0.1286424E+03  0.7561462E-02  0.1229484E+00
          2   -1    0    0  501    0  0.00000000000E+00  0.00000000000E+00  0.60395854558E+02  0.60395854558E+02  0.00000000000E+00 0. -1.
         -2   -1    0    0    0  501 -0.00000000000E+00 -0.00000000000E+00 -0.50066047142E+03  0.50066047142E+03  0.00000000000E+00 0.  1.
          5    1    1    2  502    0  0.20694194024E+02  0.12126895508E+03 -0.31968434951E+03  0.34256381136E+03  0.41800000000E+01 0. -1.
         -5    1    1    2    0  502 -0.96862513842E+01 -0.30176266670E+02 -0.76517265509E+02  0.82926442447E+02  0.41800000000E+01 0. -1.
        -11    1    1    2    0    0  0.13479760873E+02 -0.81715383373E+01 -0.46470484375E+02  0.49071212640E+02  0.00000000000E+00 0.  1.
         11    1    1    2    0    0 -0.24487703513E+02 -0.82921150074E+02  0.24074825308E+01  0.86494859530E+02  0.00000000000E+00 0. -1.
</event>
<event>
 6    1  0.5317355E-006  0.1128213E+03  0.7561462E-02  0.1255433E+00
          1   -1    0    0  501    0  0.00000000000E+00  0.00000000000E+00  0.61017789430E+02  0.61017789430E+02  0.00000000000E+00 0. -1.
         -1   -1    0    0    0  501 -0.00000000000E+00 -0.00000000000E+00 -0.33117504448E+03  0.33117504448E+03  0.00000000000E+00 0.  1.
          5    1    1    2  502    0  0.18908239765E+02 -0.69606561769E+02 -0.60170202150E+02  0.94024042665E+02  0.41800000000E+01 0. -1.
         -5    1    1    2    0  502 -0.67107425627E+02  0.35009826707E+01 -0.14434171665E+03  0.15927230462E+03  0.41800000000E+01 0. -1.
        -11    1    1    2    0    0  0.46963333369E+01  0.27510281954E+02  0.20731940266E+02  0.34766140240E+02  0.00000000000E+00 0. -1.
         11    1    1    2    0    0  0.43502852525E+02  0.38595297144E+02 -0.86377276517E+02  0.10413034638E+03  0.00000000000E+00 0.  1.
</event>
<event>
 6    1  0.5317355E-006  0.1166396E+03  0.7561462E-02  0.1248746E+00
          2   -1    0    0  501    0  0.00000000000E+00  0.00000000000E+00  0.41558512499E+03  0.41558512499E+03  0.00000000000E+00 0. -1.
         -2   -1    0    0    0  501 -0.00000000000E+00 -0.00000000000E+00 -0.46047467271E+02  0.46047467271E+02  0.00000000000E+00 0.  1.
          5    1    1    2  502    0 -0.56011104560E+01 -0.36278369659E+02  0.33700940431E+02  0.50007182778E+02  0.41800000000E+01 0. -1.
         -5    1    1    2    0  502  0.13141104457E+02  0.10499952483E+03  0.86091634401E+02  0.13648014784E+03  0.41800000000E+01 0. -1.
        -11    1    1    2    0    0  0.24200086455E+02 -0.43943026743E+02  0.48033790613E+02  0.69454149080E+02  0.00000000000E+00 0. -1.
         11    1    1    2    0    0 -0.31740080457E+02 -0.24778128430E+02  0.20171129228E+03  0.20569111256E+03  0.00000000000E+00 0.  1.
</event>
<event>
 6    1  0.5317355E-006  0.1205542E+03  0.7561462E-02  0.1242186E+00
          1   -1    0    0  501    0  0.00000000000E+00  0.00000000000E+00  0.15237231408E+03  0.15237231408E+03  0.00000000000E+00 0. -1.
         -1   -1    0    0    0  501 -0.00000000000E+00 -0.00000000000E+00 -0.10752153622E+03  0.10752153622E+03  0.00000000000E+00 0.  1.
          5    1    1    2  502    0  0.60996438930E+02 -0.93685481202E+01  0.32758041860E+02  0.69992120717E+02  0.41800000000E+01 0. -1.
         -5    1    1    2    0  502 -0.45670127452E+02 -0.56080965918E+02 -0.12289230641E+02  0.73480152895E+02  0.41800000000E+01 0. -1.
        -11    1    1    2    0    0 -0.44921712436E+02  0.62638612767E+02 -0.13649340822E+01  0.77093573679E+02  0.00000000000E+00 0.  1.
         11    1    1    2    0    0  0.29595400957E+02  0.28109012716E+01  0.25746900725E+02  0.39328003009E+02  0.00000000000E+00 0. -1.
</event>
<event>
 6    1  0.5317355E-006  0.1271810E+03  0.7561462E-02  0.1231700E+00
          1   -1    0    0  501    0  0.00000000000E+00  0.00000000000E+00  0.13861378589E+03  0.13861378589E+03  0.00000000000E+00 0. -1.
         -1   -1    0    0    0  501 -0.00000000000E+00 -0.00000000000E+00 -0.13590042268E+03  0.13590042268E+03  0.00000000000E+00 0.  1.
          5    1    1    2  502    0  0.14936072072E+02  0.10852552758E+03 -0.38199869575E+01  0.10969476325E+03  0.41800000000E+01 0. -1.
         -5    1    1    2    0  502  0.20837387646E+02 -0.33971394939E+02  0.37687025581E+01  0.40248328126E+02  0.41800000000E+01 0. -1.
        -11    1    1    2    0    0  0.68484257872E+01 -0.58837965048E+02  0.35060836868E+02  0.68833635300E+02  0.00000000000E+00 0. -1.
         11    1    1    2    0    0 -0.42621885505E+02 -0.15716167590E+02 -0.32296189257E+02  0.55737481897E+02  0.00000000000E+00 0.  1.
</event>
<event>
 6    1  0.5317355E-006  0.1176183E+03  0.7561462E-02  0.1247079E+00
          2   -1    0    0  501    0  0.00000000000E+00  0.00000000000E+00  0.10499657725E+03  0.10499657725E+03  0.00000000000E+00 0. -1.
         -2   -1    0    0    0  501 -0.00000000000E+00 -0.00000000000E+00 -0.18883478237E+03  0.18883478237E+03  0.00000000000E+00 0.  1.
          5    1    1    2  502    0 -0.51709656059E+01  0.38676161720E+02 -0.78875527085E+01  0.40028368171E+02  0.41800000000E+01 0.  1.
         -5    1    1    2    0  502  0.78707090001E+02 -0.77420775513E+02 -0.21361269980E+01  0.11050256982E+03  0.41800000000E+01 0.  1.
        -11    1    1    2    0    0 -0.13946887739E+02  0.17206232864E+02  0.20166910018E+02  0.29954538665E+02  0.00000000000E+00 0.  1.
         11    1    1    2    0    0 -0.59589236656E+02  0.21538380929E+02 -0.93981435432E+02  0.11334588296E+03  0.00000000000E+00 0. -1.
</event>
<event>
 6    1  0.5317355E-006  0.1148338E+03  0.7561462E-02  0.1251872E+00
          1   -1    0    0  501    0  0.00000000000E+00  0.00000000000E+00  0.55042212848E+02  0.55042212848E+02  0.00000000000E+00 0. -1.
         -1   -1    0    0    0  501 -0.00000000000E+00 -0.00000000000E+00 -0.32261321060E+03  0.32261321060E+03  0.00000000000E+00 0.  1.
          5    1    1    2  502    0  0.46275198138E+02 -0.70556367028E+01 -0.11307575069E+03  0.12245314927E+03  0.41800000000E+01 0. -1.
         -5    1    1    2    0  502 -0.39958597496E+02  0.76903227776E+02 -0.79708661287E+02  0.11782079205E+03  0.41800000000E+01 0. -1.
        -11    1    1    2    0    0 -0.39584746586E+01  0.12711141050E+02  0.11749912258E+02  0.17756775227E+02  0.00000000000E+00 0. -1.
         11    1    1    2    0    0 -0.23581259840E+01 -0.82558732123E+02 -0.86536498025E+02  0.11962470689E+03  0.00000000000E+00 0.  1.
</event>
<event>
 6    1  0.5317355E-006  0.1061226E+03  0.7561462E-02  0.1267923E+00
          1   -1    0    0  501    0  0.00000000000E+00  0.00000000000E+00  0.46952668202E+03  0.46952668202E+03  0.00000000000E+00 0. -1.
         -1   -1    0    0    0  501 -0.00000000000E+00 -0.00000000000E+00 -0.45184252019E+02  0.45184252019E+02  0.00000000000E+00 0.  1.
          5    1    1    2  502    0 -0.50990527749E+02 -0.41771182319E+02  0.31477862471E+01  0.66122965381E+02  0.41800000000E+01 0.  1.
         -5    1    1    2    0  502  0.18149479465E+02 -0.35618436055E+02  0.12633269780E+03  0.13257261982E+03  0.41800000000E+01 0.  1.
        -11    1    1    2    0    0 -0.27349650098E+01  0.69511796355E+02  0.13290868579E+03  0.15001362813E+03  0.00000000000E+00 0.  1.
         11    1    1    2    0    0  0.35576013294E+02  0.78778220193E+01  0.16195326017E+03  0.16600172071E+03  0.00000000000E+00 0. -1.
</event>
<event>
 6    1  0.5317355E-006  0.1031168E+03  0.7561462E-02  0.1273875E+00
         -4   -1    0    0    0  501 -0.00000000000E+00  0.00000000000E+00  0.43947389934E+03  0.43947389934E+03  0.00000000000E+00 0.  1.
          4   -1    0    0  501    0  0.00000000000E+00 -0.00000000000E+00 -0.30272589631E+02  0.30272589631E+02  0.00000000000E+00 0. -1.
          5    1    1    2  502    0  0.11909296324E+02  0.71734661106E+02  0.12814773968E+03  0.14740084303E+03  0.41800000000E+01 0.  1.
         -5    1    1    2    0  502 -0.20358103237E+02 -0.45928159857E+02  0.16363952390E+03  0.17122854440E+03  0.41800000000E+01 0.  1.
        -11    1    1    2    0    0 -0.34194586775E+02 -0.20862772299E+02  0.20232874099E+02  0.44876432868E+02  0.00000000000E+00 0. -1.
         11    1    1    2    0    0  0.42643393688E+02 -0.49437289502E+01  0.97181172032E+02  0.10624066867E+03  0.00000000000E+00 0.  1.
</event>
<event>
 6    1  0.5317355E-006  0.1203181E+03  0.7561462E-02  0.1242573E+00
          2   -1    0    0  501    0  0.00000000000E+00  0.00000000000E+00  0.40758072076E+03  0.40758072076E+03  0.00000000000E+00 0.  1.
         -2   -1    0    0    0  501 -0.00000000000E+00 -0.00000000000E+00 -0.14588037976E+03  0.14588037976E+03  0.00000000000E+00 0. -1.
          5    1    1    2  502    0  0.52154698884E+02 -0.61836081382E+00 -0.59194466473E+01  0.52659350873E+02  0.41800000000E+01 0. -1.
         -5    1    1    2    0  502 -0.36390247377E+02 -0.74117078681E+02 -0.91551841424E+02  0.12335640853E+03  0.41800000000E+01 0. -1.
        -11    1    1    2    0    0 -0.38870146921E+02  0.15133619367E+02  0.22487903070E+03  0.22871487316E+03  0.00000000000E+00 0.  1.
         11    1    1    2    0    0  0.23105695414E+02  0.59601820128E+02  0.13429259837E+03  0.14873046796E+03  0.00000000000E+00 0. -1.
</event>
<event>
 6    1  0.5317355E-006  0.1038972E+03  0.7561462E-02  0.1272308E+00
         -2   -1    0    0    0  501 -0.00000000000E+00  0.00000000000E+00  0.11127896424E+03  0.11127896424E+03  0.00000000000E+00 0.  1.
          2   -1    0    0  501    0  0.00000000000E+00 -0.00000000000E+00 -0.15951239638E+03  0.15951239638E+03  0.00000000000E+00 0. -1.
          5    1    1    2  502    0  0.96969667852E+02 -0.49637835419E+01  0.29286161089E+01  0.97230678403E+02  0.41800000000E+01 0. -1.
         -5    1    1    2    0  502 -0.37557257114E+02 -0.11187298315E+00  0.21517662524E+02  0.43486115922E+02  0.41800000000E+01 0. -1.
        -11    1    1    2    0    0 -0.38778311765E+02  0.23341334913E+02  0.69679194423E+01  0.45794402280E+02  0.00000000000E+00 0.  1.
         11    1    1    2    0    0 -0.20634098974E+02 -0.18265678388E+02 -0.79647630216E+02  0.84280164016E+02  0.00000000000E+00 0. -1.
</event>
<event>
 6    1  0.5317355E-006  0.1288923E+03  0.7561462E-02  0.1229109E+00
         -1   -1    0    0    0  501 -0.00000000000E+00  0.00000000000E+00  0.38332444562E+03  0.38332444562E+03  0.00000000000E+00 0.  1.
          1   -1    0    0  501    0  0.00000000000E+00 -0.00000000000E+00 -0.76508844537E+02  0.76508844537E+02  0.00000000000E+00 0. -1.
          5    1    1    2  502    0  0.61563842400E+02  0.78239385687E+02  0.63191800368E+02  0.11799230567E+03  0.41800000000E+01 0.  1.
         -5    1    1    2    0  502  0.30252124563E+02  0.70981299661E+00  0.17164204484E+03  0.17433920624E+03  0.41800000000E+01 0.  1.
        -11    1    1    2    0    0 -0.77032557073E+02 -0.81989093845E+02  0.21142274220E+02  0.11446930644E+03  0.00000000000E+00 0. -1.
         11    1    1    2    0    0 -0.14783409890E+02  0.30398951615E+01  0.50839481657E+02  0.53032471805E+02  0.00000000000E+00 0.  1.
</event>
<event>
 6    1  0.5317355E-006  0.1006897E+03  0.7561462E-02  0.1278852E+00
          3   -1    0    0  501    0  0.00000000000E+00  0.00000000000E+00  0.32120500147E+03  0.32120500147E+03  0.00000000000E+00 0. -1.
         -3   -1    0    0    0  501 -0.00000000000E+00 -0.00000000000E+00 -0.42566622358E+02  0.42566622358E+02  0.00000000000E+00 0.  1.
          5    1    1    2  502    0 -0.51945019730E+02  0.72324554544E+01  0.75258665199E+01  0.53147949664E+02  0.41800000000E+01 0.  1.
         -5    1    1    2    0  502  0.40794155865E+02 -0.40476616817E+02  0.10040498957E+03  0.11576335340E+03  0.41800000000E+01 0.  1.
        -11    1    1    2    0    0  0.22936809789E+02  0.58740055119E+02  0.13814676359E+03  0.15185855132E+03  0.00000000000E+00 0. -1.
         11    1    1    2    0    0 -0.11785945924E+02 -0.25495893756E+02  0.32560759430E+02  0.43001769433E+02  0.00000000000E+00 0.  1.
</event>
<event>
 6    1  0.5317355E-006  0.1233130E+03  0.7561462E-02  0.1237730E+00
          1   -1    0    0  501    0  0.00000000000E+00  0.00000000000E+00  0.75407196594E+03  0.75407196594E+03  0.00000000000E+00 0. -1.
         -1   -1    0    0    0  501 -0.00000000000E+00 -0.00000000000E+00 -0.20300808954E+02  0.20300808954E+02  0.00000000000E+00 0.  1.
          5    1    1    2  502    0  0.51089429445E+02 -0.55491084525E+02  0.22053766757E+03  0.23311740707E+03  0.41800000000E+01 0. -1.
         -5    1    1    2    0  502  0.93664004391E+01  0.62742851438E+02  0.18840989016E+03  0.19884706177E+03  0.41800000000E+01 0. -1.
        -11    1    1    2    0    0  0.23137013945E+02  0.28238313182E+01  0.89113927754E+02  0.92111820942E+02  0.00000000000E+00 0. -1.
         11    1    1    2    0    0 -0.83592843829E+02 -0.10075598231E+02  0.23570967150E+03  0.25029648511E+03  0.00000000000E+00 0.  1.
</event>
<event>
 6    1  0.5317355E-006  0.1697390E+03  0.7561462E-02  0.1178120E+00
         -1   -1    0    0    0  501 -0.00000000000E+00  0.00000000000E+00  0.27171208321E+03  0.27171208321E+03  0.00000000000E+00 0.  1.
          1   -1    0    0  501    0  0.00000000000E+00 -0.00000000000E+00 -0.13616154960E+03  0.13616154960E+03  0.00000000000E+00 0. -1.
          5    1    1    2  502    0  0.98923509298E+01  0.86434519658E+02  0.74286022107E+02  0.11447563180E+03  0.41800000000E+01 0. -1.
         -5    1    1    2    0  502 -0.64194373389E+02  0.61115398515E+02 -0.25415120496E+02  0.92300651461E+02  0.41800000000E+01 0. -1.
        -11    1    1    2    0    0  0.35172626904E+02 -0.35494318176E+02  0.70295120432E+02  0.86245952153E+02  0.00000000000E+00 0.  1.
         11    1    1    2    0    0  0.19129395555E+02 -0.11205560000E+03  0.16384511558E+02  0.11485139740E+03  0.00000000000E+00 0. -1.
</event>
<event>
 6    1  0.5317355E-006  0.1183049E+03  0.7561462E-02  0.1245920E+00
         -1   -1    0    0    0  501 -0.00000000000E+00  0.00000000000E+00  0.80455059429E+02  0.80455059429E+02  0.00000000000E+00 0.  1.
          1   -1    0    0  501    0  0.00000000000E+00 -0.00000000000E+00 -0.23635975755E+03  0.23635975755E+03  0.00000000000E+00 0. -1.
          5    1    1    2  502    0  0.69744286244E+02 -0.43845752058E+02 -0.49294938667E+02  0.96094634685E+02  0.41800000000E+01 0. -1.
         -5    1    1    2    0  502  0.32920205097E+01  0.52237441332E+02  0.11685522340E+02  0.53792299712E+02  0.41800000000E+01 0. -1.
        -11    1    1    2    0    0 -0.52948466446E+02 -0.38467781981E+02 -0.30961252136E+02  0.72401032336E+02  0.00000000000E+00 0.  1.
         11    1    1    2    0    0 -0.20087840307E+02  0.30076092707E+02 -0.87334029661E+02  0.94526850247E+02  0.00000000000E+00 0. -1.
</event>
<event>
 6    1  0.5317355E-006  0.1390462E+03  0.7561462E-02  0.1214618E+00
         -2   -1    0    0    0  501 -0.00000000000E+00  0.00000000000E+00  0.31157986837E+02  0.31157986837E+02  0.00000000000E+00 0.  1.
          2   -1    0    0  501    0  0.00000000000E+00 -0.00000000000E+00 -0.80372571892E+03  0.80372571892E+03  0.00000000000E+00 0. -1.
          5    1    1    2  502    0  0.21055538488E+02 -0.17680745812E+02 -0.18063682032E+02  0.33161928201E+02  0.41800000000E+01 0.  1.
         -5    1    1    2    0  502  0.47846277409E+02  0.10996472218E+03 -0.41780506508E+03  0.43469535447E+03  0.41800000000E+01 0.  1.
        -11    1    1    2    0    0 -0.68687584709E+02 -0.43074950153E+02 -0.12008073261E+03  0.14488898498E+03  0.00000000000E+00 0.  1.
         11    1    1    2    0    0 -0.21423118810E+00 -0.49209026213E+02 -0.21661825236E+03  0.22213743811E+03  0.00000000000E+00 0. -1.
</event>
<event>
 6    1  0.5317355E-006  0.6713424E+02  0.7561462E-02  0.1370119E+00
         -1   -1    0    0    0  501 -0.00000000000E+00  0.00000000000E+00  0.40359516857E+03  0.40359516857E+03  0.00000000000E+00 0.  1.
          1   -1    0    0  501    0  0.00000000000E+00 -0.00000000000E+00 -0.32924069464E+02  0.32924069464E+02  0.00000000000E+00 0. -1.
          5    1    1    2  502    0  0.11444510499E+02  0.77598099958E+01 -0.15670810201E+02  0.21312863817E+02  0.41800000000E+01 0.  1.
         -5    1    1    2    0  502  0.19370578543E+02  0.51257537725E+01  0.21758691883E+03  0.21854755160E+03  0.41800000000E+01 0.  1.
        -11    1    1    2    0    0  0.17407324294E+02 -0.40289776869E+02  0.92302028603E+02  0.10220540858E+03  0.00000000000E+00 0. -1.
         11    1    1    2    0    0 -0.48222413337E+02  0.27404213100E+02  0.76452961877E+02  0.94453414038E+02  0.00000000000E+00 0.  1.
</event>
<event>
 6    1  0.5317355E-006  0.1878266E+03  0.7561462E-02  0.1160436E+00
          2   -1    0    0  501    0  0.00000000000E+00  0.00000000000E+00  0.94510543099E+02  0.94510543099E+02  0.00000000000E+00 0. -1.
         -2   -1    0    0    0  501 -0.00000000000E+00 -0.00000000000E+00 -0.44405386780E+03  0.44405386780E+03  0.00000000000E+00 0.  1.
          5    1    1    2  502    0 -0.25014390661E+02 -0.20209577453E+02 -0.79789755794E+02  0.86127953016E+02  0.41800000000E+01 0. -1.
         -5    1    1    2    0  502 -0.12900888512E+03  0.10065139807E+03 -0.87623530326E+02  0.18565923581E+03  0.41800000000E+01 0. -1.
        -11    1    1    2    0    0  0.46988343519E+02 -0.23465072671E+01 -0.10098690681E+03  0.11140810505E+03  0.00000000000E+00 0.  1.
         11    1    1    2    0    0  0.10703493227E+03 -0.78095313352E+02 -0.81143131775E+02  0.15536911703E+03  0.00000000000E+00 0. -1.
</event>
<event>
 6    1  0.5317355E-006  0.1425163E+03  0.7561462E-02  0.1209983E+00
         -2   -1    0    0    0  501 -0.00000000000E+00  0.00000000000E+00  0.27689230449E+02  0.27689230449E+02  0.00000000000E+00 0.  1.
          2   -1    0    0  501    0  0.00000000000E+00 -0.00000000000E+00 -0.82080895293E+03  0.82080895293E+03  0.00000000000E+00 0. -1.
          5    1    1    2  502    0  0.67588248505E+01  0.33906873764E+02 -0.81308865141E+02  0.88453161347E+02  0.41800000000E+01 0. -1.
         -5    1    1    2    0  502 -0.92109900078E+02 -0.83337056641E+02 -0.25407788393E+03  0.28284685291E+03  0.41800000000E+01 0. -1.
        -11    1    1    2    0    0 -0.83183358940E+01  0.28840682725E+02 -0.49829856581E+02  0.58172109287E+02  0.00000000000E+00 0.  1.
         11    1    1    2    0    0  0.93669411121E+02  0.20589500153E+02 -0.40790311683E+03  0.41902605983E+03  0.00000000000E+00 0. -1.
</event>
<event>
 6    1  0.5317355E-006  0.8410600E+02  0.7561462E-02  0.1317787E+00
          3   -1    0    0  501    0  0.00000000000E+00  0.00000000000E+00  0.36841173817E+02  0.36841173817E+02  0.00000000000E+00 0. -1.
         -3   -1    0    0    0  501 -0.00000000000E+00 -0.00000000000E+00 -0.42263603409E+03  0.42263603409E+03  0.00000000000E+00 0.  1.
          5    1    1    2  502    0  0.54803165986E+02 -0.18504387823E+02 -0.29066763141E+03  0.29639659869E+03  0.41800000000E+01 0. -1.
         -5    1    1    2    0  502 -0.21392422952E+02  0.26330743388E+02 -0.18470016937E+02  0.38853027331E+02  0.41800000000E+01 0. -1.
        -11    1    1    2    0    0 -0.22147190037E+02 -0.37914384642E+02 -0.80674952061E+02  0.91850130536E+02  0.00000000000E+00 0.  1.
         11    1    1    2    0    0 -0.11263552998E+02  0.30088029077E+02  0.40177401320E+01  0.32377451345E+02  0.00000000000E+00 0. -1.
</event>
<event>
 6    1  0.5317355E-006  0.2553931E+03  0.7561462E-02  0.1109943E+00
          2   -1    0    0  501    0  0.00000000000E+00  0.00000000000E+00  0.49871235677E+03  0.49871235677E+03  0.00000000000E+00 0.  1.
         -2   -1    0    0    0  501 -0.00000000000E+00 -0.00000000000E+00 -0.14747705944E+03  0.14747705944E+03  0.00000000000E+00 0. -1.
          5    1    1    2  502    0 -0.51122572254E+02 -0.29449111495E+02  0.10853507202E+03  0.12360461893E+03  0.41800000000E+01 0. -1.
         -5    1    1    2    0  502 -0.11384340162E+03 -0.15580815867E+03  0.63631926575E+02  0.20323138754E+03  0.41800000000E+01 0. -1.
        -11    1    1    2    0    0  0.31576143847E+02  0.88149014070E+02  0.97924269524E+02  0.13548602918E+03  0.00000000000E+00 0.  1.
         11    1    1    2    0    0  0.13338983003E+03  0.97108256099E+02  0.81144029208E+02  0.18386738056E+03  0.00000000000E+00 0. -1.
</event>
<event>
 6    1  0.5317355E-006  0.1862209E+03  0.7561462E-02  0.1161915E+00
          1   -1    0    0  501    0  0.00000000000E+00  0.00000000000E+00  0.37611765071E+03  0.37611765071E+03  0.00000000000E+00 0. -1.
         -1   -1    0    0    0  501 -0.00000000000E+00 -0.00000000000E+00 -0.13472975184E+03  0.13472975184E+03  0.00000000000E+00 0.  1.
          5    1    1    2  502    0 -0.42894410023E+02 -0.15298122685E+02  0.66617268297E+02  0.80804058093E+02  0.41800000000E+01 0. -1.
         -5    1    1    2    0  502 -0.90452984278E+02 -0.10651797157E+03 -0.27137968703E+02  0.14241405260E+03  0.41800000000E+01 0. -1.
        -11    1    1    2    0    0  0.78458487919E+02  0.39171306834E+02  0.37004735156E+02  0.95181279827E+02  0.00000000000E+00 0.  1.
         11    1    1    2    0    0  0.54888906382E+02  0.82644787419E+02  0.16490386412E+03  0.19244801203E+03  0.00000000000E+00 0. -1.
</event>
<event>
 6    1  0.5317355E-006  0.1639909E+03  0.7561462E-02  0.1184263E+00
          2   -1    0    0  501    0  0.00000000000E+00  0.00000000000E+00  0.11296040558E+03  0.11296040558E+03  0.00000000000E+00 0. -1.
         -2   -1    0    0    0  501 -0.00000000000E+00 -0.00000000000E+00 -0.30808629576E+03  0.30808629576E+03  0.00000000000E+00 0.  1.
          5    1    1    2  502    0  0.64470346185E+02  0.54204598215E+02 -0.11201707163E+03  0.14021362538E+03  0.41800000000E+01 0.  1.
         -5    1    1    2    0  502  0.82693786322E+02 -0.46903804102E+02 -0.30513087453E+02  0.99933728248E+02  0.41800000000E+01 0.  1.
        -11    1    1    2    0    0 -0.79542883454E+02 -0.13114322809E+02 -0.74309201922E+02  0.10963992549E+03  0.00000000000E+00 0.  1.
         11    1    1    2    0    0 -0.67621249053E+02  0.58135286959E+01  0.21713470825E+02  0.71259422217E+02  0.00000000000E+00 0. -1.
</event>
<event>
 6    1  0.5317355E-006  0.1549406E+03  0.7561462E-02  0.1194530E+00
         -2   -1    0    0    0  501 -0.00000000000E+00  0.00000000000E+00  0.53345266625E+03  0.53345266625E+03  0.00000000000E+00 0.  1.
          2   -1    0    0  501    0  0.00000000000E+00 -0.00000000000E+00 -0.53585261633E+02  0.53585261633E+02  0.00000000000E+00 0. -1.
          5    1    1    2  502    0 -0.10773915285E+03  0.31783495685E+02  0.16955991125E+03  0.20343537441E+03  0.41800000000E+01 0. -1.
         -5    1    1    2    0  502 -0.12331545434E+02 -0.52916045070E+02  0.16832984660E+03  0.17693101621E+03  0.41800000000E+01 0. -1.
        -11    1    1    2    0    0  0.13040580304E+03  0.23162677483E+02  0.10738259830E+03  0.17050866697E+03  0.00000000000E+00 0. -1.
         11    1    1    2    0    0 -0.10335104752E+02 -0.20301280978E+01  0.34595048460E+02  0.36162870299E+02  0.00000000000E+00 0.  1.
</event>
<event>
 6    1  0.5317355E-006  0.1045332E+03  0.7561462E-02  0.1271042E+00
         -2   -1    0    0    0  501 -0.00000000000E+00  0.00000000000E+00  0.59488856854E+02  0.59488856854E+02  0.00000000000E+00 0.  1.
          2   -1    0    0  501    0  0.00000000000E+00 -0.00000000000E+00 -0.26033261747E+03  0.26033261747E+03  0.00000000000E+00 0. -1.
          5    1    1    2  502    0 -0.17183085045E+02  0.45104506919E+02 -0.91999658102E+02  0.10397636485E+03  0.41800000000E+01 0. -1.
         -5    1    1    2    0  502 -0.41287147084E+02 -0.47652032930E+02 -0.22531895010E+01  0.63228901774E+02  0.41800000000E+01 0. -1.
        -11    1    1    2    0    0  0.60282159592E+02 -0.28254367005E+02 -0.10143777191E+03  0.12133371168E+03  0.00000000000E+00 0. -1.
         11    1    1    2    0    0 -0.18119274623E+01  0.30801893015E+02 -0.51531411087E+01  0.31282496028E+02  0.00000000000E+00 0.  1.
</event>
<event>
 6    1  0.5317355E-006  0.1020879E+03  0.7561462E-02  0.1275966E+00
          1   -1    0    0  501    0  0.00000000000E+00  0.00000000000E+00  0.82562554295E+02  0.82562554295E+02  0.00000000000E+00 0. -1.
         -1   -1    0    0    0  501 -0.00000000000E+00 -0.00000000000E+00 -0.23255811168E+03  0.23255811168E+03  0.00000000000E+00 0.  1.
          5    1    1    2  502    0  0.25476698151E+02  0.22160175106E+02  0.30489805699E+02  0.45686279789E+02  0.41800000000E+01 0. -1.
         -5    1    1    2    0  502 -0.20219549575E+02  0.72148468139E+02 -0.10192355827E+03  0.12657059599E+03  0.41800000000E+01 0. -1.
        -11    1    1    2    0    0  0.25838580439E+01 -0.52894962154E+02 -0.85077773660E+02  0.10021367629E+03  0.00000000000E+00 0.  1.
         11    1    1    2    0    0 -0.78410066201E+01 -0.41413681091E+02  0.65159688460E+01  0.42650113907E+02  0.00000000000E+00 0. -1.
</event>
<event>
 6    1  0.5317355E-006  0.1069332E+03  0.7561462E-02  0.1266357E+00
          1   -1    0    0  501    0  0.00000000000E+00  0.00000000000E+00  0.18389743779E+03  0.18389743779E+03  0.00000000000E+00 0. -1.
         -1   -1    0    0    0  501 -0.00000000000E+00 -0.00000000000E+00 -0.78003243530E+02  0.78003243530E+02  0.00000000000E+00 0.  1.
          5    1    1    2  502    0  0.28494869130E+01  0.41510986052E+02  0.63554590034E+02  0.76078511112E+02  0.41800000000E+01 0. -1.
         -5    1    1    2    0  502  0.13004545240E+02 -0.79369084372E+02  0.32306588381E+02  0.86774177057E+02  0.41800000000E+01 0. -1.
        -11    1    1    2    0    0 -0.17389910148E+02  0.63493051405E+02 -0.98570797323E+01  0.66565295557E+02  0.00000000000E+00 0.  1.
         11    1    1    2    0    0  0.15358779957E+01 -0.25634953085E+02  0.19890095575E+02  0.32482697592E+02  0.00000000000E+00 0. -1.
</event>
<event>
 6    1  0.5317355E-006  0.1588499E+03  0.7561462E-02  0.1190001E+00
         -1   -1    0    0    0  501 -0.00000000000E+00  0.00000000000E+00  0.46217383313E+02  0.46217383313E+02  0.00000000000E+00 0.  1.
          1   -1    0    0  501    0  0.00000000000E+00 -0.00000000000E+00 -0.67496011206E+03  0.67496011206E+03  0.00000000000E+00 0. -1.
          5    1    1    2  502    0 -0.14010035991E+03 -0.45671779918E+02 -0.15061105021E+03  0.21074910006E+03  0.41800000000E+01 0.  1.
         -5    1    1    2    0  502  0.18339817469E+02  0.14556603610E+02 -0.60136354328E+02  0.64669135802E+02  0.41800000000E+01 0.  1.
        -11    1    1    2    0    0  0.11200057734E+03 -0.19560764101E+01 -0.24545993718E+03  0.26981203887E+03  0.00000000000E+00 0.  1.
         11    1    1    2    0    0  0.97599651000E+01  0.33071252719E+02 -0.17253538703E+03  0.17594722064E+03  0.00000000000E+00 0. -1.
</event>
<event>
 6    1  0.5317355E-006  0.4420253E+03  0.7561462E-02  0.1030127E+00
          2   -1    0    0  501    0  0.00000000000E+00  0.00000000000E+00  0.90360989465E+03  0.90360989465E+03  0.00000000000E+00 0. -1.
         -2   -1    0    0    0  501 -0.00000000000E+00 -0.00000000000E+00 -0.27565521942E+03  0.27565521942E+03  0.00000000000E+00 0.  1.
          5    1    1    2  502    0 -0.21118692464E+03 -0.33090491927E+03  0.46246918818E+03  0.60662443501E+03  0.41800000000E+01 0. -1.
         -5    1    1    2    0  502  0.26496356326E+03  0.23607402274E+03  0.10747602000E+02  0.35506283587E+03  0.41800000000E+01 0.  1.
        -11    1    1    2    0    0  0.22252748533E+02  0.21861877050E+02  0.86702307351E+02  0.92143456552E+02  0.00000000000E+00 0.  1.
         11    1    1    2    0    0 -0.76029387156E+02  0.72969019483E+02  0.68035577705E+02  0.12543438663E+03  0.00000000000E+00 0. -1.
</event>
<event>
 6    1  0.5317355E-006  0.1094035E+03  0.7561462E-02  0.1261679E+00
          2   -1    0    0  501    0  0.00000000000E+00  0.00000000000E+00  0.41110379388E+03  0.41110379388E+03  0.00000000000E+00 0. -1.
         -2   -1    0    0    0  501 -0.00000000000E+00 -0.00000000000E+00 -0.42655742936E+02  0.42655742936E+02  0.00000000000E+00 0.  1.
          5    1    1    2  502    0  0.12400423825E+02 -0.30089540624E+02  0.68330938124E+02  0.75800662734E+02  0.41800000000E+01 0.  1.
         -5    1    1    2    0  502 -0.25312979176E+02  0.89468407714E+02  0.43906634163E+02  0.10291067883E+03  0.41800000000E+01 0.  1.
        -11    1    1    2    0    0  0.34605976076E+02 -0.57631301967E+01  0.51427501541E+02  0.62254117652E+02  0.00000000000E+00 0.  1.
         11    1    1    2    0    0 -0.21693420725E+02 -0.53615736893E+02  0.20478297711E+03  0.21279407760E+03  0.00000000000E+00 0. -1.
</event>
<event>
 6    1  0.5317355E-006  0.1514084E+03  0.7561462E-02  0.1198753E+00
          2   -1    0    0  501    0  0.00000000000E+00  0.00000000000E+00  0.26531745149E+03  0.26531745149E+03  0.00000000000E+00 0.  1.
         -2   -1    0    0    0  501 -0.00000000000E+00 -0.00000000000E+00 -0.10286888060E+03  0.10286888060E+03  0.00000000000E+00 0. -1.
          5    1    1    2  502    0  0.34713793699E+02 -0.10963541433E+03 -0.48109750885E+01  0.11517634058E+03  0.41800000000E+01 0.  1.
         -5    1    1    2    0  502 -0.45139301360E+02  0.79291068152E+00  0.26130522731E+02  0.52330314855E+02  0.41800000000E+01 0.  1.
        -11    1    1    2    0    0 -0.23386181768E+02  0.10591203288E+03  0.11260682729E+03  0.15634759275E+03  0.00000000000E+00 0.  1.
         11    1    1    2    0    0  0.33811689429E+02  0.29304707620E+01  0.28522195955E+02  0.44332083901E+02  0.00000000000E+00 0. -1.
</event>
<event>
 6    1  0.5317355E-006  0.1165831E+03  0.7561462E-02  0.1248843E+00
          3   -1    0    0  501    0  0.00000000000E+00  0.00000000000E+00  0.18943097069E+03  0.18943097069E+03  0.00000000000E+00 0. -1.
         -3   -1    0    0    0  501 -0.00000000000E+00 -0.00000000000E+00 -0.13071616811E+03  0.13071616811E+03  0.00000000000E+00 0.  1.
          5    1    1    2  502    0 -0.10361632196E+03  0.20058006526E+02 -0.12462165548E+02  0.10635527148E+03  0.41800000000E+01 0. -1.
         -5    1    1    2    0  502 -0.28475958578E+01  0.10512949023E+02  0.69082213435E+02  0.70060370484E+02  0.41800000000E+01 0. -1.
        -11    1    1    2    0    0  0.38037541265E+02 -0.28304969636E+02 -0.41127706079E+02  0.62765548344E+02  0.00000000000E+00 0.  1.
         11    1    1    2    0    0  0.68426376552E+02 -0.22659859134E+01  0.43222460764E+02  0.80965948489E+02  0.00000000000E+00 0. -1.
</event>
<event>
 6    1  0.5317355E-006  0.1006435E+03  0.7561462E-02  0.1278949E+00
          1   -1    0    0  501    0  0.00000000000E+00  0.00000000000E+00  0.32798054667E+03  0.32798054667E+03  0.00000000000E+00 0. -1.
         -1   -1    0    0    0  501 -0.00000000000E+00 -0.00000000000E+00 -0.41943901997E+02  0.41943901997E+02  0.00000000000E+00 0.  1.
          5    1    1    2  502    0  0.31405822309E+02 -0.54203074168E+02  0.63674618170E+02  0.89421632300E+02  0.41800000000E+01 0. -1.
         -5    1    1    2    0  502 -0.36645133598E+02  0.26002156203E+02  0.75031434682E+01  0.45746557308E+02  0.41800000000E+01 0.  1.
        -11    1    1    2    0    0  0.44620940122E+02 -0.53698865021E+00  0.12148061278E+03  0.12941737107E+03  0.00000000000E+00 0. -1.
         11    1    1    2    0    0 -0.39381628834E+02  0.28737906615E+02  0.93378270253E+02  0.10533888798E+03  0.00000000000E+00 0.  1.
</event>
<event>
 6    1  0.5317355E-006  0.1064978E+03  0.7561462E-02  0.1267196E+00
         -1   -1    0    0    0  501 -0.00000000000E+00  0.00000000000E+00  0.20229250098E+03  0.20229250098E+03  0.00000000000E+00 0.  1.
          1   -1    0    0  501    0  0.00000000000E+00 -0.00000000000E+00 -0.58686142210E+02  0.58686142210E+02  0.00000000000E+00 0. -1.
          5    1    1    2  502    0  0.54070514114E+02  0.41285462211E+02  0.47759373138E+02  0.83225837389E+02  0.41800000000E+01 0.  1.
         -5    1    1    2    0  502 -0.35170609574E+02 -0.46017964628E+02  0.52111729542E+02  0.78023904043E+02  0.41800000000E+01 0.  1.
        -11    1    1    2    0    0 -0.45838539567E+02 -0.20171746136E+02  0.37387381283E+02  0.62497098581E+02  0.00000000000E+00 0.  1.
         11    1    1    2    0    0  0.26938635027E+02  0.24904248553E+02  0.63478748046E+01  0.37231803175E+02  0.00000000000E+00 0. -1.
</event>
<event>
 6    1  0.5317355E-006  0.1331003E+03  0.7561462E-02  0.1222927E+00
          2   -1    0    0  501    0  0.00000000000E+00  0.00000000000E+00  0.14287872486E+03  0.14287872486E+03  0.00000000000E+00 0. -1.
         -2   -1    0    0    0  501 -0.00000000000E+00 -0.00000000000E+00 -0.17856198382E+03  0.17856198382E+03  0.00000000000E+00 0.  1.
          5    1    1    2  502    0  0.32029373608E+02 -0.73400928664E+02 -0.67598861680E+02  0.10488401023E+03  0.41800000000E+01 0.  1.
         -5    1    1    2    0  502  0.65174471303E+02  0.32335603129E+02 -0.18630586260E+01  0.72898877404E+02  0.41800000000E+01 0.  1.
        -11    1    1    2    0    0 -0.73735510717E+02  0.48800020472E+02 -0.14329104972E+02  0.89575056730E+02  0.00000000000E+00 0.  1.
         11    1    1    2    0    0 -0.23468334194E+02 -0.77346949378E+01  0.48107766317E+02  0.54082764312E+02  0.00000000000E+00 0. -1.
</event>
<event>
 6    1  0.5317355E-006  0.1673042E+03  0.7561462E-02  0.1180689E+00
         -2   -1    0    0    0  501 -0.00000000000E+00  0.00000000000E+00  0.10450065159E+03  0.10450065159E+03  0.00000000000E+00 0.  1.
          2   -1    0    0  501    0  0.00000000000E+00 -0.00000000000E+00 -0.29246134545E+03  0.29246134545E+03  0.00000000000E+00 0. -1.
          5    1    1    2  502    0  0.58964217166E+02 -0.75016579484E+02 -0.66692139503E+02  0.11648854010E+03  0.41800000000E+01 0.  1.
         -5    1    1    2    0  502 -0.51504382304E+02 -0.57647555490E+02  0.11244978065E+01  0.77425312048E+02  0.41800000000E+01 0.  1.
        -11    1    1    2    0    0  0.33272455874E+02  0.13776796313E+02 -0.32797442946E+02  0.48708610125E+02  0.00000000000E+00 0. -1.
         11    1    1    2    0    0 -0.40732290736E+02  0.11888733866E+03 -0.89595609215E+02  0.15433953477E+03  0.00000000000E+00 0.  1.
</event>
<event>
 6    1  0.5317355E-006  0.1032859E+03  0.7561462E-02  0.1273534E+00
          2   -1    0    0  501    0  0.00000000000E+00  0.00000000000E+00  0.83436047647E+02  0.83436047647E+02  0.00000000000E+00 0. -1.
         -2   -1    0    0    0  501 -0.00000000000E+00 -0.00000000000E+00 -0.13773783923E+03  0.13773783923E+03  0.00000000000E+00 0.  1.
          5    1    1    2  502    0 -0.52943385552E+02  0.11799731954E+02 -0.18583371047E+01  0.54434929638E+02  0.41800000000E+01 0. -1.
         -5    1    1    2    0  502  0.58855466287E+02 -0.23070747641E+02 -0.32414265478E+02  0.71164473686E+02  0.41800000000E+01 0.  1.
        -11    1    1    2    0    0 -0.59327660675E+01  0.49867112920E+02 -0.25949410137E+02  0.56526971886E+02  0.00000000000E+00 0. -1.
         11    1    1    2    0    0  0.20685333097E-01 -0.38596097233E+02  0.59202211310E+01  0.39047511671E+02  0.00000000000E+00 0.  1.
</event>
<event>
 6    1  0.5317355E-006  0.9194659E+02  0.7561462E-02  0.1298205E+00
          2   -1    0    0  501    0  0.00000000000E+00  0.00000000000E+00  0.47829634808E+03  0.47829634808E+03  0.00000000000E+00 0. -1.
         -2   -1    0    0    0  501 -0.00000000000E+00 -0.00000000000E+00 -0.32821283103E+02  0.32821283103E+02  0.00000000000E+00 0.  1.
          5    1    1    2  502    0  0.28205950803E+02  0.21477868840E+02  0.16618353290E+03  0.16997444960E+03  0.41800000000E+01 0. -1.
         -5    1    1    2    0  502 -0.39712381994E+02  0.28220796697E+02  0.65765073949E+01  0.49337708696E+02  0.41800000000E+01 0. -1.
        -11    1    1    2    0    0  0.48735871331E+02 -0.28306991961E+02  0.19542189235E+03  0.20338679150E+03  0.00000000000E+00 0.  1.
         11    1    1    2    0    0 -0.37229440140E+02 -0.21391673577E+02  0.77293132330E+02  0.88418681380E+02  0.00000000000E+00 0. -1.
</event>
<event>
 6    1  0.5317355E-006  0.1159138E+03  0.7561462E-02  0.1249994E+00
          1   -1    0    0  501    0  0.00000000000E+00  0.00000000000E+00  0.69021014876E+02  0.69021014876E+02  0.00000000000E+00 0. -1.
         -1   -1    0    0    0  501 -0.00000000000E+00 -0.00000000000E+00 -0.27279232905E+03  0.27279232905E+03  0.00000000000E+00 0.  1.
          5    1    1    2  502    0 -0.48495296408E+02  0.76531667953E+02 -0.73541525258E+02  0.11676779655E+03  0.41800000000E+01 0.  1.
         -5    1    1    2    0  502  0.58426527161E+02  0.48894810156E+01 -0.53627112901E+02  0.79566989001E+02  0.41800000000E+01 0.  1.
        -11    1    1    2    0    0 -0.90134831724E+01 -0.43868707320E+02  0.14387602314E+02  0.47039445800E+02  0.00000000000E+00 0. -1.
         11    1    1    2    0    0 -0.91774757962E+00 -0.37552441649E+02 -0.90990278327E+02  0.98439112574E+02  0.00000000000E+00 0.  1.
</event>
<event>
 6    1  0.5317355E-006  0.1008652E+03  0.7561462E-02  0.1278487E+00
          3   -1    0    0  501    0  0.00000000000E+00  0.00000000000E+00  0.92412185410E+02  0.92412185410E+02  0.00000000000E+00 0. -1.
         -3   -1    0    0    0  501 -0.00000000000E+00 -0.00000000000E+00 -0.18497573371E+03  0.18497573371E+03  0.00000000000E+00 0.  1.
          5    1    1    2  502    0  0.45035516153E+01  0.18479937955E+02  0.24364858328E+02  0.31191486103E+02  0.41800000000E+01 0. -1.
         -5    1    1    2    0  502  0.74977342764E+02 -0.20100361943E+02 -0.11290285632E+03  0.13707718207E+03  0.41800000000E+01 0.  1.
        -11    1    1    2    0    0  0.10541529981E+02 -0.90141064062E+01 -0.11701145328E+02  0.18146480944E+02  0.00000000000E+00 0.  1.
         11    1    1    2    0    0 -0.90022424360E+02  0.10634530394E+02  0.76755950162E+01  0.90972770010E+02  0.00000000000E+00 0. -1.
</event>
<event>
 6    1  0.5317355E-006  0.1498093E+03  0.7561462E-02  0.1200708E+00
         -2   -1    0    0    0  501 -0.00000000000E+00  0.00000000000E+00  0.14915783656E+02  0.14915783656E+02  0.00000000000E+00 0.  1.
          2   -1    0    0  501    0  0.00000000000E+00 -0.00000000000E+00 -0.15090391553E+04  0.15090391553E+04  0.00000000000E+00 0. -1.
          5    1    1    2  502    0  0.10111325018E+03  0.77528200681E+01 -0.53539830577E+03  0.54493377011E+03  0.41800000000E+01 0. -1.
         -5    1    1    2    0  502 -0.20564044949E+02  0.57020050482E+02 -0.31413992590E+03  0.31996176576E+03  0.41800000000E+01 0. -1.
        -11    1    1    2    0    0 -0.90341045669E+02 -0.79055308968E+02 -0.56213940869E+03  0.57481471903E+03  0.00000000000E+00 0.  1.
         11    1    1    2    0    0  0.97918404358E+01  0.14282438418E+02 -0.82445731260E+02  0.84244684042E+02  0.00000000000E+00 0. -1.
</event>
<event>
 6    1  0.5317355E-006  0.1029381E+03  0.7561462E-02  0.1274236E+00
         -3   -1    0    0    0  501 -0.00000000000E+00  0.00000000000E+00  0.16849543077E+03  0.16849543077E+03  0.00000000000E+00 0.  1.
          3   -1    0    0  501    0  0.00000000000E+00 -0.00000000000E+00 -0.11108363045E+03  0.11108363045E+03  0.00000000000E+00 0. -1.
          5    1    1    2  502    0 -0.21241262889E+02  0.81010867884E+02  0.66153351902E+02  0.10680678973E+03  0.41800000000E+01 0. -1.
         -5    1    1    2    0  502  0.27299002182E+02 -0.39399383339E+02  0.37395090606E+02  0.60937772596E+02  0.41800000000E+01 0. -1.
        -11    1    1    2    0    0 -0.55682147597E+00  0.16012402548E+02 -0.51276039100E+02  0.53720938853E+02  0.00000000000E+00 0.  1.
         11    1    1    2    0    0 -0.55009178163E+01 -0.57623887094E+02  0.51393969123E+01  0.58113560046E+02  0.00000000000E+00 0. -1.
</event>
<event>
 6    1  0.5317355E-006  0.1126115E+03  0.7561462E-02  0.1255809E+00
         -1   -1    0    0    0  501 -0.00000000000E+00  0.00000000000E+00  0.11240756217E+04  0.11240756217E+04  0.00000000000E+00 0.  1.
          1   -1    0    0  501    0  0.00000000000E+00 -0.00000000000E+00 -0.12345327855E+02  0.12345327855E+02  0.00000000000E+00 0. -1.
          5    1    1    2  502    0 -0.18901245444E+02 -0.42441281617E+02  0.21124099210E+03  0.21633018422E+03  0.41800000000E+01 0.  1.
         -5    1    1    2    0  502  0.15298113535E+02  0.80373736219E+02  0.54764958408E+03  0.55374317973E+03  0.41800000000E+01 0.  1.
        -11    1    1    2    0    0 -0.48269054402E+01 -0.66598034411E+02  0.20789027832E+03  0.21835055535E+03  0.00000000000E+00 0.  1.
         11    1    1    2    0    0  0.84300373492E+01  0.28665579809E+02  0.14494943940E+03  0.14799703030E+03  0.00000000000E+00 0. -1.
</event>
<event>
 6    1  0.5317355E-006  0.1699593E+03  0.7561462E-02  0.1177890E+00
         -2   -1    0    0    0  501 -0.00000000000E+00  0.00000000000E+00  0.23869987329E+02  0.23869987329E+02  0.00000000000E+00 0.  1.
          2   -1    0    0  501    0  0.00000000000E+00 -0.00000000000E+00 -0.12920345146E+04  0.12920345146E+04  0.00000000000E+00 0. -1.
          5    1    1    2  502    0  0.14627665271E+03  0.51677749101E+01 -0.58050199431E+03  0.59868489443E+03  0.41800000000E+01 0. -1.
         -5    1    1    2    0  502 -0.72888231402E+02 -0.22059264768E+02 -0.16844051146E+03  0.18490263313E+03  0.41800000000E+01 0.  1.
        -11    1    1    2    0    0 -0.88824215458E+02  0.33146223532E+02 -0.41006307450E+03  0.42088019489E+03  0.00000000000E+00 0.  1.
         11    1    1    2    0    0  0.15435794151E+02 -0.16254733673E+02 -0.10915894704E+03  0.11143677951E+03  0.00000000000E+00 0. -1.
</event>
<event>
 6    1  0.5317355E-006  0.9757512E+02  0.7561462E-02  0.1285479E+00
         -1   -1    0    0    0  501 -0.00000000000E+00  0.00000000000E+00  0.28527568484E+02  0.28527568484E+02  0.00000000000E+00 0.  1.
          1   -1    0    0  501    0  0.00000000000E+00 -0.00000000000E+00 -0.68772682606E+03  0.68772682606E+03  0.00000000000E+00 0. -1.
          5    1    1    2  502    0 -0.50379953889E+02 -0.42911348384E+02 -0.40352500551E+02  0.77622936525E+02  0.41800000000E+01 0. -1.
         -5    1    1    2    0  502 -0.80397008920E+01 -0.15343695620E+02 -0.23662507086E+03  0.23729509549E+03  0.41800000000E+01 0. -1.
        -11    1    1    2    0    0  0.65465317801E+02  0.14955648989E+02 -0.14119897907E+03  0.15635386456E+03  0.00000000000E+00 0.  1.
         11    1    1    2    0    0 -0.70456630202E+01  0.43299395015E+02 -0.24102270709E+03  0.24498249797E+03  0.00000000000E+00 0. -1.
</event>
<event>
 6    1  0.5317355E-006  0.7822161E+02  0.7561462E-02  0.1334175E+00
         -2   -1    0    0    0  501 -0.00000000000E+00  0.00000000000E+00  0.77117921788E+02  0.77117921788E+02  0.00000000000E+00 0.  1.
          2   -1    0    0  501    0  0.00000000000E+00 -0.00000000000E+00 -0.17381460078E+03  0.17381460078E+03  0.00000000000E+00 0. -1.
          5    1    1    2  502    0 -0.19472743540E+02  0.11682095726E+02 -0.65425921086E+02  0.69380708064E+02  0.41800000000E+01 0.  1.
         -5    1    1    2    0  502  0.26409177786E+02 -0.47404604625E+02  0.34604624774E+02  0.64494911945E+02  0.41800000000E+01 0.  1.
        -11    1    1    2    0    0 -0.33135881421E+01  0.57125152993E+02 -0.11304428695E+02  0.58327121299E+02  0.00000000000E+00 0.  1.
         11    1    1    2    0    0 -0.36228461045E+01 -0.21402644094E+02 -0.54570953989E+02  0.58729781264E+02  0.00000000000E+00 0. -1.
</event>
<event>
 6    1  0.5317355E-006  0.9923007E+02  0.7561462E-02  0.1281923E+00
          1   -1    0    0  501    0  0.00000000000E+00  0.00000000000E+00  0.73200787983E+03  0.73200787983E+03  0.00000000000E+00 0. -1.
         -1   -1    0    0    0  501 -0.00000000000E+00 -0.00000000000E+00 -0.24259439713E+02  0.24259439713E+02  0.00000000000E+00 0.  1.
          5    1    1    2  502    0  0.47387308432E+01  0.13564095972E+02  0.31413211219E+03  0.31448830913E+03  0.41800000000E+01 0. -1.
         -5    1    1    2    0  502  0.57271526610E+02  0.28136019005E+02  0.62802129296E+02  0.89628361414E+02  0.41800000000E+01 0. -1.
        -11    1    1    2    0    0  0.17792762675E+02 -0.35250992794E+02  0.13332442193E+03  0.13904897116E+03  0.00000000000E+00 0.  1.
         11    1    1    2    0    0 -0.79803020128E+02 -0.64491221825E+01  0.19748977670E+03  0.21310167784E+03  0.00000000000E+00 0. -1.
</event>
<event>
 6    1  0.5317355E-006  0.8014015E+02  0.7561462E-02  0.1328654E+00
         -1   -1    0    0    0  501 -0.00000000000E+00  0.00000000000E+00  0.18597826536E+03  0.18597826536E+03  0.00000000000E+00 0.  1.
          1   -1    0    0  501    0  0.00000000000E+00 -0.00000000000E+00 -0.92486779870E+02  0.92486779870E+02  0.00000000000E+00 0. -1.
          5    1    1    2  502    0  0.12370048016E+02  0.62239967860E+02  0.96329944008E+02  0.11542860217E+03  0.41800000000E+01 0.  1.
         -5    1    1    2    0  502 -0.66253895396E+01 -0.55270945333E+02  0.33585716707E+02  0.65147877566E+02  0.41800000000E+01 0.  1.
        -11    1    1    2    0    0 -0.11147905039E+02  0.14745590126E+02  0.25813925013E+02  0.31750069914E+02  0.00000000000E+00 0.  1.
         11    1    1    2    0    0  0.54032465631E+01 -0.21714612653E+02 -0.62238100237E+02  0.66138495578E+02  0.00000000000E+00 0. -1.
</event>
<event>
 6    1  0.5317355E-006  0.7715432E+02  0.7561462E-02  0.1337327E+00
          3   -1    0    0  501    0  0.00000000000E+00  0.00000000000E+00  0.30381462788E+02  0.30381462788E+02  0.00000000000E+00 0. -1.
         -3   -1    0    0    0  501 -0.00000000000E+00 -0.00000000000E+00 -0.76604474900E+03  0.76604474900E+03  0.00000000000E+00 0.  1.
          5    1    1    2  502    0 -0.29891368294E+02 -0.50888920630E+02 -0.64404273373E+03  0.64675473822E+03  0.41800000000E+01 0. -1.
         -5    1    1    2    0  502  0.69292216250E+01  0.41242641780E+01  0.21093011340E+01  0.93244420000E+01  0.41800000000E+01 0. -1.
        -11    1    1    2    0    0  0.16065787933E+00  0.59796553068E+02 -0.21589491312E+02  0.63574835469E+02  0.00000000000E+00 0. -1.
         11    1    1    2    0    0  0.22801488790E+02 -0.13031896616E+02 -0.72140362312E+02  0.76772196107E+02  0.00000000000E+00 0.  1.
</event>
<event>
 6    1  0.5317355E-006  0.1480781E+03  0.7561462E-02  0.1202855E+00
         -1   -1    0    0    0  501 -0.00000000000E+00  0.00000000000E+00  0.42801008506E+02  0.42801008506E+02  0.00000000000E+00 0.  1.
          1   -1    0    0  501    0  0.00000000000E+00 -0.00000000000E+00 -0.71396169988E+03  0.71396169988E+03  0.00000000000E+00 0. -1.
          5    1    1    2  502    0  0.11076272642E+03  0.18605365386E+01 -0.12294273708E+03  0.16554223679E+03  0.41800000000E+01 0. -1.
         -5    1    1    2    0  502 -0.45137066348E+02  0.47639338855E+02 -0.64025626715E+02  0.91780251914E+02  0.41800000000E+01 0.  1.
        -11    1    1    2    0    0 -0.65123920430E+01 -0.59267808860E+02 -0.29581706832E+03  0.30176617160E+03  0.00000000000E+00 0. -1.
         11    1    1    2    0    0 -0.59113268032E+02  0.97679334672E+01 -0.18837525925E+03  0.19767404807E+03  0.00000000000E+00 0.  1.
</event>
<event>
 6    1  0.5317355E-006  0.1096033E+03  0.7561462E-02  0.1261306E+00
          1   -1    0    0  501    0  0.00000000000E+00  0.00000000000E+00  0.33637416896E+03  0.33637416896E+03  0.00000000000E+00 0. -1.
         -1   -1    0    0    0  501 -0.00000000000E+00 -0.00000000000E+00 -0.49314986849E+02  0.49314986849E+02  0.00000000000E+00 0.  1.
          5    1    1    2  502    0 -0.24627752421E+02  0.61935882955E+02  0.26935117422E+02  0.72010782090E+02  0.41800000000E+01 0. -1.
         -5    1    1    2    0  502  0.19965975693E+01 -0.63822650656E+02  0.44810079970E+02  0.78119989795E+02  0.41800000000E+01 0.  1.
        -11    1    1    2    0    0  0.31812925651E+02  0.38925916300E+02  0.76075251165E+02  0.91185157992E+02  0.00000000000E+00 0.  1.
         11    1    1    2    0    0 -0.91817707993E+01 -0.37039148599E+02  0.13923873356E+03  0.14437322594E+03  0.00000000000E+00 0. -1.
</event>
<event>
 6    1  0.5317355E-006  0.1838156E+03  0.7561462E-02  0.1164161E+00
          2   -1    0    0  501    0  0.00000000000E+00  0.00000000000E+00  0.12618301052E+04  0.12618301052E+04  0.00000000000E+00 0. -1.
         -2   -1    0    0    0  501 -0.00000000000E+00 -0.00000000000E+00 -0.29820394354E+02  0.29820394354E+02  0.00000000000E+00 0.  1.
          5    1    1    2  502    0 -0.11461178978E+03  0.10728215382E+03  0.51530050318E+03  0.53869973442E+03  0.41800000000E+01 0.  1.
         -5    1    1    2    0  502 -0.28442256276E+02 -0.35249372990E+02  0.12107603050E+03  0.12933815292E+03  0.41800000000E+01 0.  1.
        -11    1    1    2    0    0  0.66128215101E+02 -0.55700945045E+02  0.16943855892E+03  0.19022345113E+03  0.00000000000E+00 0.  1.
         11    1    1    2    0    0  0.76925830952E+02 -0.16331835787E+02  0.42619461825E+03  0.43338916109E+03  0.00000000000E+00 0. -1.
</event>
<event>
 6    1  0.5317355E-006  0.1559426E+03  0.7561462E-02  0.1193355E+00
          1   -1    0    0  501    0  0.00000000000E+00  0.00000000000E+00  0.10192101701E+03  0.10192101701E+03  0.00000000000E+00 0. -1.
         -1   -1    0    0    0  501 -0.00000000000E+00 -0.00000000000E+00 -0.25033540805E+03  0.25033540805E+03  0.00000000000E+00 0.  1.
          5    1    1    2  502    0  0.23746570285E+02 -0.14239731700E+02 -0.19726735272E+02  0.34253263256E+02  0.41800000000E+01 0.  1.
         -5    1    1    2    0  502 -0.13561958829E+03  0.41363283123E+02 -0.81155406798E+02  0.16342357961E+03  0.41800000000E+01 0.  1.
        -11    1    1    2    0    0  0.24157784424E+02  0.29119579796E+02 -0.31341967364E+02  0.49131124494E+02  0.00000000000E+00 0.  1.
         11    1    1    2    0    0  0.87715233584E+02 -0.56243131219E+02 -0.16190281607E+02  0.10544845770E+03  0.00000000000E+00 0. -1.
</event>
<event>
 6    1  0.5317355E-006  0.2539151E+03  0.7561462E-02  0.1110855E+00
          2   -1    0    0  501    0  0.00000000000E+00  0.00000000000E+00  0.79225941649E+03  0.79225941649E+03  0.00000000000E+00 0.  1.
         -2   -1    0    0    0  501 -0.00000000000E+00 -0.00000000000E+00 -0.97747598048E+02  0.97747598048E+02  0.00000000000E+00 0. -1.
          5    1    1    2  502    0  0.13424636829E+03 -0.14017199534E+03  0.23020090938E+03  0.30113154394E+03  0.41800000000E+01 0. -1.
         -5    1    1    2    0  502  0.53907433961E+02 -0.14530024068E+02 -0.94518808646E+00  0.55995524966E+02  0.41800000000E+01 0. -1.
        -11    1    1    2    0    0 -0.40016638622E+02 -0.44740020398E+01  0.99953774785E+02  0.10775947826E+03  0.00000000000E+00 0.  1.
         11    1    1    2    0    0 -0.14813716363E+03  0.15917602145E+03  0.36530232236E+03  0.42512046737E+03  0.00000000000E+00 0. -1.
</event>
<event>
 6    1  0.5317355E-006  0.1093031E+03  0.7561462E-02  0.1261866E+00
          2   -1    0    0  501    0  0.00000000000E+00  0.00000000000E+00  0.33663348878E+03  0.33663348878E+03  0.00000000000E+00 0. -1.
         -2   -1    0    0    0  501 -0.00000000000E+00 -0.00000000000E+00 -0.54655923544E+02  0.54655923544E+02  0.00000000000E+00 0.  1.
          5    1    1    2  502    0  0.74809845260E+01  0.77239814389E+02  0.79588211526E+01  0.78120223313E+02  0.41800000000E+01 0.  1.
         -5    1    1    2    0  502  0.29304734528E+02 -0.19714307077E+02  0.84701363061E+02  0.91865198381E+02  0.41800000000E+01 0.  1.
        -11    1    1    2    0    0 -0.20943014588E+02 -0.77243924022E+02  0.17452796122E+03  0.19200323671E+03  0.00000000000E+00 0. -1.
         11    1    1    2    0    0 -0.15842704466E+02  0.19718416709E+02  0.14789419805E+02  0.29300753924E+02  0.00000000000E+00 0.  1.
</event>
<event>
 6    1  0.5317355E-006  0.1268277E+03  0.7561462E-02  0.1232240E+00
         -2   -1    0    0    0  501 -0.00000000000E+00  0.00000000000E+00  0.29804536038E+02  0.29804536038E+02  0.00000000000E+00 0.  1.
          2   -1    0    0  501    0  0.00000000000E+00 -0.00000000000E+00 -0.76651999796E+03  0.76651999796E+03  0.00000000000E+00 0. -1.
          5    1    1    2  502    0 -0.74413548155E+02 -0.54246148634E+02 -0.96697773485E+02  0.13359622969E+03  0.41800000000E+01 0. -1.
         -5    1    1    2    0  502  0.18596965646E+02 -0.11251747733E+02 -0.18584601230E+03  0.18715945513E+03  0.41800000000E+01 0. -1.
        -11    1    1    2    0    0  0.76546783125E+02  0.65194935351E+01 -0.21316272253E+03  0.22658389192E+03  0.00000000000E+00 0.  1.
         11    1    1    2    0    0 -0.20730200616E+02  0.58978402832E+02 -0.24100895361E+03  0.24898495725E+03  0.00000000000E+00 0. -1.
</event>
<event>
 6    1  0.5317355E-006  0.8778106E+02  0.7561462E-02  0.1308316E+00
          1   -1    0    0  501    0  0.00000000000E+00  0.00000000000E+00  0.71949396268E+03  0.71949396268E+03  0.00000000000E+00 0. -1.
         -1   -1    0    0    0  501 -0.00000000000E+00 -0.00000000000E+00 -0.27247802587E+02  0.27247802587E+02  0.00000000000E+00 0.  1.
          5    1    1    2  502    0  0.43163293746E+01  0.98814758019E+01  0.32303573931E+03  0.32324268829E+03  0.41800000000E+01 0. -1.
         -5    1    1    2    0  502  0.48516853943E+02 -0.34719185223E+02  0.28406286354E+02  0.66209489075E+02  0.41800000000E+01 0.  1.
        -11    1    1    2    0    0 -0.22169221092E+01  0.48335607098E+02  0.11651816901E+03  0.12616548405E+03  0.00000000000E+00 0. -1.
         11    1    1    2    0    0 -0.50616261209E+02 -0.23497897677E+02  0.22428596542E+03  0.23112410385E+03  0.00000000000E+00 0.  1.
</event>
<event>
 6    1  0.5317355E-006  0.1178081E+03  0.7561462E-02  0.1246757E+00
         -1   -1    0    0    0  501 -0.00000000000E+00  0.00000000000E+00  0.16601229940E+03  0.16601229940E+03  0.00000000000E+00 0.  1.
          1   -1    0    0  501    0  0.00000000000E+00 -0.00000000000E+00 -0.90450717034E+02  0.90450717034E+02  0.00000000000E+00 0. -1.
          5    1    1    2  502    0 -0.40372814617E+01  0.49433148712E+02  0.36485504518E+02  0.61713858031E+02  0.41800000000E+01 0.  1.
         -5    1    1    2    0  502  0.55128661612E+02 -0.63389404630E+02  0.27907188761E+02  0.88620931698E+02  0.41800000000E+01 0.  1.
        -11    1    1    2    0    0 -0.18736339230E+02  0.49940251094E+02 -0.82741280529E+01  0.53977220030E+02  0.00000000000E+00 0. -1.
         11    1    1    2    0    0 -0.32355040920E+02 -0.35983995176E+02  0.19443017141E+02  0.52151006676E+02  0.00000000000E+00 0.  1.
</event>
<event>
 6    1  0.5317355E-006  0.9152765E+02  0.7561462E-02  0.1299194E+00
          2   -1    0    0  501    0  0.00000000000E+00  0.00000000000E+00  0.38109480139E+03  0.38109480139E+03  0.00000000000E+00 0. -1.
         -2   -1    0    0    0  501 -0.00000000000E+00 -0.00000000000E+00 -0.35379746046E+02  0.35379746046E+02  0.00000000000E+00 0.  1.
          5    1    1    2  502    0 -0.90985964980E+01  0.45085694888E+02  0.12520891796E+03  0.13345504815E+03  0.41800000000E+01 0. -1.
         -5    1    1    2    0  502  0.36970118405E+02 -0.40727199893E+02  0.16330171901E+02  0.57529482705E+02  0.41800000000E+01 0. -1.
        -11    1    1    2    0    0 -0.41256321699E+01  0.35269593058E+02  0.34028711996E+02  0.49182499686E+02  0.00000000000E+00 0.  1.
         11    1    1    2    0    0 -0.23745889737E+02 -0.39628088053E+02  0.17014725349E+03  0.17630751689E+03  0.00000000000E+00 0. -1.
</event>
<event>
 6    1  0.5317355E-006  0.6820602E+02  0.7561462E-02  0.1366302E+00
         -2   -1    0    0    0  501 -0.00000000000E+00  0.00000000000E+00  0.57827506245E+02  0.57827506245E+02  0.00000000000E+00 0.  1.
          2   -1    0    0  501    0  0.00000000000E+00 -0.00000000000E+00 -0.25158771203E+03  0.25158771203E+03  0.00000000000E+00 0. -1.
          5    1    1    2  502    0 -0.20769521651E+00  0.19647974687E+02  0.32555283363E+02  0.38254475836E+02  0.41800000000E+01 0.  1.
         -5    1    1    2    0  502 -0.40199689175E+02 -0.74899437830E+01 -0.10405919463E+03  0.11188343334E+03  0.41800000000E+01 0.  1.
        -11    1    1    2    0    0  0.26178287755E+01  0.23271395622E+02 -0.10033096727E+03  0.10302773352E+03  0.00000000000E+00 0. -1.
         11    1    1    2    0    0  0.37789555616E+02 -0.35429426527E+02 -0.21925327243E+02  0.56249575575E+02  0.00000000000E+00 0.  1.
</event>
<event>
 6    1  0.5317355E-006  0.1202891E+03  0.7561462E-02  0.1242621E+00
         -2   -1    0    0    0  501 -0.00000000000E+00  0.00000000000E+00  0.76251345947E+02  0.76251345947E+02  0.00000000000E+00 0.  1.
          2   -1    0    0  501    0  0.00000000000E+00 -0.00000000000E+00 -0.20424355767E+03  0.20424355767E+03  0.00000000000E+00 0. -1.
          5    1    1    2  502    0  0.77671142715E+02  0.32015496936E+02 -0.41682159764E+02  0.93875839795E+02  0.41800000000E+01 0. -1.
         -5    1    1    2    0  502 -0.63810682831E+02 -0.17479458641E+02 -0.13059002503E+02  0.67567334297E+02  0.41800000000E+01 0.  1.
        -11    1    1    2    0    0 -0.19381992501E+02  0.35170790690E+02 -0.16519333942E+02  0.43422742255E+02  0.00000000000E+00 0.  1.
         11    1    1    2    0    0  0.55215326169E+01 -0.49706828985E+02 -0.56731715516E+02  0.75628987270E+02  0.00000000000E+00 0. -1.
</event>
<event>
 6    1  0.5317355E-006  0.9007963E+02  0.7561462E-02  0.1302659E+00
         -2   -1    0    0    0  501 -0.00000000000E+00  0.00000000000E+00  0.21010756281E+03  0.21010756281E+03  0.00000000000E+00 0.  1.
          2   -1    0    0  501    0  0.00000000000E+00 -0.00000000000E+00 -0.65482669039E+02  0.65482669039E+02  0.00000000000E+00 0. -1.
          5    1    1    2  502    0 -0.10069510209E+02  0.22036990101E+02 -0.18567292039E+02  0.30809750116E+02  0.41800000000E+01 0.  1.
         -5    1    1    2    0  502  0.51624462434E+02 -0.32000585408E+02  0.12449049841E+03  0.13858022652E+03  0.41800000000E+01 0.  1.
        -11    1    1    2    0    0 -0.35206322273E+02  0.46097243890E+02  0.83829564794E+01  0.58606441469E+02  0.00000000000E+00 0.  1.
         11    1    1    2    0    0 -0.63486299518E+01 -0.36133648583E+02  0.30318730924E+02  0.47593813747E+02  0.00000000000E+00 0. -1.
</event>
<event>
 6    1  0.5317355E-006  0.8286868E+02  0.7561462E-02  0.1321102E+00
         -3   -1    0    0    0  501 -0.00000000000E+00  0.00000000000E+00  0.65920453873E+02  0.65920453873E+02  0.00000000000E+00 0.  1.
          3   -1    0    0  501    0  0.00000000000E+00 -0.00000000000E+00 -0.28368635229E+03  0.28368635229E+03  0.00000000000E+00 0. -1.
          5    1    1    2  502    0 -0.46872421748E+02 -0.20957556764E+02  0.37462849701E+02  0.63696001552E+02  0.41800000000E+01 0. -1.
         -5    1    1    2    0  502  0.20308913035E+01  0.28255014155E+01 -0.75525099403E+02  0.75720677609E+02  0.41800000000E+01 0. -1.
        -11    1    1    2    0    0 -0.31840622680E+01  0.50672737445E+02 -0.76932981619E+02  0.92176722839E+02  0.00000000000E+00 0.  1.
         11    1    1    2    0    0  0.48025592713E+02 -0.32540682097E+02 -0.10277066710E+03  0.11801340416E+03  0.00000000000E+00 0. -1.
</event>
<event>
 6    1  0.5317355E-006  0.9501877E+02  0.7561462E-02  0.1291134E+00
          3   -1    0    0  501    0  0.00000000000E+00  0.00000000000E+00  0.43668010185E+03  0.43668010185E+03  0.00000000000E+00 0. -1.
         -3   -1    0    0    0  501 -0.00000000000E+00 -0.00000000000E+00 -0.57416744650E+02  0.57416744650E+02  0.00000000000E+00 0.  1.
          5    1    1    2  502    0  0.70184934715E+02 -0.34761280655E+02 -0.13980188206E+02  0.79669252262E+02  0.41800000000E+01 0. -1.
         -5    1    1    2    0  502 -0.85182021303E+01 -0.34474571635E+01  0.77698974348E+02  0.78352075551E+02  0.41800000000E+01 0. -1.
        -11    1    1    2    0    0 -0.42902630733E+02 -0.14716094957E+02  0.64647441831E+02  0.78971456298E+02  0.00000000000E+00 0.  1.
         11    1    1    2    0    0 -0.18764101852E+02  0.52924832775E+02  0.25089712922E+03  0.25710406239E+03  0.00000000000E+00 0. -1.
</event>
<event>
 6    1  0.5317355E-006  0.1906390E+03  0.7561462E-02  0.1157886E+00
          2   -1    0    0  501    0  0.00000000000E+00  0.00000000000E+00  0.31643156533E+03  0.31643156533E+03  0.00000000000E+00 0. -1.
         -2   -1    0    0    0  501 -0.00000000000E+00 -0.00000000000E+00 -0.11924846031E+03  0.11924846031E+03  0.00000000000E+00 0.  1.
          5    1    1    2  502    0 -0.62284078305E+02  0.95219239803E+02  0.84511839187E+02  0.14179468750E+03  0.41800000000E+01 0. -1.
         -5    1    1    2    0  502  0.51954285073E+02  0.65995690221E+02  0.14841271193E+02  0.85395635695E+02  0.41800000000E+01 0. -1.
        -11    1    1    2    0    0  0.48325825756E+02 -0.10348802878E+03  0.51510487281E+02  0.12529360652E+03  0.00000000000E+00 0. -1.
         11    1    1    2    0    0 -0.37996032524E+02 -0.57726901246E+02  0.46319507356E+02  0.83196095923E+02  0.00000000000E+00 0.  1.
</event>
<event>
 6    1  0.5317355E-006  0.1036257E+03  0.7561462E-02  0.1272851E+00
          1   -1    0    0  501    0  0.00000000000E+00  0.00000000000E+00  0.17684040386E+03  0.17684040386E+03  0.00000000000E+00 0. -1.
         -1   -1    0    0    0  501 -0.00000000000E+00 -0.00000000000E+00 -0.82076853258E+02  0.82076853258E+02  0.00000000000E+00 0.  1.
          5    1    1    2  502    0 -0.17641508051E+02  0.59125556015E+02 -0.19303391968E+02  0.64785395899E+02  0.41800000000E+01 0. -1.
         -5    1    1    2    0  502  0.41320887979E+02 -0.71784085863E+01  0.70109824684E+02  0.81803455003E+02  0.41800000000E+01 0. -1.
        -11    1    1    2    0    0  0.25720166910E+02 -0.47047678572E+02  0.20242323880E+02  0.57312849528E+02  0.00000000000E+00 0.  1.
         11    1    1    2    0    0 -0.49399546838E+02 -0.48994688563E+01  0.23714794003E+02  0.55015556686E+02  0.00000000000E+00 0. -1.
</event>
<event>
 6    1  0.5317355E-006  0.1301437E+03  0.7561462E-02  0.1227243E+00
          2   -1    0    0  501    0  0.00000000000E+00  0.00000000000E+00  0.53130438157E+03  0.53130438157E+03  0.00000000000E+00 0. -1.
         -2   -1    0    0    0  501 -0.00000000000E+00 -0.00000000000E+00 -0.43380735765E+02  0.43380735765E+02  0.00000000000E+00 0.  1.
          5    1    1    2  502    0  0.72999893386E+02 -0.40795634593E+02  0.74326652001E+02  0.11196067092E+03  0.41800000000E+01 0. -1.
         -5    1    1    2    0  502  0.25068977693E+01  0.64027659253E+02  0.56745199742E+02  0.85693148965E+02  0.41800000000E+01 0. -1.
        -11    1    1    2    0    0 -0.92068578543E+02 -0.25727255345E+02  0.34034482321E+03  0.35351536531E+03  0.00000000000E+00 0. -1.
         11    1    1    2    0    0  0.16561787388E+02  0.24952306843E+01  0.16506970854E+02  0.23515932141E+02  0.00000000000E+00 0.  1.
</event>
<event>
 6    1  0.5317355E-006  0.1690516E+03  0.7561462E-02  0.1178840E+00
          1   -1    0    0  501    0  0.00000000000E+00  0.00000000000E+00  0.47800193143E+03  0.47800193143E+03  0.00000000000E+00 0. -1.
         -1   -1    0    0    0  501 -0.00000000000E+00 -0.00000000000E+00 -0.81599110214E+02  0.81599110214E+02  0.00000000000E+00 0.  1.
          5    1    1    2  502    0 -0.45558179058E+02 -0.41512101965E+02  0.35352630107E+02  0.71176422670E+02  0.41800000000E+01 0.  1.
         -5    1    1    2    0  502  0.82023819341E+02 -0.84542353739E+02  0.31037725214E+02  0.12188572230E+03  0.41800000000E+01 0.  1.
        -11    1    1    2    0    0  0.29757046612E+02  0.36995882124E+02  0.80508889445E+02  0.93465814054E+02  0.00000000000E+00 0. -1.
         11    1    1    2    0    0 -0.66222686896E+02  0.89058573580E+02  0.24950357645E+03  0.27307308262E+03  0.00000000000E+00 0.  1.
</event>
<event>
 6    1  0.5317355E-006  0.9289692E+02  0.7561462E-02  0.1295984E+00
         -2   -1    0    0    0  501 -0.00000000000E+00  0.00000000000E+00  0.41104293482E+02  0.41104293482E+02  0.00000000000E+00 0.  1.
          2   -1    0    0  501    0  0.00000000000E+00 -0.00000000000E+00 -0.59672507155E+03  0.59672507155E+03  0.00000000000E+00 0. -1.
          5    1    1    2  502    0 -0.45021782785E+02  0.38817975841E+02 -0.12307164513E+03  0.13674025892E+03  0.41800000000E+01 0. -1.
         -5    1    1    2    0  502 -0.47218247603E+01 -0.19077019691E+02  0.24194923929E+02  0.31449881610E+02  0.41800000000E+01 0. -1.
        -11    1    1    2    0    0  0.25788752331E+02  0.36665587858E+02 -0.25065135692E+03  0.25462821487E+03  0.00000000000E+00 0. -1.
         11    1    1    2    0    0  0.23954855213E+02 -0.56406544008E+02 -0.20609269994E+03  0.21501100963E+03  0.00000000000E+00 0.  1.
</event>
<event>
 6    1  0.5317355E-006  0.9088805E+02  0.7561462E-02  0.1300715E+00
          2   -1    0    0  501    0  0.00000000000E+00  0.00000000000E+00  0.77741125658E+03  0.77741125658E+03  0.00000000000E+00 0. -1.
         -2   -1    0    0    0  501 -0.00000000000E+00 -0.00000000000E+00 -0.20439285471E+02  0.20439285471E+02  0.00000000000E+00 0.  1.
          5    1    1    2  502    0  0.35147525703E+02 -0.12673835721E+02  0.18381374727E+02  0.41848799406E+02  0.41800000000E+01 0. -1.
         -5    1    1    2    0  502  0.67571893915E+01 -0.34256102895E+02  0.35820447877E+03  0.35992646639E+03  0.41800000000E+01 0. -1.
        -11    1    1    2    0    0  0.15018449127E+02 -0.17486916051E+02  0.57673923162E+02  0.62109801642E+02  0.00000000000E+00 0. -1.
         11    1    1    2    0    0 -0.56923164221E+02  0.64416854666E+02  0.32271219445E+03  0.33396547462E+03  0.00000000000E+00 0.  1.
</event>
<event>
 6    1  0.5317355E-006  0.8776647E+02  0.7561462E-02  0.1308352E+00
         -2   -1    0    0    0  501 -0.00000000000E+00  0.00000000000E+00  0.15097366793E+03  0.15097366793E+03  0.00000000000E+00 0.  1.
          2   -1    0    0  501    0  0.00000000000E+00 -0.00000000000E+00 -0.82912164311E+02  0.82912164311E+02  0.00000000000E+00 0. -1.
          5    1    1    2  502    0 -0.18628929022E+02  0.59369958500E+02  0.37334933991E+02  0.72685615254E+02  0.41800000000E+01 0.  1.
         -5    1    1    2    0  502  0.17966305000E+02 -0.59743053263E+02  0.29494471888E+02  0.69133326265E+02  0.41800000000E+01 0.  1.
        -11    1    1    2    0    0  0.37363432215E+01  0.25276100810E+02 -0.37823836857E+02  0.45645198733E+02  0.00000000000E+00 0. -1.
         11    1    1    2    0    0 -0.30737191991E+01 -0.24903006046E+02  0.39055934598E+02  0.46421691990E+02  0.00000000000E+00 0.  1.
</event>
<event>
 6    1  0.5317355E-006  0.1012605E+03  0.7561462E-02  0.1277667E+00
         -4   -1    0    0    0  501 -0.00000000000E+00  0.00000000000E+00  0.53103768097E+02  0.53103768097E+02  0.00000000000E+00 0.  1.
          4   -1    0    0  501    0  0.00000000000E+00 -0.00000000000E+00 -0.27480909712E+03  0.27480909712E+03  0.00000000000E+00 0. -1.
          5    1    1    2  502    0 -0.13072870660E+02  0.35805028587E+02 -0.86284430858E+02  0.94421265761E+02  0.41800000000E+01 0. -1.
         -5    1    1    2    0  502 -0.27795491648E+02 -0.63636498293E+02 -0.84082756324E+01  0.70073994963E+02  0.41800000000E+01 0. -1.
        -11    1    1    2    0    0  0.64342879111E+02  0.99701765688E+01 -0.53717254689E+02  0.84409442389E+02  0.00000000000E+00 0.  1.
         11    1    1    2    0    0 -0.23474516803E+02  0.17861293138E+02 -0.73295367847E+02  0.79008162107E+02  0.00000000000E+00 0. -1.
</event>
<event>
 6    1  0.5317355E-006  0.1459087E+03  0.7561462E-02  0.1205592E+00
         -2   -1    0    0    0  501 -0.00000000000E+00  0.00000000000E+00  0.31551280800E+02  0.31551280800E+02  0.00000000000E+00 0. -1.
          2   -1    0    0  501    0  0.00000000000E+00 -0.00000000000E+00 -0.75311969939E+03  0.75311969939E+03  0.00000000000E+00 0.  1.
          5    1    1    2  502    0  0.99861413488E+02 -0.60532131237E+02 -0.18721916062E+03  0.22069192853E+03  0.41800000000E+01 0. -1.
         -5    1    1    2    0  502  0.45761239246E+01  0.35549090314E+02 -0.15532317594E+03  0.15945983857E+03  0.41800000000E+01 0. -1.
        -11    1    1    2    0    0 -0.13725422941E+02 -0.29871606834E+02 -0.12524054009E+03  0.12948317656E+03  0.00000000000E+00 0.  1.
         11    1    1    2    0    0 -0.90712114472E+02  0.54854647756E+02 -0.25378554194E+03  0.27503603653E+03  0.00000000000E+00 0. -1.
</event>
<event>
 6    1  0.5317355E-006  0.1057892E+03  0.7561462E-02  0.1268573E+00
         -1   -1    0    0    0  501 -0.00000000000E+00  0.00000000000E+00  0.15861385760E+03  0.15861385760E+03  0.00000000000E+00 0.  1.
          1   -1    0    0  501    0  0.00000000000E+00 -0.00000000000E+00 -0.11035159248E+03  0.11035159248E+03  0.00000000000E+00 0. -1.
          5    1    1    2  502    0  0.13037113886E+02 -0.76224958365E+02  0.72460462235E+02  0.10605753912E+03  0.41800000000E+01 0.  1.
         -5    1    1    2    0  502 -0.24429039408E+02  0.44160663027E+02  0.27396995125E+02  0.57576122371E+02  0.41800000000E+01 0.  1.
        -11    1    1    2    0    0  0.39315209155E+02 -0.20982442462E+01 -0.26877798774E+01  0.39462798437E+02  0.00000000000E+00 0.  1.
         11    1    1    2    0    0 -0.27923283633E+02  0.34162539584E+02 -0.48907412366E+02  0.65868990155E+02  0.00000000000E+00 0. -1.
</event>
<event>
 6    1  0.5317355E-006  0.1110989E+03  0.7561462E-02  0.1258548E+00
          2   -1    0    0  501    0  0.00000000000E+00  0.00000000000E+00  0.10398439103E+04  0.10398439103E+04  0.00000000000E+00 0. -1.
         -2   -1    0    0    0  501 -0.00000000000E+00 -0.00000000000E+00 -0.14644658861E+02  0.14644658861E+02  0.00000000000E+00 0.  1.
          5    1    1    2  502    0 -0.65136371850E+02  0.55687248885E+02  0.51875683251E+03  0.52580408928E+03  0.41800000000E+01 0.  1.
         -5    1    1    2    0  502  0.11478806662E+02 -0.34051535594E+02  0.69141039555E+02  0.78033491716E+02  0.41800000000E+01 0.  1.
        -11    1    1    2    0    0 -0.15358469798E+02 -0.26932952842E+02  0.65578071520E+02  0.72537921170E+02  0.00000000000E+00 0.  1.
         11    1    1    2    0    0  0.69016034986E+02  0.52972395514E+01  0.37172330784E+03  0.37811306698E+03  0.00000000000E+00 0. -1.
</event>
<event>
 6    1  0.5317355E-006  0.9198685E+02  0.7561462E-02  0.1298110E+00
          2   -1    0    0  501    0  0.00000000000E+00  0.00000000000E+00  0.79008878587E+02  0.79008878587E+02  0.00000000000E+00 0. -1.
         -2   -1    0    0    0  501 -0.00000000000E+00 -0.00000000000E+00 -0.16207809025E+03  0.16207809025E+03  0.00000000000E+00 0.  1.
          5    1    1    2  502    0 -0.46150145314E+02  0.22219492800E+02 -0.64998122092E+02  0.82859942362E+02  0.41800000000E+01 0. -1.
         -5    1    1    2    0  502  0.40309562687E+02 -0.36800046759E+02  0.83174000047E+01  0.55369267904E+02  0.41800000000E+01 0. -1.
        -11    1    1    2    0    0 -0.27059884122E+02 -0.17228434130E+02 -0.43457679511E+02  0.54015055121E+02  0.00000000000E+00 0.  1.
         11    1    1    2    0    0  0.32900466749E+02  0.31808988089E+02  0.17069189933E+02  0.48842703452E+02  0.00000000000E+00 0. -1.
</event>
<event>
 6    1  0.5317355E-006  0.3371103E+03  0.7561462E-02  0.1068033E+00
         -4   -1    0    0    0  501 -0.00000000000E+00  0.00000000000E+00  0.12436916399E+03  0.12436916399E+03  0.00000000000E+00 0. -1.
          4   -1    0    0  501    0  0.00000000000E+00 -0.00000000000E+00 -0.10035240959E+04  0.10035240959E+04  0.00000000000E+00 0.  1.
          5    1    1    2  502    0 -0.36115928189E+02  0.62210982901E+02 -0.69133544658E+02  0.99857328521E+02  0.41800000000E+01 0. -1.
         -5    1    1    2    0  502 -0.27113865987E+03  0.35427682112E+02 -0.22587657128E+03  0.35469563204E+03  0.41800000000E+01 0. -1.
        -11    1    1    2    0    0  0.13623503890E+03 -0.76836826242E+02 -0.21399418848E+03  0.26506111823E+03  0.00000000000E+00 0. -1.
         11    1    1    2    0    0  0.17101954916E+03 -0.20801838770E+02 -0.37015062749E+03  0.40827918110E+03  0.00000000000E+00 0.  1.
</event>
<event>
 6    1  0.5317355E-006  0.9470519E+02  0.7561462E-02  0.1291841E+00
         -1   -1    0    0    0  501 -0.00000000000E+00  0.00000000000E+00  0.64912908142E+02  0.64912908142E+02  0.00000000000E+00 0.  1.
          1   -1    0    0  501    0  0.00000000000E+00 -0.00000000000E+00 -0.36569843059E+03  0.36569843059E+03  0.00000000000E+00 0. -1.
          5    1    1    2  502    0  0.19444083834E+02 -0.21055731983E+02  0.41383968751E+02  0.50512587689E+02  0.41800000000E+01 0. -1.
         -5    1    1    2    0  502  0.46282526002E+02 -0.15819761054E+02 -0.91575738806E+02  0.10390344263E+03  0.41800000000E+01 0. -1.
        -11    1    1    2    0    0 -0.14681377196E+02 -0.26309845472E+02 -0.37237680156E+02  0.47899849985E+02  0.00000000000E+00 0.  1.
         11    1    1    2    0    0 -0.51045232640E+02  0.63185338509E+02 -0.21335607224E+03  0.22829545843E+03  0.00000000000E+00 0. -1.
</event>
<event>
 6    1  0.5317355E-006  0.8623346E+02  0.7561462E-02  0.1312238E+00
          2   -1    0    0  501    0  0.00000000000E+00  0.00000000000E+00  0.15131788338E+03  0.15131788338E+03  0.00000000000E+00 0. -1.
         -2   -1    0    0    0  501 -0.00000000000E+00 -0.00000000000E+00 -0.84528905417E+02  0.84528905417E+02  0.00000000000E+00 0.  1.
          5    1    1    2  502    0 -0.14803234474E+02 -0.40234384860E+02 -0.22281260432E+02  0.48496066257E+02  0.41800000000E+01 0. -1.
         -5    1    1    2    0  502  0.44982119127E+02  0.28511207060E+02  0.72672881631E+02  0.90194789726E+02  0.41800000000E+01 0. -1.
        -11    1    1    2    0    0 -0.27896915743E+02  0.39358558593E+02  0.38478813209E+02  0.61708614540E+02  0.00000000000E+00 0. -1.
         11    1    1    2    0    0 -0.22819689096E+01 -0.27635380792E+02 -0.22081456450E+02  0.35447318270E+02  0.00000000000E+00 0.  1.
</event>
<event>
 6    1  0.5317355E-006  0.1376884E+03  0.7561462E-02  0.1216474E+00
         -1   -1    0    0    0  501 -0.00000000000E+00  0.00000000000E+00  0.62582161704E+03  0.62582161704E+03  0.00000000000E+00 0.  1.
          1   -1    0    0  501    0  0.00000000000E+00 -0.00000000000E+00 -0.54920413897E+02  0.54920413897E+02  0.00000000000E+00 0. -1.
          5    1    1    2  502    0  0.41391597022E+02 -0.19106587003E+02  0.15897363504E+03  0.16543402011E+03  0.41800000000E+01 0.  1.
         -5    1    1    2    0  502 -0.93269788091E+02 -0.59499414460E+02  0.35574903230E+03  0.37257788457E+03  0.41800000000E+01 0.  1.
        -11    1    1    2    0    0 -0.13295310818E+02  0.42175722386E+02 -0.71869792549E+01  0.44801891917E+02  0.00000000000E+00 0. -1.
         11    1    1    2    0    0  0.65173501888E+02  0.36430279077E+02  0.63365515058E+02  0.97928234337E+02  0.00000000000E+00 0.  1.
</event>
<event>
 6    1  0.5317355E-006  0.1381777E+03  0.7561462E-02  0.1215802E+00
         -1   -1    0    0    0  501 -0.00000000000E+00  0.00000000000E+00  0.34583909241E+03  0.34583909241E+03  0.00000000000E+00 0.  1.
          1   -1    0    0  501    0  0.00000000000E+00 -0.00000000000E+00 -0.71618690044E+02  0.71618690044E+02  0.00000000000E+00 0. -1.
          5    1    1    2  502    0 -0.67958365758E+02  0.37013817083E+02  0.16720847661E+03  0.18429462603E+03  0.41800000000E+01 0. -1.
         -5    1    1    2    0  502  0.20335138635E+01  0.55307627242E+02  0.31713369406E+01  0.55593152346E+02  0.41800000000E+01 0. -1.
        -11    1    1    2    0    0 -0.20202875287E+02 -0.52294283689E+01  0.93281482732E+01  0.22858640404E+02  0.00000000000E+00 0. -1.
         11    1    1    2    0    0  0.86127727181E+02 -0.87092015957E+02  0.94512440534E+02  0.15471136367E+03  0.00000000000E+00 0.  1.
</event>
<event>
 6    1  0.5317355E-006  0.1088266E+03  0.7561462E-02  0.1262758E+00
         -2   -1    0    0    0  501 -0.00000000000E+00  0.00000000000E+00  0.26057458433E+02  0.26057458433E+02  0.00000000000E+00 0.  1.
          2   -1    0    0  501    0  0.00000000000E+00 -0.00000000000E+00 -0.49580271195E+03  0.49580271195E+03  0.00000000000E+00 0. -1.
          5    1    1    2  502    0  0.22675657528E+01 -0.74126207823E+02 -0.10302189337E+03  0.12700716300E+03  0.41800000000E+01 0.  1.
         -5    1    1    2    0  502 -0.87490353920E+01  0.48133318903E+02 -0.12760190615E+03  0.13672264210E+03  0.41800000000E+01 0.  1.
        -11    1    1    2    0    0 -0.41507445622E+02  0.19459821688E+02 -0.84941641457E+02  0.96522718340E+02  0.00000000000E+00 0.  1.
         11    1    1    2    0    0  0.47988915262E+02  0.65330672318E+01 -0.15417981255E+03  0.16160764695E+03  0.00000000000E+00 0. -1.
</event>
<event>
 6    1  0.5317355E-006  0.8274692E+02  0.7561462E-02  0.1321432E+00
          2   -1    0    0  501    0  0.00000000000E+00  0.00000000000E+00  0.14673059552E+03  0.14673059552E+03  0.00000000000E+00 0. -1.
         -2   -1    0    0    0  501 -0.00000000000E+00 -0.00000000000E+00 -0.94172226223E+02  0.94172226223E+02  0.00000000000E+00 0.  1.
          5    1    1    2  502    0 -0.38721866436E+02 -0.40741408495E+02  0.62768554250E+02  0.84359997091E+02  0.41800000000E+01 0. -1.
         -5    1    1    2    0  502  0.14450221781E+02 -0.69479574245E-01 -0.47953599211E+02  0.50257674182E+02  0.41800000000E+01 0. -1.
        -11    1    1    2    0    0 -0.25521830871E+02 -0.54778626149E+01  0.26823434093E+02  0.37428163813E+02  0.00000000000E+00 0. -1.
         11    1    1    2    0    0  0.49793475527E+02  0.46288750684E+02  0.10919980167E+02  0.68856986659E+02  0.00000000000E+00 0.  1.
</event>
<event>
 6    1  0.5317355E-006  0.2672046E+03  0.7561462E-02  0.1102890E+00
         -2   -1    0    0    0  501 -0.00000000000E+00  0.00000000000E+00  0.12385256154E+03  0.12385256154E+03  0.00000000000E+00 0.  1.
          2   -1    0    0  501    0  0.00000000000E+00 -0.00000000000E+00 -0.63618939564E+03  0.63618939564E+03  0.00000000000E+00 0. -1.
          5    1    1    2  502    0 -0.79897838291E+01 -0.24811231034E+02 -0.18158501126E+02  0.32041182784E+02  0.41800000000E+01 0.  1.
         -5    1    1    2    0  502  0.24782603402E+03 -0.56007577879E+02 -0.31017925108E+03  0.40097784492E+03  0.41800000000E+01 0.  1.
        -11    1    1    2    0    0 -0.19349580325E+03  0.73499154870E+02 -0.97896002203E+02  0.22896807395E+03  0.00000000000E+00 0.  1.
         11    1    1    2    0    0 -0.46340446944E+02  0.73196540421E+01 -0.86103079691E+02  0.98054855517E+02  0.00000000000E+00 0. -1.
</event>
<event>
 6    1  0.5317355E-006  0.1217339E+03  0.7561462E-02  0.1240264E+00
          1   -1    0    0  501    0  0.00000000000E+00  0.00000000000E+00  0.24181337948E+03  0.24181337948E+03  0.00000000000E+00 0. -1.
         -1   -1    0    0    0  501 -0.00000000000E+00 -0.00000000000E+00 -0.66686514082E+02  0.66686514082E+02  0.00000000000E+00 0.  1.
          5    1    1    2  502    0  0.89422729178E+02  0.85023241827E+00  0.33960931454E+02  0.95749489054E+02  0.41800000000E+01 0. -1.
         -5    1    1    2    0  502 -0.31287052926E+02 -0.31392440945E+02  0.56809413485E+02  0.72174419913E+02  0.41800000000E+01 0. -1.
        -11    1    1    2    0    0 -0.24224256739E+02 -0.30889652346E+02  0.46469339925E+02  0.60830788173E+02  0.00000000000E+00 0. -1.
         11    1    1    2    0    0 -0.33911419513E+02  0.61431860873E+02  0.37887180532E+02  0.79745196421E+02  0.00000000000E+00 0.  1.
</event>
<event>
 6    1  0.5317355E-006  0.1009658E+03  0.7561462E-02  0.1278278E+00
          2   -1    0    0  501    0  0.00000000000E+00  0.00000000000E+00  0.47492194349E+03  0.47492194349E+03  0.00000000000E+00 0. -1.
         -2   -1    0    0    0  501 -0.00000000000E+00 -0.00000000000E+00 -0.26716264638E+02  0.26716264638E+02  0.00000000000E+00 0.  1.
          5    1    1    2  502    0 -0.18596580926E+02  0.49400804634E+02  0.58516341976E+02  0.78917089397E+02  0.41800000000E+01 0.  1.
         -5    1    1    2    0  502 -0.74846537840E+01 -0.66466233378E+02  0.18239970296E+03  0.19432165155E+03  0.41800000000E+01 0.  1.
        -11    1    1    2    0    0 -0.18675836054E+02 -0.17360960277E+02  0.18927432325E+02  0.31755904781E+02  0.00000000000E+00 0.  1.
         11    1    1    2    0    0  0.44757070764E+02  0.34426389021E+02  0.18836220159E+03  0.19664356240E+03  0.00000000000E+00 0. -1.
</event>
<event>
 6    1  0.5317355E-006  0.1034435E+03  0.7561462E-02  0.1273217E+00
          2   -1    0    0  501    0  0.00000000000E+00  0.00000000000E+00  0.89269929434E+02  0.89269929434E+02  0.00000000000E+00 0. -1.
         -2   -1    0    0    0  501 -0.00000000000E+00 -0.00000000000E+00 -0.23208090465E+03  0.23208090465E+03  0.00000000000E+00 0.  1.
          5    1    1    2  502    0  0.35355378260E+02 -0.22302668840E+02 -0.23157548537E+02  0.47970368599E+02  0.41800000000E+01 0.  1.
         -5    1    1    2    0  502 -0.68482384779E+02  0.32072466415E+02 -0.15413589312E+03  0.17173766644E+03  0.41800000000E+01 0.  1.
        -11    1    1    2    0    0  0.20454498607E+02 -0.46223411966E+02  0.37489791894E+02  0.62932303496E+02  0.00000000000E+00 0. -1.
         11    1    1    2    0    0  0.12672507912E+02  0.36453614391E+02 -0.30073254502E+01  0.38710495545E+02  0.00000000000E+00 0.  1.
</event>
<event>
 6    1  0.5317355E-006  0.9927520E+02  0.7561462E-02  0.1281828E+00
         -1   -1    0    0    0  501 -0.00000000000E+00  0.00000000000E+00  0.54676157821E+02  0.54676157821E+02  0.00000000000E+00 0.  1.
          1   -1    0    0  501    0  0.00000000000E+00 -0.00000000000E+00 -0.29516010762E+03  0.29516010762E+03  0.00000000000E+00 0. -1.
          5    1    1    2  502    0  0.83761221439E+01  0.58032147845E+02 -0.11882450009E+03  0.13256931706E+03  0.41800000000E+01 0. -1.
         -5    1    1    2    0  502  0.39102382777E+02 -0.15988763798E+02  0.11557935033E+02  0.43996535873E+02  0.41800000000E+01 0. -1.
        -11    1    1    2    0    0 -0.39149351416E+01 -0.52394340703E+02 -0.29395743972E+02  0.60204679375E+02  0.00000000000E+00 0.  1.
         11    1    1    2    0    0 -0.43563569779E+02  0.10350956657E+02 -0.10382164077E+03  0.11306573313E+03  0.00000000000E+00 0. -1.
</event>
<event>
 6    1  0.5317355E-006  0.9315039E+02  0.7561462E-02  0.1295397E+00
         -2   -1    0    0    0  501 -0.00000000000E+00  0.00000000000E+00  0.17124433664E+03  0.17124433664E+03  0.00000000000E+00 0.  1.
          2   -1    0    0  501    0  0.00000000000E+00 -0.00000000000E+00 -0.78339313703E+02  0.78339313703E+02  0.00000000000E+00 0. -1.
          5    1    1    2  502    0  0.88835970437E+01 -0.60050348824E+02  0.68316307944E+02  0.91485261225E+02  0.41800000000E+01 0. -1.
         -5    1    1    2    0  502  0.27582013617E+02  0.44984404858E+02 -0.68388130877E+01  0.53372332908E+02  0.41800000000E+01 0. -1.
        -11    1    1    2    0    0 -0.49469458970E+02  0.25677632450E+02 -0.13001059981E+02  0.57232820476E+02  0.00000000000E+00 0. -1.
         11    1    1    2    0    0  0.13003848309E+02 -0.10611688484E+02  0.44428588062E+02  0.47493235735E+02  0.00000000000E+00 0.  1.
</event>
<event>
 6    1  0.5317355E-006  0.1093026E+03  0.7561462E-02  0.1261867E+00
         -3   -1    0    0    0  501 -0.00000000000E+00  0.00000000000E+00  0.29357918619E+02  0.29357918619E+02  0.00000000000E+00 0.  1.
          3   -1    0    0  501    0  0.00000000000E+00 -0.00000000000E+00 -0.74572338902E+03  0.74572338902E+03  0.00000000000E+00 0. -1.
          5    1    1    2  502    0  0.75680961962E+01  0.60480822219E+02 -0.27427280744E+03  0.28099510892E+03  0.41800000000E+01 0.  1.
         -5    1    1    2    0  502 -0.68387657543E+01  0.24647523750E+02  0.63627653775E+01  0.26687568778E+02  0.41800000000E+01 0.  1.
        -11    1    1    2    0    0  0.21396079756E+02 -0.10171389158E+03 -0.36226577056E+03  0.37688193972E+03  0.00000000000E+00 0. -1.
         11    1    1    2    0    0 -0.22125410198E+02  0.16585545615E+02 -0.86189657790E+02  0.90516690228E+02  0.00000000000E+00 0.  1.
</event>
<event>
 6    1  0.5317355E-006  0.1527067E+03  0.7561462E-02  0.1197186E+00
         -1   -1    0    0    0  501 -0.00000000000E+00  0.00000000000E+00  0.82043909683E+02  0.82043909683E+02  0.00000000000E+00 0.  1.
          1   -1    0    0  501    0  0.00000000000E+00 -0.00000000000E+00 -0.39731820642E+03  0.39731820642E+03  0.00000000000E+00 0. -1.
          5    1    1    2  502    0 -0.16893129980E+02 -0.36036515816E+02 -0.79372741156E+02  0.88890453657E+02  0.41800000000E+01 0. -1.
         -5    1    1    2    0  502 -0.10790767455E+03  0.42056751125E+01 -0.16254430267E+01  0.10808269239E+03  0.41800000000E+01 0. -1.
        -11    1    1    2    0    0  0.31078501858E+02 -0.31468710893E+02 -0.57739699633E+02  0.72732564623E+02  0.00000000000E+00 0. -1.
         11    1    1    2    0    0  0.93722302673E+02  0.63299551596E+02 -0.17653641292E+03  0.20965640543E+03  0.00000000000E+00 0.  1.
</event>
<event>
 6    1  0.5317355E-006  0.9188473E+02  0.7561462E-02  0.1298351E+00
         -1   -1    0    0    0  501 -0.00000000000E+00  0.00000000000E+00  0.11100836938E+03  0.11100836938E+03  0.00000000000E+00 0.  1.
          1   -1    0    0  501    0  0.00000000000E+00 -0.00000000000E+00 -0.14311082042E+03  0.14311082042E+03  0.00000000000E+00 0. -1.
          5    1    1    2  502    0 -0.36604298386E+02  0.90154091081E+01  0.46435511873E+02  0.59957330033E+02  0.41800000000E+01 0. -1.
         -5    1    1    2    0  502  0.19606789513E+02 -0.63408035807E+02 -0.51118622027E+02  0.83878430587E+02  0.41800000000E+01 0.  1.
        -11    1    1    2    0    0  0.35954969330E+02  0.46559740818E+02  0.17103711793E+02  0.61262600677E+02  0.00000000000E+00 0.  1.
         11    1    1    2    0    0 -0.18957460456E+02  0.78328858806E+01 -0.44523052676E+02  0.49020828509E+02  0.00000000000E+00 0. -1.
</event>
<event>
 6    1  0.5317355E-006  0.1213623E+03  0.7561462E-02  0.1240866E+00
         -2   -1    0    0    0  501 -0.00000000000E+00  0.00000000000E+00  0.90426713521E+02  0.90426713521E+02  0.00000000000E+00 0.  1.
          2   -1    0    0  501    0  0.00000000000E+00 -0.00000000000E+00 -0.19149891616E+03  0.19149891616E+03  0.00000000000E+00 0. -1.
          5    1    1    2  502    0 -0.35658140529E+02  0.60409661024E+02 -0.25463237725E+02  0.74744090111E+02  0.41800000000E+01 0. -1.
         -5    1    1    2    0  502  0.68901382347E+02 -0.19817076282E+01  0.24291376323E+01  0.69099209576E+02  0.41800000000E+01 0. -1.
        -11    1    1    2    0    0 -0.56869600147E+02 -0.24199283144E+02 -0.16783947995E+02  0.64042623587E+02  0.00000000000E+00 0.  1.
         11    1    1    2    0    0  0.23626358330E+02 -0.34228670252E+02 -0.61254154555E+02  0.74039706411E+02  0.00000000000E+00 0. -1.
</event>
<event>
 6    1  0.5317355E-006  0.1680077E+03  0.7561462E-02  0.1179942E+00
          2   -1    0    0  501    0  0.00000000000E+00  0.00000000000E+00  0.10184157899E+04  0.10184157899E+04  0.00000000000E+00 0. -1.
         -2   -1    0    0    0  501 -0.00000000000E+00 -0.00000000000E+00 -0.37985079297E+02  0.37985079297E+02  0.00000000000E+00 0.  1.
          5    1    1    2  502    0  0.15079828752E+03 -0.60906820996E+02  0.29427772299E+03  0.33625379554E+03  0.41800000000E+01 0.  1.
         -5    1    1    2    0  502 -0.45261814738E+01 -0.92158110711E+01  0.18020991952E+03  0.18055056074E+03  0.41800000000E+01 0.  1.
        -11    1    1    2    0    0 -0.52530760180E+02  0.26858325648E+02  0.69771540353E+02  0.91372415230E+02  0.00000000000E+00 0.  1.
         11    1    1    2    0    0 -0.93741345870E+02  0.43264306420E+02  0.43617152775E+03  0.44822409770E+03  0.00000000000E+00 0. -1.
</event>
<event>
 6    1  0.5317355E-006  0.1104361E+03  0.7561462E-02  0.1259764E+00
         -2   -1    0    0    0  501 -0.00000000000E+00  0.00000000000E+00  0.47664747375E+02  0.47664747375E+02  0.00000000000E+00 0.  1.
          2   -1    0    0  501    0  0.00000000000E+00 -0.00000000000E+00 -0.51405721746E+03  0.51405721746E+03  0.00000000000E+00 0. -1.
          5    1    1    2  502    0  0.25233582022E+02  0.35047823609E+02 -0.16867692449E+03  0.17416790995E+03  0.41800000000E+01 0. -1.
         -5    1    1    2    0  502 -0.75079223679E+02 -0.42031731651E+01 -0.42208708232E+01  0.75431058877E+02  0.41800000000E+01 0.  1.
        -11    1    1    2    0    0 -0.16569775461E+02 -0.31678460018E+02 -0.65149602261E+02  0.74313881360E+02  0.00000000000E+00 0.  1.
         11    1    1    2    0    0  0.66415417118E+02  0.83380957471E+00 -0.22834507251E+03  0.23780911465E+03  0.00000000000E+00 0. -1.
</event>
<event>
 6    1  0.5317355E-006  0.1086613E+03  0.7561462E-02  0.1263069E+00
         -1   -1    0    0    0  501 -0.00000000000E+00  0.00000000000E+00  0.86185578074E+03  0.86185578074E+03  0.00000000000E+00 0.  1.
          1   -1    0    0  501    0  0.00000000000E+00 -0.00000000000E+00 -0.14152646146E+02  0.14152646146E+02  0.00000000000E+00 0. -1.
          5    1    1    2  502    0  0.44510493730E+02 -0.40343248262E+02  0.17733294482E+03  0.18727842228E+03  0.41800000000E+01 0.  1.
         -5    1    1    2    0  502 -0.59570520674E+02  0.22377663434E+02  0.30224476630E+03  0.30889930060E+03  0.41800000000E+01 0.  1.
        -11    1    1    2    0    0  0.27444370596E+02  0.51075568144E+02  0.24155295969E+03  0.24841445101E+03  0.00000000000E+00 0. -1.
         11    1    1    2    0    0 -0.12384343651E+02 -0.33109983317E+02  0.12657246379E+03  0.13141625300E+03  0.00000000000E+00 0.  1.
</event>
<event>
 6    1  0.5317355E-006  0.1510285E+03  0.7561462E-02  0.1199215E+00
         -2   -1    0    0    0  501 -0.00000000000E+00  0.00000000000E+00  0.10694038941E+04  0.10694038941E+04  0.00000000000E+00 0.  1.
          2   -1    0    0  501    0  0.00000000000E+00 -0.00000000000E+00 -0.23362341258E+02  0.23362341258E+02  0.00000000000E+00 0. -1.
          5    1    1    2  502    0  0.38076971156E+02  0.34715128489E+02  0.22615475852E+03  0.23198802357E+03  0.41800000000E+01 0.  1.
         -5    1    1    2    0  502 -0.96660934938E+02  0.63495501525E+02  0.35613513140E+03  0.37446591204E+03  0.41800000000E+01 0.  1.
        -11    1    1    2    0    0 -0.93311738638E+01 -0.51184475033E+02  0.28074742480E+03  0.28552764809E+03  0.00000000000E+00 0.  1.
         11    1    1    2    0    0  0.67915137646E+02 -0.47026154981E+02  0.18300423807E+03  0.20078465162E+03  0.00000000000E+00 0. -1.
</event>
<event>
 6    1  0.5317355E-006  0.1127899E+03  0.7561462E-02  0.1255489E+00
         -1   -1    0    0    0  501 -0.00000000000E+00  0.00000000000E+00  0.77294401703E+02  0.77294401703E+02  0.00000000000E+00 0.  1.
          1   -1    0    0  501    0  0.00000000000E+00 -0.00000000000E+00 -0.33061364268E+03  0.33061364268E+03  0.00000000000E+00 0. -1.
          5    1    1    2  502    0  0.74782194590E+02  0.44570354726E+02  0.23934548521E+02  0.90383782622E+02  0.41800000000E+01 0. -1.
         -5    1    1    2    0  502 -0.40713534167E+00 -0.35248585452E+02 -0.44436902912E+02  0.56874768360E+02  0.41800000000E+01 0. -1.
        -11    1    1    2    0    0 -0.60234158131E+01  0.25508765229E+02 -0.12859019531E+03  0.13123420656E+03  0.00000000000E+00 0. -1.
         11    1    1    2    0    0 -0.68351643435E+02 -0.34830534503E+02 -0.10422669128E+03  0.12941528684E+03  0.00000000000E+00 0.  1.
</event>
<event>
 6    1  0.5317355E-006  0.1019562E+03  0.7561462E-02  0.1276235E+00
          2   -1    0    0  501    0  0.00000000000E+00  0.00000000000E+00  0.45936825285E+02  0.45936825285E+02  0.00000000000E+00 0. -1.
         -2   -1    0    0    0  501 -0.00000000000E+00 -0.00000000000E+00 -0.29363572654E+03  0.29363572654E+03  0.00000000000E+00 0.  1.
          5    1    1    2  502    0 -0.70719318259E+02  0.26723180170E+02 -0.64259310858E+02  0.99308014608E+02  0.41800000000E+01 0. -1.
         -5    1    1    2    0  502  0.34341676736E+02 -0.24921273417E+02 -0.10739695560E+03  0.11555085072E+03  0.41800000000E+01 0.  1.
        -11    1    1    2    0    0  0.50606325152E+02 -0.26448689933E+02 -0.17669202863E+02  0.59772352090E+02  0.00000000000E+00 0. -1.
         11    1    1    2    0    0 -0.14228683629E+02  0.24646783179E+02 -0.58373431928E+02  0.64941334402E+02  0.00000000000E+00 0.  1.
</event>
<event>
 6    1  0.5317355E-006  0.1104925E+03  0.7561462E-02  0.1259661E+00
          2   -1    0    0  501    0  0.00000000000E+00  0.00000000000E+00  0.14232452247E+03  0.14232452247E+03  0.00000000000E+00 0. -1.
         -2   -1    0    0    0  501 -0.00000000000E+00 -0.00000000000E+00 -0.14200815168E+03  0.14200815168E+03  0.00000000000E+00 0.  1.
          5    1    1    2  502    0  0.91847836082E+01 -0.89881660437E+02 -0.86191325188E+02  0.12493794488E+03  0.41800000000E+01 0. -1.
         -5    1    1    2    0  502 -0.40935718271E+01  0.23215900246E+02  0.20364152750E+02  0.31430979490E+02  0.41800000000E+01 0. -1.
        -11    1    1    2    0    0 -0.37423782596E+02  0.60674644363E+01  0.98850808828E+01  0.39179949624E+02  0.00000000000E+00 0.  1.
         11    1    1    2    0    0  0.32332570815E+02  0.60598295755E+02  0.56258462350E+02  0.88783800155E+02  0.00000000000E+00 0. -1.
</event>
<event>
 6    1  0.5317355E-006  0.1080172E+03  0.7561462E-02  0.1264286E+00
         -2   -1    0    0    0  501 -0.00000000000E+00  0.00000000000E+00  0.15590056922E+03  0.15590056922E+03  0.00000000000E+00 0.  1.
          2   -1    0    0  501    0  0.00000000000E+00 -0.00000000000E+00 -0.83797278250E+02  0.83797278250E+02  0.00000000000E+00 0. -1.
          5    1    1    2  502    0 -0.48164678123E+02  0.28678635064E+02  0.81650354655E+01  0.56801765219E+02  0.41800000000E+01 0.  1.
         -5    1    1    2    0  502  0.38232062900E+02 -0.54927894896E+02  0.51781986100E+02  0.84720781133E+02  0.41800000000E+01 0.  1.
        -11    1    1    2    0    0  0.63232958109E+01 -0.32903583236E+02 -0.99054350654E+01  0.34939197237E+02  0.00000000000E+00 0.  1.
         11    1    1    2    0    0  0.36093194128E+01  0.59152843068E+02  0.22061704467E+02  0.63236103878E+02  0.00000000000E+00 0. -1.
</event>
<event>
 6    1  0.5317355E-006  0.1167135E+03  0.7561462E-02  0.1248619E+00
          2   -1    0    0  501    0  0.00000000000E+00  0.00000000000E+00  0.25138807196E+03  0.25138807196E+03  0.00000000000E+00 0. -1.
         -2   -1    0    0    0  501 -0.00000000000E+00 -0.00000000000E+00 -0.75258000070E+02  0.75258000070E+02  0.00000000000E+00 0.  1.
          5    1    1    2  502    0 -0.57242854923E+02  0.39786499915E+02  0.85140851511E+02  0.11011878591E+03  0.41800000000E+01 0. -1.
         -5    1    1    2    0  502  0.54405704937E+02  0.43916614820E+02  0.17866747696E+02  0.72286533049E+02  0.41800000000E+01 0. -1.
        -11    1    1    2    0    0 -0.19183757796E+02 -0.31397048362E+02 -0.14745415567E+02  0.39638598478E+02  0.00000000000E+00 0.  1.
         11    1    1    2    0    0  0.22020907783E+02 -0.52306066373E+02  0.87867888246E+02  0.10460215459E+03  0.00000000000E+00 0. -1.
</event>
<event>
 6    1  0.5317355E-006  0.1028531E+03  0.7561462E-02  0.1274408E+00
         -2   -1    0    0    0  501 -0.00000000000E+00  0.00000000000E+00  0.64411655029E+02  0.64411655029E+02  0.00000000000E+00 0.  1.
          2   -1    0    0  501    0  0.00000000000E+00 -0.00000000000E+00 -0.27426106958E+03  0.27426106958E+03  0.00000000000E+00 0. -1.
          5    1    1    2  502    0 -0.32279067167E+01  0.28755142790E+02  0.15288916785E+02  0.32992438453E+02  0.41800000000E+01 0.  1.
         -5    1    1    2    0  502 -0.30130641025E+02 -0.86398958179E+02 -0.84961274063E+02  0.12493408660E+03  0.41800000000E+01 0.  1.
        -11    1    1    2    0    0  0.47735145117E+02  0.46950491413E+02 -0.37953003247E+02  0.76963778355E+02  0.00000000000E+00 0.  1.
         11    1    1    2    0    0 -0.14376597375E+02  0.10693323977E+02 -0.10222405403E+03  0.10378242121E+03  0.00000000000E+00 0. -1.
</event>
<event>
 6    1  0.5317355E-006  0.1109944E+03  0.7561462E-02  0.1258739E+00
         -2   -1    0    0    0  501 -0.00000000000E+00  0.00000000000E+00  0.11770509206E+03  0.11770509206E+03  0.00000000000E+00 0.  1.
          2   -1    0    0  501    0  0.00000000000E+00 -0.00000000000E+00 -0.14756711384E+03  0.14756711384E+03  0.00000000000E+00 0. -1.
          5    1    1    2  502    0  0.24651697244E+02  0.39451394671E+02  0.17600953512E+02  0.49913772478E+02  0.41800000000E+01 0.  1.
         -5    1    1    2    0  502  0.19638570492E+02 -0.92480874749E+02  0.50188003648E+01  0.94768382926E+02  0.41800000000E+01 0.  1.
        -11    1    1    2    0    0 -0.37038732697E+02  0.11931634842E+02  0.14620376079E+02  0.41569063334E+02  0.00000000000E+00 0.  1.
         11    1    1    2    0    0 -0.72515350396E+01  0.41097845236E+02 -0.67102151734E+02  0.79020987154E+02  0.00000000000E+00 0. -1.
</event>
<event>
 6    1  0.5317355E-006  0.1385579E+03  0.7561462E-02  0.1215283E+00
         -1   -1    0    0    0  501 -0.00000000000E+00  0.00000000000E+00  0.25358411395E+03  0.25358411395E+03  0.00000000000E+00 0.  1.
          1   -1    0    0  501    0  0.00000000000E+00 -0.00000000000E+00 -0.14984552920E+03  0.14984552920E+03  0.00000000000E+00 0. -1.
          5    1    1    2  502    0 -0.71768516245E+02 -0.17627791861E+02  0.70746711346E+02  0.10239154524E+03  0.41800000000E+01 0. -1.
         -5    1    1    2    0  502  0.35817387392E+02 -0.80338474820E+02  0.11069478306E+03  0.14144950750E+03  0.41800000000E+01 0. -1.
        -11    1    1    2    0    0  0.48100063294E+02  0.76311330036E+02 -0.93689845953E+02  0.13005699680E+03  0.00000000000E+00 0. -1.
         11    1    1    2    0    0 -0.12148934441E+02  0.21654936645E+02  0.15986936301E+02  0.29531593615E+02  0.00000000000E+00 0.  1.
</event>
<event>
 6    1  0.5317355E-006  0.8995109E+02  0.7561462E-02  0.1302970E+00
         -2   -1    0    0    0  501 -0.00000000000E+00  0.00000000000E+00  0.36851553977E+03  0.36851553977E+03  0.00000000000E+00 0.  1.
          2   -1    0    0  501    0  0.00000000000E+00 -0.00000000000E+00 -0.50882342763E+02  0.50882342763E+02  0.00000000000E+00 0. -1.
          5    1    1    2  502    0  0.11245772034E+02  0.30662859325E+02  0.19497650800E+03  0.19773717254E+03  0.41800000000E+01 0. -1.
         -5    1    1    2    0  502 -0.64115765580E+02  0.22677594262E+02  0.40481128376E+02  0.79254645492E+02  0.41800000000E+01 0. -1.
        -11    1    1    2    0    0  0.46425118364E+02 -0.31588663582E+02  0.99235329741E+02  0.11402098908E+03  0.00000000000E+00 0.  1.
         11    1    1    2    0    0  0.64448751821E+01 -0.21751790005E+02 -0.17059769112E+02  0.28385075422E+02  0.00000000000E+00 0. -1.
</event>
<event>
 6    1  0.8456582E-006  0.2477737E+03  0.7561462E-02  0.1114720E+00
         -2   -1    0    0    0  501 -0.00000000000E+00  0.00000000000E+00  0.90375145870E+02  0.90375145870E+02  0.00000000000E+00 0.  1.
          2   -1    0    0  501    0  0.00000000000E+00 -0.00000000000E+00 -0.70432976160E+03  0.70432976160E+03  0.00000000000E+00 0. -1.
          5    1    1    2  502    0 -0.20449175543E+03  0.25852289084E+02 -0.19673703353E+03  0.28497043996E+03  0.41800000000E+01 0. -1.
         -5    1    1    2    0  502 -0.82902501454E+01  0.47080410021E+02 -0.77273756663E+02  0.90961525515E+02  0.41800000000E+01 0. -1.
        -11    1    1    2    0    0  0.88624577998E+02 -0.76667824183E+02 -0.13161067091E+03  0.17622042954E+03  0.00000000000E+00 0.  1.
         11    1    1    2    0    0  0.12415742757E+03  0.37351250780E+01 -0.20833315463E+03  0.24255251245E+03  0.00000000000E+00 0. -1.
</event>
<event>
 6    1  0.5317355E-006  0.8801780E+02  0.7561462E-02  0.1307724E+00
         -2   -1    0    0    0  501 -0.00000000000E+00  0.00000000000E+00  0.22990559838E+03  0.22990559838E+03  0.00000000000E+00 0. -1.
          2   -1    0    0  501    0  0.00000000000E+00 -0.00000000000E+00 -0.58698787175E+02  0.58698787175E+02  0.00000000000E+00 0.  1.
          5    1    1    2  502    0 -0.38911817610E+02 -0.34976615955E+01  0.13869499600E+03  0.14415317375E+03  0.41800000000E+01 0. -1.
         -5    1    1    2    0  502  0.36494814155E+02  0.17054884822E+02 -0.33765225724E+01  0.40640052426E+02  0.41800000000E+01 0. -1.
        -11    1    1    2    0    0 -0.38942987002E+02 -0.32528408911E+02  0.26892915248E+02  0.57427193153E+02  0.00000000000E+00 0. -1.
         11    1    1    2    0    0  0.41359990457E+02  0.18971185685E+02  0.89954225360E+01  0.46383966233E+02  0.00000000000E+00 0.  1.
</event>
<event>
 6    1  0.5317355E-006  0.1052769E+03  0.7561462E-02  0.1269575E+00
          2   -1    0    0  501    0  0.00000000000E+00  0.00000000000E+00  0.17340143650E+03  0.17340143650E+03  0.00000000000E+00 0. -1.
         -2   -1    0    0    0  501 -0.00000000000E+00 -0.00000000000E+00 -0.11347996192E+03  0.11347996192E+03  0.00000000000E+00 0.  1.
          5    1    1    2  502    0  0.16391969573E+02  0.89206684941E+02  0.41634074067E+02  0.99886925210E+02  0.41800000000E+01 0. -1.
         -5    1    1    2    0  502 -0.79766901585E+01 -0.89121131879E+01 -0.47441475692E+02  0.49104168491E+02  0.41800000000E+01 0. -1.
        -11    1    1    2    0    0  0.30235851255E+02 -0.47956237075E+02  0.21123304814E+01  0.56731554849E+02  0.00000000000E+00 0. -1.
         11    1    1    2    0    0 -0.38651130670E+02 -0.32338334678E+02  0.63616545720E+02  0.81158749874E+02  0.00000000000E+00 0.  1.
</event>
<event>
 6    1  0.5317355E-006  0.1776183E+03  0.7561462E-02  0.1170128E+00
         -2   -1    0    0    0  501 -0.00000000000E+00  0.00000000000E+00  0.10892878334E+03  0.10892878334E+03  0.00000000000E+00 0.  1.
          2   -1    0    0  501    0  0.00000000000E+00 -0.00000000000E+00 -0.38332259198E+03  0.38332259198E+03  0.00000000000E+00 0. -1.
          5    1    1    2  502    0  0.15275939779E+03  0.51769751914E+02 -0.70425111542E+02  0.17604746394E+03  0.41800000000E+01 0.  1.
         -5    1    1    2    0  502  0.53049012403E+01 -0.34015305898E+02  0.82418523138E+01  0.35645245715E+02  0.41800000000E+01 0.  1.
        -11    1    1    2    0    0 -0.59332984100E+02 -0.32855231486E+01 -0.15392505747E+03  0.16499733629E+03  0.00000000000E+00 0. -1.
         11    1    1    2    0    0 -0.98731314926E+02 -0.14468922868E+02 -0.58285491940E+02  0.11556132937E+03  0.00000000000E+00 0.  1.
</event>
<event>
 6    1  0.5317355E-006  0.9634323E+02  0.7561462E-02  0.1288179E+00
          2   -1    0    0  501    0  0.00000000000E+00  0.00000000000E+00  0.80816551120E+02  0.80816551120E+02  0.00000000000E+00 0. -1.
         -2   -1    0    0    0  501 -0.00000000000E+00 -0.00000000000E+00 -0.15037259211E+03  0.15037259211E+03  0.00000000000E+00 0.  1.
          5    1    1    2  502    0  0.49166556740E+02  0.32172679584E+02 -0.66518078236E+02  0.88851329453E+02  0.41800000000E+01 0.  1.
         -5    1    1    2    0  502 -0.36800182983E+02 -0.32995049016E+02  0.72409803932E+01  0.50128145031E+02  0.41800000000E+01 0.  1.
        -11    1    1    2    0    0 -0.46211075347E+02 -0.12394320025E+02  0.12340623783E+02  0.49410258540E+02  0.00000000000E+00 0. -1.
         11    1    1    2    0    0  0.33844701590E+02  0.13216689458E+02 -0.22619566930E+02  0.42799410206E+02  0.00000000000E+00 0.  1.
</event>
<event>
 6    1  0.5317355E-006  0.7438989E+02  0.7561462E-02  0.1345771E+00
         -2   -1    0    0    0  501 -0.00000000000E+00  0.00000000000E+00  0.68590272812E+02  0.68590272812E+02  0.00000000000E+00 0.  1.
          2   -1    0    0  501    0  0.00000000000E+00 -0.00000000000E+00 -0.27647166904E+03  0.27647166904E+03  0.00000000000E+00 0. -1.
          5    1    1    2  502    0 -0.18024914335E+01 -0.16891027297E+02 -0.57872813853E+02  0.60459000668E+02  0.41800000000E+01 0. -1.
         -5    1    1    2    0  502  0.10732983977E+02  0.37083307018E+02  0.49879337405E+02  0.63212255967E+02  0.41800000000E+01 0.  1.
        -11    1    1    2    0    0  0.79425169985E+01 -0.54047661517E+02 -0.91211573585E+02  0.10631925718E+03  0.00000000000E+00 0.  1.
         11    1    1    2    0    0 -0.16873009542E+02  0.33855381797E+02 -0.10867634619E+03  0.11507142803E+03  0.00000000000E+00 0. -1.
</event>
<event>
 6    1  0.5317355E-006  0.1015782E+03  0.7561462E-02  0.1277012E+00
         -2   -1    0    0    0  501 -0.00000000000E+00  0.00000000000E+00  0.18296057529E+03  0.18296057529E+03  0.00000000000E+00 0.  1.
          2   -1    0    0  501    0  0.00000000000E+00 -0.00000000000E+00 -0.84460538169E+02  0.84460538169E+02  0.00000000000E+00 0. -1.
          5    1    1    2  502    0  0.50511736953E+02 -0.60007863545E+02 -0.13801499284E+02  0.79751696155E+02  0.41800000000E+01 0. -1.
         -5    1    1    2    0  502 -0.15278671014E+01  0.19978602952E+02  0.67208763698E+02  0.70256453594E+02  0.41800000000E+01 0. -1.
        -11    1    1    2    0    0 -0.42753997497E+02 -0.17556191559E+02  0.39912971622E+01  0.46390242693E+02  0.00000000000E+00 0. -1.
         11    1    1    2    0    0 -0.62298723540E+01  0.57585452152E+02  0.41101475549E+02  0.71022721022E+02  0.00000000000E+00 0.  1.
</event>
<event>
 6    1  0.5317355E-006  0.2121092E+03  0.7561462E-02  0.1139907E+00
         -2   -1    0    0    0  501 -0.00000000000E+00  0.00000000000E+00  0.57599840550E+02  0.57599840550E+02  0.00000000000E+00 0.  1.
          2   -1    0    0  501    0  0.00000000000E+00 -0.00000000000E+00 -0.95907411896E+03  0.95907411896E+03  0.00000000000E+00 0. -1.
          5    1    1    2  502    0 -0.69273036154E+02 -0.16950189941E+03 -0.25897760191E+03  0.31720106893E+03  0.41800000000E+01 0. -1.
         -5    1    1    2    0  502 -0.23057524478E+02 -0.16819236387E+02 -0.19926177871E+03  0.20133868233E+03  0.41800000000E+01 0. -1.
        -11    1    1    2    0    0  0.21374833841E+02  0.13212366069E+02 -0.11557312521E+02  0.27659024054E+02  0.00000000000E+00 0.  1.
         11    1    1    2    0    0  0.70955726790E+02  0.17310876972E+03 -0.43167758527E+03  0.47047518419E+03  0.00000000000E+00 0. -1.
</event>
<event>
 6    1  0.5317355E-006  0.1271893E+03  0.7561462E-02  0.1231687E+00
         -2   -1    0    0    0  501 -0.00000000000E+00  0.00000000000E+00  0.14419071306E+03  0.14419071306E+03  0.00000000000E+00 0.  1.
          2   -1    0    0  501    0  0.00000000000E+00 -0.00000000000E+00 -0.16592712918E+03  0.16592712918E+03  0.00000000000E+00 0. -1.
          5    1    1    2  502    0  0.64502194287E+01  0.54038477909E+02 -0.20718970479E+01  0.54621676858E+02  0.41800000000E+01 0.  1.
         -5    1    1    2    0  502  0.69862026032E+02 -0.41939816346E+02  0.69287069302E+02  0.10704121285E+03  0.41800000000E+01 0.  1.
        -11    1    1    2    0    0 -0.94975438291E+02  0.17068066896E+01 -0.65009795954E+02  0.11510656210E+03  0.00000000000E+00 0.  1.
         11    1    1    2    0    0  0.18663192831E+02 -0.13805468252E+02 -0.23941792422E+02  0.33348390436E+02  0.00000000000E+00 0. -1.
</event>
<event>
 6    1  0.5317355E-006  0.2411256E+03  0.7561462E-02  0.1119045E+00
         -1   -1    0    0    0  501 -0.00000000000E+00  0.00000000000E+00  0.88034334228E+02  0.88034334228E+02  0.00000000000E+00 0.  1.
          1   -1    0    0  501    0  0.00000000000E+00 -0.00000000000E+00 -0.74847317927E+03  0.74847317927E+03  0.00000000000E+00 0. -1.
          5    1    1    2  502    0 -0.14312604047E+02  0.10440316232E+03 -0.13685438283E+03  0.17277576635E+03  0.41800000000E+01 0.  1.
         -5    1    1    2    0  502  0.96405295735E+02  0.92962446814E+02 -0.77592289555E+02  0.15483550420E+03  0.41800000000E+01 0.  1.
        -11    1    1    2    0    0 -0.10413244158E+03 -0.10515583960E+03 -0.23708684908E+03  0.27948432871E+03  0.00000000000E+00 0.  1.
         11    1    1    2    0    0  0.22039749897E+02 -0.92209769533E+02 -0.20890532358E+03  0.22941191424E+03  0.00000000000E+00 0. -1.
</event>
<event>
 6    1  0.5317355E-006  0.9091299E+02  0.7561462E-02  0.1300656E+00
         -1   -1    0    0    0  501 -0.00000000000E+00  0.00000000000E+00  0.26412314632E+03  0.26412314632E+03  0.00000000000E+00 0.  1.
          1   -1    0    0  501    0  0.00000000000E+00 -0.00000000000E+00 -0.10457380734E+03  0.10457380734E+03  0.00000000000E+00 0. -1.
          5    1    1    2  502    0 -0.58370386578E+02  0.50892671356E+02  0.20247212472E+03  0.21681697285E+03  0.41800000000E+01 0.  1.
         -5    1    1    2    0  502  0.22308331816E+01  0.98162513864E+01 -0.17918842675E+02  0.20973619878E+02  0.41800000000E+01 0.  1.
        -11    1    1    2    0    0  0.27030229791E+02 -0.58180601716E+02 -0.58244819175E+02  0.86649147136E+02  0.00000000000E+00 0. -1.
         11    1    1    2    0    0  0.29109323605E+02 -0.25283210264E+01  0.33240876121E+02  0.44257213799E+02  0.00000000000E+00 0.  1.
</event>
<event>
 6    1  0.5317355E-006  0.7387834E+02  0.7561462E-02  0.1347380E+00
         -2   -1    0    0    0  501 -0.00000000000E+00  0.00000000000E+00  0.41085415892E+02  0.41085415892E+02  0.00000000000E+00 0. -1.
          2   -1    0    0  501    0  0.00000000000E+00 -0.00000000000E+00 -0.36903354472E+03  0.36903354472E+03  0.00000000000E+00 0.  1.
          5    1    1    2  502    0 -0.26667080261E+02 -0.75359041263E+01 -0.15127295617E+03  0.15384701066E+03  0.41800000000E+01 0.  1.
         -5    1    1    2    0  502 -0.71135941485E+01  0.46816385153E+02  0.21284331115E+01  0.47585499557E+02  0.41800000000E+01 0.  1.
        -11    1    1    2    0    0  0.67705103375E+01 -0.44220413098E+02 -0.17540364216E+03  0.18101856929E+03  0.00000000000E+00 0.  1.
         11    1    1    2    0    0  0.27010164072E+02  0.49399320706E+01 -0.33999636044E+01  0.27667881100E+02  0.00000000000E+00 0. -1.
</event>
<event>
 6    1  0.5317355E-006  0.2237673E+03  0.7561462E-02  0.1131105E+00
          1   -1    0    0  501    0  0.00000000000E+00  0.00000000000E+00  0.10686244012E+04  0.10686244012E+04  0.00000000000E+00 0. -1.
         -1   -1    0    0    0  501 -0.00000000000E+00 -0.00000000000E+00 -0.67988279440E+02  0.67988279440E+02  0.00000000000E+00 0.  1.
          5    1    1    2  502    0  0.97695093055E+01  0.11882709370E+03  0.22052338420E+03  0.25072566060E+03  0.41800000000E+01 0. -1.
         -5    1    1    2    0  502 -0.24553914933E+02  0.93385272410E+02  0.30643487376E+02  0.10139131896E+03  0.41800000000E+01 0. -1.
        -11    1    1    2    0    0 -0.38829576786E+02 -0.80428678264E+02  0.27285137852E+03  0.28709646999E+03  0.00000000000E+00 0.  1.
         11    1    1    2    0    0  0.53613982413E+02 -0.13178368784E+03  0.47661787166E+03  0.49739923108E+03  0.00000000000E+00 0. -1.
</event>
<event>
 6    1  0.5317355E-006  0.1683896E+03  0.7561462E-02  0.1179538E+00
         -3   -1    0    0    0  501 -0.00000000000E+00  0.00000000000E+00  0.37728582640E+03  0.37728582640E+03  0.00000000000E+00 0.  1.
          3   -1    0    0  501    0  0.00000000000E+00 -0.00000000000E+00 -0.77200988380E+02  0.77200988380E+02  0.00000000000E+00 0. -1.
          5    1    1    2  502    0  0.86483153325E+02 -0.28582321243E+02  0.96858941390E+02  0.13302410242E+03  0.41800000000E+01 0. -1.
         -5    1    1    2    0  502  0.33047319312E+02  0.82138703877E+02  0.65499684200E+02  0.11021149223E+03  0.41800000000E+01 0. -1.
        -11    1    1    2    0    0 -0.47437152349E+02  0.22209340823E+02  0.26949975966E+02  0.58905343114E+02  0.00000000000E+00 0. -1.
         11    1    1    2    0    0 -0.72093320288E+02 -0.75765723456E+02  0.11077623647E+03  0.15234587703E+03  0.00000000000E+00 0.  1.
</event>
<event>
 6    1  0.5317355E-006  0.1281656E+03  0.7561462E-02  0.1230203E+00
          2   -1    0    0  501    0  0.00000000000E+00  0.00000000000E+00  0.35388560996E+03  0.35388560996E+03  0.00000000000E+00 0. -1.
         -2   -1    0    0    0  501 -0.00000000000E+00 -0.00000000000E+00 -0.68690581142E+02  0.68690581142E+02  0.00000000000E+00 0.  1.
          5    1    1    2  502    0 -0.69538641110E+02  0.31158095276E+02  0.44216949879E+02  0.88198982791E+02  0.41800000000E+01 0.  1.
         -5    1    1    2    0  502  0.50323901705E+02  0.55648038205E+02  0.17183776418E+02  0.77084069761E+02  0.41800000000E+01 0.  1.
        -11    1    1    2    0    0 -0.89692774100E+01 -0.72889893318E+02  0.21089619449E+03  0.22331723923E+03  0.00000000000E+00 0. -1.
         11    1    1    2    0    0  0.28184016815E+02 -0.13916240164E+02  0.12898108031E+02  0.33975899324E+02  0.00000000000E+00 0.  1.
</event>
<event>
 6    1  0.5317355E-006  0.1788541E+03  0.7561462E-02  0.1168917E+00
         -1   -1    0    0    0  501 -0.00000000000E+00  0.00000000000E+00  0.55267355379E+03  0.55267355379E+03  0.00000000000E+00 0.  1.
          1   -1    0    0  501    0  0.00000000000E+00 -0.00000000000E+00 -0.74475907098E+02  0.74475907098E+02  0.00000000000E+00 0. -1.
          5    1    1    2  502    0 -0.58151554601E+01  0.79743827580E+02  0.18274424014E+03  0.19951396887E+03  0.41800000000E+01 0.  1.
         -5    1    1    2    0  502  0.11142710893E+03  0.33584161151E+02  0.18277059230E+03  0.21671746190E+03  0.41800000000E+01 0.  1.
        -11    1    1    2    0    0 -0.17790717090E+02 -0.49568337448E+02 -0.24205439627E+01  0.52719908242E+02  0.00000000000E+00 0. -1.
         11    1    1    2    0    0 -0.87821236382E+02 -0.63759651283E+02  0.11510335823E+03  0.15819812188E+03  0.00000000000E+00 0.  1.
</event>
<event>
 6    1  0.5317355E-006  0.3807156E+03  0.7561462E-02  0.1050670E+00
         -1   -1    0    0    0  501 -0.00000000000E+00  0.00000000000E+00  0.53104213717E+03  0.53104213717E+03  0.00000000000E+00 0.  1.
          1   -1    0    0  501    0  0.00000000000E+00 -0.00000000000E+00 -0.40397725563E+03  0.40397725563E+03  0.00000000000E+00 0. -1.
          5    1    1    2  502    0 -0.12521071299E+03 -0.98429947001E+02  0.64386510870E+02  0.17184083420E+03  0.41800000000E+01 0. -1.
         -5    1    1    2    0  502  0.31707507010E+03 -0.89029859783E+02  0.25825408023E+03  0.41853979306E+03  0.41800000000E+01 0.  1.
        -11    1    1    2    0    0 -0.84293855574E+02  0.11680903369E+03 -0.55373895344E+02  0.15432456941E+03  0.00000000000E+00 0.  1.
         11    1    1    2    0    0 -0.10757050154E+03  0.70650773096E+02 -0.14020181422E+03  0.19031419614E+03  0.00000000000E+00 0. -1.
</event>
<event>
 6    1  0.5317355E-006  0.1340901E+03  0.7561462E-02  0.1221510E+00
         -1   -1    0    0    0  501 -0.00000000000E+00  0.00000000000E+00  0.12644297139E+03  0.12644297139E+03  0.00000000000E+00 0.  1.
          1   -1    0    0  501    0  0.00000000000E+00 -0.00000000000E+00 -0.18979227004E+03  0.18979227004E+03  0.00000000000E+00 0. -1.
          5    1    1    2  502    0 -0.35101829902E+02  0.11546288764E+02 -0.42951528496E+02  0.56813391440E+02  0.41800000000E+01 0. -1.
         -5    1    1    2    0  502 -0.36408355373E+02 -0.86842495684E+02  0.48153620906E+02  0.10584626117E+03  0.41800000000E+01 0. -1.
        -11    1    1    2    0    0  0.44291836415E+02 -0.11508115406E+02 -0.30329514105E+02  0.54900664104E+02  0.00000000000E+00 0. -1.
         11    1    1    2    0    0  0.27218348860E+02  0.86804322326E+02 -0.38221876958E+02  0.98674924714E+02  0.00000000000E+00 0.  1.
</event>
<event>
 6    1  0.5317355E-006  0.8097018E+02  0.7561462E-02  0.1326321E+00
         -1   -1    0    0    0  501 -0.00000000000E+00  0.00000000000E+00  0.42857378578E+02  0.42857378578E+02  0.00000000000E+00 0.  1.
          1   -1    0    0  501    0  0.00000000000E+00 -0.00000000000E+00 -0.30686354417E+03  0.30686354417E+03  0.00000000000E+00 0. -1.
          5    1    1    2  502    0 -0.19374987820E+02 -0.30802063777E+02  0.13079919288E+02  0.38893623828E+02  0.41800000000E+01 0.  1.
         -5    1    1    2    0  502 -0.11548213816E+02  0.33113201327E+02 -0.13139041354E+03  0.13605424842E+03  0.41800000000E+01 0.  1.
        -11    1    1    2    0    0 -0.98578432667E+01 -0.35858152985E+02 -0.30665595244E+02  0.48201275305E+02  0.00000000000E+00 0. -1.
         11    1    1    2    0    0  0.40781044903E+02  0.33547015434E+02 -0.11503007610E+03  0.12657177519E+03  0.00000000000E+00 0.  1.
</event>
<event>
 6    1  0.5317355E-006  0.1088560E+03  0.7561462E-02  0.1262703E+00
          1   -1    0    0  501    0  0.00000000000E+00  0.00000000000E+00  0.26027710944E+03  0.26027710944E+03  0.00000000000E+00 0. -1.
         -1   -1    0    0    0  501 -0.00000000000E+00 -0.00000000000E+00 -0.92401440701E+02  0.92401440701E+02  0.00000000000E+00 0.  1.
          5    1    1    2  502    0  0.65651639196E+02  0.35097471788E+02 -0.76984912739E+01  0.74958051088E+02  0.41800000000E+01 0.  1.
         -5    1    1    2    0  502 -0.41604637589E+02 -0.29043009069E+02 -0.24859888573E+02  0.56656232707E+02  0.41800000000E+01 0.  1.
        -11    1    1    2    0    0 -0.29518255267E+02 -0.44503502070E+02  0.13173329585E+03  0.14214622867E+03  0.00000000000E+00 0.  1.
         11    1    1    2    0    0  0.54712536601E+01  0.38449039351E+02  0.68700752742E+02  0.78918037678E+02  0.00000000000E+00 0. -1.
</event>
<event>
 6    1  0.5317355E-006  0.1210008E+03  0.7561462E-02  0.1241455E+00
         -4   -1    0    0    0  501 -0.00000000000E+00  0.00000000000E+00  0.72099882217E+02  0.72099882217E+02  0.00000000000E+00 0.  1.
          4   -1    0    0  501    0  0.00000000000E+00 -0.00000000000E+00 -0.26338222152E+03  0.26338222152E+03  0.00000000000E+00 0. -1.
          5    1    1    2  502    0 -0.59466285612E+02  0.57958929698E+02 -0.22316798172E+02  0.86087098551E+02  0.41800000000E+01 0.  1.
         -5    1    1    2    0  502  0.53499822082E+02 -0.17519099967E+01 -0.55407287430E+01  0.53976589615E+02  0.41800000000E+01 0.  1.
        -11    1    1    2    0    0 -0.41456802992E+02 -0.25624200777E+02 -0.94612092584E+02  0.10642703718E+03  0.00000000000E+00 0. -1.
         11    1    1    2    0    0  0.47423266523E+02 -0.30582818924E+02 -0.68812719800E+02  0.88991378387E+02  0.00000000000E+00 0.  1.
</event>
<event>
 6    1  0.5317355E-006  0.1658733E+03  0.7561462E-02  0.1182221E+00
         -2   -1    0    0    0  501 -0.00000000000E+00  0.00000000000E+00  0.60122363241E+02  0.60122363241E+02  0.00000000000E+00 0.  1.
          2   -1    0    0  501    0  0.00000000000E+00 -0.00000000000E+00 -0.71675568527E+03  0.71675568527E+03  0.00000000000E+00 0. -1.
          5    1    1    2  502    0 -0.11276801184E+03 -0.84439265636E+02 -0.17044201161E+03  0.22116637583E+03  0.41800000000E+01 0.  1.
         -5    1    1    2    0  502 -0.13504653398E+02  0.12829943805E+02  0.16031064454E+02  0.24928909903E+02  0.41800000000E+01 0.  1.
        -11    1    1    2    0    0  0.39418252717E+02  0.75072917197E+02 -0.24168004749E+03  0.25612299174E+03  0.00000000000E+00 0. -1.
         11    1    1    2    0    0  0.86854412525E+02 -0.34635953663E+01 -0.26054232738E+03  0.27465977104E+03  0.00000000000E+00 0.  1.
</event>
<event>
 6    1  0.5317355E-006  0.8642597E+02  0.7561462E-02  0.1311745E+00
         -2   -1    0    0    0  501 -0.00000000000E+00  0.00000000000E+00  0.10404144845E+03  0.10404144845E+03  0.00000000000E+00 0.  1.
          2   -1    0    0  501    0  0.00000000000E+00 -0.00000000000E+00 -0.13601613556E+03  0.13601613556E+03  0.00000000000E+00 0. -1.
          5    1    1    2  502    0 -0.25792061667E+01 -0.58780996646E+02  0.58094945947E+02  0.82791020139E+02  0.41800000000E+01 0.  1.
         -5    1    1    2    0  502  0.94420898490E+00  0.28331503691E+02 -0.37982663294E+02  0.47578574410E+02  0.41800000000E+01 0.  1.
        -11    1    1    2    0    0  0.17856534941E+02 -0.23135900643E+02  0.50891677226E+01  0.29665221503E+02  0.00000000000E+00 0.  1.
         11    1    1    2    0    0 -0.16221537759E+02  0.53585393598E+02 -0.57176137478E+02  0.80022767956E+02  0.00000000000E+00 0. -1.
</event>
<event>
 6    1  0.5317355E-006  0.1261872E+03  0.7561462E-02  0.1233225E+00
         -1   -1    0    0    0  501 -0.00000000000E+00  0.00000000000E+00  0.34470378763E+02  0.34470378763E+02  0.00000000000E+00 0.  1.
          1   -1    0    0  501    0  0.00000000000E+00 -0.00000000000E+00 -0.77077409838E+03  0.77077409838E+03  0.00000000000E+00 0. -1.
          5    1    1    2  502    0 -0.27456239487E+02 -0.22946690400E+00 -0.12083356400E+01  0.27799824043E+02  0.41800000000E+01 0. -1.
         -5    1    1    2    0  502 -0.66785983221E+02  0.75627524090E+02 -0.34680735903E+03  0.36121005887E+03  0.41800000000E+01 0. -1.
        -11    1    1    2    0    0  0.35397686720E+02 -0.12636122807E+02 -0.30958387649E+02  0.48693835242E+02  0.00000000000E+00 0.  1.
         11    1    1    2    0    0  0.58844535989E+02 -0.62761934379E+02 -0.35732963730E+03  0.36754075898E+03  0.00000000000E+00 0. -1.
</event>
<event>
 6    1  0.5317355E-006  0.1171374E+03  0.7561462E-02  0.1247895E+00
         -2   -1    0    0    0  501 -0.00000000000E+00  0.00000000000E+00  0.54541184450E+02  0.54541184450E+02  0.00000000000E+00 0.  1.
          2   -1    0    0  501    0  0.00000000000E+00 -0.00000000000E+00 -0.38286992779E+03  0.38286992779E+03  0.00000000000E+00 0. -1.
          5    1    1    2  502    0  0.39862730194E+02  0.36031834483E+02 -0.64644876814E+02  0.84165092841E+02  0.41800000000E+01 0. -1.
         -5    1    1    2    0  502  0.29685098878E+02 -0.88024653601E+02 -0.43992410781E+02  0.10287054653E+03  0.41800000000E+01 0. -1.
        -11    1    1    2    0    0 -0.33250647895E+02  0.18767173712E+02 -0.16997426493E+02  0.41793838086E+02  0.00000000000E+00 0.  1.
         11    1    1    2    0    0 -0.36297181176E+02  0.33225645405E+02 -0.20269402925E+03  0.20858163478E+03  0.00000000000E+00 0. -1.
</event>
<event>
 6    1  0.5317355E-006  0.3280097E+03  0.7561462E-02  0.1072021E+00
         -1   -1    0    0    0  501 -0.00000000000E+00  0.00000000000E+00  0.24026280998E+03  0.24026280998E+03  0.00000000000E+00 0.  1.
          1   -1    0    0  501    0  0.00000000000E+00 -0.00000000000E+00 -0.51135065162E+03  0.51135065162E+03  0.00000000000E+00 0. -1.
          5    1    1    2  502    0  0.80931490514E+01  0.78022728107E+00  0.14499897645E+02  0.17141389906E+02  0.41800000000E+01 0. -1.
         -5    1    1    2    0  502 -0.22150450068E+02 -0.31931837582E+03 -0.41764003574E+02  0.32282591589E+03  0.41800000000E+01 0.  1.
        -11    1    1    2    0    0 -0.13162924894E+02  0.88029609860E+01 -0.31140387495E+02  0.34935346674E+02  0.00000000000E+00 0.  1.
         11    1    1    2    0    0  0.27220225910E+02  0.30973518755E+03 -0.21268334822E+03  0.37671080913E+03  0.00000000000E+00 0. -1.
</event>
<event>
 6    1  0.5317355E-006  0.2289231E+03  0.7561462E-02  0.1127400E+00
         -2   -1    0    0    0  501 -0.00000000000E+00  0.00000000000E+00  0.55179364497E+02  0.55179364497E+02  0.00000000000E+00 0.  1.
          2   -1    0    0  501    0  0.00000000000E+00 -0.00000000000E+00 -0.10408380114E+04  0.10408380114E+04  0.00000000000E+00 0. -1.
          5    1    1    2  502    0  0.90224550480E+02  0.92959206030E+02 -0.33992106126E+03  0.36379346309E+03  0.41800000000E+01 0.  1.
         -5    1    1    2    0  502  0.99979295921E+02  0.36411413667E-01 -0.10827658250E+03  0.14743524564E+03  0.41800000000E+01 0.  1.
        -11    1    1    2    0    0 -0.18164326114E+03 -0.55831702944E+02 -0.47504487910E+03  0.51164351900E+03  0.00000000000E+00 0. -1.
         11    1    1    2    0    0 -0.85605852619E+01 -0.37163914499E+02 -0.62416124013E+02  0.73145148149E+02  0.00000000000E+00 0.  1.
</event>
<event>
 6    1  0.5317355E-006  0.1635218E+03  0.7561462E-02  0.1184777E+00
          2   -1    0    0  501    0  0.00000000000E+00  0.00000000000E+00  0.11021008779E+04  0.11021008779E+04  0.00000000000E+00 0. -1.
         -2   -1    0    0    0  501 -0.00000000000E+00 -0.00000000000E+00 -0.27755891035E+02  0.27755891035E+02  0.00000000000E+00 0.  1.
          5    1    1    2  502    0  0.19623972698E+02 -0.54266171816E+02  0.21909584576E+03  0.22660622175E+03  0.41800000000E+01 0. -1.
         -5    1    1    2    0  502 -0.10562775212E+03 -0.43677634011E+02  0.21379080761E+03  0.24246430573E+03  0.41800000000E+01 0. -1.
        -11    1    1    2    0    0 -0.81689317095E+01  0.47068307601E+02  0.27084968071E+03  0.27503037390E+03  0.00000000000E+00 0.  1.
         11    1    1    2    0    0  0.94172711132E+02  0.50875498226E+02  0.37060865283E+03  0.38575586761E+03  0.00000000000E+00 0. -1.
</event>
<event>
 6    1  0.5317355E-006  0.1520501E+03  0.7561462E-02  0.1197976E+00
         -1   -1    0    0    0  501 -0.00000000000E+00  0.00000000000E+00  0.65522129940E+03  0.65522129940E+03  0.00000000000E+00 0.  1.
          1   -1    0    0  501    0  0.00000000000E+00 -0.00000000000E+00 -0.43756785968E+02  0.43756785968E+02  0.00000000000E+00 0. -1.
          5    1    1    2  502    0 -0.96711650870E+02 -0.52630446348E+02  0.14076464215E+03  0.17876035404E+03  0.41800000000E+01 0. -1.
         -5    1    1    2    0  502 -0.34667242730E+02  0.24392631454E+02  0.19950399916E+03  0.20400033399E+03  0.41800000000E+01 0.  1.
        -11    1    1    2    0    0  0.13292637314E+03  0.10308541562E+02  0.26590825863E+03  0.29746073474E+03  0.00000000000E+00 0.  1.
         11    1    1    2    0    0 -0.15474795388E+01  0.17929273333E+02  0.52876134860E+01  0.18756662591E+02  0.00000000000E+00 0. -1.
</event>
<event>
 6    1  0.5317355E-006  0.1304011E+03  0.7561462E-02  0.1226862E+00
          1   -1    0    0  501    0  0.00000000000E+00  0.00000000000E+00  0.75179176217E+02  0.75179176217E+02  0.00000000000E+00 0. -1.
         -1   -1    0    0    0  501 -0.00000000000E+00 -0.00000000000E+00 -0.35519199392E+03  0.35519199392E+03  0.00000000000E+00 0.  1.
          5    1    1    2  502    0  0.87551210828E+02  0.37375605271E+02 -0.19294878457E+03  0.21519492618E+03  0.41800000000E+01 0. -1.
         -5    1    1    2    0  502  0.21946701876E+02 -0.41693100807E+02 -0.12119539059E+02  0.48829581251E+02  0.41800000000E+01 0. -1.
        -11    1    1    2    0    0 -0.19433024059E+02 -0.16820127101E+02 -0.69014392206E+02  0.73644724396E+02  0.00000000000E+00 0.  1.
         11    1    1    2    0    0 -0.90064888644E+02  0.21137622637E+02 -0.59301018626E+01  0.92701938304E+02  0.00000000000E+00 0. -1.
</event>
<event>
 6    1  0.5317355E-006  0.2218367E+03  0.7561462E-02  0.1132521E+00
          1   -1    0    0  501    0  0.00000000000E+00  0.00000000000E+00  0.42588661361E+03  0.42588661361E+03  0.00000000000E+00 0. -1.
         -1   -1    0    0    0  501 -0.00000000000E+00 -0.00000000000E+00 -0.11832941164E+03  0.11832941164E+03  0.00000000000E+00 0.  1.
          5    1    1    2  502    0  0.19996369199E+03  0.48666740842E+02  0.16719769326E+03  0.26519138525E+03  0.41800000000E+01 0.  1.
         -5    1    1    2    0  502 -0.15611092766E+02  0.17300117356E+02  0.54988178975E+01  0.24304519665E+02  0.41800000000E+01 0.  1.
        -11    1    1    2    0    0 -0.15099777119E+03 -0.12993016199E+02  0.11043530100E+03  0.18752360140E+03  0.00000000000E+00 0. -1.
         11    1    1    2    0    0 -0.33354828031E+02 -0.52973841999E+02  0.24425389820E+02  0.67196518935E+02  0.00000000000E+00 0.  1.
</event>
<event>
 6    1  0.5317355E-006  0.1786901E+03  0.7561462E-02  0.1169077E+00
         -1   -1    0    0    0  501 -0.00000000000E+00  0.00000000000E+00  0.86028049058E+02  0.86028049058E+02  0.00000000000E+00 0.  1.
          1   -1    0    0  501    0  0.00000000000E+00 -0.00000000000E+00 -0.66986823356E+03  0.66986823356E+03  0.00000000000E+00 0. -1.
          5    1    1    2  502    0  0.61146855032E+02  0.87591688654E+02 -0.11498259288E+03  0.15700226389E+03  0.41800000000E+01 0. -1.
         -5    1    1    2    0  502 -0.83841017486E+01  0.75032501463E+02  0.15249575327E+02  0.77137483661E+02  0.41800000000E+01 0. -1.
        -11    1    1    2    0    0 -0.53404483969E+02 -0.11046724872E+03 -0.21418413627E+03  0.24683981887E+03  0.00000000000E+00 0.  1.
         11    1    1    2    0    0  0.64173068575E+00 -0.52156941394E+02 -0.26992303068E+03  0.27491671620E+03  0.00000000000E+00 0. -1.
</event>
<event>
 6    1  0.5317355E-006  0.1369228E+03  0.7561462E-02  0.1217531E+00
         -1   -1    0    0    0  501 -0.00000000000E+00  0.00000000000E+00  0.36417057955E+02  0.36417057955E+02  0.00000000000E+00 0.  1.
          1   -1    0    0  501    0  0.00000000000E+00 -0.00000000000E+00 -0.52317396637E+03  0.52317396637E+03  0.00000000000E+00 0. -1.
          5    1    1    2  502    0 -0.10460535067E+03 -0.37978526990E+02 -0.16927812818E+03  0.20262577571E+03  0.41800000000E+01 0. -1.
         -5    1    1    2    0  502  0.23823540876E+02  0.28915166360E+02 -0.63903845581E+02  0.74194486490E+02  0.41800000000E+01 0. -1.
        -11    1    1    2    0    0  0.34053920413E+02  0.51447224818E+02 -0.13599619056E+03  0.14933670106E+03  0.00000000000E+00 0. -1.
         11    1    1    2    0    0  0.46727889383E+02 -0.42383864187E+02 -0.11757874408E+03  0.13343406105E+03  0.00000000000E+00 0.  1.
</event>
<event>
 6    1  0.5317355E-006  0.2637086E+03  0.7561462E-02  0.1104935E+00
         -2   -1    0    0    0  501 -0.00000000000E+00  0.00000000000E+00  0.10447104884E+03  0.10447104884E+03  0.00000000000E+00 0.  1.
          2   -1    0    0  501    0  0.00000000000E+00 -0.00000000000E+00 -0.75863403367E+03  0.75863403367E+03  0.00000000000E+00 0. -1.
          5    1    1    2  502    0 -0.24581103685E+03 -0.71084550459E+02 -0.19081031413E+03  0.31922112638E+03  0.41800000000E+01 0. -1.
         -5    1    1    2    0  502  0.15149049103E+02 -0.17679970029E+01 -0.66446643976E+01  0.17153526375E+02  0.41800000000E+01 0. -1.
        -11    1    1    2    0    0  0.18434854805E+03  0.91441369819E+02 -0.31283867516E+03  0.37445152952E+03  0.00000000000E+00 0.  1.
         11    1    1    2    0    0  0.46313439701E+02 -0.18588822357E+02 -0.14386933115E+03  0.15227890024E+03  0.00000000000E+00 0. -1.
</event>
<event>
 6    1  0.5317355E-006  0.3997300E+02  0.7561462E-02  0.1508410E+00
          3   -1    0    0  501    0  0.00000000000E+00  0.00000000000E+00  0.10948025744E+03  0.10948025744E+03  0.00000000000E+00 0. -1.
         -3   -1    0    0    0  501 -0.00000000000E+00 -0.00000000000E+00 -0.16185890292E+03  0.16185890292E+03  0.00000000000E+00 0.  1.
          5    1    1    2  502    0 -0.15353286559E+02 -0.81775176367E+01  0.29368535746E+02  0.34388639036E+02  0.41800000000E+01 0. -1.
         -5    1    1    2    0  502  0.20602081110E+02  0.19245992891E+02 -0.15420219862E+03  0.15681404417E+03  0.41800000000E+01 0.  1.
        -11    1    1    2    0    0 -0.36968732999E+01  0.10910871964E+02  0.17750033791E+02  0.21160758465E+02  0.00000000000E+00 0. -1.
         11    1    1    2    0    0 -0.15519212509E+01 -0.21979347219E+02  0.54704983610E+02  0.58975718694E+02  0.00000000000E+00 0.  1.
</event>
<event>
 6    1  0.5317355E-006  0.8732964E+02  0.7561462E-02  0.1309450E+00
         -2   -1    0    0    0  501 -0.00000000000E+00  0.00000000000E+00  0.37340940475E+03  0.37340940475E+03  0.00000000000E+00 0. -1.
          2   -1    0    0  501    0  0.00000000000E+00 -0.00000000000E+00 -0.90408934023E+02  0.90408934023E+02  0.00000000000E+00 0.  1.
          5    1    1    2  502    0  0.26280348959E+02 -0.22005972293E+02  0.13519200512E+02  0.37083159796E+02  0.41800000000E+01 0. -1.
         -5    1    1    2    0  502 -0.47393281141E+02 -0.37310351281E+02  0.30391385056E+03  0.30986978938E+03  0.41800000000E+01 0. -1.
        -11    1    1    2    0    0  0.12823825538E+02 -0.57643397767E+01 -0.47874273905E+02  0.49896134283E+02  0.00000000000E+00 0.  1.
         11    1    1    2    0    0  0.82891066448E+01  0.65080663351E+02  0.13441693560E+02  0.66969255311E+02  0.00000000000E+00 0. -1.
</event>
<event>
 6    1  0.5317355E-006  0.8136245E+02  0.7561462E-02  0.1325229E+00
         -2   -1    0    0    0  501 -0.00000000000E+00  0.00000000000E+00  0.55549055026E+02  0.55549055026E+02  0.00000000000E+00 0.  1.
          2   -1    0    0  501    0  0.00000000000E+00 -0.00000000000E+00 -0.22792254526E+03  0.22792254526E+03  0.00000000000E+00 0. -1.
          5    1    1    2  502    0  0.60103043243E+01  0.36941651456E+02 -0.78901675845E+02  0.87428577830E+02  0.41800000000E+01 0.  1.
         -5    1    1    2    0  502 -0.18674259799E+02 -0.47946591619E+02  0.15374485830E+02  0.53865117112E+02  0.41800000000E+01 0.  1.
        -11    1    1    2    0    0  0.23544256105E+02 -0.25878243235E+02 -0.95114986253E+02  0.10134533082E+03  0.00000000000E+00 0. -1.
         11    1    1    2    0    0 -0.10880300630E+02  0.36883183398E+02 -0.13731313969E+02  0.40832574529E+02  0.00000000000E+00 0.  1.
</event>
<event>
 6    1  0.5317355E-006  0.1653780E+03  0.7561462E-02  0.1182755E+00
         -2   -1    0    0    0  501 -0.00000000000E+00  0.00000000000E+00  0.42857192533E+02  0.42857192533E+02  0.00000000000E+00 0.  1.
          2   -1    0    0  501    0  0.00000000000E+00 -0.00000000000E+00 -0.85286814632E+03  0.85286814632E+03  0.00000000000E+00 0. -1.
          5    1    1    2  502    0 -0.43099050924E+01  0.89510009078E+02 -0.85595565751E+02  0.12399471877E+03  0.41800000000E+01 0.  1.
         -5    1    1    2    0  502  0.76853443025E+02  0.44038890823E+02 -0.24760048414E+03  0.26300066113E+03  0.41800000000E+01 0.  1.
        -11    1    1    2    0    0 -0.56833011447E+02 -0.11315731410E+03 -0.46197906940E+03  0.47901902831E+03  0.00000000000E+00 0. -1.
         11    1    1    2    0    0 -0.15710526486E+02 -0.20391585799E+02 -0.14835834496E+02  0.29710930633E+02  0.00000000000E+00 0.  1.
</event>
<event>
 6    1  0.5317355E-006  0.1586092E+03  0.7561462E-02  0.1190276E+00
          1   -1    0    0  501    0  0.00000000000E+00  0.00000000000E+00  0.41084800219E+03  0.41084800219E+03  0.00000000000E+00 0. -1.
         -1   -1    0    0    0  501 -0.00000000000E+00 -0.00000000000E+00 -0.83439289029E+02  0.83439289029E+02  0.00000000000E+00 0.  1.
          5    1    1    2  502    0 -0.11872037609E+03  0.92732522445E+02  0.66715411015E+02  0.16480979002E+03  0.41800000000E+01 0. -1.
         -5    1    1    2    0  502 -0.33433931741E+01 -0.23130806933E+02  0.53260159566E+02  0.58312344356E+02  0.41800000000E+01 0. -1.
        -11    1    1    2    0    0  0.82963057910E+02 -0.33226639841E+02  0.19759055381E+03  0.21686148927E+03  0.00000000000E+00 0. -1.
         11    1    1    2    0    0  0.39100711356E+02 -0.36375075671E+02  0.98425887695E+01  0.54303667577E+02  0.00000000000E+00 0.  1.
</event>
<event>
 6    1  0.5317355E-006  0.1381909E+03  0.7561462E-02  0.1215784E+00
          1   -1    0    0  501    0  0.00000000000E+00  0.00000000000E+00  0.67919473853E+03  0.67919473853E+03  0.00000000000E+00 0. -1.
         -1   -1    0    0    0  501 -0.00000000000E+00 -0.00000000000E+00 -0.33046685200E+02  0.33046685200E+02  0.00000000000E+00 0.  1.
          5    1    1    2  502    0  0.85835207686E+02  0.84101630017E+02  0.15423242171E+03  0.19556553724E+03  0.41800000000E+01 0. -1.
         -5    1    1    2    0  502 -0.13284248586E+02 -0.22025789125E+02  0.10078241394E+03  0.10409694523E+03  0.41800000000E+01 0. -1.
        -11    1    1    2    0    0 -0.90850915398E+02 -0.64780627410E+02  0.35262654247E+03  0.36985929348E+03  0.00000000000E+00 0.  1.
         11    1    1    2    0    0  0.18299956298E+02  0.27047865170E+01  0.38506675212E+02  0.42719647781E+02  0.00000000000E+00 0. -1.
</event>
<event>
 6    1  0.5317355E-006  0.1248517E+03  0.7561462E-02  0.1235301E+00
         -1   -1    0    0    0  501 -0.00000000000E+00  0.00000000000E+00  0.26486884445E+03  0.26486884445E+03  0.00000000000E+00 0.  1.
          1   -1    0    0  501    0  0.00000000000E+00 -0.00000000000E+00 -0.69962183895E+02  0.69962183895E+02  0.00000000000E+00 0. -1.
          5    1    1    2  502    0  0.54189369422E+02 -0.90920303188E+02  0.11142601584E+03  0.15374075158E+03  0.41800000000E+01 0.  1.
         -5    1    1    2    0  502 -0.17234758480E+02  0.32152540003E+02  0.48572134840E+02  0.60889633037E+02  0.41800000000E+01 0.  1.
        -11    1    1    2    0    0 -0.26451803919E+02 -0.16423934092E+02 -0.91098480886E+01  0.32441221830E+02  0.00000000000E+00 0. -1.
         11    1    1    2    0    0 -0.10502807023E+02  0.75191697276E+02  0.44018357970E+02  0.87759421904E+02  0.00000000000E+00 0.  1.
</event>
<event>
 6    1  0.5317355E-006  0.1047877E+03  0.7561462E-02  0.1270539E+00
          1   -1    0    0  501    0  0.00000000000E+00  0.00000000000E+00  0.48225235209E+03  0.48225235209E+03  0.00000000000E+00 0. -1.
         -1   -1    0    0    0  501 -0.00000000000E+00 -0.00000000000E+00 -0.38589497672E+02  0.38589497672E+02  0.00000000000E+00 0.  1.
          5    1    1    2  502    0  0.65439428472E+02 -0.27830119031E+02  0.15975495324E+03  0.17491698548E+03  0.41800000000E+01 0.  1.
         -5    1    1    2    0  502 -0.26941325173E+02 -0.31725740537E+02  0.25284176901E+01  0.41907313332E+02  0.41800000000E+01 0.  1.
        -11    1    1    2    0    0 -0.53521103690E+02  0.25494616366E+02  0.24461630008E+03  0.25169747370E+03  0.00000000000E+00 0. -1.
         11    1    1    2    0    0  0.15023000391E+02  0.34061243202E+02  0.36763183416E+02  0.52320077256E+02  0.00000000000E+00 0.  1.
</event>
<event>
 6    1  0.5317355E-006  0.1134228E+03  0.7561462E-02  0.1254359E+00
          2   -1    0    0  501    0  0.00000000000E+00  0.00000000000E+00  0.56863914750E+02  0.56863914750E+02  0.00000000000E+00 0. -1.
         -2   -1    0    0    0  501 -0.00000000000E+00 -0.00000000000E+00 -0.24403425231E+03  0.24403425231E+03  0.00000000000E+00 0.  1.
          5    1    1    2  502    0  0.70209602219E+02  0.48664598299E+02 -0.66265502772E+02  0.10819528931E+03  0.41800000000E+01 0. -1.
         -5    1    1    2    0  502 -0.27261521161E+02 -0.37944191934E+02 -0.44362776324E+02  0.64563771271E+02  0.41800000000E+01 0. -1.
        -11    1    1    2    0    0 -0.23404484307E+02  0.36468509800E+02 -0.10384910643E+02  0.44559717927E+02  0.00000000000E+00 0. -1.
         11    1    1    2    0    0 -0.19543596751E+02 -0.47188916165E+02 -0.66157147823E+02  0.83579388552E+02  0.00000000000E+00 0.  1.
</event>
<event>
 6    1  0.5317355E-006  0.9474793E+02  0.7561462E-02  0.1291745E+00
          2   -1    0    0  501    0  0.00000000000E+00  0.00000000000E+00  0.12719256202E+03  0.12719256202E+03  0.00000000000E+00 0. -1.
         -2   -1    0    0    0  501 -0.00000000000E+00 -0.00000000000E+00 -0.10715089177E+03  0.10715089177E+03  0.00000000000E+00 0.  1.
          5    1    1    2  502    0 -0.91545852128E+01  0.72920331985E+02 -0.35072185742E+02  0.81539633676E+02  0.41800000000E+01 0. -1.
         -5    1    1    2    0  502 -0.52290971806E+00 -0.47176474995E+02  0.11381543063E+02  0.48712474275E+02  0.41800000000E+01 0. -1.
        -11    1    1    2    0    0 -0.83752393544E+01 -0.42843573902E+02  0.60130006216E+02  0.74305680177E+02  0.00000000000E+00 0. -1.
         11    1    1    2    0    0  0.18052734285E+02  0.17099716911E+02 -0.16397693286E+02  0.29785665658E+02  0.00000000000E+00 0.  1.
</event>
<event>
 6    1  0.5317355E-006  0.1188681E+03  0.7561462E-02  0.1244976E+00
         -2   -1    0    0    0  501 -0.00000000000E+00  0.00000000000E+00  0.21717945174E+03  0.21717945174E+03  0.00000000000E+00 0.  1.
          2   -1    0    0  501    0  0.00000000000E+00 -0.00000000000E+00 -0.11962098713E+03  0.11962098713E+03  0.00000000000E+00 0. -1.
          5    1    1    2  502    0 -0.95823223759E+02  0.17408101239E+02  0.13165405673E+03  0.16381512523E+03  0.41800000000E+01 0.  1.
         -5    1    1    2    0  502  0.27931107106E+02  0.29737260933E+02  0.94811454474E+01  0.42092944194E+02  0.41800000000E+01 0.  1.
        -11    1    1    2    0    0  0.77557241295E+02 -0.40323516157E+02 -0.17565291255E+01  0.87431098742E+02  0.00000000000E+00 0.  1.
         11    1    1    2    0    0 -0.96651246415E+01 -0.68218460154E+01 -0.41820208443E+02  0.43461270709E+02  0.00000000000E+00 0. -1.
</event>
<event>
 6    1  0.5317355E-006  0.8189123E+02  0.7561462E-02  0.1323768E+00
          4   -1    0    0  501    0  0.00000000000E+00  0.00000000000E+00  0.48447251525E+02  0.48447251525E+02  0.00000000000E+00 0. -1.
         -4   -1    0    0    0  501 -0.00000000000E+00 -0.00000000000E+00 -0.34964553475E+03  0.34964553475E+03  0.00000000000E+00 0.  1.
          5    1    1    2  502    0 -0.48273697061E+02 -0.20777305442E+02 -0.13131566283E+03  0.14150378777E+03  0.41800000000E+01 0. -1.
         -5    1    1    2    0  502  0.53374147663E+02  0.52639359312E+02 -0.13483423305E+03  0.15432901409E+03  0.41800000000E+01 0. -1.
        -11    1    1    2    0    0 -0.10305898490E+02 -0.14059203228E+02  0.29957244308E+02  0.34659908044E+02  0.00000000000E+00 0. -1.
         11    1    1    2    0    0  0.52054478886E+01 -0.17802850642E+02 -0.65005631657E+02  0.67600076374E+02  0.00000000000E+00 0.  1.
</event>
<event>
 6    1  0.5317355E-006  0.1037622E+03  0.7561462E-02  0.1272578E+00
          3   -1    0    0  501    0  0.00000000000E+00  0.00000000000E+00  0.86041487980E+02  0.86041487980E+02  0.00000000000E+00 0. -1.
         -3   -1    0    0    0  501 -0.00000000000E+00 -0.00000000000E+00 -0.21153715370E+03  0.21153715370E+03  0.00000000000E+00 0.  1.
          5    1    1    2  502    0  0.83434413748E+01  0.17362890517E+00  0.24397400452E+02  0.26121805255E+02  0.41800000000E+01 0. -1.
         -5    1    1    2    0  502 -0.84326747557E+02 -0.74069250576E+01 -0.12138174035E+03  0.14804344694E+03  0.41800000000E+01 0.  1.
        -11    1    1    2    0    0  0.90819480966E+01 -0.33769641474E+02  0.94821546470E+01  0.36232329808E+02  0.00000000000E+00 0.  1.
         11    1    1    2    0    0  0.66901358086E+02  0.41002937627E+02 -0.37993480469E+02  0.87181059674E+02  0.00000000000E+00 0. -1.
</event>
<event>
 6    1  0.5317355E-006  0.1938439E+03  0.7561462E-02  0.1155039E+00
         -2   -1    0    0    0  501 -0.00000000000E+00  0.00000000000E+00  0.91893398377E+02  0.91893398377E+02  0.00000000000E+00 0.  1.
          2   -1    0    0  501    0  0.00000000000E+00 -0.00000000000E+00 -0.47233568360E+03  0.47233568360E+03  0.00000000000E+00 0. -1.
          5    1    1    2  502    0 -0.13068407748E+03  0.94484681298E+01 -0.14953951304E+03  0.19886462737E+03  0.41800000000E+01 0. -1.
         -5    1    1    2    0  502 -0.39693616847E+02 -0.48557081127E+02 -0.95135685417E+00  0.62862952729E+02  0.41800000000E+01 0.  1.
        -11    1    1    2    0    0  0.13979033513E+03 -0.52142448182E+01 -0.18747508603E+03  0.23391330451E+03  0.00000000000E+00 0. -1.
         11    1    1    2    0    0  0.30587359200E+02  0.44322857815E+02 -0.42476329290E+02  0.68588197364E+02  0.00000000000E+00 0.  1.
</event>
<event>
 6    1  0.5317355E-006  0.9054277E+02  0.7561462E-02  0.1301543E+00
          2   -1    0    0  501    0  0.00000000000E+00  0.00000000000E+00  0.26312306950E+02  0.26312306950E+02  0.00000000000E+00 0. -1.
         -2   -1    0    0    0  501 -0.00000000000E+00 -0.00000000000E+00 -0.50312419911E+03  0.50312419911E+03  0.00000000000E+00 0.  1.
          5    1    1    2  502    0  0.38371568989E+02 -0.38642034483E+02 -0.21025776306E+03  0.21723577851E+03  0.41800000000E+01 0.  1.
         -5    1    1    2    0  502 -0.83543360479E+01  0.60505285859E+02 -0.77810809652E+02  0.99008479669E+02  0.41800000000E+01 0.  1.
        -11    1    1    2    0    0  0.13430988459E+02 -0.16792286388E+02 -0.22301597551E+01  0.21618185531E+02  0.00000000000E+00 0. -1.
         11    1    1    2    0    0 -0.43448221400E+02 -0.50709649881E+01 -0.18651315969E+03  0.19157406236E+03  0.00000000000E+00 0.  1.
</event>
<event>
 6    1  0.5317355E-006  0.2229011E+03  0.7561462E-02  0.1131739E+00
          2   -1    0    0  501    0  0.00000000000E+00  0.00000000000E+00  0.54771259775E+03  0.54771259775E+03  0.00000000000E+00 0. -1.
         -2   -1    0    0    0  501 -0.00000000000E+00 -0.00000000000E+00 -0.11142837601E+03  0.11142837601E+03  0.00000000000E+00 0.  1.
          5    1    1    2  502    0 -0.29265752944E+02 -0.54052008091E+02  0.13055554408E+03  0.14436178983E+03  0.41800000000E+01 0. -1.
         -5    1    1    2    0  502 -0.89030590282E+02 -0.13114934193E+03  0.49690655041E+02  0.16617228858E+03  0.41800000000E+01 0. -1.
        -11    1    1    2    0    0  0.74726853792E+02  0.69730733303E+02  0.16929499383E+03  0.19775558850E+03  0.00000000000E+00 0. -1.
         11    1    1    2    0    0  0.43569489434E+02  0.11547061672E+03  0.86743028787E+02  0.15085130685E+03  0.00000000000E+00 0.  1.
</event>
<event>
 6    1  0.5317355E-006  0.9315105E+02  0.7561462E-02  0.1295396E+00
         -1   -1    0    0    0  501 -0.00000000000E+00  0.00000000000E+00  0.56238072730E+02  0.56238072730E+02  0.00000000000E+00 0.  1.
          1   -1    0    0  501    0  0.00000000000E+00 -0.00000000000E+00 -0.34358606656E+03  0.34358606656E+03  0.00000000000E+00 0. -1.
          5    1    1    2  502    0  0.43926630688E+02 -0.60067084766E+01  0.25079088412E+02  0.51108340864E+02  0.41800000000E+01 0. -1.
         -5    1    1    2    0  502 -0.49843406122E+02  0.17986577322E+02 -0.58534701857E+02  0.79067476367E+02  0.41800000000E+01 0. -1.
        -11    1    1    2    0    0 -0.40878417437E+02 -0.79813490016E+01 -0.90204395095E+02  0.99355824382E+02  0.00000000000E+00 0.  1.
         11    1    1    2    0    0  0.46795192871E+02 -0.39985198435E+01 -0.16368798529E+03  0.17029249767E+03  0.00000000000E+00 0. -1.
</event>
<event>
 6    1  0.5317355E-006  0.2151256E+03  0.7561462E-02  0.1137570E+00
          2   -1    0    0  501    0  0.00000000000E+00  0.00000000000E+00  0.36744084168E+03  0.36744084168E+03  0.00000000000E+00 0. -1.
         -2   -1    0    0    0  501 -0.00000000000E+00 -0.00000000000E+00 -0.14711453521E+03  0.14711453521E+03  0.00000000000E+00 0.  1.
          5    1    1    2  502    0 -0.28101734402E+02  0.98396234796E+02  0.76197294091E+02  0.12765197423E+03  0.41800000000E+01 0.  1.
         -5    1    1    2    0  502 -0.12907457412E+03  0.20004231360E+02  0.10313666420E+03  0.16647840358E+03  0.41800000000E+01 0.  1.
        -11    1    1    2    0    0  0.53959636902E+02 -0.33572895769E+02 -0.28708091204E+02  0.69734756366E+02  0.00000000000E+00 0.  1.
         11    1    1    2    0    0  0.10321667162E+03 -0.84827570388E+02  0.69700439382E+02  0.15069024271E+03  0.00000000000E+00 0. -1.
</event>
<event>
 6    1  0.5317355E-006  0.9971753E+02  0.7561462E-02  0.1280891E+00
          4   -1    0    0  501    0  0.00000000000E+00  0.00000000000E+00  0.25301147447E+03  0.25301147447E+03  0.00000000000E+00 0. -1.
         -4   -1    0    0    0  501 -0.00000000000E+00 -0.00000000000E+00 -0.69193303136E+02  0.69193303136E+02  0.00000000000E+00 0.  1.
          5    1    1    2  502    0 -0.73250434646E+02  0.22485020314E+02  0.87755115541E+02  0.11657458993E+03  0.41800000000E+01 0. -1.
         -5    1    1    2    0  502  0.10718639952E+02 -0.87872794426E+00 -0.33149486985E+02  0.35100175108E+02  0.41800000000E+01 0. -1.
        -11    1    1    2    0    0  0.21063715956E+02  0.35083656693E+02  0.43675672316E+02  0.59850709679E+02  0.00000000000E+00 0.  1.
         11    1    1    2    0    0  0.41468078738E+02 -0.56689949063E+02  0.85536870458E+02  0.11067930288E+03  0.00000000000E+00 0. -1.
</event>
<event>
 6    1  0.5317355E-006  0.1182837E+03  0.7561462E-02  0.1245955E+00
         -2   -1    0    0    0  501 -0.00000000000E+00  0.00000000000E+00  0.22082515666E+03  0.22082515666E+03  0.00000000000E+00 0.  1.
          2   -1    0    0  501    0  0.00000000000E+00 -0.00000000000E+00 -0.11554474176E+03  0.11554474176E+03  0.00000000000E+00 0. -1.
          5    1    1    2  502    0  0.55180042476E+01 -0.88670136689E+02  0.19332206752E+02  0.91016746422E+02  0.41800000000E+01 0. -1.
         -5    1    1    2    0  502  0.43136086180E+02  0.10507397014E+01  0.99447017545E+02  0.10848505742E+03  0.41800000000E+01 0. -1.
        -11    1    1    2    0    0 -0.91980474191E+00  0.27481661400E+02  0.36161326433E+02  0.45428287261E+02  0.00000000000E+00 0.  1.
         11    1    1    2    0    0 -0.47734285685E+02  0.60137735588E+02 -0.49660135829E+02  0.91439807317E+02  0.00000000000E+00 0. -1.
</event>
<event>
 6    1  0.5317355E-006  0.1156511E+03  0.7561462E-02  0.1250449E+00
          2   -1    0    0  501    0  0.00000000000E+00  0.00000000000E+00  0.86509131709E+02  0.86509131709E+02  0.00000000000E+00 0. -1.
         -2   -1    0    0    0  501 -0.00000000000E+00 -0.00000000000E+00 -0.22815968138E+03  0.22815968138E+03  0.00000000000E+00 0.  1.
          5    1    1    2  502    0  0.33515765721E+02 -0.49082765565E+02 -0.63152724464E+02  0.86822597489E+02  0.41800000000E+01 0.  1.
         -5    1    1    2    0  502  0.46709572324E+02  0.66138615930E+02 -0.16853097539E+02  0.82810627099E+02  0.41800000000E+01 0.  1.
        -11    1    1    2    0    0 -0.37455157528E+02 -0.27680485383E+02  0.21220607726E+02  0.51180194302E+02  0.00000000000E+00 0. -1.
         11    1    1    2    0    0 -0.42770180517E+02  0.10624635018E+02 -0.82865335396E+02  0.93855394203E+02  0.00000000000E+00 0.  1.
</event>
<event>
 6    1  0.5317355E-006  0.8367709E+02  0.7561462E-02  0.1318929E+00
         -2   -1    0    0    0  501 -0.00000000000E+00  0.00000000000E+00  0.36855498172E+03  0.36855498172E+03  0.00000000000E+00 0.  1.
          2   -1    0    0  501    0  0.00000000000E+00 -0.00000000000E+00 -0.58913416360E+02  0.58913416360E+02  0.00000000000E+00 0. -1.
          5    1    1    2  502    0  0.19433997983E+02  0.14060088829E+02  0.40737646580E+01  0.24686723841E+02  0.41800000000E+01 0.  1.
         -5    1    1    2    0  502 -0.41418939482E+02 -0.64016448613E+02  0.28389236871E+03  0.29398296490E+03  0.41800000000E+01 0.  1.
        -11    1    1    2    0    0 -0.11046850923E+02  0.11425884516E+02  0.48751375445E+02  0.51276508852E+02  0.00000000000E+00 0.  1.
         11    1    1    2    0    0  0.33031792421E+02  0.38530475268E+02 -0.27075943452E+02  0.57522200486E+02  0.00000000000E+00 0. -1.
</event>
<event>
 6    1  0.5317355E-006  0.1015291E+03  0.7561462E-02  0.1277113E+00
          2   -1    0    0  501    0  0.00000000000E+00  0.00000000000E+00  0.43924057393E+03  0.43924057393E+03  0.00000000000E+00 0. -1.
         -2   -1    0    0    0  501 -0.00000000000E+00 -0.00000000000E+00 -0.35287876476E+02  0.35287876476E+02  0.00000000000E+00 0.  1.
          5    1    1    2  502    0  0.24224387872E+02  0.55636188286E-01  0.14352110127E+03  0.14561113615E+03  0.41800000000E+01 0. -1.
         -5    1    1    2    0  502 -0.52954470238E+02 -0.48717233094E+02  0.36563272804E+02  0.80820109111E+02  0.41800000000E+01 0. -1.
        -11    1    1    2    0    0  0.45174578046E+02 -0.93241188271E+01  0.84902977499E+02  0.96623999512E+02  0.00000000000E+00 0. -1.
         11    1    1    2    0    0 -0.16444495680E+02  0.57985715732E+02  0.13896534589E+03  0.15147320563E+03  0.00000000000E+00 0.  1.
</event>
<event>
 6    1  0.5317355E-006  0.2312676E+03  0.7561462E-02  0.1125751E+00
          2   -1    0    0  501    0  0.00000000000E+00  0.00000000000E+00  0.12624312382E+04  0.12624312382E+04  0.00000000000E+00 0. -1.
         -2   -1    0    0    0  501 -0.00000000000E+00 -0.00000000000E+00 -0.44439606153E+02  0.44439606153E+02  0.00000000000E+00 0.  1.
          5    1    1    2  502    0  0.12901068602E+02 -0.19187451282E+02  0.53589724188E+02  0.58514329837E+02  0.41800000000E+01 0.  1.
         -5    1    1    2    0  502  0.90870564172E+02  0.19946310434E+03  0.49941630661E+03  0.54541462130E+03  0.41800000000E+01 0.  1.
        -11    1    1    2    0    0 -0.40529209757E+02 -0.15630843257E+02  0.70162221882E+02  0.82520770015E+02  0.00000000000E+00 0.  1.
         11    1    1    2    0    0 -0.63242423016E+02 -0.16464480980E+03  0.59482337933E+03  0.62042112315E+03  0.00000000000E+00 0. -1.
</event>
<event>
 6    1  0.5317355E-006  0.9684922E+02  0.7561462E-02  0.1287065E+00
          1   -1    0    0  501    0  0.00000000000E+00  0.00000000000E+00  0.52623362469E+02  0.52623362469E+02  0.00000000000E+00 0. -1.
         -1   -1    0    0    0  501 -0.00000000000E+00 -0.00000000000E+00 -0.32505770766E+03  0.32505770766E+03  0.00000000000E+00 0.  1.
          5    1    1    2  502    0  0.11575878673E+02  0.54309646391E+02 -0.28065739866E+02  0.62359416389E+02  0.41800000000E+01 0.  1.
         -5    1    1    2    0  502 -0.40566382380E+02 -0.75429953083E+01 -0.19402046360E+03  0.19840347994E+03  0.41800000000E+01 0.  1.
        -11    1    1    2    0    0 -0.14797143536E+01  0.21620305846E+02 -0.33947653849E+02  0.40274934901E+02  0.00000000000E+00 0.  1.
         11    1    1    2    0    0  0.30470218061E+02 -0.68386956929E+02 -0.16400487881E+02  0.76643238902E+02  0.00000000000E+00 0. -1.
</event>
<event>
 6    1  0.5317355E-006  0.1000413E+03  0.7561462E-02  0.1280209E+00
          2   -1    0    0  501    0  0.00000000000E+00  0.00000000000E+00  0.30109788834E+03  0.30109788834E+03  0.00000000000E+00 0. -1.
         -2   -1    0    0    0  501 -0.00000000000E+00 -0.00000000000E+00 -0.45665085483E+02  0.45665085483E+02  0.00000000000E+00 0.  1.
          5    1    1    2  502    0 -0.22342092704E+02 -0.68530523207E+02  0.15489316220E+03  0.17089460440E+03  0.41800000000E+01 0. -1.
         -5    1    1    2    0  502  0.15644413331E+02  0.23371200940E+02 -0.57775067911E+01  0.29014008454E+02  0.41800000000E+01 0. -1.
        -11    1    1    2    0    0 -0.40779554682E+02  0.25259845913E+02  0.65339987294E+02  0.81057669811E+02  0.00000000000E+00 0.  1.
         11    1    1    2    0    0  0.47477234055E+02  0.19899476353E+02  0.40977160152E+02  0.65796691154E+02  0.00000000000E+00 0. -1.
</event>
<event>
 6    1  0.5317355E-006  0.1052543E+03  0.7561462E-02  0.1269619E+00
         -1   -1    0    0    0  501 -0.00000000000E+00  0.00000000000E+00  0.65344654812E+02  0.65344654812E+02  0.00000000000E+00 0.  1.
          1   -1    0    0  501    0  0.00000000000E+00 -0.00000000000E+00 -0.40680356943E+03  0.40680356943E+03  0.00000000000E+00 0. -1.
          5    1    1    2  502    0 -0.37381299294E+02  0.52555163958E+02  0.15158467646E+02  0.66382665937E+02  0.41800000000E+01 0. -1.
         -5    1    1    2    0  502  0.23380137487E+02 -0.49416467164E+02 -0.22348002245E+02  0.59207462876E+02  0.41800000000E+01 0.  1.
        -11    1    1    2    0    0  0.52497056996E+02 -0.13463208440E+01 -0.20888295708E+03  0.21538301542E+03  0.00000000000E+00 0.  1.
         11    1    1    2    0    0 -0.38495895188E+02 -0.17923759504E+01 -0.12538642293E+03  0.13117508000E+03  0.00000000000E+00 0. -1.
</event>
<event>
 6    1  0.5317355E-006  0.8856149E+02  0.7561462E-02  0.1306373E+00
         -2   -1    0    0    0  501 -0.00000000000E+00  0.00000000000E+00  0.85306278627E+02  0.85306278627E+02  0.00000000000E+00 0.  1.
          2   -1    0    0  501    0  0.00000000000E+00 -0.00000000000E+00 -0.20952409498E+03  0.20952409498E+03  0.00000000000E+00 0. -1.
          5    1    1    2  502    0 -0.57377059001E+01 -0.70750280513E+00 -0.66371491909E+02  0.66753795154E+02  0.41800000000E+01 0.  1.
         -5    1    1    2    0  502 -0.56875026206E+02 -0.19786988468E+02  0.46264443617E+02  0.76053695912E+02  0.41800000000E+01 0.  1.
        -11    1    1    2    0    0  0.77905383572E+02 -0.69426912195E+01 -0.63904012275E+02  0.10100085413E+03  0.00000000000E+00 0. -1.
         11    1    1    2    0    0 -0.15292651466E+02  0.27437182493E+02 -0.40206755788E+02  0.51022028409E+02  0.00000000000E+00 0.  1.
</event>
<event>
 6    1  0.5568585E-006  0.1655251E+03  0.7561462E-02  0.1182596E+00
          2   -1    0    0  501    0  0.00000000000E+00  0.00000000000E+00  0.20210695245E+03  0.20210695245E+03  0.00000000000E+00 0. -1.
         -2   -1    0    0    0  501 -0.00000000000E+00 -0.00000000000E+00 -0.14960841441E+03  0.14960841441E+03  0.00000000000E+00 0.  1.
          5    1    1    2  502    0  0.73094102830E+02  0.37546231666E+02 -0.30718140964E+02  0.87826783871E+02  0.41800000000E+01 0.  1.
         -5    1    1    2    0  502  0.58297164741E+02 -0.66005131496E+02  0.37851783543E+02  0.95945123472E+02  0.41800000000E+01 0.  1.
        -11    1    1    2    0    0 -0.65222665662E+02 -0.30482140985E+02  0.10672007919E+02  0.72780827063E+02  0.00000000000E+00 0.  1.
         11    1    1    2    0    0 -0.66168601909E+02  0.58941040815E+02  0.34692887542E+02  0.95162632461E+02  0.00000000000E+00 0. -1.
</event>
<event>
 6    1  0.5317355E-006  0.1115077E+03  0.7561462E-02  0.1257803E+00
         -2   -1    0    0    0  501 -0.00000000000E+00  0.00000000000E+00  0.66054758242E+02  0.66054758242E+02  0.00000000000E+00 0. -1.
          2   -1    0    0  501    0  0.00000000000E+00 -0.00000000000E+00 -0.24957393472E+03  0.24957393472E+03  0.00000000000E+00 0.  1.
          5    1    1    2  502    0  0.45505682030E+02 -0.36229207946E+02 -0.65827589984E+02  0.87943542165E+02  0.41800000000E+01 0.  1.
         -5    1    1    2    0  502  0.64754054488E+01  0.57238026407E+02  0.12590128416E+02  0.59110965786E+02  0.41800000000E+01 0.  1.
        -11    1    1    2    0    0  0.38029392398E+01 -0.45758681209E+02 -0.53904197607E+02  0.70809475161E+02  0.00000000000E+00 0.  1.
         11    1    1    2    0    0 -0.55784026719E+02  0.24749862749E+02 -0.76377517308E+02  0.97764709855E+02  0.00000000000E+00 0. -1.
</event>
<event>
 6    1  0.5317355E-006  0.1709953E+03  0.7561462E-02  0.1176814E+00
         -2   -1    0    0    0  501 -0.00000000000E+00  0.00000000000E+00  0.15877530998E+03  0.15877530998E+03  0.00000000000E+00 0.  1.
          2   -1    0    0  501    0  0.00000000000E+00 -0.00000000000E+00 -0.31976917645E+03  0.31976917645E+03  0.00000000000E+00 0. -1.
          5    1    1    2  502    0  0.71723094732E+02 -0.38025295590E+01 -0.32718572700E+02  0.79035681490E+02  0.41800000000E+01 0. -1.
         -5    1    1    2    0  502  0.68933544331E+02  0.64592813458E+02  0.81218236130E+02  0.12465127101E+03  0.41800000000E+01 0. -1.
        -11    1    1    2    0    0 -0.30420398849E+02  0.22067733710E+02 -0.65248429733E+02  0.75297696644E+02  0.00000000000E+00 0. -1.
         11    1    1    2    0    0 -0.11023624021E+03 -0.82858017608E+02 -0.14424510017E+03  0.19955983729E+03  0.00000000000E+00 0.  1.
</event>
<event>
 6    1  0.5317355E-006  0.1638390E+03  0.7561462E-02  0.1184429E+00
          2   -1    0    0  501    0  0.00000000000E+00  0.00000000000E+00  0.19183859602E+03  0.19183859602E+03  0.00000000000E+00 0. -1.
         -2   -1    0    0    0  501 -0.00000000000E+00 -0.00000000000E+00 -0.15455770919E+03  0.15455770919E+03  0.00000000000E+00 0.  1.
          5    1    1    2  502    0  0.98414021122E+01  0.34821454983E+02  0.52888539710E+01  0.36808033077E+02  0.41800000000E+01 0. -1.
         -5    1    1    2    0  502  0.10168085974E+03 -0.10113605190E+03  0.42797943030E+02  0.14972185732E+03  0.41800000000E+01 0. -1.
        -11    1    1    2    0    0 -0.26632854417E+02  0.56322343451E+02 -0.34435205624E+02  0.71184961140E+02  0.00000000000E+00 0.  1.
         11    1    1    2    0    0 -0.84889407433E+02  0.99922534675E+01  0.23629295453E+02  0.88681453683E+02  0.00000000000E+00 0. -1.
</event>
<event>
 6    1  0.5317355E-006  0.1088255E+03  0.7561462E-02  0.1262760E+00
          2   -1    0    0  501    0  0.00000000000E+00  0.00000000000E+00  0.24978566047E+02  0.24978566047E+02  0.00000000000E+00 0. -1.
         -2   -1    0    0    0  501 -0.00000000000E+00 -0.00000000000E+00 -0.71380087940E+03  0.71380087940E+03  0.00000000000E+00 0.  1.
          5    1    1    2  502    0  0.71433047806E+02 -0.55667908128E+02 -0.45719571842E+03  0.46609762246E+03  0.41800000000E+01 0. -1.
         -5    1    1    2    0  502 -0.12596833439E+02  0.28103582743E+02 -0.39784223301E+02  0.50485130478E+02  0.41800000000E+01 0. -1.
        -11    1    1    2    0    0 -0.69156705954E+02  0.39889733162E+02 -0.95285585216E+02  0.12431083436E+03  0.00000000000E+00 0. -1.
         11    1    1    2    0    0  0.10320491587E+02 -0.12325407777E+02 -0.96556786416E+02  0.97885858154E+02  0.00000000000E+00 0.  1.
</event>
<event>
 6    1  0.5317355E-006  0.1086286E+03  0.7561462E-02  0.1263131E+00
          1   -1    0    0  501    0  0.00000000000E+00  0.00000000000E+00  0.46508807329E+02  0.46508807329E+02  0.00000000000E+00 0. -1.
         -1   -1    0    0    0  501 -0.00000000000E+00 -0.00000000000E+00 -0.30686768823E+03  0.30686768823E+03  0.00000000000E+00 0.  1.
          5    1    1    2  502    0  0.71386424304E+01 -0.37877536125E+02 -0.67874747490E+02  0.78167267481E+02  0.41800000000E+01 0.  1.
         -5    1    1    2    0  502 -0.96676040600E+01  0.89403410567E+02 -0.61354166689E+02  0.10894144555E+03  0.41800000000E+01 0.  1.
        -11    1    1    2    0    0  0.37047243261E+02 -0.30991846505E+02 -0.11160625501E+03  0.12160982255E+03  0.00000000000E+00 0.  1.
         11    1    1    2    0    0 -0.34518281632E+02 -0.20534027937E+02 -0.19523711710E+02  0.44657959974E+02  0.00000000000E+00 0. -1.
</event>
<event>
 6    1  0.5317355E-006  0.9570618E+02  0.7561462E-02  0.1289593E+00
          2   -1    0    0  501    0  0.00000000000E+00  0.00000000000E+00  0.30411973981E+03  0.30411973981E+03  0.00000000000E+00 0.  1.
         -2   -1    0    0    0  501 -0.00000000000E+00 -0.00000000000E+00 -0.74286207393E+02  0.74286207393E+02  0.00000000000E+00 0. -1.
          5    1    1    2  502    0 -0.61723778163E+02 -0.42702475479E+02  0.50021037268E+02  0.90293425963E+02  0.41800000000E+01 0.  1.
         -5    1    1    2    0  502  0.13558461772E+02  0.21494970430E+02 -0.38045596756E+02  0.45943503044E+02  0.41800000000E+01 0.  1.
        -11    1    1    2    0    0  0.12550730074E+02 -0.27451864348E+02  0.14246477596E+03  0.14562739465E+03  0.00000000000E+00 0.  1.
         11    1    1    2    0    0  0.35614586318E+02  0.48659369398E+02  0.75393315942E+02  0.96541623550E+02  0.00000000000E+00 0. -1.
</event>
<event>
 6    1  0.5317355E-006  0.1086912E+03  0.7561462E-02  0.1263013E+00
          2   -1    0    0  501    0  0.00000000000E+00  0.00000000000E+00  0.18736678452E+03  0.18736678452E+03  0.00000000000E+00 0. -1.
         -2   -1    0    0    0  501 -0.00000000000E+00 -0.00000000000E+00 -0.96737692256E+02  0.96737692256E+02  0.00000000000E+00 0.  1.
          5    1    1    2  502    0  0.36515460649E+01  0.71386482114E+02 -0.27671358028E+02  0.76762882127E+02  0.41800000000E+01 0. -1.
         -5    1    1    2    0  502 -0.36624805538E+02  0.11482311930E+01  0.67309707797E+02  0.76751312558E+02  0.41800000000E+01 0. -1.
        -11    1    1    2    0    0  0.35805480734E+02 -0.87042068368E+02  0.61520793320E+02  0.11244181663E+03  0.00000000000E+00 0. -1.
         11    1    1    2    0    0 -0.28322212611E+01  0.14507355061E+02 -0.10530050826E+02  0.18148465460E+02  0.00000000000E+00 0.  1.
</event>
<event>
 6    1  0.5317355E-006  0.8293499E+02  0.7561462E-02  0.1320923E+00
         -1   -1    0    0    0  501 -0.00000000000E+00  0.00000000000E+00  0.78818249688E+02  0.78818249688E+02  0.00000000000E+00 0.  1.
          1   -1    0    0  501    0  0.00000000000E+00 -0.00000000000E+00 -0.15147647747E+03  0.15147647747E+03  0.00000000000E+00 0. -1.
          5    1    1    2  502    0 -0.60230266593E+02 -0.31801895690E+02 -0.51163801922E+02  0.85289229159E+02  0.41800000000E+01 0. -1.
         -5    1    1    2    0  502  0.21400862658E+02  0.16726398256E+02  0.22934915497E+02  0.35794581573E+02  0.41800000000E+01 0.  1.
        -11    1    1    2    0    0  0.27960417341E+02  0.36587271219E+02  0.12224942276E+02  0.47643074699E+02  0.00000000000E+00 0.  1.
         11    1    1    2    0    0  0.10868986595E+02 -0.21511773785E+02 -0.56654283635E+02  0.61567841729E+02  0.00000000000E+00 0. -1.
</event>
<event>
 6    1  0.5317355E-006  0.1497660E+03  0.7561462E-02  0.1200761E+00
         -1   -1    0    0    0  501 -0.00000000000E+00  0.00000000000E+00  0.26776811843E+02  0.26776811843E+02  0.00000000000E+00 0.  1.
          1   -1    0    0  501    0  0.00000000000E+00 -0.00000000000E+00 -0.96389225257E+03  0.96389225257E+03  0.00000000000E+00 0. -1.
          5    1    1    2  502    0  0.10452626152E+03  0.88878575205E+02 -0.31381444285E+03  0.34252316334E+03  0.41800000000E+01 0. -1.
         -5    1    1    2    0  502 -0.19647318680E+02 -0.56152945407E+01 -0.16760873444E+03  0.16890147698E+03  0.41800000000E+01 0. -1.
        -11    1    1    2    0    0 -0.41590716048E+02  0.61715578677E+01 -0.76974178619E+02  0.87709178322E+02  0.00000000000E+00 0.  1.
         11    1    1    2    0    0 -0.43288226794E+02 -0.89434838532E+02 -0.37871808481E+03  0.39153524577E+03  0.00000000000E+00 0. -1.
</event>
<event>
 6    1  0.5317355E-006  0.1424894E+03  0.7561462E-02  0.1210018E+00
         -2   -1    0    0    0  501 -0.00000000000E+00  0.00000000000E+00  0.12704640862E+03  0.12704640862E+03  0.00000000000E+00 0.  1.
          2   -1    0    0  501    0  0.00000000000E+00 -0.00000000000E+00 -0.23198210895E+03  0.23198210895E+03  0.00000000000E+00 0. -1.
          5    1    1    2  502    0 -0.68344406932E+02  0.44206348973E+02 -0.33040621048E+02  0.87944950325E+02  0.41800000000E+01 0. -1.
         -5    1    1    2    0  502 -0.39919412784E+02 -0.59311249395E+02  0.48519496390E+02  0.86504322157E+02  0.41800000000E+01 0.  1.
        -11    1    1    2    0    0  0.71353751410E+02 -0.26615753621E+02 -0.38013808255E+02  0.85116424967E+02  0.00000000000E+00 0. -1.
         11    1    1    2    0    0  0.36910068306E+02  0.41720654043E+02 -0.82400767419E+02  0.99462820126E+02  0.00000000000E+00 0.  1.
</event>
<event>
 6    1  0.5317355E-006  0.9381313E+02  0.7561462E-02  0.1293872E+00
          1   -1    0    0  501    0  0.00000000000E+00  0.00000000000E+00  0.19081578353E+03  0.19081578353E+03  0.00000000000E+00 0. -1.
         -1   -1    0    0    0  501 -0.00000000000E+00 -0.00000000000E+00 -0.65440132396E+02  0.65440132396E+02  0.00000000000E+00 0.  1.
          5    1    1    2  502    0  0.44837608719E+02 -0.31234052848E+02 -0.19155694873E+02  0.58055062303E+02  0.41800000000E+01 0. -1.
         -5    1    1    2    0  502 -0.40220506632E+02  0.13293910607E+02  0.55365110845E+02  0.69836846377E+02  0.41800000000E+01 0.  1.
        -11    1    1    2    0    0 -0.24078923222E+01  0.54037601204E+02  0.39742355181E+02  0.67121643935E+02  0.00000000000E+00 0.  1.
         11    1    1    2    0    0 -0.22092097651E+01 -0.36097458963E+02  0.49423879978E+02  0.61242363307E+02  0.00000000000E+00 0. -1.
</event>
<event>
 6    1  0.5317355E-006  0.1292906E+03  0.7561462E-02  0.1228512E+00
          2   -1    0    0  501    0  0.00000000000E+00  0.00000000000E+00  0.92123584314E+03  0.92123584314E+03  0.00000000000E+00 0.  1.
         -2   -1    0    0    0  501 -0.00000000000E+00 -0.00000000000E+00 -0.19041600255E+02  0.19041600255E+02  0.00000000000E+00 0. -1.
          5    1    1    2  502    0 -0.35393806197E+02  0.10430716648E+03  0.39393985038E+03  0.40907063523E+03  0.41800000000E+01 0.  1.
         -5    1    1    2    0  502  0.35296896903E+01 -0.34868803496E+02  0.93926866402E+02  0.10033952760E+03  0.41800000000E+01 0.  1.
        -11    1    1    2    0    0  0.60099383128E+02 -0.39570096557E+02  0.19799860490E+03  0.21066840280E+03  0.00000000000E+00 0.  1.
         11    1    1    2    0    0 -0.28235266622E+02 -0.29868266423E+02  0.21632892121E+03  0.22019887777E+03  0.00000000000E+00 0. -1.
</event>
<event>
 6    1  0.5317355E-006  0.1487631E+03  0.7561462E-02  0.1202001E+00
         -1   -1    0    0    0  501 -0.00000000000E+00  0.00000000000E+00  0.68639812806E+02  0.68639812806E+02  0.00000000000E+00 0.  1.
          1   -1    0    0  501    0  0.00000000000E+00 -0.00000000000E+00 -0.43913921818E+03  0.43913921818E+03  0.00000000000E+00 0. -1.
          5    1    1    2  502    0 -0.11407268821E+03 -0.72852686889E+02 -0.63351678938E+02  0.14950250769E+03  0.41800000000E+01 0.  1.
         -5    1    1    2    0  502  0.22691592414E+02 -0.16204630881E+02 -0.63944325093E+02  0.69884530047E+02  0.41800000000E+01 0.  1.
        -11    1    1    2    0    0  0.41647280212E+02  0.68357026783E+02 -0.67791304295E+02  0.10489442310E+03  0.00000000000E+00 0.  1.
         11    1    1    2    0    0  0.49733815581E+02  0.20700290987E+02 -0.17541209705E+03  0.18349757015E+03  0.00000000000E+00 0. -1.
</event>
<event>
 6    1  0.5317355E-006  0.1120284E+03  0.7561462E-02  0.1256859E+00
          1   -1    0    0  501    0  0.00000000000E+00  0.00000000000E+00  0.48993897994E+02  0.48993897994E+02  0.00000000000E+00 0. -1.
         -1   -1    0    0    0  501 -0.00000000000E+00 -0.00000000000E+00 -0.30520498155E+03  0.30520498155E+03  0.00000000000E+00 0.  1.
          5    1    1    2  502    0 -0.84378894800E+02 -0.44523521220E+02 -0.11185660063E+03  0.14707655603E+03  0.41800000000E+01 0.  1.
         -5    1    1    2    0  502  0.32194431298E+02  0.25605533891E+02 -0.47064040661E+02  0.62646796373E+02  0.41800000000E+01 0.  1.
        -11    1    1    2    0    0  0.44795947797E+02 -0.18943868581E+02 -0.93902788877E+02  0.10575103241E+03  0.00000000000E+00 0.  1.
         11    1    1    2    0    0  0.73885157052E+01  0.37861855910E+02 -0.33876533919E+01  0.38724494739E+02  0.00000000000E+00 0. -1.
</event>
<event>
 6    1  0.5317355E-006  0.9202370E+02  0.7561462E-02  0.1298024E+00
          3   -1    0    0  501    0  0.00000000000E+00  0.00000000000E+00  0.35485251062E+02  0.35485251062E+02  0.00000000000E+00 0. -1.
         -3   -1    0    0    0  501 -0.00000000000E+00 -0.00000000000E+00 -0.43974490325E+03  0.43974490325E+03  0.00000000000E+00 0.  1.
          5    1    1    2  502    0  0.72768631450E+02 -0.12135300921E+02 -0.61427421779E+02  0.96090269008E+02  0.41800000000E+01 0. -1.
         -5    1    1    2    0  502 -0.12862918743E+02  0.95471067389E+01 -0.19289734044E+03  0.19360645205E+03  0.41800000000E+01 0. -1.
        -11    1    1    2    0    0 -0.76248832974E+02  0.72840157161E+01 -0.69848549430E+02  0.10366176379E+03  0.00000000000E+00 0. -1.
         11    1    1    2    0    0  0.16343120267E+02 -0.46958215343E+01 -0.80086340538E+02  0.81871669463E+02  0.00000000000E+00 0.  1.
</event>
<event>
 6    1  0.5317355E-006  0.1008563E+03  0.7561462E-02  0.1278506E+00
          1   -1    0    0  501    0  0.00000000000E+00  0.00000000000E+00  0.32671446064E+02  0.32671446064E+02  0.00000000000E+00 0. -1.
         -1   -1    0    0    0  501 -0.00000000000E+00 -0.00000000000E+00 -0.56556601447E+03  0.56556601447E+03  0.00000000000E+00 0.  1.
          5    1    1    2  502    0  0.34504331707E+02 -0.12867696503E+02 -0.30299582065E+03  0.30525410112E+03  0.41800000000E+01 0.  1.
         -5    1    1    2    0  502  0.21345920212E+02 -0.44604590170E+02 -0.26661712956E+02  0.56334155818E+02  0.41800000000E+01 0.  1.
        -11    1    1    2    0    0 -0.73239967134E+02  0.63176978101E+02 -0.13547974778E+03  0.16646376605E+03  0.00000000000E+00 0. -1.
         11    1    1    2    0    0  0.17389715216E+02 -0.57046914276E+01 -0.67757287012E+02  0.70185437541E+02  0.00000000000E+00 0.  1.
</event>
<event>
 6    1  0.5317355E-006  0.2222472E+03  0.7561462E-02  0.1132219E+00
          1   -1    0    0  501    0  0.00000000000E+00  0.00000000000E+00  0.46121255158E+03  0.46121255158E+03  0.00000000000E+00 0. -1.
         -1   -1    0    0    0  501 -0.00000000000E+00 -0.00000000000E+00 -0.12005953853E+03  0.12005953853E+03  0.00000000000E+00 0.  1.
          5    1    1    2  502    0 -0.59505711031E+02 -0.51569055701E+02  0.37495854803E+02  0.87313851585E+02  0.41800000000E+01 0. -1.
         -5    1    1    2    0  502  0.10869385308E+03  0.18317561459E+03  0.11996229767E+03  0.24449148194E+03  0.41800000000E+01 0.  1.
        -11    1    1    2    0    0 -0.43511466396E+02 -0.35029258080E+02  0.12344565794E+03  0.13549585637E+03  0.00000000000E+00 0.  1.
         11    1    1    2    0    0 -0.56766756515E+01 -0.96577300812E+02  0.60249202634E+02  0.11397090022E+03  0.00000000000E+00 0. -1.
</event>
<event>
 6    1  0.5317355E-006  0.1134396E+03  0.7561462E-02  0.1254330E+00
         -1   -1    0    0    0  501 -0.00000000000E+00  0.00000000000E+00  0.59259134912E+03  0.59259134912E+03  0.00000000000E+00 0.  1.
          1   -1    0    0  501    0  0.00000000000E+00 -0.00000000000E+00 -0.34786336722E+02  0.34786336722E+02  0.00000000000E+00 0. -1.
          5    1    1    2  502    0  0.24379151566E+01 -0.77192096706E+02  0.96749012506E+02  0.12386447047E+03  0.41800000000E+01 0.  1.
         -5    1    1    2    0  502 -0.24974682696E+02 -0.40125089226E+01  0.29192930271E+03  0.29305293922E+03  0.41800000000E+01 0.  1.
        -11    1    1    2    0    0  0.46508166699E+02  0.87518647372E+02  0.14664438942E+03  0.17699463313E+03  0.00000000000E+00 0.  1.
         11    1    1    2    0    0 -0.23971399159E+02 -0.63140417437E+01  0.22482307762E+02  0.33465643025E+02  0.00000000000E+00 0. -1.
</event>
<event>
 6    1  0.5317355E-006  0.9759741E+02  0.7561462E-02  0.1285431E+00
         -1   -1    0    0    0  501 -0.00000000000E+00  0.00000000000E+00  0.77403256626E+03  0.77403256626E+03  0.00000000000E+00 0.  1.
          1   -1    0    0  501    0  0.00000000000E+00 -0.00000000000E+00 -0.25607608959E+02  0.25607608959E+02  0.00000000000E+00 0. -1.
          5    1    1    2  502    0 -0.37914720522E+01  0.92204263643E+01  0.37441317669E+03  0.37456920696E+03  0.41800000000E+01 0.  1.
         -5    1    1    2    0  502 -0.78570102197E+02 -0.17612352664E+02  0.14316577569E+03  0.16430875708E+03  0.41800000000E+01 0.  1.
        -11    1    1    2    0    0  0.89533466047E+02 -0.37968120282E+01  0.22971388065E+03  0.24657478437E+03  0.00000000000E+00 0.  1.
         11    1    1    2    0    0 -0.71718917976E+01  0.12188738328E+02  0.11321242716E+01  0.14187426805E+02  0.00000000000E+00 0. -1.
</event>
<event>
 6    1  0.5317355E-006  0.1449131E+03  0.7561462E-02  0.1206867E+00
         -2   -1    0    0    0  501 -0.00000000000E+00  0.00000000000E+00  0.18762517582E+03  0.18762517582E+03  0.00000000000E+00 0.  1.
          2   -1    0    0  501    0  0.00000000000E+00 -0.00000000000E+00 -0.15932385531E+03  0.15932385531E+03  0.00000000000E+00 0. -1.
          5    1    1    2  502    0 -0.11389406537E+03 -0.42257005684E+01 -0.12693862764E+02  0.11475330594E+03  0.41800000000E+01 0. -1.
         -5    1    1    2    0  502  0.76817841849E+02  0.32335535566E+02  0.88420794895E+02  0.12158238794E+03  0.41800000000E+01 0.  1.
        -11    1    1    2    0    0 -0.22026710961E+02 -0.24744012171E+02  0.24315919644E+01  0.33216784516E+02  0.00000000000E+00 0.  1.
         11    1    1    2    0    0  0.59102934479E+02 -0.33658228271E+01 -0.49857203586E+02  0.77396552745E+02  0.00000000000E+00 0. -1.
</event>
<event>
 6    1  0.5317355E-006  0.9526412E+02  0.7561462E-02  0.1290582E+00
          1   -1    0    0  501    0  0.00000000000E+00  0.00000000000E+00  0.29602105104E+03  0.29602105104E+03  0.00000000000E+00 0. -1.
         -1   -1    0    0    0  501 -0.00000000000E+00 -0.00000000000E+00 -0.46160709568E+02  0.46160709568E+02  0.00000000000E+00 0.  1.
          5    1    1    2  502    0  0.29149912735E+02  0.73764756473E+02  0.46416197033E+02  0.91993980548E+02  0.41800000000E+01 0.  1.
         -5    1    1    2    0  502 -0.31949496524E+02 -0.32255980023E+02  0.71921475658E+02  0.85155091663E+02  0.41800000000E+01 0.  1.
        -11    1    1    2    0    0 -0.20271877649E+02 -0.36723957455E+02  0.12601168890E+02  0.43799401046E+02  0.00000000000E+00 0.  1.
         11    1    1    2    0    0  0.23071461437E+02 -0.47848189949E+01  0.11892149989E+03  0.12123328735E+03  0.00000000000E+00 0. -1.
</event>
<event>
 6    1  0.5317355E-006  0.1527004E+03  0.7561462E-02  0.1197193E+00
         -1   -1    0    0    0  501 -0.00000000000E+00  0.00000000000E+00  0.11677764193E+03  0.11677764193E+03  0.00000000000E+00 0.  1.
          1   -1    0    0  501    0  0.00000000000E+00 -0.00000000000E+00 -0.21032743139E+03  0.21032743139E+03  0.00000000000E+00 0. -1.
          5    1    1    2  502    0 -0.24675412111E+02 -0.15428661089E+02 -0.33432608286E+01  0.29590020933E+02  0.41800000000E+01 0. -1.
         -5    1    1    2    0  502  0.13117321722E+03  0.36556045872E+02 -0.14478620559E+02  0.13700313960E+03  0.41800000000E+01 0. -1.
        -11    1    1    2    0    0 -0.80107763895E+02  0.27284535226E+02 -0.33312150433E+02  0.90947232312E+02  0.00000000000E+00 0. -1.
         11    1    1    2    0    0 -0.26390041215E+02 -0.48411920009E+02 -0.42415757641E+02  0.69564680482E+02  0.00000000000E+00 0.  1.
</event>
<event>
 6    1  0.5317355E-006  0.1155856E+03  0.7561462E-02  0.1250562E+00
         -1   -1    0    0    0  501 -0.00000000000E+00  0.00000000000E+00  0.12410811808E+03  0.12410811808E+03  0.00000000000E+00 0.  1.
          1   -1    0    0  501    0  0.00000000000E+00 -0.00000000000E+00 -0.11127455297E+03  0.11127455297E+03  0.00000000000E+00 0. -1.
          5    1    1    2  502    0  0.61324697009E+02  0.37113840444E+02  0.16642582618E+02  0.73706197649E+02  0.41800000000E+01 0. -1.
         -5    1    1    2    0  502 -0.64132420294E+02 -0.63654738655E+01  0.92205139020E+01  0.65237848423E+02  0.41800000000E+01 0.  1.
        -11    1    1    2    0    0  0.44782691746E+02 -0.38860972552E+01 -0.12281189537E+02  0.46598485473E+02  0.00000000000E+00 0. -1.
         11    1    1    2    0    0 -0.41974968462E+02 -0.26862269323E+02 -0.74834187495E+00  0.49840139507E+02  0.00000000000E+00 0.  1.
</event>
<event>
 6    1  0.5317355E-006  0.1360869E+03  0.7561462E-02  0.1218693E+00
         -1   -1    0    0    0  501 -0.00000000000E+00  0.00000000000E+00  0.45875492527E+02  0.45875492527E+02  0.00000000000E+00 0.  1.
          1   -1    0    0  501    0  0.00000000000E+00 -0.00000000000E+00 -0.46721614664E+03  0.46721614664E+03  0.00000000000E+00 0. -1.
          5    1    1    2  502    0  0.19344535827E+02 -0.18882305793E+02 -0.75221220177E+02  0.80040345473E+02  0.41800000000E+01 0. -1.
         -5    1    1    2    0  502 -0.10703699871E+03  0.59491737652E+02 -0.12481608531E+03  0.17490772852E+03  0.41800000000E+01 0. -1.
        -11    1    1    2    0    0 -0.12754157267E+02 -0.12789005264E+02 -0.61612875192E+01  0.19083727286E+02  0.00000000000E+00 0.  1.
         11    1    1    2    0    0  0.10044662015E+03 -0.27820426594E+02 -0.21514206111E+03  0.23905983789E+03  0.00000000000E+00 0. -1.
</event>
<event>
 6    1  0.5317355E-006  0.9329205E+02  0.7561462E-02  0.1295070E+00
         -2   -1    0    0    0  501 -0.00000000000E+00  0.00000000000E+00  0.24874946731E+03  0.24874946731E+03  0.00000000000E+00 0.  1.
          2   -1    0    0  501    0  0.00000000000E+00 -0.00000000000E+00 -0.64012707826E+02  0.64012707826E+02  0.00000000000E+00 0. -1.
          5    1    1    2  502    0  0.43922805300E+02 -0.33537328119E+02  0.10247291474E+02  0.56359955512E+02  0.41800000000E+01 0. -1.
         -5    1    1    2    0  502  0.95173408858E+01  0.67176417981E+02  0.10492799188E+03  0.12502242515E+03  0.41800000000E+01 0. -1.
        -11    1    1    2    0    0 -0.36678645795E+02 -0.21821833580E+02  0.91734355691E+02  0.10117661534E+03  0.00000000000E+00 0.  1.
         11    1    1    2    0    0 -0.16761500391E+02 -0.11817256281E+02 -0.22172879564E+02  0.30203179129E+02  0.00000000000E+00 0. -1.
</event>
<event>
 6    1  0.5317355E-006  0.1610839E+03  0.7561462E-02  0.1187478E+00
          1   -1    0    0  501    0  0.00000000000E+00  0.00000000000E+00  0.64902349555E+02  0.64902349555E+02  0.00000000000E+00 0. -1.
         -1   -1    0    0    0  501 -0.00000000000E+00 -0.00000000000E+00 -0.65729095549E+03  0.65729095549E+03  0.00000000000E+00 0.  1.
          5    1    1    2  502    0  0.73572112089E+02 -0.13355913689E+03 -0.46074739494E+03  0.48534166632E+03  0.41800000000E+01 0. -1.
         -5    1    1    2    0  502 -0.99968516177E+01 -0.48475868518E+01  0.36646264411E+01  0.12423285697E+02  0.41800000000E+01 0. -1.
        -11    1    1    2    0    0 -0.37258978550E+02  0.35229399762E+02  0.12161476923E+01  0.51291530542E+02  0.00000000000E+00 0. -1.
         11    1    1    2    0    0 -0.26316281922E+02  0.10317732398E+03 -0.13652198514E+03  0.17313682249E+03  0.00000000000E+00 0.  1.
</event>
<event>
 6    1  0.5317355E-006  0.9653606E+02  0.7561462E-02  0.1287753E+00
         -4   -1    0    0    0  501 -0.00000000000E+00  0.00000000000E+00  0.33960836485E+03  0.33960836485E+03  0.00000000000E+00 0.  1.
          4   -1    0    0  501    0  0.00000000000E+00 -0.00000000000E+00 -0.51952604876E+02  0.51952604876E+02  0.00000000000E+00 0. -1.
          5    1    1    2  502    0  0.10194766346E+02 -0.78137006520E+02  0.63124236563E+02  0.10105180201E+03  0.41800000000E+01 0. -1.
         -5    1    1    2    0  502 -0.70821929667E+01  0.17346566350E+02  0.16521300457E+03  0.16632459259E+03  0.41800000000E+01 0. -1.
        -11    1    1    2    0    0 -0.37564596226E+02  0.24079792093E+02  0.58830315608E+02  0.73837262350E+02  0.00000000000E+00 0.  1.
         11    1    1    2    0    0  0.34452022847E+02  0.36710648078E+02  0.48820323016E+00  0.50347312768E+02  0.00000000000E+00 0. -1.
</event>
<event>
 6    1  0.5317355E-006  0.1023453E+03  0.7561462E-02  0.1275440E+00
         -1   -1    0    0    0  501 -0.00000000000E+00  0.00000000000E+00  0.31504239575E+03  0.31504239575E+03  0.00000000000E+00 0.  1.
          1   -1    0    0  501    0  0.00000000000E+00 -0.00000000000E+00 -0.45481652381E+02  0.45481652381E+02  0.00000000000E+00 0. -1.
          5    1    1    2  502    0  0.33536505226E+02  0.30536176633E+02  0.14893985614E+03  0.15574886328E+03  0.41800000000E+01 0.  1.
         -5    1    1    2    0  502 -0.61380677542E+02 -0.23827599820E+02  0.58502811489E+02  0.88178191413E+02  0.41800000000E+01 0.  1.
        -11    1    1    2    0    0  0.55201243140E+02  0.16151520575E+02  0.56281373147E+02  0.80471372701E+02  0.00000000000E+00 0.  1.
         11    1    1    2    0    0 -0.27357070824E+02 -0.22860097388E+02  0.58367025964E+01  0.36125620740E+02  0.00000000000E+00 0. -1.
</event>
<event>
 6    1  0.5317355E-006  0.1174837E+03  0.7561462E-02  0.1247307E+00
         -1   -1    0    0    0  501 -0.00000000000E+00  0.00000000000E+00  0.40780894411E+03  0.40780894411E+03  0.00000000000E+00 0.  1.
          1   -1    0    0  501    0  0.00000000000E+00 -0.00000000000E+00 -0.54139722021E+02  0.54139722021E+02  0.00000000000E+00 0. -1.
          5    1    1    2  502    0 -0.76916596264E+02  0.20283890387E+02  0.21827678589E+03  0.23235711018E+03  0.41800000000E+01 0. -1.
         -5    1    1    2    0  502  0.32154591963E+02 -0.43131145206E+02  0.11000491092E+03  0.12252659425E+03  0.41800000000E+01 0. -1.
        -11    1    1    2    0    0  0.62056722367E+02  0.42467745413E+02  0.79177900003E+01  0.75612416903E+02  0.00000000000E+00 0. -1.
         11    1    1    2    0    0 -0.17294718066E+02 -0.19620490594E+02  0.17469735277E+02  0.31452544807E+02  0.00000000000E+00 0.  1.
</event>
<event>
 6    1  0.5317355E-006  0.7936478E+02  0.7561462E-02  0.1330864E+00
         -1   -1    0    0    0  501 -0.00000000000E+00  0.00000000000E+00  0.15995764951E+04  0.15995764951E+04  0.00000000000E+00 0.  1.
          1   -1    0    0  501    0  0.00000000000E+00 -0.00000000000E+00 -0.10119112728E+02  0.10119112728E+02  0.00000000000E+00 0. -1.
          5    1    1    2  502    0  0.33757818608E+02 -0.23177790789E+02  0.11915541903E+04  0.11922649291E+04  0.41800000000E+01 0. -1.
         -5    1    1    2    0  502 -0.32480319195E+02  0.73701636161E+01  0.10115276477E+03  0.10657694247E+03  0.41800000000E+01 0. -1.
        -11    1    1    2    0    0 -0.36205736584E+02  0.29280651653E+02  0.96657377543E+02  0.10728867860E+03  0.00000000000E+00 0. -1.
         11    1    1    2    0    0  0.34928237171E+02 -0.13473024480E+02  0.20009304974E+03  0.20356505765E+03  0.00000000000E+00 0.  1.
</event>
<event>
 6    1  0.5317355E-006  0.1409618E+03  0.7561462E-02  0.1212041E+00
          2   -1    0    0  501    0  0.00000000000E+00  0.00000000000E+00  0.65946039509E+02  0.65946039509E+02  0.00000000000E+00 0. -1.
         -2   -1    0    0    0  501 -0.00000000000E+00 -0.00000000000E+00 -0.36862502075E+03  0.36862502075E+03  0.00000000000E+00 0.  1.
          5    1    1    2  502    0 -0.10623268060E+02  0.26540963674E+02 -0.46310805366E+02  0.54584243795E+02  0.41800000000E+01 0.  1.
         -5    1    1    2    0  502  0.46719492399E+02 -0.12599410633E+03 -0.16771691915E+03  0.21495037373E+03  0.41800000000E+01 0.  1.
        -11    1    1    2    0    0 -0.12699575816E+02  0.93618746668E+02 -0.26125087683E+02  0.98021779008E+02  0.00000000000E+00 0. -1.
         11    1    1    2    0    0 -0.23396648524E+02  0.58343959854E+01 -0.62526169039E+02  0.67014663719E+02  0.00000000000E+00 0.  1.
</event>
<event>
 6    1  0.5317355E-006  0.1576923E+03  0.7561462E-02  0.1191327E+00
          1   -1    0    0  501    0  0.00000000000E+00  0.00000000000E+00  0.48354289621E+03  0.48354289621E+03  0.00000000000E+00 0. -1.
         -1   -1    0    0    0  501 -0.00000000000E+00 -0.00000000000E+00 -0.55483735088E+02  0.55483735088E+02  0.00000000000E+00 0.  1.
          5    1    1    2  502    0 -0.10695477133E+02 -0.27900517864E+02  0.92490915877E+02  0.97287584243E+02  0.41800000000E+01 0.  1.
         -5    1    1    2    0  502 -0.87538458406E+02  0.99486682685E+02  0.13310173155E+03  0.18786730709E+03  0.41800000000E+01 0.  1.
        -11    1    1    2    0    0  0.10124704135E+03 -0.22839227059E+02  0.14727229650E+03  0.18017137118E+03  0.00000000000E+00 0.  1.
         11    1    1    2    0    0 -0.30131058106E+01 -0.48746937762E+02  0.55194217185E+02  0.73700368781E+02  0.00000000000E+00 0. -1.
</event>
<event>
 6    1  0.5317355E-006  0.6748394E+02  0.7561462E-02  0.1368864E+00
          1   -1    0    0  501    0  0.00000000000E+00  0.00000000000E+00  0.10521781707E+03  0.10521781707E+03  0.00000000000E+00 0. -1.
         -1   -1    0    0    0  501 -0.00000000000E+00 -0.00000000000E+00 -0.11634288765E+03  0.11634288765E+03  0.00000000000E+00 0.  1.
          5    1    1    2  502    0 -0.20938416884E+02 -0.15314691886E+02  0.28455380547E+02  0.38731617204E+02  0.41800000000E+01 0. -1.
         -5    1    1    2    0  502  0.10608365697E+02  0.40542438485E+02 -0.71619406868E+02  0.83084526725E+02  0.41800000000E+01 0.  1.
        -11    1    1    2    0    0  0.32596982045E+02  0.43539927106E+00  0.51229843583E+02  0.60722727907E+02  0.00000000000E+00 0. -1.
         11    1    1    2    0    0 -0.22266930857E+02 -0.25663145870E+02 -0.19190887845E+02  0.39021832889E+02  0.00000000000E+00 0.  1.
</event>
<event>
 6    1  0.5317355E-006  0.1109955E+03  0.7561462E-02  0.1258737E+00
         -1   -1    0    0    0  501 -0.00000000000E+00  0.00000000000E+00  0.13284012441E+03  0.13284012441E+03  0.00000000000E+00 0.  1.
          1   -1    0    0  501    0  0.00000000000E+00 -0.00000000000E+00 -0.10905004844E+03  0.10905004844E+03  0.00000000000E+00 0. -1.
          5    1    1    2  502    0  0.59433793941E+02 -0.77153482692E+01 -0.17383367881E+02  0.62542436314E+02  0.41800000000E+01 0. -1.
         -5    1    1    2    0  502 -0.31990413616E+02  0.49319882017E+02  0.46875670184E+02  0.75303639890E+02  0.41800000000E+01 0. -1.
        -11    1    1    2    0    0 -0.58217289558E+02 -0.10376059693E+02 -0.10060952148E+02  0.59984482797E+02  0.00000000000E+00 0. -1.
         11    1    1    2    0    0  0.30773909233E+02 -0.31228474056E+02  0.43587258164E+01  0.44059613844E+02  0.00000000000E+00 0.  1.
</event>
<event>
 6    1  0.5317355E-006  0.1050715E+03  0.7561462E-02  0.1269979E+00
          2   -1    0    0  501    0  0.00000000000E+00  0.00000000000E+00  0.28824597795E+02  0.28824597795E+02  0.00000000000E+00 0. -1.
         -2   -1    0    0    0  501 -0.00000000000E+00 -0.00000000000E+00 -0.48629594241E+03  0.48629594241E+03  0.00000000000E+00 0.  1.
          5    1    1    2  502    0 -0.46459800236E+02  0.16211692733E+02 -0.84974652326E+02  0.98282734787E+02  0.41800000000E+01 0. -1.
         -5    1    1    2    0  502  0.53048978777E+02 -0.65307515357E+02 -0.19023129295E+03  0.20804971263E+03  0.41800000000E+01 0. -1.
        -11    1    1    2    0    0 -0.12249651420E+02  0.61591890978E+02 -0.18449499197E+03  0.19488975616E+03  0.00000000000E+00 0.  1.
         11    1    1    2    0    0  0.56604728794E+01 -0.12496068354E+02  0.22295926296E+01  0.13898336621E+02  0.00000000000E+00 0. -1.
</event>
<event>
 6    1  0.5317355E-006  0.1492570E+03  0.7561462E-02  0.1201389E+00
         -1   -1    0    0    0  501 -0.00000000000E+00  0.00000000000E+00  0.41229367353E+02  0.41229367353E+02  0.00000000000E+00 0.  1.
          1   -1    0    0  501    0  0.00000000000E+00 -0.00000000000E+00 -0.71838977315E+03  0.71838977315E+03  0.00000000000E+00 0. -1.
          5    1    1    2  502    0 -0.11334891022E+02  0.11595404670E+02  0.52902117062E+01  0.17561090622E+02  0.41800000000E+01 0. -1.
         -5    1    1    2    0  502 -0.11551033166E+03 -0.49206610919E+02 -0.35746584449E+03  0.37889738671E+03  0.41800000000E+01 0. -1.
        -11    1    1    2    0    0  0.77472209249E+02 -0.20256266158E+02 -0.11768203058E+03  0.14234226304E+03  0.00000000000E+00 0.  1.
         11    1    1    2    0    0  0.49373013434E+02  0.57867472406E+02 -0.20730274243E+03  0.22081840013E+03  0.00000000000E+00 0. -1.
</event>
<event>
 6    1  0.5317355E-006  0.1733775E+03  0.7561462E-02  0.1174371E+00
          2   -1    0    0  501    0  0.00000000000E+00  0.00000000000E+00  0.87139862120E+02  0.87139862120E+02  0.00000000000E+00 0. -1.
         -2   -1    0    0    0  501 -0.00000000000E+00 -0.00000000000E+00 -0.43785281241E+03  0.43785281241E+03  0.00000000000E+00 0.  1.
          5    1    1    2  502    0 -0.23007831819E+01 -0.76429831641E+01 -0.77766026449E+02  0.78286244414E+02  0.41800000000E+01 0.  1.
         -5    1    1    2    0  502 -0.65605926955E+02  0.15435007855E+03 -0.12095392470E+03  0.20682216685E+03  0.41800000000E+01 0.  1.
        -11    1    1    2    0    0 -0.33345615460E+01 -0.48702822348E+02 -0.45255154444E+01  0.49026161337E+02  0.00000000000E+00 0. -1.
         11    1    1    2    0    0  0.71241271683E+02 -0.98004273035E+02 -0.14746748370E+03  0.19085810193E+03  0.00000000000E+00 0.  1.
</event>
<event>
 6    1  0.5317355E-006  0.9226140E+02  0.7561462E-02  0.1297466E+00
          1   -1    0    0  501    0  0.00000000000E+00  0.00000000000E+00  0.15902136692E+03  0.15902136692E+03  0.00000000000E+00 0. -1.
         -1   -1    0    0    0  501 -0.00000000000E+00 -0.00000000000E+00 -0.87257303426E+02  0.87257303426E+02  0.00000000000E+00 0.  1.
          5    1    1    2  502    0 -0.59995358349E+02 -0.24618534103E+02  0.30312383632E+02  0.71706542562E+02  0.41800000000E+01 0. -1.
         -5    1    1    2    0  502  0.17555849411E+02  0.16134890623E+02 -0.40914745239E+02  0.47539786726E+02  0.41800000000E+01 0.  1.
        -11    1    1    2    0    0  0.67758186724E+02 -0.23324526070E+01  0.48363383217E+02  0.83280424108E+02  0.00000000000E+00 0. -1.
         11    1    1    2    0    0 -0.25318677787E+02  0.10816096088E+02  0.34003041881E+02  0.43751916948E+02  0.00000000000E+00 0.  1.
</event>
<event>
 6    1  0.5317355E-006  0.1368071E+03  0.7561462E-02  0.1217691E+00
          2   -1    0    0  501    0  0.00000000000E+00  0.00000000000E+00  0.94885431678E+03  0.94885431678E+03  0.00000000000E+00 0. -1.
         -2   -1    0    0    0  501 -0.00000000000E+00 -0.00000000000E+00 -0.27645067386E+02  0.27645067386E+02  0.00000000000E+00 0.  1.
          5    1    1    2  502    0  0.19655723107E+02 -0.10464752480E+02  0.14397886495E+02  0.26844553094E+02  0.41800000000E+01 0.  1.
         -5    1    1    2    0  502 -0.39477974033E+02  0.12681945878E+03  0.41329757209E+03  0.43413597069E+03  0.41800000000E+01 0.  1.
        -11    1    1    2    0    0  0.45806497105E+01 -0.35108138113E+02  0.35619148738E+02  0.50222380174E+02  0.00000000000E+00 0.  1.
         11    1    1    2    0    0  0.15241601216E+02 -0.81246568185E+02  0.45789464207E+03  0.46529648020E+03  0.00000000000E+00 0. -1.
</event>
<event>
 6    1  0.5317355E-006  0.9970050E+02  0.7561462E-02  0.1280927E+00
          1   -1    0    0  501    0  0.00000000000E+00  0.00000000000E+00  0.21837799687E+03  0.21837799687E+03  0.00000000000E+00 0. -1.
         -1   -1    0    0    0  501 -0.00000000000E+00 -0.00000000000E+00 -0.60048321303E+02  0.60048321303E+02  0.00000000000E+00 0.  1.
          5    1    1    2  502    0 -0.31452431773E+02  0.32173291148E+02  0.66496363457E+02  0.80396609883E+02  0.41800000000E+01 0. -1.
         -5    1    1    2    0  502  0.56620890719E+02 -0.23016344107E+02 -0.51307280600E+01  0.61477427827E+02  0.41800000000E+01 0. -1.
        -11    1    1    2    0    0 -0.58301635403E+02  0.95470473505E+00  0.43096439883E+02  0.72507208486E+02  0.00000000000E+00 0. -1.
         11    1    1    2    0    0  0.33133176458E+02 -0.10111651776E+02  0.53867600288E+02  0.64045071978E+02  0.00000000000E+00 0.  1.
</event>
<event>
 6    1  0.5317355E-006  0.1606801E+03  0.7561462E-02  0.1187931E+00
          1   -1    0    0  501    0  0.00000000000E+00  0.00000000000E+00  0.93883129484E+02  0.93883129484E+02  0.00000000000E+00 0. -1.
         -1   -1    0    0    0  501 -0.00000000000E+00 -0.00000000000E+00 -0.31963297466E+03  0.31963297466E+03  0.00000000000E+00 0.  1.
          5    1    1    2  502    0  0.10331759435E+02  0.33090943449E+02 -0.59978851412E+02  0.69402383303E+02  0.41800000000E+01 0. -1.
         -5    1    1    2    0  502  0.77405819439E+02 -0.11203590051E+03 -0.13063430408E+03  0.18874982831E+03  0.41800000000E+01 0. -1.
        -11    1    1    2    0    0 -0.24621782570E+02  0.83372829217E+02 -0.29674213210E+02  0.91857605881E+02  0.00000000000E+00 0.  1.
         11    1    1    2    0    0 -0.63115796304E+02 -0.44278721597E+01 -0.54624764750E+01  0.63506286651E+02  0.00000000000E+00 0. -1.
</event>
<event>
 6    1  0.5317355E-006  0.1186480E+03  0.7561462E-02  0.1245344E+00
         -1   -1    0    0    0  501 -0.00000000000E+00  0.00000000000E+00  0.10040926462E+03  0.10040926462E+03  0.00000000000E+00 0.  1.
          1   -1    0    0  501    0  0.00000000000E+00 -0.00000000000E+00 -0.35297239074E+03  0.35297239074E+03  0.00000000000E+00 0. -1.
          5    1    1    2  502    0  0.57989321382E+02  0.29252458558E+02 -0.19129692252E+02  0.67837196667E+02  0.41800000000E+01 0. -1.
         -5    1    1    2    0  502 -0.38569589364E+02  0.41093627426E+02  0.52367144590E+02  0.77046023072E+02  0.41800000000E+01 0.  1.
        -11    1    1    2    0    0 -0.43207331971E+02 -0.79279185232E+02 -0.23361002820E+03  0.25045100923E+03  0.00000000000E+00 0.  1.
         11    1    1    2    0    0  0.23787599953E+02  0.89330992486E+01 -0.52190550262E+02  0.58047426389E+02  0.00000000000E+00 0. -1.
</event>
<event>
 6    1  0.5317355E-006  0.1815417E+03  0.7561462E-02  0.1166319E+00
         -1   -1    0    0    0  501 -0.00000000000E+00  0.00000000000E+00  0.42691026260E+02  0.42691026260E+02  0.00000000000E+00 0.  1.
          1   -1    0    0  501    0  0.00000000000E+00 -0.00000000000E+00 -0.93434902033E+03  0.93434902033E+03  0.00000000000E+00 0. -1.
          5    1    1    2  502    0 -0.76399622475E+02  0.10255629003E+03 -0.14162650888E+03  0.19086706200E+03  0.41800000000E+01 0. -1.
         -5    1    1    2    0  502  0.10899599858E+03 -0.37857952738E+02 -0.35444302954E+03  0.37277430958E+03  0.41800000000E+01 0.  1.
        -11    1    1    2    0    0 -0.13782008529E+02 -0.88366744437E+02 -0.30904087665E+03  0.32172175668E+03  0.00000000000E+00 0.  1.
         11    1    1    2    0    0 -0.18814367576E+02  0.23668407148E+02 -0.86547578989E+02  0.91676918322E+02  0.00000000000E+00 0. -1.
</event>
<event>
 6    1  0.5317355E-006  0.1127536E+03  0.7561462E-02  0.1255554E+00
          1   -1    0    0  501    0  0.00000000000E+00  0.00000000000E+00  0.54628969618E+02  0.54628969618E+02  0.00000000000E+00 0. -1.
         -1   -1    0    0    0  501 -0.00000000000E+00 -0.00000000000E+00 -0.26496954831E+03  0.26496954831E+03  0.00000000000E+00 0.  1.
          5    1    1    2  502    0  0.91417129803E+00 -0.91082923102E+02 -0.66440033626E+02  0.11282147428E+03  0.41800000000E+01 0. -1.
         -5    1    1    2    0  502 -0.89787023778E+01  0.40060504411E+02 -0.56891096876E+02  0.70281792904E+02  0.41800000000E+01 0. -1.
        -11    1    1    2    0    0  0.12597976991E+02  0.71236004896E+02 -0.90102681869E+02  0.11554986239E+03  0.00000000000E+00 0.  1.
         11    1    1    2    0    0 -0.45334459111E+01 -0.20213586206E+02  0.30932336746E+01  0.20945388363E+02  0.00000000000E+00 0. -1.
</event>
<event>
 6    1  0.5317355E-006  0.1357794E+03  0.7561462E-02  0.1219124E+00
          1   -1    0    0  501    0  0.00000000000E+00  0.00000000000E+00  0.35523677838E+02  0.35523677838E+02  0.00000000000E+00 0. -1.
         -1   -1    0    0    0  501 -0.00000000000E+00 -0.00000000000E+00 -0.66267396486E+03  0.66267396486E+03  0.00000000000E+00 0.  1.
          5    1    1    2  502    0 -0.11048577188E+03 -0.25084028076E+02 -0.31336392138E+03  0.33324275517E+03  0.41800000000E+01 0. -1.
         -5    1    1    2    0  502  0.23457016622E+02  0.25613855459E+02 -0.17046815214E+03  0.17402058647E+03  0.41800000000E+01 0. -1.
        -11    1    1    2    0    0  0.78847864881E+02 -0.36088420667E+02 -0.11836662761E+03  0.14673110929E+03  0.00000000000E+00 0.  1.
         11    1    1    2    0    0  0.81808903814E+01  0.35558593284E+02 -0.24951585896E+02  0.44203191768E+02  0.00000000000E+00 0. -1.
</event>
<event>
 6    1  0.5317355E-006  0.9380130E+02  0.7561462E-02  0.1293899E+00
         -1   -1    0    0    0  501 -0.00000000000E+00  0.00000000000E+00  0.12613125515E+03  0.12613125515E+03  0.00000000000E+00 0.  1.
          1   -1    0    0  501    0  0.00000000000E+00 -0.00000000000E+00 -0.10062393122E+03  0.10062393122E+03  0.00000000000E+00 0. -1.
          5    1    1    2  502    0  0.40272193518E+01 -0.53763820379E+02  0.19393663351E+02  0.57448702819E+02  0.41800000000E+01 0.  1.
         -5    1    1    2    0  502  0.20524463137E+02  0.71456017001E+02  0.18837346341E+02  0.76808423821E+02  0.41800000000E+01 0.  1.
        -11    1    1    2    0    0 -0.35697011270E+02 -0.26826476051E+02  0.25658155137E+02  0.51500265591E+02  0.00000000000E+00 0.  1.
         11    1    1    2    0    0  0.11145328781E+02  0.91342794295E+01 -0.38381840892E+02  0.40997794143E+02  0.00000000000E+00 0. -1.
</event>
<event>
 6    1  0.5317355E-006  0.9216493E+02  0.7561462E-02  0.1297692E+00
          1   -1    0    0  501    0  0.00000000000E+00  0.00000000000E+00  0.13476207446E+03  0.13476207446E+03  0.00000000000E+00 0. -1.
         -1   -1    0    0    0  501 -0.00000000000E+00 -0.00000000000E+00 -0.12772913942E+03  0.12772913942E+03  0.00000000000E+00 0.  1.
          5    1    1    2  502    0 -0.30762921629E+02 -0.24299306106E+02 -0.52757099488E+01  0.39775861271E+02  0.41800000000E+01 0. -1.
         -5    1    1    2    0  502  0.56780225822E+02  0.39969944895E+02 -0.67544796042E+02  0.96960622995E+02  0.41800000000E+01 0.  1.
        -11    1    1    2    0    0 -0.11343375636E+02 -0.42919557943E+02  0.48996516797E+01  0.44662816877E+02  0.00000000000E+00 0.  1.
         11    1    1    2    0    0 -0.14673928556E+02  0.27248919153E+02  0.74953789348E+02  0.81091912741E+02  0.00000000000E+00 0. -1.
</event>
<event>
 6    1  0.5317355E-006  0.1198656E+03  0.7561462E-02  0.1243319E+00
          3   -1    0    0  501    0  0.00000000000E+00  0.00000000000E+00  0.32118233308E+02  0.32118233308E+02  0.00000000000E+00 0. -1.
         -3   -1    0    0    0  501 -0.00000000000E+00 -0.00000000000E+00 -0.47012750817E+03  0.47012750817E+03  0.00000000000E+00 0.  1.
          5    1    1    2  502    0  0.55363205229E+02 -0.68122024018E+02 -0.14759432155E+03  0.17177674698E+03  0.41800000000E+01 0. -1.
         -5    1    1    2    0  502 -0.47807708625E+02  0.11883489282E+02 -0.78459634510E+02  0.92737160669E+02  0.41800000000E+01 0. -1.
        -11    1    1    2    0    0 -0.39428987689E+02  0.58399026394E+02 -0.10779249574E+03  0.12878009743E+03  0.00000000000E+00 0.  1.
         11    1    1    2    0    0  0.31873491085E+02 -0.21604916589E+01 -0.10416282305E+03  0.10895173640E+03  0.00000000000E+00 0. -1.
</event>
<event>
 6    1  0.5317355E-006  0.1076505E+03  0.7561462E-02  0.1264984E+00
          1   -1    0    0  501    0  0.00000000000E+00  0.00000000000E+00  0.11005296457E+03  0.11005296457E+03  0.00000000000E+00 0. -1.
         -1   -1    0    0    0  501 -0.00000000000E+00 -0.00000000000E+00 -0.12038399169E+03  0.12038399169E+03  0.00000000000E+00 0.  1.
          5    1    1    2  502    0  0.48052238230E+02  0.27596611431E+02 -0.38010479087E+02  0.67326513959E+02  0.41800000000E+01 0. -1.
         -5    1    1    2    0  502 -0.25004791031E+02 -0.56703973947E+02  0.18028453496E+02  0.64676717382E+02  0.41800000000E+01 0. -1.
        -11    1    1    2    0    0 -0.26562701104E+02  0.60475957141E+02  0.26717508404E+01  0.66106404641E+02  0.00000000000E+00 0.  1.
         11    1    1    2    0    0  0.35152539047E+01 -0.31368594625E+02  0.69792476309E+01  0.32327320276E+02  0.00000000000E+00 0. -1.
</event>
<event>
 6    1  0.5317355E-006  0.3340534E+03  0.7561462E-02  0.1069357E+00
          4   -1    0    0  501    0  0.00000000000E+00  0.00000000000E+00  0.96762991220E+02  0.96762991220E+02  0.00000000000E+00 0. -1.
         -4   -1    0    0    0  501 -0.00000000000E+00 -0.00000000000E+00 -0.12198595482E+04  0.12198595482E+04  0.00000000000E+00 0.  1.
          5    1    1    2  502    0 -0.15624106489E+03  0.15831000006E+03 -0.29547752729E+03  0.36986182286E+03  0.41800000000E+01 0.  1.
         -5    1    1    2    0  502 -0.11341608597E+03  0.24011680947E+02 -0.27921573996E+03  0.30235520704E+03  0.41800000000E+01 0.  1.
        -11    1    1    2    0    0  0.10317143698E+03 -0.10089081535E+03 -0.16951372449E+03  0.22261672179E+03  0.00000000000E+00 0. -1.
         11    1    1    2    0    0  0.16648571389E+03 -0.81430865662E+02 -0.37888956520E+03  0.42178878770E+03  0.00000000000E+00 0.  1.
</event>
<event>
 6    1  0.5317355E-006  0.1247177E+03  0.7561462E-02  0.1235511E+00
         -2   -1    0    0    0  501 -0.00000000000E+00  0.00000000000E+00  0.64356894015E+02  0.64356894015E+02  0.00000000000E+00 0.  1.
          2   -1    0    0  501    0  0.00000000000E+00 -0.00000000000E+00 -0.32570990568E+03  0.32570990568E+03  0.00000000000E+00 0. -1.
          5    1    1    2  502    0 -0.31699058905E+02 -0.16911872206E+02 -0.83444701204E+02  0.90946865345E+02  0.41800000000E+01 0.  1.
         -5    1    1    2    0  502  0.67673077001E+02 -0.69215235565E+02 -0.28079710430E+02  0.10087783068E+03  0.41800000000E+01 0.  1.
        -11    1    1    2    0    0  0.20169725250E+02  0.12301985339E+02 -0.76329054290E+02  0.79901697033E+02  0.00000000000E+00 0. -1.
         11    1    1    2    0    0 -0.56143743347E+02  0.73825122431E+02 -0.73499545743E+02  0.11834040664E+03  0.00000000000E+00 0.  1.
</event>
<event>
 6    1  0.5317355E-006  0.1456229E+03  0.7561462E-02  0.1205957E+00
          2   -1    0    0  501    0  0.00000000000E+00  0.00000000000E+00  0.63545104761E+02  0.63545104761E+02  0.00000000000E+00 0. -1.
         -2   -1    0    0    0  501 -0.00000000000E+00 -0.00000000000E+00 -0.37660478018E+03  0.37660478018E+03  0.00000000000E+00 0.  1.
          5    1    1    2  502    0 -0.71811945237E+02  0.89624402329E+01 -0.11174832716E+03  0.13320075765E+03  0.41800000000E+01 0. -1.
         -5    1    1    2    0  502  0.22332895212E+02  0.86842698496E+02 -0.84378211171E+02  0.12319727031E+03  0.41800000000E+01 0. -1.
        -11    1    1    2    0    0  0.29266703633E+02 -0.10335132003E+03 -0.12099728132E+03  0.16179733428E+03  0.00000000000E+00 0.  1.
         11    1    1    2    0    0  0.20212346392E+02  0.75461813030E+01  0.40641442335E+01  0.21954522707E+02  0.00000000000E+00 0. -1.
</event>
<event>
 6    1  0.5317355E-006  0.1000982E+03  0.7561462E-02  0.1280090E+00
          3   -1    0    0  501    0  0.00000000000E+00  0.00000000000E+00  0.92705374437E+02  0.92705374437E+02  0.00000000000E+00 0. -1.
         -3   -1    0    0    0  501 -0.00000000000E+00 -0.00000000000E+00 -0.14244781975E+03  0.14244781975E+03  0.00000000000E+00 0.  1.
          5    1    1    2  502    0 -0.58241748537E+02 -0.50680051540E+02 -0.52552982296E+02  0.93487203643E+02  0.41800000000E+01 0. -1.
         -5    1    1    2    0  502  0.40835175529E+02  0.21324721126E+02  0.42670132758E+00  0.46259158722E+02  0.41800000000E+01 0. -1.
        -11    1    1    2    0    0 -0.20687277541E+02  0.32361940769E+02 -0.27213594395E+02  0.47072692533E+02  0.00000000000E+00 0.  1.
         11    1    1    2    0    0  0.38093850549E+02 -0.30066103551E+01  0.29597430049E+02  0.48334139291E+02  0.00000000000E+00 0. -1.
</event>
<event>
 6    1  0.5317355E-006  0.1659756E+03  0.7561462E-02  0.1182111E+00
         -4   -1    0    0    0  501 -0.00000000000E+00  0.00000000000E+00  0.11925587210E+03  0.11925587210E+03  0.00000000000E+00 0.  1.
          4   -1    0    0  501    0  0.00000000000E+00 -0.00000000000E+00 -0.30779553879E+03  0.30779553879E+03  0.00000000000E+00 0. -1.
          5    1    1    2  502    0  0.22049399609E+01 -0.87493694488E+01  0.33749807513E+02  0.35184302368E+02  0.41800000000E+01 0. -1.
         -5    1    1    2    0  502  0.10482860383E+03 -0.99744911501E+02 -0.87594037127E+02  0.16919891043E+03  0.41800000000E+01 0. -1.
        -11    1    1    2    0    0 -0.11837698146E+03  0.70915484238E+02 -0.10240018730E+03  0.17183688196E+03  0.00000000000E+00 0.  1.
         11    1    1    2    0    0  0.11343437670E+02  0.37578796712E+02 -0.32295249781E+02  0.50831316124E+02  0.00000000000E+00 0. -1.
</event>
<event>
 6    1  0.5317355E-006  0.1220823E+03  0.7561462E-02  0.1239701E+00
          1   -1    0    0  501    0  0.00000000000E+00  0.00000000000E+00  0.54137521945E+02  0.54137521945E+02  0.00000000000E+00 0. -1.
         -1   -1    0    0    0  501 -0.00000000000E+00 -0.00000000000E+00 -0.28748836568E+03  0.28748836568E+03  0.00000000000E+00 0.  1.
          5    1    1    2  502    0 -0.93636765852E+01 -0.38888658599E+02 -0.50418918206E+02  0.64494541784E+02  0.41800000000E+01 0. -1.
         -5    1    1    2    0  502  0.82431941997E+01  0.97488698244E+02 -0.10639142915E+03  0.14459808136E+03  0.41800000000E+01 0. -1.
        -11    1    1    2    0    0 -0.19369779881E+02  0.18173114371E+02 -0.31471196440E+02  0.41181144520E+02  0.00000000000E+00 0.  1.
         11    1    1    2    0    0  0.20490262266E+02 -0.76773154015E+02 -0.45069299945E+02  0.91352119968E+02  0.00000000000E+00 0. -1.
</event>
<event>
 6    1  0.5317355E-006  0.7952615E+02  0.7561462E-02  0.1330402E+00
         -2   -1    0    0    0  501 -0.00000000000E+00  0.00000000000E+00  0.24551893819E+03  0.24551893819E+03  0.00000000000E+00 0.  1.
          2   -1    0    0  501    0  0.00000000000E+00 -0.00000000000E+00 -0.31598717815E+02  0.31598717815E+02  0.00000000000E+00 0. -1.
          5    1    1    2  502    0 -0.92934675559E+01  0.33302510448E+02  0.10655646816E+03  0.11210343014E+03  0.41800000000E+01 0. -1.
         -5    1    1    2    0  502  0.52422071460E+02 -0.49831174334E+02  0.60931266926E+02  0.94664202320E+02  0.41800000000E+01 0.  1.
        -11    1    1    2    0    0 -0.21629404523E+02  0.20630678978E+02  0.19691784365E+02  0.35794167494E+02  0.00000000000E+00 0. -1.
         11    1    1    2    0    0 -0.21499199381E+02 -0.41020150917E+01  0.26740700927E+02  0.34555856058E+02  0.00000000000E+00 0.  1.
</event>
<event>
 6    1  0.5317355E-006  0.1319437E+03  0.7561462E-02  0.1224600E+00
         -2   -1    0    0    0  501 -0.00000000000E+00  0.00000000000E+00  0.65523341587E+02  0.65523341587E+02  0.00000000000E+00 0. -1.
          2   -1    0    0  501    0  0.00000000000E+00 -0.00000000000E+00 -0.33326310394E+03  0.33326310394E+03  0.00000000000E+00 0.  1.
          5    1    1    2  502    0  0.38942683108E+02  0.63426949295E+02 -0.36166894605E+02  0.82855459264E+02  0.41800000000E+01 0. -1.
         -5    1    1    2    0  502  0.58378747896E+02 -0.41795504647E+02 -0.12507141653E+03  0.14427499453E+03  0.41800000000E+01 0. -1.
        -11    1    1    2    0    0 -0.58972368357E+02 -0.43496633950E+02 -0.22320080645E+02  0.76602110902E+02  0.00000000000E+00 0. -1.
         11    1    1    2    0    0 -0.38349062646E+02  0.21865189302E+02 -0.84181370571E+02  0.95053880827E+02  0.00000000000E+00 0.  1.
</event>
<event>
 6    1  0.5317355E-006  0.1127203E+03  0.7561462E-02  0.1255614E+00
          2   -1    0    0  501    0  0.00000000000E+00  0.00000000000E+00  0.66212720726E+03  0.66212720726E+03  0.00000000000E+00 0. -1.
         -2   -1    0    0    0  501 -0.00000000000E+00 -0.00000000000E+00 -0.21789946492E+02  0.21789946492E+02  0.00000000000E+00 0.  1.
          5    1    1    2  502    0  0.42419310736E+02  0.45157615932E+01  0.83135358754E+02  0.93534754510E+02  0.41800000000E+01 0. -1.
         -5    1    1    2    0  502 -0.88441849247E+02 -0.12255717904E+02  0.23933449339E+03  0.25548118413E+03  0.41800000000E+01 0. -1.
        -11    1    1    2    0    0 -0.23088644137E+02 -0.28896621376E+01  0.26522712510E+02  0.35282997523E+02  0.00000000000E+00 0.  1.
         11    1    1    2    0    0  0.69111182648E+02  0.10629618448E+02  0.29134469612E+03  0.29961821759E+03  0.00000000000E+00 0. -1.
</event>
<event>
 6    1  0.5317355E-006  0.1175309E+03  0.7561462E-02  0.1247227E+00
          1   -1    0    0  501    0  0.00000000000E+00  0.00000000000E+00  0.20825329713E+02  0.20825329713E+02  0.00000000000E+00 0. -1.
         -1   -1    0    0    0  501 -0.00000000000E+00 -0.00000000000E+00 -0.97132155673E+03  0.97132155673E+03  0.00000000000E+00 0.  1.
          5    1    1    2  502    0 -0.65761553729E+02  0.33168380185E+01 -0.29639779216E+03  0.30365227969E+03  0.41800000000E+01 0. -1.
         -5    1    1    2    0  502  0.88959201688E+02 -0.67292622305E+00 -0.50355182576E+03  0.51136689961E+03  0.41800000000E+01 0.  1.
        -11    1    1    2    0    0 -0.38168676442E+02 -0.30195145465E+02 -0.42466550786E+02  0.64591041226E+02  0.00000000000E+00 0. -1.
         11    1    1    2    0    0  0.14971028482E+02  0.27551233669E+02 -0.10808005831E+03  0.11253666591E+03  0.00000000000E+00 0.  1.
</event>
<event>
 6    1  0.5317355E-006  0.1318057E+03  0.7561462E-02  0.1224801E+00
         -1   -1    0    0    0  501 -0.00000000000E+00  0.00000000000E+00  0.42948668832E+03  0.42948668832E+03  0.00000000000E+00 0.  1.
          1   -1    0    0  501    0  0.00000000000E+00 -0.00000000000E+00 -0.43467398395E+02  0.43467398395E+02  0.00000000000E+00 0. -1.
          5    1    1    2  502    0 -0.51098252990E+02  0.50048777573E+02  0.13269498184E+03  0.15080232823E+03  0.41800000000E+01 0.  1.
         -5    1    1    2    0  502  0.70805645418E+02  0.23107797430E+02  0.13934031179E+03  0.15805253751E+03  0.41800000000E+01 0.  1.
        -11    1    1    2    0    0  0.26410185816E+02 -0.65490450196E+02  0.77097408764E+02  0.10454906704E+03  0.00000000000E+00 0.  1.
         11    1    1    2    0    0 -0.46117578244E+02 -0.76661248066E+01  0.36886587538E+02  0.59550153927E+02  0.00000000000E+00 0. -1.
</event>
<event>
 6    1  0.5317355E-006  0.8574302E+02  0.7561462E-02  0.1313501E+00
          2   -1    0    0  501    0  0.00000000000E+00  0.00000000000E+00  0.14948686873E+03  0.14948686873E+03  0.00000000000E+00 0. -1.
         -2   -1    0    0    0  501 -0.00000000000E+00 -0.00000000000E+00 -0.92971721495E+02  0.92971721495E+02  0.00000000000E+00 0.  1.
          5    1    1    2  502    0 -0.34553352409E+02  0.50524779611E+02  0.41598581207E+02  0.74125581791E+02  0.41800000000E+01 0.  1.
         -5    1    1    2    0  502  0.26453218220E+02 -0.92356032048E+01 -0.50806691183E+02  0.58170966897E+02  0.41800000000E+01 0.  1.
        -11    1    1    2    0    0 -0.30324282690E+02 -0.27629975112E+02  0.53835124875E+02  0.67684550052E+02  0.00000000000E+00 0. -1.
         11    1    1    2    0    0  0.38424416879E+02 -0.13659201294E+02  0.11888132336E+02  0.42477491486E+02  0.00000000000E+00 0.  1.
</event>
<event>
 6    1  0.5317355E-006  0.8972501E+02  0.7561462E-02  0.1303519E+00
         -1   -1    0    0    0  501 -0.00000000000E+00  0.00000000000E+00  0.12023085872E+03  0.12023085872E+03  0.00000000000E+00 0.  1.
          1   -1    0    0  501    0  0.00000000000E+00 -0.00000000000E+00 -0.13707886906E+03  0.13707886906E+03  0.00000000000E+00 0. -1.
          5    1    1    2  502    0 -0.19159670366E+02  0.33310887191E+02 -0.57509407392E+02  0.69292947062E+02  0.41800000000E+01 0. -1.
         -5    1    1    2    0  502 -0.27672250331E+02  0.13604332282E+02  0.65476891890E+02  0.72495014083E+02  0.41800000000E+01 0. -1.
        -11    1    1    2    0    0 -0.74604742008E+01 -0.54366936121E+02  0.11315672711E+01  0.54888094000E+02  0.00000000000E+00 0.  1.
         11    1    1    2    0    0  0.54292394898E+02  0.74517166482E+01 -0.25947062116E+02  0.60633672635E+02  0.00000000000E+00 0. -1.
</event>
<event>
 6    1  0.5317355E-006  0.1890918E+03  0.7561462E-02  0.1159283E+00
          2   -1    0    0  501    0  0.00000000000E+00  0.00000000000E+00  0.14709923231E+04  0.14709923231E+04  0.00000000000E+00 0. -1.
         -2   -1    0    0    0  501 -0.00000000000E+00 -0.00000000000E+00 -0.25197531780E+02  0.25197531780E+02  0.00000000000E+00 0.  1.
          5    1    1    2  502    0 -0.28126419811E+02 -0.12257973291E+03  0.50944132953E+03  0.52475215773E+03  0.41800000000E+01 0. -1.
         -5    1    1    2    0  502  0.83033358774E+02 -0.17353203237E+01  0.22231356724E+03  0.23735699818E+03  0.41800000000E+01 0.  1.
        -11    1    1    2    0    0  0.28250949462E+02  0.51133492696E+02  0.20727660361E+03  0.21535166734E+03  0.00000000000E+00 0.  1.
         11    1    1    2    0    0 -0.83157888425E+02  0.73181560538E+02  0.50676329091E+03  0.51872903160E+03  0.00000000000E+00 0. -1.
</event>
<event>
 6    1  0.5317355E-006  0.8387066E+02  0.7561462E-02  0.1318413E+00
         -1   -1    0    0    0  501 -0.00000000000E+00  0.00000000000E+00  0.86717743414E+02  0.86717743414E+02  0.00000000000E+00 0.  1.
          1   -1    0    0  501    0  0.00000000000E+00 -0.00000000000E+00 -0.23297692910E+03  0.23297692910E+03  0.00000000000E+00 0. -1.
          5    1    1    2  502    0  0.24881391874E+01  0.20669741996E+02  0.44428595979E+02  0.49242274638E+02  0.41800000000E+01 0.  1.
         -5    1    1    2    0  502 -0.10717984774E+01 -0.63249158977E+02 -0.53952200266E+02  0.83246124096E+02  0.41800000000E+01 0.  1.
        -11    1    1    2    0    0 -0.29473554005E+01  0.62781515920E+02 -0.15024097056E+03  0.16285746799E+03  0.00000000000E+00 0. -1.
         11    1    1    2    0    0  0.15310146905E+01 -0.20202098939E+02  0.13505389155E+02  0.24348805797E+02  0.00000000000E+00 0.  1.
</event>
<event>
 6    1  0.5317355E-006  0.1116252E+03  0.7561462E-02  0.1257590E+00
          2   -1    0    0  501    0  0.00000000000E+00  0.00000000000E+00  0.65456675902E+03  0.65456675902E+03  0.00000000000E+00 0. -1.
         -2   -1    0    0    0  501 -0.00000000000E+00 -0.00000000000E+00 -0.41271094714E+02  0.41271094714E+02  0.00000000000E+00 0.  1.
          5    1    1    2  502    0 -0.70800987556E+02  0.38446743800E+02  0.21999506126E+03  0.23432078722E+03  0.41800000000E+01 0. -1.
         -5    1    1    2    0  502 -0.26738496279E+02  0.11834862786E+02 -0.12140618504E+02  0.31935531592E+02  0.41800000000E+01 0. -1.
        -11    1    1    2    0    0  0.15478139572E+02 -0.20614452937E+02  0.15681602882E+02  0.30173517254E+02  0.00000000000E+00 0. -1.
         11    1    1    2    0    0  0.82061344262E+02 -0.29667153648E+02  0.38975961867E+03  0.39940801766E+03  0.00000000000E+00 0.  1.
</event>
<event>
 6    1  0.5317355E-006  0.9419016E+02  0.7561462E-02  0.1293011E+00
          1   -1    0    0  501    0  0.00000000000E+00  0.00000000000E+00  0.31348252238E+03  0.31348252238E+03  0.00000000000E+00 0. -1.
         -1   -1    0    0    0  501 -0.00000000000E+00 -0.00000000000E+00 -0.54519086937E+02  0.54519086937E+02  0.00000000000E+00 0.  1.
          5    1    1    2  502    0 -0.17998257960E+02 -0.12795511552E+02  0.78230294575E+02  0.81394802013E+02  0.41800000000E+01 0.  1.
         -5    1    1    2    0  502  0.25572283667E+02  0.67493278681E+02 -0.72645437386E+01  0.72660376787E+02  0.41800000000E+01 0.  1.
        -11    1    1    2    0    0 -0.38669665679E+02 -0.48281202607E+02  0.16026838065E+03  0.17179165115E+03  0.00000000000E+00 0. -1.
         11    1    1    2    0    0  0.31095639972E+02 -0.64165645223E+01  0.27729303955E+02  0.42154779365E+02  0.00000000000E+00 0.  1.
</event>
<event>
 6    1  0.5317355E-006  0.1382343E+03  0.7561462E-02  0.1215725E+00
         -1   -1    0    0    0  501 -0.00000000000E+00  0.00000000000E+00  0.90000158322E+03  0.90000158322E+03  0.00000000000E+00 0.  1.
          1   -1    0    0  501    0  0.00000000000E+00 -0.00000000000E+00 -0.37386721956E+02  0.37386721956E+02  0.00000000000E+00 0. -1.
          5    1    1    2  502    0  0.24236310656E+02  0.23484605439E+02  0.38001295464E+03  0.38153144503E+03  0.41800000000E+01 0.  1.
         -5    1    1    2    0  502  0.79279853180E+02 -0.77476061683E+02  0.30558317912E+03  0.32509442785E+03  0.41800000000E+01 0.  1.
        -11    1    1    2    0    0 -0.37299807480E+02  0.53618271734E+02  0.14097459490E+03  0.15537062499E+03  0.00000000000E+00 0.  1.
         11    1    1    2    0    0 -0.66216356356E+02  0.37318450963E+00  0.36044132599E+02  0.75391807317E+02  0.00000000000E+00 0. -1.
</event>
<event>
 6    1  0.5317355E-006  0.1084120E+03  0.7561462E-02  0.1263539E+00
         -1   -1    0    0    0  501 -0.00000000000E+00  0.00000000000E+00  0.15101485413E+03  0.15101485413E+03  0.00000000000E+00 0.  1.
          1   -1    0    0  501    0  0.00000000000E+00 -0.00000000000E+00 -0.95274689753E+02  0.95274689753E+02  0.00000000000E+00 0. -1.
          5    1    1    2  502    0  0.73943794983E+01  0.61847692683E+02 -0.34223447260E+01  0.62521986387E+02  0.41800000000E+01 0. -1.
         -5    1    1    2    0  502  0.38908283689E+02 -0.57471012003E+02  0.16534830761E+02  0.71467788468E+02  0.41800000000E+01 0. -1.
        -11    1    1    2    0    0  0.45505247304E+01  0.25489215057E+02  0.46473729781E+02  0.53199764278E+02  0.00000000000E+00 0.  1.
         11    1    1    2    0    0 -0.50853187918E+02 -0.29865895737E+02 -0.38460514389E+01  0.59100004749E+02  0.00000000000E+00 0. -1.
</event>
<event>
 6    1  0.5317355E-006  0.9038110E+02  0.7561462E-02  0.1301931E+00
         -4   -1    0    0    0  501 -0.00000000000E+00  0.00000000000E+00  0.17424426761E+03  0.17424426761E+03  0.00000000000E+00 0. -1.
          4   -1    0    0  501    0  0.00000000000E+00 -0.00000000000E+00 -0.12153703478E+03  0.12153703478E+03  0.00000000000E+00 0.  1.
          5    1    1    2  502    0  0.92264571044E+01  0.20448373518E+02  0.80266518474E+02  0.83447288022E+02  0.41800000000E+01 0.  1.
         -5    1    1    2    0  502 -0.23604917085E+02 -0.83398155063E+02  0.19080629573E+02  0.88848113112E+02  0.41800000000E+01 0.  1.
        -11    1    1    2    0    0  0.23740443896E+02  0.42630431924E+02 -0.73691183352E+02  0.88381858468E+02  0.00000000000E+00 0.  1.
         11    1    1    2    0    0 -0.93619839149E+01  0.20319349622E+02  0.27051268143E+02  0.35104042787E+02  0.00000000000E+00 0. -1.
</event>
<event>
 6    1  0.5317355E-006  0.1341247E+03  0.7561462E-02  0.1221461E+00
         -1   -1    0    0    0  501 -0.00000000000E+00  0.00000000000E+00  0.16617884299E+03  0.16617884299E+03  0.00000000000E+00 0.  1.
          1   -1    0    0  501    0  0.00000000000E+00 -0.00000000000E+00 -0.12925055871E+03  0.12925055871E+03  0.00000000000E+00 0. -1.
          5    1    1    2  502    0  0.38164022801E+02  0.32297448429E+01  0.15044719489E+02  0.41361091289E+02  0.41800000000E+01 0.  1.
         -5    1    1    2    0  502 -0.90083678024E+02  0.78941846535E+02  0.40427023115E+02  0.12648597068E+03  0.41800000000E+01 0.  1.
        -11    1    1    2    0    0  0.14658965046E+02  0.46597602201E+01  0.20259242642E+02  0.25436893166E+02  0.00000000000E+00 0.  1.
         11    1    1    2    0    0  0.37260690177E+02 -0.86831351598E+02 -0.38802700963E+02  0.10214544657E+03  0.00000000000E+00 0. -1.
</event>
<event>
 6    1  0.5317355E-006  0.1746166E+03  0.7561462E-02  0.1173117E+00
         -3   -1    0    0    0  501 -0.00000000000E+00  0.00000000000E+00  0.22742333956E+03  0.22742333956E+03  0.00000000000E+00 0.  1.
          3   -1    0    0  501    0  0.00000000000E+00 -0.00000000000E+00 -0.28247356878E+03  0.28247356878E+03  0.00000000000E+00 0. -1.
          5    1    1    2  502    0 -0.36437389311E+02 -0.38318216694E+02  0.52850128289E+02  0.74877082813E+02  0.41800000000E+01 0. -1.
         -5    1    1    2    0  502  0.10212096742E+03 -0.10002263124E+03  0.88297114526E+02  0.16806865139E+03  0.41800000000E+01 0. -1.
        -11    1    1    2    0    0 -0.45282848035E+02  0.91367843887E+02 -0.53109820560E+02  0.11497509410E+03  0.00000000000E+00 0.  1.
         11    1    1    2    0    0 -0.20400730076E+02  0.46973004047E+02 -0.14308765148E+03  0.15197608004E+03  0.00000000000E+00 0. -1.
</event>
<event>
 6    1  0.5317355E-006  0.1092546E+03  0.7561462E-02  0.1261957E+00
         -1   -1    0    0    0  501 -0.00000000000E+00  0.00000000000E+00  0.38856199336E+02  0.38856199336E+02  0.00000000000E+00 0.  1.
          1   -1    0    0  501    0  0.00000000000E+00 -0.00000000000E+00 -0.41970192498E+03  0.41970192498E+03  0.00000000000E+00 0. -1.
          5    1    1    2  502    0  0.74397864493E+02  0.62390888448E+02 -0.13803466410E+03  0.16881559790E+03  0.41800000000E+01 0. -1.
         -5    1    1    2    0  502 -0.22693835668E+02 -0.29254829984E+02 -0.21524655382E+02  0.43030668645E+02  0.41800000000E+01 0. -1.
        -11    1    1    2    0    0 -0.99832297952E+01 -0.40486718120E+02 -0.31513395053E+02  0.52267899222E+02  0.00000000000E+00 0.  1.
         11    1    1    2    0    0 -0.41720799030E+02  0.73506596564E+01 -0.18977301112E+03  0.19444395855E+03  0.00000000000E+00 0. -1.
</event>
<event>
 6    1  0.5317355E-006  0.1249993E+03  0.7561462E-02  0.1235070E+00
          1   -1    0    0  501    0  0.00000000000E+00  0.00000000000E+00  0.34787377954E+03  0.34787377954E+03  0.00000000000E+00 0. -1.
         -1   -1    0    0    0  501 -0.00000000000E+00 -0.00000000000E+00 -0.53192099042E+02  0.53192099042E+02  0.00000000000E+00 0.  1.
          5    1    1    2  502    0 -0.78975416911E+01 -0.39946361051E+02  0.35384904534E+02  0.54107733226E+02  0.41800000000E+01 0.  1.
         -5    1    1    2    0  502 -0.55485709578E+02  0.93488856919E+02  0.11825171400E+03  0.16068531545E+03  0.41800000000E+01 0.  1.
        -11    1    1    2    0    0  0.61956415151E+02 -0.17749289418E+02  0.13547103156E+03  0.15002011547E+03  0.00000000000E+00 0. -1.
         11    1    1    2    0    0  0.14268361176E+01 -0.35793206450E+02  0.55740303985E+01  0.36252714439E+02  0.00000000000E+00 0.  1.
</event>
<event>
 6    1  0.5317355E-006  0.1269898E+03  0.7561462E-02  0.1231992E+00
          2   -1    0    0  501    0  0.00000000000E+00  0.00000000000E+00  0.18359474729E+03  0.18359474729E+03  0.00000000000E+00 0. -1.
         -2   -1    0    0    0  501 -0.00000000000E+00 -0.00000000000E+00 -0.10026009137E+03  0.10026009137E+03  0.00000000000E+00 0.  1.
          5    1    1    2  502    0  0.71740331167E+02 -0.20671734801E+02 -0.77125875413E+01  0.75172815181E+02  0.41800000000E+01 0.  1.
         -5    1    1    2    0  502 -0.50185302654E+02 -0.42090753886E+02  0.10434579014E+02  0.66457121547E+02  0.41800000000E+01 0.  1.
        -11    1    1    2    0    0  0.17473011024E+02  0.71476904195E+02  0.68269476401E+02  0.10037417674E+03  0.00000000000E+00 0. -1.
         11    1    1    2    0    0 -0.39028039537E+02 -0.87144155080E+01  0.12343188053E+02  0.41850725192E+02  0.00000000000E+00 0.  1.
</event>
<event>
 6    1  0.5317355E-006  0.1491278E+03  0.7561462E-02  0.1201549E+00
         -4   -1    0    0    0  501 -0.00000000000E+00  0.00000000000E+00  0.68509263507E+02  0.68509263507E+02  0.00000000000E+00 0. -1.
          4   -1    0    0  501    0  0.00000000000E+00 -0.00000000000E+00 -0.35507995742E+03  0.35507995742E+03  0.00000000000E+00 0.  1.
          5    1    1    2  502    0 -0.76794058758E+02 -0.24558169225E+02 -0.90067269293E+02  0.12095460526E+03  0.41800000000E+01 0.  1.
         -5    1    1    2    0  502  0.32494272910E+02 -0.78916802891E+02 -0.58843291791E+02  0.10374846958E+03  0.41800000000E+01 0.  1.
        -11    1    1    2    0    0  0.48004783662E+02  0.26157639016E+02 -0.97259832554E+02  0.11157130618E+03  0.00000000000E+00 0.  1.
         11    1    1    2    0    0 -0.37049978151E+01  0.77317333101E+02 -0.40400300273E+02  0.87314839911E+02  0.00000000000E+00 0. -1.
</event>
<event>
 6    1  0.5317355E-006  0.1397628E+03  0.7561462E-02  0.1213649E+00
         -2   -1    0    0    0  501 -0.00000000000E+00  0.00000000000E+00  0.21977885898E+02  0.21977885898E+02  0.00000000000E+00 0. -1.
          2   -1    0    0  501    0  0.00000000000E+00 -0.00000000000E+00 -0.13345904319E+04  0.13345904319E+04  0.00000000000E+00 0.  1.
          5    1    1    2  502    0  0.58419926015E+02  0.22659722161E+02 -0.56584654384E+03  0.56932076577E+03  0.41800000000E+01 0.  1.
         -5    1    1    2    0  502  0.68087921596E+02  0.16276390439E+02 -0.10845066282E+03  0.12915070507E+03  0.41800000000E+01 0.  1.
        -11    1    1    2    0    0 -0.66899050957E+02 -0.53000037420E+02 -0.49407137660E+03  0.50138908261E+03  0.00000000000E+00 0.  1.
         11    1    1    2    0    0 -0.59608796654E+02  0.14063924820E+02 -0.14424396275E+03  0.15670776436E+03  0.00000000000E+00 0. -1.
</event>
<event>
 6    1  0.5317355E-006  0.6321343E+02  0.7561462E-02  0.1384821E+00
         -1   -1    0    0    0  501 -0.00000000000E+00  0.00000000000E+00  0.41797978815E+03  0.41797978815E+03  0.00000000000E+00 0.  1.
          1   -1    0    0  501    0  0.00000000000E+00 -0.00000000000E+00 -0.49414172183E+02  0.49414172183E+02  0.00000000000E+00 0. -1.
          5    1    1    2  502    0 -0.10240983359E+02 -0.50336785613E+00  0.34968166180E+03  0.34985692521E+03  0.41800000000E+01 0.  1.
         -5    1    1    2    0  502  0.15281719596E+00  0.20868401491E+02 -0.97886957157E+00  0.21305964412E+02  0.41800000000E+01 0.  1.
        -11    1    1    2    0    0 -0.26829699022E+01 -0.56078418154E+02  0.13892231311E+02  0.57835814172E+02  0.00000000000E+00 0.  1.
         11    1    1    2    0    0  0.12771136065E+02  0.35713384519E+02  0.59705924213E+01  0.38395256531E+02  0.00000000000E+00 0. -1.
</event>
<event>
 6    1  0.5317355E-006  0.1233659E+03  0.7561462E-02  0.1237645E+00
         -2   -1    0    0    0  501 -0.00000000000E+00  0.00000000000E+00  0.31360601872E+03  0.31360601872E+03  0.00000000000E+00 0.  1.
          2   -1    0    0  501    0  0.00000000000E+00 -0.00000000000E+00 -0.54393986490E+02  0.54393986490E+02  0.00000000000E+00 0. -1.
          5    1    1    2  502    0 -0.10553508970E+02  0.83683154902E+02  0.11940331128E+03  0.14624934226E+03  0.41800000000E+01 0.  1.
         -5    1    1    2    0  502 -0.47409430658E+02 -0.37728261655E+02  0.76862227871E+02  0.97960963226E+02  0.41800000000E+01 0.  1.
        -11    1    1    2    0    0  0.60987366145E+02 -0.57804647472E+01  0.18929326660E+02  0.64118577727E+02  0.00000000000E+00 0. -1.
         11    1    1    2    0    0 -0.30244265166E+01 -0.40174428500E+02  0.44017166413E+02  0.59671121994E+02  0.00000000000E+00 0.  1.
</event>
<event>
 6    1  0.5317355E-006  0.1407836E+03  0.7561462E-02  0.1212278E+00
          2   -1    0    0  501    0  0.00000000000E+00  0.00000000000E+00  0.33549824735E+03  0.33549824735E+03  0.00000000000E+00 0.  1.
         -2   -1    0    0    0  501 -0.00000000000E+00 -0.00000000000E+00 -0.68898419646E+02  0.68898419646E+02  0.00000000000E+00 0. -1.
          5    1    1    2  502    0 -0.10295785673E+03 -0.30698707262E+02  0.84591522719E+02  0.13680617313E+03  0.41800000000E+01 0.  1.
         -5    1    1    2    0  502  0.73778398947E+01  0.43991561871E+02  0.57159663892E+01  0.45164529325E+02  0.41800000000E+01 0.  1.
        -11    1    1    2    0    0  0.24335059802E+02 -0.45083129969E+02  0.10459742718E+03  0.11647019153E+03  0.00000000000E+00 0.  1.
         11    1    1    2    0    0  0.71244957036E+02  0.31790275359E+02  0.71694911416E+02  0.10595577301E+03  0.00000000000E+00 0. -1.
</event>
<event>
 6    1  0.5317355E-006  0.1240186E+03  0.7561462E-02  0.1236611E+00
          1   -1    0    0  501    0  0.00000000000E+00  0.00000000000E+00  0.86312891358E+03  0.86312891358E+03  0.00000000000E+00 0. -1.
         -1   -1    0    0    0  501 -0.00000000000E+00 -0.00000000000E+00 -0.20010717505E+02  0.20010717505E+02  0.00000000000E+00 0.  1.
          5    1    1    2  502    0 -0.95329101814E+02 -0.32120151125E+02  0.20945565868E+03  0.23239726142E+03  0.41800000000E+01 0. -1.
         -5    1    1    2    0  502  0.29158900327E+02  0.15053646119E+02  0.16470715984E+03  0.16799635303E+03  0.41800000000E+01 0. -1.
        -11    1    1    2    0    0  0.16000050119E+02 -0.37124521444E+02  0.14989067222E+03  0.15524640194E+03  0.00000000000E+00 0.  1.
         11    1    1    2    0    0  0.50170151368E+02  0.54191026450E+02  0.31906470533E+03  0.32749961470E+03  0.00000000000E+00 0. -1.
</event>
<event>
 6    1  0.5317355E-006  0.8251639E+02  0.7561462E-02  0.1322058E+00
         -1   -1    0    0    0  501 -0.00000000000E+00  0.00000000000E+00  0.38060560145E+02  0.38060560145E+02  0.00000000000E+00 0.  1.
          1   -1    0    0  501    0  0.00000000000E+00 -0.00000000000E+00 -0.33231730886E+03  0.33231730886E+03  0.00000000000E+00 0. -1.
          5    1    1    2  502    0  0.52267073618E+02  0.99603185859E+01 -0.13912490624E+03  0.14901096223E+03  0.41800000000E+01 0. -1.
         -5    1    1    2    0  502 -0.36441389813E+02 -0.16426897303E+02  0.15006512424E+00  0.40190953784E+02  0.41800000000E+01 0.  1.
        -11    1    1    2    0    0 -0.25062274488E+02 -0.26949078499E+02 -0.20749309641E+02  0.42248127592E+02  0.00000000000E+00 0.  1.
         11    1    1    2    0    0  0.92365906823E+01  0.33415657216E+02 -0.13453259796E+03  0.13892782539E+03  0.00000000000E+00 0. -1.
</event>
<event>
 6    1  0.5317355E-006  0.1608515E+03  0.7561462E-02  0.1187739E+00
         -1   -1    0    0    0  501 -0.00000000000E+00  0.00000000000E+00  0.76826731575E+02  0.76826731575E+02  0.00000000000E+00 0.  1.
          1   -1    0    0  501    0  0.00000000000E+00 -0.00000000000E+00 -0.50742124392E+03  0.50742124392E+03  0.00000000000E+00 0. -1.
          5    1    1    2  502    0  0.64792932726E+02  0.16162189526E+02  0.98809211438E+01  0.67634647217E+02  0.41800000000E+01 0. -1.
         -5    1    1    2    0  502  0.48338978717E+02 -0.81752533871E+02 -0.87744998885E+02  0.12937074974E+03  0.41800000000E+01 0. -1.
        -11    1    1    2    0    0 -0.12610698628E+03  0.42201618564E+02 -0.29808616431E+03  0.32640359979E+03  0.00000000000E+00 0. -1.
         11    1    1    2    0    0  0.12975074835E+02  0.23388725782E+02 -0.54644270287E+02  0.60838978754E+02  0.00000000000E+00 0.  1.
</event>
<event>
 6    1  0.5317355E-006  0.2282262E+03  0.7561462E-02  0.1127895E+00
         -3   -1    0    0    0  501 -0.00000000000E+00  0.00000000000E+00  0.33782523289E+03  0.33782523289E+03  0.00000000000E+00 0.  1.
          3   -1    0    0  501    0  0.00000000000E+00 -0.00000000000E+00 -0.18413201535E+03  0.18413201535E+03  0.00000000000E+00 0. -1.
          5    1    1    2  502    0 -0.92110916862E+02  0.59294219785E+02  0.99372521492E+02  0.14796146773E+03  0.41800000000E+01 0.  1.
         -5    1    1    2    0  502 -0.64341842787E+02  0.10192529206E+03 -0.17552687866E+02  0.12187783698E+03  0.41800000000E+01 0.  1.
        -11    1    1    2    0    0  0.80763295828E+02 -0.64218905550E+02  0.77354504306E+02  0.12895928473E+03  0.00000000000E+00 0.  1.
         11    1    1    2    0    0  0.75689463821E+02 -0.97000606298E+02 -0.54811203853E+01  0.12315865880E+03  0.00000000000E+00 0. -1.
</event>
<event>
 6    1  0.5317355E-006  0.1452373E+03  0.7561462E-02  0.1206451E+00
         -1   -1    0    0    0  501 -0.00000000000E+00  0.00000000000E+00  0.16437643714E+02  0.16437643714E+02  0.00000000000E+00 0.  1.
          1   -1    0    0  501    0  0.00000000000E+00 -0.00000000000E+00 -0.16721637225E+04  0.16721637225E+04  0.00000000000E+00 0. -1.
          5    1    1    2  502    0 -0.12402416029E+02  0.33531869422E+02 -0.63060890227E+03  0.63163539024E+03  0.41800000000E+01 0. -1.
         -5    1    1    2    0  502  0.11164237371E+03  0.17636571839E+02 -0.38964516022E+03  0.40572883994E+03  0.41800000000E+01 0.  1.
        -11    1    1    2    0    0 -0.98579931335E+02 -0.87677512334E+01 -0.47922773039E+03  0.48934046828E+03  0.00000000000E+00 0. -1.
         11    1    1    2    0    0 -0.66002634503E+00 -0.42400690028E+02 -0.15624428590E+03  0.16189666774E+03  0.00000000000E+00 0.  1.
</event>
<event>
 6    1  0.5317355E-006  0.9443642E+02  0.7561462E-02  0.1292450E+00
         -1   -1    0    0    0  501 -0.00000000000E+00  0.00000000000E+00  0.12299178732E+03  0.12299178732E+03  0.00000000000E+00 0.  1.
          1   -1    0    0  501    0  0.00000000000E+00 -0.00000000000E+00 -0.94136886008E+02  0.94136886008E+02  0.00000000000E+00 0. -1.
          5    1    1    2  502    0 -0.39378686396E+02  0.11785428185E+02  0.36550775345E+02  0.55163473768E+02  0.41800000000E+01 0. -1.
         -5    1    1    2    0  502  0.73350340630E+02 -0.20826732310E+02 -0.11353795526E+02  0.77203667802E+02  0.41800000000E+01 0. -1.
        -11    1    1    2    0    0 -0.18191643852E+02 -0.26593159342E+02  0.24582909133E+02  0.40527169297E+02  0.00000000000E+00 0.  1.
         11    1    1    2    0    0 -0.15780010381E+02  0.35634463467E+02 -0.20924987643E+02  0.44234362458E+02  0.00000000000E+00 0. -1.
</event>
<event>
 6    1  0.5317355E-006  0.1775260E+03  0.7561462E-02  0.1170219E+00
         -1   -1    0    0    0  501 -0.00000000000E+00  0.00000000000E+00  0.23430742176E+03  0.23430742176E+03  0.00000000000E+00 0.  1.
          1   -1    0    0  501    0  0.00000000000E+00 -0.00000000000E+00 -0.19896059329E+03  0.19896059329E+03  0.00000000000E+00 0. -1.
          5    1    1    2  502    0  0.69560842413E+02  0.15868574393E+03  0.12323427462E+03  0.21265943423E+03  0.41800000000E+01 0.  1.
         -5    1    1    2    0  502  0.54797395201E+01 -0.16727656876E+02 -0.95751815073E+01  0.20469454088E+02  0.41800000000E+01 0.  1.
        -11    1    1    2    0    0 -0.29299579139E+02 -0.88851170291E+02 -0.89132302278E+02  0.12921905088E+03  0.00000000000E+00 0. -1.
         11    1    1    2    0    0 -0.45741002795E+02 -0.53106916767E+02  0.10820037626E+02  0.70920075856E+02  0.00000000000E+00 0.  1.
</event>
<event>
 6    1  0.5317355E-006  0.1692417E+03  0.7561462E-02  0.1178641E+00
         -1   -1    0    0    0  501 -0.00000000000E+00  0.00000000000E+00  0.57395459296E+02  0.57395459296E+02  0.00000000000E+00 0.  1.
          1   -1    0    0  501    0  0.00000000000E+00 -0.00000000000E+00 -0.81164552412E+03  0.81164552412E+03  0.00000000000E+00 0. -1.
          5    1    1    2  502    0 -0.37289074579E+02 -0.11060673516E+02 -0.11532839405E+03  0.12178228301E+03  0.41800000000E+01 0. -1.
         -5    1    1    2    0  502 -0.28634099564E+02 -0.12714298210E+03 -0.64396225940E+02  0.14542900629E+03  0.41800000000E+01 0. -1.
        -11    1    1    2    0    0  0.81295895163E+02  0.10912884194E+03 -0.52521356585E+03  0.54255637170E+03  0.00000000000E+00 0.  1.
         11    1    1    2    0    0 -0.15372721021E+02  0.29074813671E+02 -0.49311878977E+02  0.59273322413E+02  0.00000000000E+00 0. -1.
</event>
<event>
 6    1  0.5317355E-006  0.8437962E+02  0.7561462E-02  0.1317063E+00
         -1   -1    0    0    0  501 -0.00000000000E+00  0.00000000000E+00  0.49678441957E+02  0.49678441957E+02  0.00000000000E+00 0.  1.
          1   -1    0    0  501    0  0.00000000000E+00 -0.00000000000E+00 -0.28859295415E+03  0.28859295415E+03  0.00000000000E+00 0. -1.
          5    1    1    2  502    0  0.46456555667E+02  0.12286887849E+02 -0.73354169864E+02  0.87792287895E+02  0.41800000000E+01 0. -1.
         -5    1    1    2    0  502 -0.56204695952E+02 -0.13408664305E+01  0.30300354809E+01  0.56457234123E+02  0.41800000000E+01 0. -1.
        -11    1    1    2    0    0 -0.14258401155E+02 -0.30185238724E+02 -0.13665756204E+02  0.36072198892E+02  0.00000000000E+00 0.  1.
         11    1    1    2    0    0  0.24006541440E+02  0.19239217305E+02 -0.15492462160E+03  0.15794967519E+03  0.00000000000E+00 0. -1.
</event>
<event>
 6    1  0.5317355E-006  0.1063735E+03  0.7561462E-02  0.1267437E+00
         -1   -1    0    0    0  501 -0.00000000000E+00  0.00000000000E+00  0.45875192529E+03  0.45875192529E+03  0.00000000000E+00 0.  1.
          1   -1    0    0  501    0  0.00000000000E+00 -0.00000000000E+00 -0.28089592683E+02  0.28089592683E+02  0.00000000000E+00 0. -1.
          5    1    1    2  502    0  0.27934337828E+02 -0.58308944187E+02  0.19387227580E+03  0.20441181944E+03  0.41800000000E+01 0.  1.
         -5    1    1    2    0  502 -0.16907733543E+02  0.56603270229E+02  0.12564703121E+03  0.13890446540E+03  0.41800000000E+01 0.  1.
        -11    1    1    2    0    0  0.15539232103E+02 -0.37947103939E+02  0.66768206012E+02  0.78354602709E+02  0.00000000000E+00 0.  1.
         11    1    1    2    0    0 -0.26565836387E+02  0.39652777897E+02  0.44374819584E+02  0.65170630433E+02  0.00000000000E+00 0. -1.
</event>
<event>
 6    1  0.5317355E-006  0.9435567E+02  0.7561462E-02  0.1292634E+00
          2   -1    0    0  501    0  0.00000000000E+00  0.00000000000E+00  0.30329247469E+03  0.30329247469E+03  0.00000000000E+00 0. -1.
         -2   -1    0    0    0  501 -0.00000000000E+00 -0.00000000000E+00 -0.46784525759E+02  0.46784525759E+02  0.00000000000E+00 0.  1.
          5    1    1    2  502    0  0.53488619029E+02  0.23739647294E+02  0.45199437182E+01  0.58843058303E+02  0.41800000000E+01 0.  1.
         -5    1    1    2    0  502  0.49175833861E+01 -0.37617655972E+02  0.12597036517E+03  0.13162551412E+03  0.41800000000E+01 0.  1.
        -11    1    1    2    0    0 -0.19689683774E+02 -0.28393510137E+02  0.22358222750E+02  0.41155378622E+02  0.00000000000E+00 0. -1.
         11    1    1    2    0    0 -0.38716518641E+02  0.42271518815E+02  0.10365941729E+03  0.11845304940E+03  0.00000000000E+00 0.  1.
</event>
<event>
 6    1  0.5317355E-006  0.1383386E+03  0.7561462E-02  0.1215582E+00
         -1   -1    0    0    0  501 -0.00000000000E+00  0.00000000000E+00  0.62841759811E+03  0.62841759811E+03  0.00000000000E+00 0.  1.
          1   -1    0    0  501    0  0.00000000000E+00 -0.00000000000E+00 -0.38118970138E+02  0.38118970138E+02  0.00000000000E+00 0. -1.
          5    1    1    2  502    0 -0.46506234819E+01 -0.12729239370E+03  0.38394995832E+03  0.40454916227E+03  0.41800000000E+01 0.  1.
         -5    1    1    2    0  502 -0.14336673849E+02  0.24787491076E+02  0.38243026259E+02  0.47957912678E+02  0.41800000000E+01 0.  1.
        -11    1    1    2    0    0  0.40163903126E+02  0.79211876708E+02  0.76676830630E+02  0.11733284656E+03  0.00000000000E+00 0. -1.
         11    1    1    2    0    0 -0.21176605795E+02  0.23293025917E+02  0.91428812755E+02  0.96696646742E+02  0.00000000000E+00 0.  1.
</event>
<event>
 6    1  0.5317355E-006  0.9829212E+02  0.7561462E-02  0.1283929E+00
          1   -1    0    0  501    0  0.00000000000E+00  0.00000000000E+00  0.15287324059E+03  0.15287324059E+03  0.00000000000E+00 0. -1.
         -1   -1    0    0    0  501 -0.00000000000E+00 -0.00000000000E+00 -0.10770099414E+03  0.10770099414E+03  0.00000000000E+00 0.  1.
          5    1    1    2  502    0 -0.33168225793E+02  0.36260479678E+01  0.27585578689E+02  0.43493861380E+02  0.41800000000E+01 0. -1.
         -5    1    1    2    0  502  0.66075022436E+02  0.34461578881E+01 -0.61458149826E+02  0.90401112682E+02  0.41800000000E+01 0. -1.
        -11    1    1    2    0    0 -0.34367136052E+01  0.40529566445E+02  0.47055894247E+02  0.62198986647E+02  0.00000000000E+00 0. -1.
         11    1    1    2    0    0 -0.29470083037E+02 -0.47601772301E+02  0.31988923342E+02  0.64480274014E+02  0.00000000000E+00 0.  1.
</event>
<event>
 6    1  0.5317355E-006  0.1652626E+03  0.7561462E-02  0.1182880E+00
          3   -1    0    0  501    0  0.00000000000E+00  0.00000000000E+00  0.54156457952E+03  0.54156457952E+03  0.00000000000E+00 0. -1.
         -3   -1    0    0    0  501 -0.00000000000E+00 -0.00000000000E+00 -0.63261699878E+02  0.63261699878E+02  0.00000000000E+00 0.  1.
          5    1    1    2  502    0  0.74066086417E+02  0.48445949571E+01  0.41837335743E+02  0.85305863337E+02  0.41800000000E+01 0.  1.
         -5    1    1    2    0  502  0.23874500577E+02  0.10454452541E+03  0.17141857389E+03  0.20224082042E+03  0.41800000000E+01 0.  1.
        -11    1    1    2    0    0 -0.44499638125E+02 -0.68023033014E+02  0.22380425716E+03  0.23810858098E+03  0.00000000000E+00 0. -1.
         11    1    1    2    0    0 -0.53440948870E+02 -0.41366087350E+02  0.41242712842E+02  0.79171014654E+02  0.00000000000E+00 0.  1.
</event>
<event>
 6    1  0.5317355E-006  0.1052661E+03  0.7561462E-02  0.1269596E+00
          3   -1    0    0  501    0  0.00000000000E+00  0.00000000000E+00  0.12550325209E+03  0.12550325209E+03  0.00000000000E+00 0. -1.
         -3   -1    0    0    0  501 -0.00000000000E+00 -0.00000000000E+00 -0.16873880783E+03  0.16873880783E+03  0.00000000000E+00 0.  1.
          5    1    1    2  502    0  0.58009134542E+01 -0.77470072823E+02 -0.63442589705E+02  0.10038773515E+03  0.41800000000E+01 0. -1.
         -5    1    1    2    0  502 -0.68511804618E+01  0.49329630231E+02 -0.52433625024E+02  0.72436927914E+02  0.41800000000E+01 0. -1.
        -11    1    1    2    0    0 -0.13288415493E+01  0.55387698661E+02  0.14661432490E+02  0.57310737087E+02  0.00000000000E+00 0.  1.
         11    1    1    2    0    0  0.23791085569E+01 -0.27247256069E+02  0.57979226503E+02  0.64106659769E+02  0.00000000000E+00 0. -1.
</event>
<event>
 6    1  0.5317355E-006  0.1228852E+03  0.7561462E-02  0.1238412E+00
         -1   -1    0    0    0  501 -0.00000000000E+00  0.00000000000E+00  0.14795673680E+03  0.14795673680E+03  0.00000000000E+00 0.  1.
          1   -1    0    0  501    0  0.00000000000E+00 -0.00000000000E+00 -0.17602967738E+03  0.17602967738E+03  0.00000000000E+00 0. -1.
          5    1    1    2  502    0 -0.28041176979E+02  0.99597996884E+02 -0.27896433176E+02  0.10724622126E+03  0.41800000000E+01 0.  1.
         -5    1    1    2    0  502  0.50073671077E+01  0.71226132384E+01  0.61370564260E+02  0.62125871441E+02  0.41800000000E+01 0.  1.
        -11    1    1    2    0    0  0.50668478450E+02 -0.63175844353E+02 -0.98334822017E+01  0.81579282850E+02  0.00000000000E+00 0.  1.
         11    1    1    2    0    0 -0.27634668578E+02 -0.43544765769E+02 -0.51713589462E+02  0.73035038634E+02  0.00000000000E+00 0. -1.
</event>
<event>
 6    1  0.5317355E-006  0.8759100E+02  0.7561462E-02  0.1308793E+00
          2   -1    0    0  501    0  0.00000000000E+00  0.00000000000E+00  0.23302906983E+03  0.23302906983E+03  0.00000000000E+00 0. -1.
         -2   -1    0    0    0  501 -0.00000000000E+00 -0.00000000000E+00 -0.74940034153E+02  0.74940034153E+02  0.00000000000E+00 0.  1.
          5    1    1    2  502    0 -0.38114010270E+02  0.22268107676E+02  0.38971568594E+02  0.59032211182E+02  0.41800000000E+01 0.  1.
         -5    1    1    2    0  502  0.24330120685E+02 -0.66791256379E+02 -0.24356418983E+02  0.75257785291E+02  0.41800000000E+01 0.  1.
        -11    1    1    2    0    0 -0.12387154628E+02  0.21327819176E+02  0.13561069096E+03  0.13783532556E+03  0.00000000000E+00 0. -1.
         11    1    1    2    0    0  0.26171044213E+02  0.23195329528E+02  0.78631951070E+01  0.35843781949E+02  0.00000000000E+00 0.  1.
</event>
<event>
 6    1  0.5317355E-006  0.1309164E+03  0.7561462E-02  0.1226102E+00
         -2   -1    0    0    0  501 -0.00000000000E+00  0.00000000000E+00  0.23445336928E+03  0.23445336928E+03  0.00000000000E+00 0.  1.
          2   -1    0    0  501    0  0.00000000000E+00 -0.00000000000E+00 -0.10018917614E+03  0.10018917614E+03  0.00000000000E+00 0. -1.
          5    1    1    2  502    0  0.10280592790E+03  0.12314532862E+02 -0.23771069203E+00  0.10362545748E+03  0.41800000000E+01 0. -1.
         -5    1    1    2    0  502 -0.11202169593E+03  0.35621739095E+01  0.14304592016E+03  0.18177226718E+03  0.41800000000E+01 0.  1.
        -11    1    1    2    0    0  0.24841412308E+02 -0.17433482800E+02 -0.12858291938E+02  0.32959941741E+02  0.00000000000E+00 0. -1.
         11    1    1    2    0    0 -0.15625644280E+02  0.15567760283E+01  0.43142756036E+01  0.16284879022E+02  0.00000000000E+00 0.  1.
</event>
<event>
 6    1  0.5317355E-006  0.1716681E+03  0.7561462E-02  0.1176119E+00
          2   -1    0    0  501    0  0.00000000000E+00  0.00000000000E+00  0.37389535348E+03  0.37389535348E+03  0.00000000000E+00 0. -1.
         -2   -1    0    0    0  501 -0.00000000000E+00 -0.00000000000E+00 -0.14178293027E+03  0.14178293027E+03  0.00000000000E+00 0.  1.
          5    1    1    2  502    0  0.12118714677E+02  0.15694852238E+02 -0.49147076774E+02  0.53161068345E+02  0.41800000000E+01 0. -1.
         -5    1    1    2    0  502  0.14216219233E+03 -0.37063676706E+02  0.21411800161E+02  0.14852522562E+03  0.41800000000E+01 0. -1.
        -11    1    1    2    0    0 -0.77192526321E+02 -0.30698605490E+02  0.12946821109E+03  0.15382817746E+03  0.00000000000E+00 0. -1.
         11    1    1    2    0    0 -0.77088380683E+02  0.52067429959E+02  0.13037948873E+03  0.16016381233E+03  0.00000000000E+00 0.  1.
</event>
<event>
 6    1  0.5485145E-006  0.1776833E+03  0.7561462E-02  0.1170064E+00
          2   -1    0    0  501    0  0.00000000000E+00  0.00000000000E+00  0.73340698986E+02  0.73340698986E+02  0.00000000000E+00 0.  1.
         -2   -1    0    0    0  501 -0.00000000000E+00 -0.00000000000E+00 -0.69190869678E+03  0.69190869678E+03  0.00000000000E+00 0. -1.
          5    1    1    2  502    0 -0.10668225630E+03  0.14010417851E+03 -0.49821113859E+03  0.52843362465E+03  0.41800000000E+01 0.  1.
         -5    1    1    2    0  502  0.15173386404E+01 -0.92744279227E+01  0.16815300563E+01  0.10421961100E+02  0.41800000000E+01 0.  1.
        -11    1    1    2    0    0  0.89448870282E+02 -0.98926149576E+02 -0.13381676189E+03  0.18892964094E+03  0.00000000000E+00 0. -1.
         11    1    1    2    0    0  0.15716047380E+02 -0.31903601009E+02  0.11778372626E+02  0.37464169073E+02  0.00000000000E+00 0.  1.
</event>
<event>
 6    1  0.5317355E-006  0.8403050E+02  0.7561462E-02  0.1317988E+00
         -2   -1    0    0    0  501 -0.00000000000E+00  0.00000000000E+00  0.30636183595E+02  0.30636183595E+02  0.00000000000E+00 0.  1.
          2   -1    0    0  501    0  0.00000000000E+00 -0.00000000000E+00 -0.56706787289E+03  0.56706787289E+03  0.00000000000E+00 0. -1.
          5    1    1    2  502    0 -0.30597320750E+01  0.16873884981E+01 -0.17299951954E+03  0.17308528361E+03  0.41800000000E+01 0.  1.
         -5    1    1    2    0  502  0.22460787115E+02 -0.46799332476E+02 -0.85282982104E+01  0.52771855646E+02  0.41800000000E+01 0.  1.
        -11    1    1    2    0    0  0.35162454988E+02 -0.61175498013E+01 -0.13039842703E+03  0.13519457248E+03  0.00000000000E+00 0.  1.
         11    1    1    2    0    0 -0.54563510027E+02  0.51229493779E+02 -0.22450544452E+03  0.23665234475E+03  0.00000000000E+00 0. -1.
</event>
<event>
 6    1  0.5317355E-006  0.1023817E+03  0.7561462E-02  0.1275366E+00
          2   -1    0    0  501    0  0.00000000000E+00  0.00000000000E+00  0.20636888918E+03  0.20636888918E+03  0.00000000000E+00 0. -1.
         -2   -1    0    0    0  501 -0.00000000000E+00 -0.00000000000E+00 -0.88176501724E+02  0.88176501724E+02  0.00000000000E+00 0.  1.
          5    1    1    2  502    0 -0.72635884531E+02 -0.35534094253E+02  0.84091547860E+02  0.11673690247E+03  0.41800000000E+01 0. -1.
         -5    1    1    2    0  502 -0.81261175138E+01  0.31367659717E+02 -0.27400330698E+02  0.42640525142E+02  0.41800000000E+01 0. -1.
        -11    1    1    2    0    0  0.86818001159E+01  0.15877850065E+02  0.59418219166E+02  0.62112837198E+02  0.00000000000E+00 0. -1.
         11    1    1    2    0    0  0.72080201929E+02 -0.11711415529E+02  0.20829511295E+01  0.73055126099E+02  0.00000000000E+00 0.  1.
</event>
<event>
 6    1  0.5317355E-006  0.2962863E+03  0.7561462E-02  0.1087112E+00
         -1   -1    0    0    0  501 -0.00000000000E+00  0.00000000000E+00  0.31930137736E+03  0.31930137736E+03  0.00000000000E+00 0.  1.
          1   -1    0    0  501    0  0.00000000000E+00 -0.00000000000E+00 -0.34507446419E+03  0.34507446419E+03  0.00000000000E+00 0. -1.
          5    1    1    2  502    0  0.19823152896E+02  0.53012763310E+02  0.83752380505E+02  0.10116938324E+03  0.41800000000E+01 0. -1.
         -5    1    1    2    0  502  0.14821431046E+03 -0.24133122970E+03 -0.67287154133E+02  0.29112416211E+03  0.41800000000E+01 0.  1.
        -11    1    1    2    0    0 -0.39824305319E+02  0.51049928438E+02  0.29326010302E+02  0.71078023101E+02  0.00000000000E+00 0.  1.
         11    1    1    2    0    0 -0.12821315804E+03  0.13726853795E+03 -0.71564323510E+02  0.20100427310E+03  0.00000000000E+00 0. -1.
</event>
<event>
 6    1  0.5317355E-006  0.8191503E+02  0.7561462E-02  0.1323703E+00
         -1   -1    0    0    0  501 -0.00000000000E+00  0.00000000000E+00  0.37226894823E+03  0.37226894823E+03  0.00000000000E+00 0.  1.
          1   -1    0    0  501    0  0.00000000000E+00 -0.00000000000E+00 -0.62649789261E+02  0.62649789261E+02  0.00000000000E+00 0. -1.
          5    1    1    2  502    0  0.44445657487E+02 -0.27335390112E+02  0.19390031443E+02  0.55821910943E+02  0.41800000000E+01 0.  1.
         -5    1    1    2    0  502  0.28406929882E+02  0.26788881874E+00  0.24617697231E+03  0.24784591892E+03  0.41800000000E+01 0.  1.
        -11    1    1    2    0    0 -0.44176210785E+02  0.12655636522E+01  0.71395759751E+02  0.83967218372E+02  0.00000000000E+00 0.  1.
         11    1    1    2    0    0 -0.28676376584E+02  0.25801937641E+02 -0.27343604539E+02  0.47283689251E+02  0.00000000000E+00 0. -1.
</event>
<event>
 6    1  0.5317355E-006  0.8996357E+02  0.7561462E-02  0.1302940E+00
          2   -1    0    0  501    0  0.00000000000E+00  0.00000000000E+00  0.20548919980E+03  0.20548919980E+03  0.00000000000E+00 0. -1.
         -2   -1    0    0    0  501 -0.00000000000E+00 -0.00000000000E+00 -0.94662462739E+02  0.94662462739E+02  0.00000000000E+00 0.  1.
          5    1    1    2  502    0  0.26492764441E+02  0.39975869612E+02  0.16843064844E+02  0.51000960307E+02  0.41800000000E+01 0. -1.
         -5    1    1    2    0  502 -0.29997716618E+02 -0.33422918675E+02 -0.56886676749E+02  0.72598353195E+02  0.41800000000E+01 0.  1.
        -11    1    1    2    0    0 -0.43943184374E+01 -0.46123195488E+02  0.10882315612E+03  0.11827568856E+03  0.00000000000E+00 0. -1.
         11    1    1    2    0    0  0.78992706147E+01  0.39570244551E+02  0.42047192853E+02  0.58276660482E+02  0.00000000000E+00 0.  1.
</event>
<event>
 6    1  0.5317355E-006  0.1159479E+03  0.7561462E-02  0.1249935E+00
         -1   -1    0    0    0  501 -0.00000000000E+00  0.00000000000E+00  0.39755396080E+03  0.39755396080E+03  0.00000000000E+00 0.  1.
          1   -1    0    0  501    0  0.00000000000E+00 -0.00000000000E+00 -0.36030082733E+02  0.36030082733E+02  0.00000000000E+00 0. -1.
          5    1    1    2  502    0 -0.33045604730E+02 -0.75088650886E+02  0.14098451537E+03  0.16316992204E+03  0.41800000000E+01 0. -1.
         -5    1    1    2    0  502 -0.10479591502E+02  0.51070196835E+02  0.79721032532E+02  0.95346223160E+02  0.41800000000E+01 0. -1.
        -11    1    1    2    0    0  0.61682901804E+02  0.39786039474E+02  0.12864930437E+03  0.14811601138E+03  0.00000000000E+00 0. -1.
         11    1    1    2    0    0 -0.18157705572E+02 -0.15767585424E+02  0.12169025799E+02  0.26951886959E+02  0.00000000000E+00 0.  1.
</event>
<event>
 6    1  0.1209514E-005  0.5739396E+02  0.7561462E-02  0.1409105E+00
         -2   -1    0    0    0  501 -0.00000000000E+00  0.00000000000E+00  0.37509094963E+03  0.37509094963E+03  0.00000000000E+00 0.  1.
          2   -1    0    0  501    0  0.00000000000E+00 -0.00000000000E+00 -0.16984915724E+02  0.16984915724E+02  0.00000000000E+00 0. -1.
          5    1    1    2  502    0 -0.32519171239E+02  0.50112278183E+01  0.18462995587E+02  0.37960025137E+02  0.41800000000E+01 0. -1.
         -5    1    1    2    0  502  0.38589573662E+02  0.24528591841E+02  0.28510933984E+03  0.28878298959E+03  0.41800000000E+01 0.  1.
        -11    1    1    2    0    0 -0.12769709839E+02 -0.15026641703E+02  0.34078785663E+02  0.39372948614E+02  0.00000000000E+00 0.  1.
         11    1    1    2    0    0  0.66993074159E+01 -0.14513177956E+02  0.20454912821E+02  0.25959902017E+02  0.00000000000E+00 0. -1.
</event>
<event>
 6    1  0.5317355E-006  0.8208964E+02  0.7561462E-02  0.1323224E+00
         -1   -1    0    0    0  501 -0.00000000000E+00  0.00000000000E+00  0.18830132159E+03  0.18830132159E+03  0.00000000000E+00 0.  1.
          1   -1    0    0  501    0  0.00000000000E+00 -0.00000000000E+00 -0.10052890343E+03  0.10052890343E+03  0.00000000000E+00 0. -1.
          5    1    1    2  502    0 -0.35453557663E+02 -0.25325707148E+02  0.12897950936E+03  0.13620401033E+03  0.41800000000E+01 0.  1.
         -5    1    1    2    0  502  0.17245097191E+02 -0.31487894180E+02 -0.18893977243E+02  0.40784011979E+02  0.41800000000E+01 0.  1.
        -11    1    1    2    0    0 -0.21484526538E+02  0.27624419497E+02  0.25410976129E+02  0.43248250149E+02  0.00000000000E+00 0.  1.
         11    1    1    2    0    0  0.39692987010E+02  0.29189181831E+02 -0.47724090085E+02  0.68593952562E+02  0.00000000000E+00 0. -1.
</event>
<event>
 6    1  0.5317355E-006  0.1237643E+03  0.7561462E-02  0.1237013E+00
          3   -1    0    0  501    0  0.00000000000E+00  0.00000000000E+00  0.12185032119E+03  0.12185032119E+03  0.00000000000E+00 0. -1.
         -3   -1    0    0    0  501 -0.00000000000E+00 -0.00000000000E+00 -0.26028849776E+03  0.26028849776E+03  0.00000000000E+00 0.  1.
          5    1    1    2  502    0 -0.18180243290E+02  0.82214469100E+02 -0.18527108078E+03  0.20354995934E+03  0.41800000000E+01 0. -1.
         -5    1    1    2    0  502 -0.43481865015E+01 -0.70023339889E+02 -0.74213267827E+01  0.70673356694E+02  0.41800000000E+01 0.  1.
        -11    1    1    2    0    0  0.46223011243E+02 -0.36573883697E+02  0.29892777767E+02  0.66089287329E+02  0.00000000000E+00 0.  1.
         11    1    1    2    0    0 -0.23694581452E+02  0.24382754486E+02  0.24361453225E+02  0.41826215580E+02  0.00000000000E+00 0. -1.
</event>
<event>
 6    1  0.1618695E-005  0.3479443E+03  0.7561462E-02  0.1063462E+00
         -4   -1    0    0    0  501 -0.00000000000E+00  0.00000000000E+00  0.35110801515E+03  0.35110801515E+03  0.00000000000E+00 0.  1.
          4   -1    0    0  501    0  0.00000000000E+00 -0.00000000000E+00 -0.37484964856E+03  0.37484964856E+03  0.00000000000E+00 0. -1.
          5    1    1    2  502    0 -0.12044522446E+03  0.30779220959E+01  0.65341785141E+02  0.13712602592E+03  0.41800000000E+01 0. -1.
         -5    1    1    2    0  502 -0.19667643115E+03 -0.11595893426E+03  0.27145701770E+01  0.22837016945E+03  0.41800000000E+01 0. -1.
        -11    1    1    2    0    0  0.71794947604E+02 -0.10184585274E+02 -0.53741646024E+01  0.72712598110E+02  0.00000000000E+00 0. -1.
         11    1    1    2    0    0  0.24532670801E+03  0.12306559744E+03 -0.86423824125E+02  0.28774887022E+03  0.00000000000E+00 0.  1.
</event>
<event>
 6    1  0.5317355E-006  0.2325471E+03  0.7561462E-02  0.1124860E+00
          1   -1    0    0  501    0  0.00000000000E+00  0.00000000000E+00  0.40993410059E+03  0.40993410059E+03  0.00000000000E+00 0. -1.
         -1   -1    0    0    0  501 -0.00000000000E+00 -0.00000000000E+00 -0.17572593513E+03  0.17572593513E+03  0.00000000000E+00 0.  1.
          5    1    1    2  502    0 -0.10419341751E+03  0.72974185079E+02 -0.16680414298E+02  0.12836357958E+03  0.41800000000E+01 0. -1.
         -5    1    1    2    0  502  0.50499145707E+02 -0.15138008606E+03  0.15149763545E+02  0.16035299158E+03  0.41800000000E+01 0.  1.
        -11    1    1    2    0    0  0.72647072782E+01 -0.45389713863E+02  0.83411353158E+02  0.95238941258E+02  0.00000000000E+00 0.  1.
         11    1    1    2    0    0  0.46429564527E+02  0.12379561485E+03  0.15232746306E+03  0.20170452330E+03  0.00000000000E+00 0. -1.
</event>
<event>
 6    1  0.5317355E-006  0.1198266E+03  0.7561462E-02  0.1243383E+00
         -2   -1    0    0    0  501 -0.00000000000E+00  0.00000000000E+00  0.50385635597E+02  0.50385635597E+02  0.00000000000E+00 0.  1.
          2   -1    0    0  501    0  0.00000000000E+00 -0.00000000000E+00 -0.36489920742E+03  0.36489920742E+03  0.00000000000E+00 0. -1.
          5    1    1    2  502    0 -0.27450180003E+02 -0.93429095976E+02 -0.90197193720E+02  0.13279877451E+03  0.41800000000E+01 0. -1.
         -5    1    1    2    0  502  0.48070619337E+02  0.42029426761E+02 -0.61857949582E+02  0.89000761141E+02  0.41800000000E+01 0.  1.
        -11    1    1    2    0    0  0.18789848659E+02  0.22559567002E+02 -0.13354070130E+03  0.13673006758E+03  0.00000000000E+00 0.  1.
         11    1    1    2    0    0 -0.39410287993E+02  0.28840102214E+02 -0.28917727217E+02  0.56755239783E+02  0.00000000000E+00 0. -1.
</event>
<event>
 6    1  0.8204875E-006  0.2743741E+03  0.7561462E-02  0.1098802E+00
         -1   -1    0    0    0  501 -0.00000000000E+00  0.00000000000E+00  0.16038747541E+03  0.16038747541E+03  0.00000000000E+00 0.  1.
          1   -1    0    0  501    0  0.00000000000E+00 -0.00000000000E+00 -0.50074203635E+03  0.50074203635E+03  0.00000000000E+00 0. -1.
          5    1    1    2  502    0  0.13130803384E+03  0.12616202450E+03 -0.70554903895E+02  0.19533080413E+03  0.41800000000E+01 0. -1.
         -5    1    1    2    0  502 -0.11100443057E+02  0.10133813765E+03 -0.67493267892E+02  0.12233336253E+03  0.41800000000E+01 0. -1.
        -11    1    1    2    0    0 -0.11909932611E+03 -0.17282296836E+03 -0.19810797188E+03  0.28861600162E+03  0.00000000000E+00 0. -1.
         11    1    1    2    0    0 -0.11082646793E+01 -0.54677193787E+02 -0.41984172760E+01  0.54849343466E+02  0.00000000000E+00 0.  1.
</event>
<event>
 6    1  0.5317355E-006  0.1329283E+03  0.7561462E-02  0.1223174E+00
          1   -1    0    0  501    0  0.00000000000E+00  0.00000000000E+00  0.10297700762E+04  0.10297700762E+04  0.00000000000E+00 0. -1.
         -1   -1    0    0    0  501 -0.00000000000E+00 -0.00000000000E+00 -0.26725387960E+02  0.26725387960E+02  0.00000000000E+00 0.  1.
          5    1    1    2  502    0  0.16975775926E+02 -0.81248760383E+02  0.40433499375E+03  0.41278783606E+03  0.41800000000E+01 0.  1.
         -5    1    1    2    0  502 -0.10953848096E+02 -0.38547481746E+02  0.18796966411E+02  0.44460021179E+02  0.41800000000E+01 0.  1.
        -11    1    1    2    0    0  0.33038517135E+02  0.30385655656E+02  0.10143332950E+03  0.11092137764E+03  0.00000000000E+00 0.  1.
         11    1    1    2    0    0 -0.39060444965E+02  0.89410586472E+02  0.47847939862E+03  0.48832622932E+03  0.00000000000E+00 0. -1.
</event>
<event>
 6    1  0.5317355E-006  0.1245596E+03  0.7561462E-02  0.1235759E+00
         -1   -1    0    0    0  501 -0.00000000000E+00  0.00000000000E+00  0.14814375506E+03  0.14814375506E+03  0.00000000000E+00 0.  1.
          1   -1    0    0  501    0  0.00000000000E+00 -0.00000000000E+00 -0.12406890673E+03  0.12406890673E+03  0.00000000000E+00 0. -1.
          5    1    1    2  502    0 -0.48009462053E+02  0.41678293211E+02  0.20622653936E+02  0.66968312111E+02  0.41800000000E+01 0. -1.
         -5    1    1    2    0  502 -0.22672399679E+02 -0.79308546064E+02 -0.27214616812E+01  0.82636323367E+02  0.41800000000E+01 0. -1.
        -11    1    1    2    0    0 -0.35872747041E+00 -0.14621802338E+02 -0.25090691302E+02  0.29042530521E+02  0.00000000000E+00 0. -1.
         11    1    1    2    0    0  0.71040589203E+02  0.52252055191E+02  0.31264347379E+02  0.93565495793E+02  0.00000000000E+00 0.  1.
</event>
<event>
 6    1  0.5317355E-006  0.1137682E+03  0.7561462E-02  0.1253747E+00
          3   -1    0    0  501    0  0.00000000000E+00  0.00000000000E+00  0.16233471427E+03  0.16233471427E+03  0.00000000000E+00 0. -1.
         -3   -1    0    0    0  501 -0.00000000000E+00 -0.00000000000E+00 -0.10292210136E+03  0.10292210136E+03  0.00000000000E+00 0.  1.
          5    1    1    2  502    0 -0.44252735638E+02 -0.92330373171E+01 -0.34876521211E+02  0.57248560867E+02  0.41800000000E+01 0.  1.
         -5    1    1    2    0  502  0.18766249279E+02  0.69982003497E+02  0.42846616023E+02  0.84279047396E+02  0.41800000000E+01 0.  1.
        -11    1    1    2    0    0 -0.27676338865E+00  0.22457522818E+02 -0.21344402222E+00  0.22460242373E+02  0.00000000000E+00 0.  1.
         11    1    1    2    0    0  0.25763249748E+02 -0.83206488998E+02  0.51655962124E+02  0.10126896500E+03  0.00000000000E+00 0. -1.
</event>
<event>
 6    1  0.5317355E-006  0.1209602E+03  0.7561462E-02  0.1241521E+00
          1   -1    0    0  501    0  0.00000000000E+00  0.00000000000E+00  0.76334181398E+03  0.76334181398E+03  0.00000000000E+00 0. -1.
         -1   -1    0    0    0  501 -0.00000000000E+00 -0.00000000000E+00 -0.26388506711E+02  0.26388506711E+02  0.00000000000E+00 0.  1.
          5    1    1    2  502    0  0.62742499350E+01 -0.40671192990E+02  0.12649466113E+03  0.13308600169E+03  0.41800000000E+01 0. -1.
         -5    1    1    2    0  502 -0.77901344658E+02  0.28935354429E+02  0.87764637328E+02  0.12093791052E+03  0.41800000000E+01 0.  1.
        -11    1    1    2    0    0 -0.21489335214E+02 -0.65280954678E+01  0.10215997490E+03  0.10459956037E+03  0.00000000000E+00 0.  1.
         11    1    1    2    0    0  0.93116429937E+02  0.18263934029E+02  0.42053403390E+03  0.43110684810E+03  0.00000000000E+00 0. -1.
</event>
<event>
 6    1  0.5317355E-006  0.1103108E+03  0.7561462E-02  0.1259995E+00
          2   -1    0    0  501    0  0.00000000000E+00  0.00000000000E+00  0.64440926960E+02  0.64440926960E+02  0.00000000000E+00 0. -1.
         -2   -1    0    0    0  501 -0.00000000000E+00 -0.00000000000E+00 -0.28720100450E+03  0.28720100450E+03  0.00000000000E+00 0.  1.
          5    1    1    2  502    0  0.26907541637E+02 -0.71601792933E+02 -0.14888951700E+03  0.16744071554E+03  0.41800000000E+01 0.  1.
         -5    1    1    2    0  502  0.35486134843E+02  0.41133483158E+02 -0.32001074440E+02  0.63188372096E+02  0.41800000000E+01 0.  1.
        -11    1    1    2    0    0 -0.34158947596E+02  0.46007954693E+02 -0.60871374982E+02  0.83599580670E+02  0.00000000000E+00 0. -1.
         11    1    1    2    0    0 -0.28234728883E+02 -0.15539644918E+02  0.19001888878E+02  0.37413263159E+02  0.00000000000E+00 0.  1.
</event>
<event>
 6    1  0.5317355E-006  0.1131429E+03  0.7561462E-02  0.1254858E+00
         -1   -1    0    0    0  501 -0.00000000000E+00  0.00000000000E+00  0.31975570086E+02  0.31975570086E+02  0.00000000000E+00 0.  1.
          1   -1    0    0  501    0  0.00000000000E+00 -0.00000000000E+00 -0.48077081632E+03  0.48077081632E+03  0.00000000000E+00 0. -1.
          5    1    1    2  502    0 -0.28805161155E+02 -0.65459284731E+02 -0.58285532288E+02  0.92354376944E+02  0.41800000000E+01 0. -1.
         -5    1    1    2    0  502 -0.16844397087E+02  0.49086405357E+02 -0.11969651213E+03  0.13052944618E+03  0.41800000000E+01 0. -1.
        -11    1    1    2    0    0 -0.26633574352E+02 -0.52262170284E+01 -0.57041231200E+02  0.63169317584E+02  0.00000000000E+00 0.  1.
         11    1    1    2    0    0  0.72283132595E+02  0.21599096403E+02 -0.21377197062E+03  0.22669324570E+03  0.00000000000E+00 0. -1.
</event>
<event>
 6    1  0.5317355E-006  0.1057571E+03  0.7561462E-02  0.1268635E+00
          2   -1    0    0  501    0  0.00000000000E+00  0.00000000000E+00  0.97930201199E+02  0.97930201199E+02  0.00000000000E+00 0. -1.
         -2   -1    0    0    0  501 -0.00000000000E+00 -0.00000000000E+00 -0.27405288961E+03  0.27405288961E+03  0.00000000000E+00 0.  1.
          5    1    1    2  502    0  0.51623917071E+01 -0.59175992621E+02 -0.34521258091E+02  0.68830502330E+02  0.41800000000E+01 0.  1.
         -5    1    1    2    0  502  0.38620790708E+02  0.22872658423E+02 -0.18289700339E+03  0.18837067242E+03  0.41800000000E+01 0.  1.
        -11    1    1    2    0    0 -0.71655746953E+02  0.19194182726E+02  0.31935295991E+02  0.80764013347E+02  0.00000000000E+00 0. -1.
         11    1    1    2    0    0  0.27872564538E+02  0.17109151472E+02  0.93602770804E+01  0.34017902713E+02  0.00000000000E+00 0.  1.
</event>
<event>
 6    1  0.5317355E-006  0.1030983E+03  0.7561462E-02  0.1273912E+00
          3   -1    0    0  501    0  0.00000000000E+00  0.00000000000E+00  0.41937188650E+03  0.41937188650E+03  0.00000000000E+00 0. -1.
         -3   -1    0    0    0  501 -0.00000000000E+00 -0.00000000000E+00 -0.46536493269E+02  0.46536493269E+02  0.00000000000E+00 0.  1.
          5    1    1    2  502    0  0.43636828007E+02 -0.12487170829E+02 -0.10837823394E+02  0.46851179385E+02  0.41800000000E+01 0.  1.
         -5    1    1    2    0  502  0.18841228418E+02  0.49190627859E+02  0.13055558892E+03  0.14084368624E+03  0.41800000000E+01 0.  1.
        -11    1    1    2    0    0  0.81033475300E+01 -0.36299108698E+02  0.44594461709E+02  0.58068541815E+02  0.00000000000E+00 0.  1.
         11    1    1    2    0    0 -0.70581403955E+02 -0.40434833225E+00  0.20852316600E+03  0.22014497233E+03  0.00000000000E+00 0. -1.
</event>
<event>
 6    1  0.5317355E-006  0.1102239E+03  0.7561462E-02  0.1260156E+00
         -2   -1    0    0    0  501 -0.00000000000E+00  0.00000000000E+00  0.14676947838E+03  0.14676947838E+03  0.00000000000E+00 0.  1.
          2   -1    0    0  501    0  0.00000000000E+00 -0.00000000000E+00 -0.11368721769E+03  0.11368721769E+03  0.00000000000E+00 0. -1.
          5    1    1    2  502    0  0.45598535396E+02 -0.91842336364E+01  0.50242462285E+02  0.68595582906E+02  0.41800000000E+01 0.  1.
         -5    1    1    2    0  502 -0.62204863729E+02 -0.50104655934E+02  0.11361106683E+01  0.79991779361E+02  0.41800000000E+01 0.  1.
        -11    1    1    2    0    0  0.44279294789E+02  0.30103356369E+02 -0.39373797998E+02  0.66461748250E+02  0.00000000000E+00 0. -1.
         11    1    1    2    0    0 -0.27672966457E+02  0.29185533202E+02  0.21077485737E+02  0.45407585554E+02  0.00000000000E+00 0.  1.
</event>
<event>
 6    1  0.5317355E-006  0.1194983E+03  0.7561462E-02  0.1243927E+00
         -2   -1    0    0    0  501 -0.00000000000E+00  0.00000000000E+00  0.17787997395E+03  0.17787997395E+03  0.00000000000E+00 0. -1.
          2   -1    0    0  501    0  0.00000000000E+00 -0.00000000000E+00 -0.91979551599E+02  0.91979551599E+02  0.00000000000E+00 0.  1.
          5    1    1    2  502    0  0.64153173831E+02  0.38991107507E+02  0.20664318897E+02  0.77977064915E+02  0.41800000000E+01 0.  1.
         -5    1    1    2    0  502 -0.55269730613E+01 -0.59924900138E+02  0.51323780449E+02  0.79203181296E+02  0.41800000000E+01 0.  1.
        -11    1    1    2    0    0 -0.60855840539E+01 -0.29818483345E+02  0.24234490671E+02  0.38903557940E+02  0.00000000000E+00 0.  1.
         11    1    1    2    0    0 -0.52540616716E+02  0.50752275976E+02 -0.10322167671E+02  0.73775721393E+02  0.00000000000E+00 0. -1.
</event>
<event>
 6    1  0.5317355E-006  0.2640017E+03  0.7561462E-02  0.1104763E+00
         -2   -1    0    0    0  501 -0.00000000000E+00  0.00000000000E+00  0.12201338022E+03  0.12201338022E+03  0.00000000000E+00 0.  1.
          2   -1    0    0  501    0  0.00000000000E+00 -0.00000000000E+00 -0.15147898336E+04  0.15147898336E+04  0.00000000000E+00 0. -1.
          5    1    1    2  502    0  0.71538930686E+02 -0.77101322397E+02 -0.10883896129E+03  0.15141276173E+03  0.41800000000E+01 0. -1.
         -5    1    1    2    0  502  0.12625663141E+03 -0.85058090653E+02  0.19898526465E+02  0.15358723748E+03  0.41800000000E+01 0.  1.
        -11    1    1    2    0    0 -0.10640247132E+02  0.52429630648E+02 -0.21425834803E+03  0.22083641169E+03  0.00000000000E+00 0.  1.
         11    1    1    2    0    0 -0.18715531497E+03  0.10972978240E+03 -0.10895776706E+04  0.11109668030E+04  0.00000000000E+00 0. -1.
</event>
<event>
 6    1  0.5317355E-006  0.1084573E+03  0.7561462E-02  0.1263454E+00
         -1   -1    0    0    0  501 -0.00000000000E+00  0.00000000000E+00  0.37809908125E+02  0.37809908125E+02  0.00000000000E+00 0.  1.
          1   -1    0    0  501    0  0.00000000000E+00 -0.00000000000E+00 -0.39814510127E+03  0.39814510127E+03  0.00000000000E+00 0. -1.
          5    1    1    2  502    0 -0.11742916834E+02 -0.65052191629E+02 -0.40623195899E+02  0.77700708984E+02  0.41800000000E+01 0. -1.
         -5    1    1    2    0  502  0.23983563218E+02  0.52098845102E+02 -0.66812382514E+02  0.88152525901E+02  0.41800000000E+01 0. -1.
        -11    1    1    2    0    0 -0.43265676404E+02 -0.20215554634E+02 -0.15479801736E+03  0.16199695548E+03  0.00000000000E+00 0.  1.
         11    1    1    2    0    0  0.31025030021E+02  0.33168901161E+02 -0.98101597368E+02  0.10810481903E+03  0.00000000000E+00 0. -1.
</event>
<event>
 6    1  0.5317355E-006  0.8875166E+02  0.7561462E-02  0.1305903E+00
          1   -1    0    0  501    0  0.00000000000E+00  0.00000000000E+00  0.71829773798E+03  0.71829773798E+03  0.00000000000E+00 0. -1.
         -1   -1    0    0    0  501 -0.00000000000E+00 -0.00000000000E+00 -0.21817423164E+02  0.21817423164E+02  0.00000000000E+00 0.  1.
          5    1    1    2  502    0  0.98940963321E+01 -0.32648763523E+02  0.61288064801E+01  0.34912312594E+02  0.41800000000E+01 0. -1.
         -5    1    1    2    0  502 -0.37052868615E+02  0.19881709639E+02  0.23127761090E+03  0.23510636562E+03  0.41800000000E+01 0. -1.
        -11    1    1    2    0    0 -0.73788335412E+01  0.49738103320E+02  0.20998020058E+03  0.21591667546E+03  0.00000000000E+00 0. -1.
         11    1    1    2    0    0  0.34537605825E+02 -0.36971049437E+02  0.24909369686E+03  0.25417980748E+03  0.00000000000E+00 0.  1.
</event>
<event>
 6    1  0.5317355E-006  0.8200264E+02  0.7561462E-02  0.1323462E+00
         -2   -1    0    0    0  501 -0.00000000000E+00  0.00000000000E+00  0.10765319509E+03  0.10765319509E+03  0.00000000000E+00 0.  1.
          2   -1    0    0  501    0  0.00000000000E+00 -0.00000000000E+00 -0.25273555526E+03  0.25273555526E+03  0.00000000000E+00 0. -1.
          5    1    1    2  502    0  0.67776500031E+00 -0.32006463792E+02  0.74709504216E+02  0.81387072131E+02  0.41800000000E+01 0.  1.
         -5    1    1    2    0  502  0.46816958702E+02  0.18458234713E+02 -0.31923043029E+02  0.59741837326E+02  0.41800000000E+01 0.  1.
        -11    1    1    2    0    0  0.16275750267E+02  0.17492911142E+01  0.38950129252E+01  0.16826502662E+02  0.00000000000E+00 0.  1.
         11    1    1    2    0    0 -0.63770473970E+02  0.11798937964E+02 -0.19176383429E+03  0.20243333823E+03  0.00000000000E+00 0. -1.
</event>
<event>
 6    1  0.5317355E-006  0.1340719E+03  0.7561462E-02  0.1221536E+00
          2   -1    0    0  501    0  0.00000000000E+00  0.00000000000E+00  0.64384269068E+02  0.64384269068E+02  0.00000000000E+00 0. -1.
         -2   -1    0    0    0  501 -0.00000000000E+00 -0.00000000000E+00 -0.60607390597E+03  0.60607390597E+03  0.00000000000E+00 0.  1.
          5    1    1    2  502    0 -0.11196774897E+03 -0.14565111335E+02 -0.47416172672E+03  0.48743792914E+03  0.41800000000E+01 0.  1.
         -5    1    1    2    0  502  0.13441168937E+02 -0.24219642910E+02 -0.23665246071E+02  0.36671138470E+02  0.41800000000E+01 0.  1.
        -11    1    1    2    0    0  0.10537551412E+03  0.20144638995E+02 -0.58013396212E+02  0.12196458337E+03  0.00000000000E+00 0.  1.
         11    1    1    2    0    0 -0.68489340823E+01  0.18640115250E+02  0.14150732101E+02  0.24384524059E+02  0.00000000000E+00 0. -1.
</event>
<event>
 6    1  0.5317355E-006  0.1189697E+03  0.7561462E-02  0.1244807E+00
          3   -1    0    0  501    0  0.00000000000E+00  0.00000000000E+00  0.40979226463E+02  0.40979226463E+02  0.00000000000E+00 0. -1.
         -3   -1    0    0    0  501 -0.00000000000E+00 -0.00000000000E+00 -0.69582789578E+03  0.69582789578E+03  0.00000000000E+00 0.  1.
          5    1    1    2  502    0 -0.44079545914E+02 -0.90056911324E+01 -0.21952249562E+03  0.22412431221E+03  0.41800000000E+01 0. -1.
         -5    1    1    2    0  502  0.87251260732E+02 -0.30167004280E+02 -0.37934051657E+03  0.39043505293E+03  0.41800000000E+01 0. -1.
        -11    1    1    2    0    0 -0.61988587847E+02  0.49089231390E+02 -0.61617306814E+02  0.10024485104E+03  0.00000000000E+00 0.  1.
         11    1    1    2    0    0  0.18816873030E+02 -0.99165359777E+01  0.56316496925E+01  0.22002906051E+02  0.00000000000E+00 0. -1.
</event>
<event>
 6    1  0.5317355E-006  0.8329516E+02  0.7561462E-02  0.1319952E+00
         -2   -1    0    0    0  501 -0.00000000000E+00  0.00000000000E+00  0.28345505178E+02  0.28345505178E+02  0.00000000000E+00 0.  1.
          2   -1    0    0  501    0  0.00000000000E+00 -0.00000000000E+00 -0.33448064054E+03  0.33448064054E+03  0.00000000000E+00 0. -1.
          5    1    1    2  502    0  0.75932067866E+02 -0.14093378322E+02 -0.15011266399E+03  0.16886558718E+03  0.41800000000E+01 0.  1.
         -5    1    1    2    0  502 -0.37864906368E+02 -0.13869382398E+02 -0.14152138531E+02  0.42940264640E+02  0.41800000000E+01 0.  1.
        -11    1    1    2    0    0 -0.18606838222E+02  0.64367044657E+01 -0.84067702398E+02  0.86342481893E+02  0.00000000000E+00 0. -1.
         11    1    1    2    0    0 -0.19460323276E+02  0.21526056254E+02 -0.57802630436E+02  0.64677812001E+02  0.00000000000E+00 0.  1.
</event>
<event>
 6    1  0.5317355E-006  0.1030712E+03  0.7561462E-02  0.1273967E+00
          1   -1    0    0  501    0  0.00000000000E+00  0.00000000000E+00  0.41525265378E+03  0.41525265378E+03  0.00000000000E+00 0. -1.
         -1   -1    0    0    0  501 -0.00000000000E+00 -0.00000000000E+00 -0.42390307306E+02  0.42390307306E+02  0.00000000000E+00 0.  1.
          5    1    1    2  502    0 -0.92454536002E+01  0.86122360297E+00  0.16281531332E+03  0.16313343854E+03  0.41800000000E+01 0. -1.
         -5    1    1    2    0  502  0.13080846372E+02 -0.78269629700E+02  0.44438324087E+02  0.91046584355E+02  0.41800000000E+01 0. -1.
        -11    1    1    2    0    0 -0.16166533773E+02 -0.15722166384E+02  0.47230334143E+02  0.52337823735E+02  0.00000000000E+00 0.  1.
         11    1    1    2    0    0  0.12331141001E+02  0.93130572481E+02  0.11837837492E+03  0.15112511445E+03  0.00000000000E+00 0. -1.
</event>
<event>
 6    1  0.5317355E-006  0.1524317E+03  0.7561462E-02  0.1197516E+00
          1   -1    0    0  501    0  0.00000000000E+00  0.00000000000E+00  0.17514875564E+04  0.17514875564E+04  0.00000000000E+00 0. -1.
         -1   -1    0    0    0  501 -0.00000000000E+00 -0.00000000000E+00 -0.14348703017E+02  0.14348703017E+02  0.00000000000E+00 0.  1.
          5    1    1    2  502    0 -0.10943195737E+03 -0.79986953093E+02  0.92660509038E+03  0.93647623134E+03  0.41800000000E+01 0. -1.
         -5    1    1    2    0  502  0.69524937102E+01  0.25632283948E+02  0.77818147471E+02  0.82331571253E+02  0.41800000000E+01 0. -1.
        -11    1    1    2    0    0 -0.96668631811E+01  0.24463165844E+02  0.84327608845E+02  0.88334819524E+02  0.00000000000E+00 0.  1.
         11    1    1    2    0    0  0.11214632684E+03  0.29891503301E+02  0.64838800664E+03  0.65869363725E+03  0.00000000000E+00 0. -1.
</event>
<event>
 6    1  0.5317355E-006  0.1116557E+03  0.7561462E-02  0.1257534E+00
         -4   -1    0    0    0  501 -0.00000000000E+00  0.00000000000E+00  0.90467891272E+02  0.90467891272E+02  0.00000000000E+00 0.  1.
          4   -1    0    0  501    0  0.00000000000E+00 -0.00000000000E+00 -0.17588266799E+03  0.17588266799E+03  0.00000000000E+00 0. -1.
          5    1    1    2  502    0 -0.68669819712E+02  0.43046729755E+02 -0.25500511081E+01  0.81194459433E+02  0.41800000000E+01 0. -1.
         -5    1    1    2    0  502  0.35253173248E+02 -0.31961738915E+02  0.11110585619E+02  0.49043414352E+02  0.41800000000E+01 0. -1.
        -11    1    1    2    0    0  0.38457223689E+01 -0.47400590606E+02 -0.27940697390E+02  0.55156941005E+02  0.00000000000E+00 0.  1.
         11    1    1    2    0    0  0.29570924095E+02  0.36315599766E+02 -0.66034613837E+02  0.80955744471E+02  0.00000000000E+00 0. -1.
</event>
<event>
 6    1  0.5317355E-006  0.1366064E+03  0.7561462E-02  0.1217970E+00
         -2   -1    0    0    0  501 -0.00000000000E+00  0.00000000000E+00  0.33630355507E+02  0.33630355507E+02  0.00000000000E+00 0.  1.
          2   -1    0    0  501    0  0.00000000000E+00 -0.00000000000E+00 -0.69702826246E+03  0.69702826246E+03  0.00000000000E+00 0. -1.
          5    1    1    2  502    0  0.36267400463E+02 -0.10824213855E+03 -0.30072737411E+03  0.32169257192E+03  0.41800000000E+01 0.  1.
         -5    1    1    2    0  502  0.13314424657E+02  0.15573591671E+02 -0.41567855822E+00  0.20915445253E+02  0.41800000000E+01 0.  1.
        -11    1    1    2    0    0 -0.39795929567E+02 -0.48230218376E+01 -0.84661711502E+02  0.93672743871E+02  0.00000000000E+00 0. -1.
         11    1    1    2    0    0 -0.97858955526E+01  0.97491568719E+02 -0.27759314279E+03  0.29437785692E+03  0.00000000000E+00 0.  1.
</event>
<event>
 6    1  0.5317355E-006  0.5358357E+02  0.7561462E-02  0.1426919E+00
          2   -1    0    0  501    0  0.00000000000E+00  0.00000000000E+00  0.16858792533E+03  0.16858792533E+03  0.00000000000E+00 0. -1.
         -2   -1    0    0    0  501 -0.00000000000E+00 -0.00000000000E+00 -0.92881552294E+02  0.92881552294E+02  0.00000000000E+00 0.  1.
          5    1    1    2  502    0  0.71158446066E+00 -0.15065292918E+02  0.55422841941E+02  0.57590218023E+02  0.41800000000E+01 0.  1.
         -5    1    1    2    0  502 -0.21235549403E+02 -0.10897816405E+02 -0.68264641547E+02  0.72437867489E+02  0.41800000000E+01 0.  1.
        -11    1    1    2    0    0  0.28742297989E+00  0.41668008083E+02  0.25919782620E+01  0.41749537254E+02  0.00000000000E+00 0.  1.
         11    1    1    2    0    0  0.20236541962E+02 -0.15704898760E+02  0.85956194384E+02  0.89691854862E+02  0.00000000000E+00 0. -1.
</event>
<event>
 6    1  0.5317355E-006  0.1442261E+03  0.7561462E-02  0.1207753E+00
          2   -1    0    0  501    0  0.00000000000E+00  0.00000000000E+00  0.91964746199E+03  0.91964746199E+03  0.00000000000E+00 0. -1.
         -2   -1    0    0    0  501 -0.00000000000E+00 -0.00000000000E+00 -0.34101367298E+02  0.34101367298E+02  0.00000000000E+00 0.  1.
          5    1    1    2  502    0  0.64993837867E+02  0.11206371115E+03  0.29631302976E+03  0.32342133251E+03  0.41800000000E+01 0. -1.
         -5    1    1    2    0  502  0.39131706646E+00 -0.87428795025E+01 -0.88171275395E+01  0.13107448611E+02  0.41800000000E+01 0. -1.
        -11    1    1    2    0    0 -0.52723533427E+02 -0.84133374662E+01  0.28100802424E+03  0.28603507637E+03  0.00000000000E+00 0.  1.
         11    1    1    2    0    0 -0.12661621506E+02 -0.94907494178E+02  0.31704216824E+03  0.33118497181E+03  0.00000000000E+00 0. -1.
</event>
<event>
 6    1  0.5317355E-006  0.1026770E+03  0.7561462E-02  0.1274765E+00
          2   -1    0    0  501    0  0.00000000000E+00  0.00000000000E+00  0.96571331919E+02  0.96571331919E+02  0.00000000000E+00 0. -1.
         -2   -1    0    0    0  501 -0.00000000000E+00 -0.00000000000E+00 -0.21939467479E+03  0.21939467479E+03  0.00000000000E+00 0.  1.
          5    1    1    2  502    0  0.31247495716E+01 -0.22792194025E+01 -0.92654943153E+02  0.92829789355E+02  0.41800000000E+01 0. -1.
         -5    1    1    2    0  502 -0.80147389736E+02 -0.48232249106E+02 -0.11827114195E+02  0.94378530215E+02  0.41800000000E+01 0. -1.
        -11    1    1    2    0    0  0.10103827534E+02  0.36211775574E+02 -0.41986380876E+02  0.56358106782E+02  0.00000000000E+00 0.  1.
         11    1    1    2    0    0  0.66918812631E+02  0.14299692935E+02  0.23645095351E+02  0.72399580359E+02  0.00000000000E+00 0. -1.
</event>
<event>
 6    1  0.5317355E-006  0.1159855E+03  0.7561462E-02  0.1249871E+00
         -4   -1    0    0    0  501 -0.00000000000E+00  0.00000000000E+00  0.55751953910E+03  0.55751953910E+03  0.00000000000E+00 0.  1.
          4   -1    0    0  501    0  0.00000000000E+00 -0.00000000000E+00 -0.33539366803E+02  0.33539366803E+02  0.00000000000E+00 0. -1.
          5    1    1    2  502    0 -0.99632707891E-01 -0.84745514040E+02  0.14235344979E+03  0.16572202371E+03  0.41800000000E+01 0.  1.
         -5    1    1    2    0  502 -0.56028436838E+02  0.24460233463E+02  0.16938131050E+03  0.18012492749E+03  0.41800000000E+01 0.  1.
        -11    1    1    2    0    0  0.13951032398E+02  0.32418973794E+02  0.99114249663E+01  0.36658662164E+02  0.00000000000E+00 0. -1.
         11    1    1    2    0    0  0.42177037148E+02  0.27866306783E+02  0.20233398704E+03  0.20855329254E+03  0.00000000000E+00 0.  1.
</event>
<event>
 6    1  0.5317355E-006  0.7591643E+02  0.7561462E-02  0.1341056E+00
          1   -1    0    0  501    0  0.00000000000E+00  0.00000000000E+00  0.40776715528E+02  0.40776715528E+02  0.00000000000E+00 0. -1.
         -1   -1    0    0    0  501 -0.00000000000E+00 -0.00000000000E+00 -0.43118747259E+03  0.43118747259E+03  0.00000000000E+00 0.  1.
          5    1    1    2  502    0  0.37417970798E+02  0.27212679543E+02 -0.50970086049E+02  0.68964168511E+02  0.41800000000E+01 0. -1.
         -5    1    1    2    0  502 -0.26527561434E+01 -0.57537175973E+02 -0.27935509776E+03  0.28526182145E+03  0.41800000000E+01 0.  1.
        -11    1    1    2    0    0 -0.15220651279E+02  0.21096668382E+02 -0.82557554258E+02  0.86559155536E+02  0.00000000000E+00 0.  1.
         11    1    1    2    0    0 -0.19544563376E+02  0.92278280483E+01  0.22471981006E+02  0.31179042615E+02  0.00000000000E+00 0. -1.
</event>
<event>
 6    1  0.5317355E-006  0.1628503E+03  0.7561462E-02  0.1185516E+00
          2   -1    0    0  501    0  0.00000000000E+00  0.00000000000E+00  0.33348184332E+03  0.33348184332E+03  0.00000000000E+00 0.  1.
         -2   -1    0    0    0  501 -0.00000000000E+00 -0.00000000000E+00 -0.28986650929E+03  0.28986650929E+03  0.00000000000E+00 0. -1.
          5    1    1    2  502    0 -0.33653732004E+02 -0.98397272685E+02 -0.47483804073E+02  0.11439746937E+03  0.41800000000E+01 0.  1.
         -5    1    1    2    0  502 -0.27374459380E+02 -0.41159270936E+02 -0.17949868014E+03  0.18622753605E+03  0.41800000000E+01 0.  1.
        -11    1    1    2    0    0  0.78024643660E+01  0.11164183342E+03  0.20635922447E+03  0.23475286355E+03  0.00000000000E+00 0.  1.
         11    1    1    2    0    0  0.53225727018E+02  0.27914710201E+02  0.64238593779E+02  0.87970483646E+02  0.00000000000E+00 0. -1.
</event>
<event>
 6    1  0.5317355E-006  0.2134424E+03  0.7561462E-02  0.1138869E+00
         -1   -1    0    0    0  501 -0.00000000000E+00  0.00000000000E+00  0.11058132311E+04  0.11058132311E+04  0.00000000000E+00 0.  1.
          1   -1    0    0  501    0  0.00000000000E+00 -0.00000000000E+00 -0.52404295792E+02  0.52404295792E+02  0.00000000000E+00 0. -1.
          5    1    1    2  502    0  0.15967822908E+03 -0.12356523412E+03  0.71526560948E+03  0.74322800569E+03  0.41800000000E+01 0. -1.
         -5    1    1    2    0  502  0.97644861907E+00 -0.13638521415E+01 -0.46448721116E+01  0.64699908426E+01  0.41800000000E+01 0. -1.
        -11    1    1    2    0    0  0.72236627014E+01  0.22829365121E+02  0.23072211213E+02  0.33251889344E+02  0.00000000000E+00 0. -1.
         11    1    1    2    0    0 -0.16787834041E+03  0.10209972114E+03  0.31971598676E+03  0.37526764105E+03  0.00000000000E+00 0.  1.
</event>
<event>
 6    1  0.5317355E-006  0.8267305E+02  0.7561462E-02  0.1321632E+00
         -1   -1    0    0    0  501 -0.00000000000E+00  0.00000000000E+00  0.99624145191E+02  0.99624145191E+02  0.00000000000E+00 0.  1.
          1   -1    0    0  501    0  0.00000000000E+00 -0.00000000000E+00 -0.20224917291E+03  0.20224917291E+03  0.00000000000E+00 0. -1.
          5    1    1    2  502    0  0.65116387348E+02 -0.21665085135E+02  0.58866360769E+02  0.90510997372E+02  0.41800000000E+01 0.  1.
         -5    1    1    2    0  502 -0.29733192439E+02 -0.71893668118E+01 -0.23431713791E+02  0.38759093629E+02  0.41800000000E+01 0. -1.
        -11    1    1    2    0    0 -0.47055393263E+02  0.25752128714E+02 -0.14770705553E+03  0.15714565352E+03  0.00000000000E+00 0. -1.
         11    1    1    2    0    0  0.11672198354E+02  0.31023232333E+01  0.96473808331E+01  0.15457573574E+02  0.00000000000E+00 0.  1.
</event>
<event>
 6    1  0.5317355E-006  0.8616564E+02  0.7561462E-02  0.1312412E+00
         -3   -1    0    0    0  501 -0.00000000000E+00  0.00000000000E+00  0.48143193736E+02  0.48143193736E+02  0.00000000000E+00 0.  1.
          3   -1    0    0  501    0  0.00000000000E+00 -0.00000000000E+00 -0.59159413044E+03  0.59159413044E+03  0.00000000000E+00 0. -1.
          5    1    1    2  502    0  0.78867090840E+01  0.26193493724E+02 -0.58469239684E+02  0.64687121461E+02  0.41800000000E+01 0. -1.
         -5    1    1    2    0  502 -0.38567876747E+02 -0.30672928977E+02  0.25457065215E+02  0.55622335964E+02  0.41800000000E+01 0.  1.
        -11    1    1    2    0    0 -0.19914643883E+02 -0.28529450991E+02 -0.15175809820E+03  0.15569535313E+03  0.00000000000E+00 0.  1.
         11    1    1    2    0    0  0.50595811546E+02  0.33008886244E+02 -0.35868066403E+03  0.36373251362E+03  0.00000000000E+00 0. -1.
</event>
<event>
 6    1  0.5317355E-006  0.8171874E+02  0.7561462E-02  0.1324243E+00
          2   -1    0    0  501    0  0.00000000000E+00  0.00000000000E+00  0.13058325022E+03  0.13058325022E+03  0.00000000000E+00 0. -1.
         -2   -1    0    0    0  501 -0.00000000000E+00 -0.00000000000E+00 -0.90174828613E+02  0.90174828613E+02  0.00000000000E+00 0.  1.
          5    1    1    2  502    0 -0.35675302244E+02 -0.20974056176E+02 -0.36695073046E+02  0.55467459005E+02  0.41800000000E+01 0.  1.
         -5    1    1    2    0  502  0.27931768740E+02  0.19626683246E+02  0.64227729601E+02  0.72856461964E+02  0.41800000000E+01 0.  1.
        -11    1    1    2    0    0  0.46086286466E+02 -0.10599050493E+02  0.20524872419E+02  0.51551489401E+02  0.00000000000E+00 0. -1.
         11    1    1    2    0    0 -0.38342752962E+02  0.11946423422E+02 -0.76491073661E+01  0.40882668465E+02  0.00000000000E+00 0.  1.
</event>
<event>
 6    1  0.5317355E-006  0.1173171E+03  0.7561462E-02  0.1247590E+00
          1   -1    0    0  501    0  0.00000000000E+00  0.00000000000E+00  0.29631357324E+03  0.29631357324E+03  0.00000000000E+00 0. -1.
         -1   -1    0    0    0  501 -0.00000000000E+00 -0.00000000000E+00 -0.61810855044E+02  0.61810855044E+02  0.00000000000E+00 0.  1.
          5    1    1    2  502    0  0.59820819335E+02  0.32940696768E+02  0.82621108097E+01  0.68915562861E+02  0.41800000000E+01 0.  1.
         -5    1    1    2    0  502 -0.53901087382E+02  0.35538977324E+02  0.64235749707E+02  0.91170445160E+02  0.41800000000E+01 0.  1.
        -11    1    1    2    0    0 -0.39221740702E+02 -0.24105016298E+02  0.30269359406E+02  0.55096559541E+02  0.00000000000E+00 0.  1.
         11    1    1    2    0    0  0.33302008750E+02 -0.44374657794E+02  0.13173549827E+03  0.14294186072E+03  0.00000000000E+00 0. -1.
</event>
<event>
 6    1  0.5317355E-006  0.1296527E+03  0.7561462E-02  0.1227972E+00
          2   -1    0    0  501    0  0.00000000000E+00  0.00000000000E+00  0.40071051040E+03  0.40071051040E+03  0.00000000000E+00 0. -1.
         -2   -1    0    0    0  501 -0.00000000000E+00 -0.00000000000E+00 -0.50689582610E+02  0.50689582610E+02  0.00000000000E+00 0.  1.
          5    1    1    2  502    0 -0.27913993621E+02  0.33672234935E+02  0.24391148256E+02  0.50253467130E+02  0.41800000000E+01 0.  1.
         -5    1    1    2    0  502 -0.46713685974E+01 -0.95226314694E+02  0.11673417542E+03  0.15077868817E+03  0.41800000000E+01 0.  1.
        -11    1    1    2    0    0 -0.12901671812E+02  0.72097425489E+02  0.18268717350E+03  0.19682249683E+03  0.00000000000E+00 0.  1.
         11    1    1    2    0    0  0.45487034030E+02 -0.10543345730E+02  0.26208430617E+02  0.53545440884E+02  0.00000000000E+00 0. -1.
</event>
<event>
 6    1  0.5317355E-006  0.1033874E+03  0.7561462E-02  0.1273330E+00
         -2   -1    0    0    0  501 -0.00000000000E+00  0.00000000000E+00  0.11610014989E+02  0.11610014989E+02  0.00000000000E+00 0.  1.
          2   -1    0    0  501    0  0.00000000000E+00 -0.00000000000E+00 -0.10474693502E+04  0.10474693502E+04  0.00000000000E+00 0. -1.
          5    1    1    2  502    0 -0.76967358120E+02  0.19620552089E+02 -0.26923654470E+03  0.28073961188E+03  0.41800000000E+01 0.  1.
         -5    1    1    2    0  502  0.32122488418E+02 -0.23354851278E+02 -0.37167823555E+03  0.37381745079E+03  0.41800000000E+01 0.  1.
        -11    1    1    2    0    0 -0.32255309270E+01  0.31582732893E+02 -0.15713121482E+03  0.16030624360E+03  0.00000000000E+00 0. -1.
         11    1    1    2    0    0  0.48070400629E+02 -0.27848433704E+02 -0.23781334016E+03  0.24421605892E+03  0.00000000000E+00 0.  1.
</event>
<event>
 6    1  0.5317355E-006  0.8261940E+02  0.7561462E-02  0.1321778E+00
          2   -1    0    0  501    0  0.00000000000E+00  0.00000000000E+00  0.55642759706E+03  0.55642759706E+03  0.00000000000E+00 0. -1.
         -2   -1    0    0    0  501 -0.00000000000E+00 -0.00000000000E+00 -0.23546527971E+02  0.23546527971E+02  0.00000000000E+00 0.  1.
          5    1    1    2  502    0 -0.44324702604E+02  0.94198210193E+00  0.26038937147E+03  0.26416976315E+03  0.41800000000E+01 0.  1.
         -5    1    1    2    0  502  0.18715185851E+02 -0.23659665961E+02  0.45268965911E+01  0.30789660075E+02  0.41800000000E+01 0.  1.
        -11    1    1    2    0    0  0.46901747465E+02  0.40917685232E+02  0.22707527938E+03  0.23545108491E+03  0.00000000000E+00 0. -1.
         11    1    1    2    0    0 -0.21292230712E+02 -0.18200001373E+02  0.40889521655E+02  0.49563616896E+02  0.00000000000E+00 0.  1.
</event>
<event>
 6    1  0.5317355E-006  0.1296861E+03  0.7561462E-02  0.1227922E+00
          1   -1    0    0  501    0  0.00000000000E+00  0.00000000000E+00  0.71059775420E+03  0.71059775420E+03  0.00000000000E+00 0. -1.
         -1   -1    0    0    0  501 -0.00000000000E+00 -0.00000000000E+00 -0.28225781335E+02  0.28225781335E+02  0.00000000000E+00 0.  1.
          5    1    1    2  502    0  0.61238465286E+02 -0.32318326560E+02  0.10902788393E+03  0.12922529062E+03  0.41800000000E+01 0. -1.
         -5    1    1    2    0  502 -0.51629637374E+02 -0.56854245950E+02  0.24575231519E+03  0.25750669421E+03  0.41800000000E+01 0. -1.
        -11    1    1    2    0    0  0.26702288703E+02  0.15297067565E+02  0.18418920993E+03  0.18674227576E+03  0.00000000000E+00 0. -1.
         11    1    1    2    0    0 -0.36311116614E+02  0.73875504945E+02  0.14340256381E+03  0.16534927496E+03  0.00000000000E+00 0.  1.
</event>
<event>
 6    1  0.5317355E-006  0.8800210E+02  0.7561462E-02  0.1307763E+00
          1   -1    0    0  501    0  0.00000000000E+00  0.00000000000E+00  0.25051018744E+03  0.25051018744E+03  0.00000000000E+00 0. -1.
         -1   -1    0    0    0  501 -0.00000000000E+00 -0.00000000000E+00 -0.79495929136E+02  0.79495929136E+02  0.00000000000E+00 0.  1.
          5    1    1    2  502    0 -0.28978157516E+02  0.10354428033E+02 -0.47429489394E+02  0.56691945257E+02  0.41800000000E+01 0. -1.
         -5    1    1    2    0  502 -0.16256889490E+02  0.42342567092E+02  0.76915957405E+02  0.89390806839E+02  0.41800000000E+01 0. -1.
        -11    1    1    2    0    0  0.54687105447E+02 -0.99045080171E+01  0.12550893140E+03  0.13726350805E+03  0.00000000000E+00 0. -1.
         11    1    1    2    0    0 -0.94520584420E+01 -0.42792487108E+02  0.16018858893E+02  0.46659856428E+02  0.00000000000E+00 0.  1.
</event>
<event>
 6    1  0.5317355E-006  0.1592967E+03  0.7561462E-02  0.1189493E+00
         -4   -1    0    0    0  501 -0.00000000000E+00  0.00000000000E+00  0.12070490746E+03  0.12070490746E+03  0.00000000000E+00 0. -1.
          4   -1    0    0  501    0  0.00000000000E+00 -0.00000000000E+00 -0.24636291494E+03  0.24636291494E+03  0.00000000000E+00 0.  1.
          5    1    1    2  502    0  0.20956891185E+02  0.10611731156E+03 -0.59343583039E+02  0.12344718850E+03  0.41800000000E+01 0. -1.
         -5    1    1    2    0  502  0.65660886547E+02 -0.50264909071E+01  0.75769410667E+01  0.66419124271E+02  0.41800000000E+01 0. -1.
        -11    1    1    2    0    0 -0.71758547377E+02 -0.41393551669E+02 -0.80271675054E+02  0.11535275054E+03  0.00000000000E+00 0.  1.
         11    1    1    2    0    0 -0.14859230355E+02 -0.59697268981E+02  0.63803095465E+01  0.61848759086E+02  0.00000000000E+00 0. -1.
</event>
<event>
 6    1  0.5317355E-006  0.8286467E+02  0.7561462E-02  0.1321113E+00
          2   -1    0    0  501    0  0.00000000000E+00  0.00000000000E+00  0.17755487632E+03  0.17755487632E+03  0.00000000000E+00 0. -1.
         -2   -1    0    0    0  501 -0.00000000000E+00 -0.00000000000E+00 -0.11493076013E+03  0.11493076013E+03  0.00000000000E+00 0.  1.
          5    1    1    2  502    0  0.31623756451E+02 -0.14118650125E+02  0.26863027171E+02  0.44028319094E+02  0.41800000000E+01 0. -1.
         -5    1    1    2    0  502  0.82140816080E+01  0.29499678112E+02 -0.85736609527E+02  0.91136934108E+02  0.41800000000E+01 0.  1.
        -11    1    1    2    0    0  0.11511410831E+02 -0.40978050538E+02  0.51928528936E+02  0.67143766075E+02  0.00000000000E+00 0.  1.
         11    1    1    2    0    0 -0.51349248890E+02  0.25597022551E+02  0.69569169607E+02  0.90176617173E+02  0.00000000000E+00 0. -1.
</event>
<event>
 6    1  0.5317355E-006  0.7751952E+02  0.7561462E-02  0.1336242E+00
          3   -1    0    0  501    0  0.00000000000E+00  0.00000000000E+00  0.21452214453E+03  0.21452214453E+03  0.00000000000E+00 0. -1.
         -3   -1    0    0    0  501 -0.00000000000E+00 -0.00000000000E+00 -0.89418066403E+02  0.89418066403E+02  0.00000000000E+00 0.  1.
          5    1    1    2  502    0  0.17775371722E+02  0.16010745439E+02  0.47870629133E+02  0.53678462562E+02  0.41800000000E+01 0. -1.
         -5    1    1    2    0  502 -0.25467583366E+02  0.84113756777E+01 -0.67206370570E+02  0.72481154023E+02  0.41800000000E+01 0.  1.
        -11    1    1    2    0    0 -0.21131048911E+02 -0.56596314322E+02  0.81787246694E+02  0.10167997711E+03  0.00000000000E+00 0.  1.
         11    1    1    2    0    0  0.28823260554E+02  0.32174193205E+02  0.62652572873E+02  0.76100617245E+02  0.00000000000E+00 0. -1.
</event>
<event>
 6    1  0.5317355E-006  0.1103379E+03  0.7561462E-02  0.1259945E+00
         -1   -1    0    0    0  501 -0.00000000000E+00  0.00000000000E+00  0.38057742909E+02  0.38057742909E+02  0.00000000000E+00 0.  1.
          1   -1    0    0  501    0  0.00000000000E+00 -0.00000000000E+00 -0.34876251382E+03  0.34876251382E+03  0.00000000000E+00 0. -1.
          5    1    1    2  502    0 -0.67301373730E+02 -0.10818763808E+01 -0.14171455909E+03  0.15694309166E+03  0.41800000000E+01 0. -1.
         -5    1    1    2    0  502  0.45131176958E+02 -0.29786310380E+02 -0.41104357061E+02  0.68052097610E+02  0.41800000000E+01 0.  1.
        -11    1    1    2    0    0 -0.35024854064E+02  0.23866358083E+01 -0.49791112749E+02  0.60922831036E+02  0.00000000000E+00 0. -1.
         11    1    1    2    0    0  0.57195050837E+02  0.28481550952E+02 -0.78094742009E+02  0.10090223642E+03  0.00000000000E+00 0.  1.
</event>
<event>
 6    1  0.5317355E-006  0.1038013E+03  0.7561462E-02  0.1272500E+00
          2   -1    0    0  501    0  0.00000000000E+00  0.00000000000E+00  0.23463916342E+03  0.23463916342E+03  0.00000000000E+00 0. -1.
         -2   -1    0    0    0  501 -0.00000000000E+00 -0.00000000000E+00 -0.72043420634E+02  0.72043420634E+02  0.00000000000E+00 0.  1.
          5    1    1    2  502    0 -0.36929985612E+02  0.60569364190E+02 -0.21042874529E+02  0.74113066892E+02  0.41800000000E+01 0.  1.
         -5    1    1    2    0  502  0.26226627110E+02 -0.32771835274E+02  0.35780696042E+02  0.55313287428E+02  0.41800000000E+01 0.  1.
        -11    1    1    2    0    0 -0.39209896451E+02 -0.51492975892E+01  0.39881650463E+02  0.56164733499E+02  0.00000000000E+00 0.  1.
         11    1    1    2    0    0  0.49913254953E+02 -0.22648231327E+02  0.10797627081E+03  0.12109149623E+03  0.00000000000E+00 0. -1.
</event>
<event>
 6    1  0.5317355E-006  0.9056379E+02  0.7561462E-02  0.1301492E+00
         -4   -1    0    0    0  501 -0.00000000000E+00  0.00000000000E+00  0.39039494746E+02  0.39039494746E+02  0.00000000000E+00 0. -1.
          4   -1    0    0  501    0  0.00000000000E+00 -0.00000000000E+00 -0.41700377772E+03  0.41700377772E+03  0.00000000000E+00 0.  1.
          5    1    1    2  502    0 -0.57611185418E+02 -0.27042182569E+02 -0.57459119445E+01  0.64037615722E+02  0.41800000000E+01 0.  1.
         -5    1    1    2    0  502  0.19670568756E+02  0.73979699256E+01 -0.10875297013E+03  0.11084377360E+03  0.41800000000E+01 0.  1.
        -11    1    1    2    0    0  0.52493133386E+02  0.43367234462E+02 -0.21182187583E+03  0.22249663628E+03  0.00000000000E+00 0.  1.
         11    1    1    2    0    0 -0.14552516725E+02 -0.23723021818E+02 -0.51643525072E+02  0.58665246860E+02  0.00000000000E+00 0. -1.
</event>
<event>
 6    1  0.5317355E-006  0.7110187E+02  0.7561462E-02  0.1356386E+00
          2   -1    0    0  501    0  0.00000000000E+00  0.00000000000E+00  0.18673836377E+03  0.18673836377E+03  0.00000000000E+00 0. -1.
         -2   -1    0    0    0  501 -0.00000000000E+00 -0.00000000000E+00 -0.76099839020E+02  0.76099839020E+02  0.00000000000E+00 0.  1.
          5    1    1    2  502    0 -0.14738799150E+02 -0.15783107416E+02  0.73560079253E+02  0.76778228293E+02  0.41800000000E+01 0.  1.
         -5    1    1    2    0  502  0.59214456738E+02  0.37264495389E+02 -0.12035664511E+02  0.71114865701E+02  0.41800000000E+01 0.  1.
        -11    1    1    2    0    0 -0.25750551176E+02 -0.77260776455E+01  0.75289326345E+02  0.79945392758E+02  0.00000000000E+00 0. -1.
         11    1    1    2    0    0 -0.18725106411E+02 -0.13755310328E+02 -0.26175216339E+02  0.34999716038E+02  0.00000000000E+00 0.  1.
</event>
<event>
 6    1  0.5317355E-006  0.1500275E+03  0.7561462E-02  0.1200439E+00
         -1   -1    0    0    0  501 -0.00000000000E+00  0.00000000000E+00  0.84108343045E+02  0.84108343045E+02  0.00000000000E+00 0.  1.
          1   -1    0    0  501    0  0.00000000000E+00 -0.00000000000E+00 -0.35865246078E+03  0.35865246078E+03  0.00000000000E+00 0. -1.
          5    1    1    2  502    0  0.13236696868E+02 -0.12393511129E+03 -0.19271159320E+03  0.22954379214E+03  0.41800000000E+01 0. -1.
         -5    1    1    2    0  502  0.18236631461E+02 -0.52606934170E+01  0.15519475339E+02  0.24871190906E+02  0.41800000000E+01 0. -1.
        -11    1    1    2    0    0  0.19709001014E+02  0.32680543947E+01 -0.31504709112E+02  0.37305114887E+02  0.00000000000E+00 0. -1.
         11    1    1    2    0    0 -0.51182329343E+02  0.12592775031E+03 -0.65847290762E+02  0.15104070589E+03  0.00000000000E+00 0.  1.
</event>
<event>
 6    1  0.5317355E-006  0.1323521E+03  0.7561462E-02  0.1224007E+00
          2   -1    0    0  501    0  0.00000000000E+00  0.00000000000E+00  0.20549735997E+03  0.20549735997E+03  0.00000000000E+00 0. -1.
         -2   -1    0    0    0  501 -0.00000000000E+00 -0.00000000000E+00 -0.11210493691E+03  0.11210493691E+03  0.00000000000E+00 0.  1.
          5    1    1    2  502    0 -0.10532071209E+03 -0.59286473474E+02  0.16355724927E+02  0.12203409552E+03  0.41800000000E+01 0. -1.
         -5    1    1    2    0  502  0.26695221456E+02 -0.78107161101E+01  0.41716463965E+02  0.50312800563E+02  0.41800000000E+01 0. -1.
        -11    1    1    2    0    0  0.49825088794E+02  0.70834112189E+02 -0.14286164663E+02  0.87773033579E+02  0.00000000000E+00 0.  1.
         11    1    1    2    0    0  0.28800401839E+02 -0.37369226048E+01  0.49606398830E+02  0.57482367222E+02  0.00000000000E+00 0. -1.
</event>
<event>
 6    1  0.5317355E-006  0.1199371E+03  0.7561462E-02  0.1243201E+00
          1   -1    0    0  501    0  0.00000000000E+00  0.00000000000E+00  0.53411700054E+02  0.53411700054E+02  0.00000000000E+00 0. -1.
         -1   -1    0    0    0  501 -0.00000000000E+00 -0.00000000000E+00 -0.29653506713E+03  0.29653506713E+03  0.00000000000E+00 0.  1.
          5    1    1    2  502    0 -0.62349331267E+02  0.75035078181E+01 -0.65951888914E+02  0.91163950059E+02  0.41800000000E+01 0. -1.
         -5    1    1    2    0  502  0.40970907239E+02 -0.59300201955E+02 -0.11611251748E+03  0.13672863017E+03  0.41800000000E+01 0. -1.
        -11    1    1    2    0    0 -0.17107792787E+02  0.62493213289E+02 -0.45561965695E+02  0.79208402327E+02  0.00000000000E+00 0. -1.
         11    1    1    2    0    0  0.38486216815E+02 -0.10696519152E+02 -0.15496994980E+02  0.42845784625E+02  0.00000000000E+00 0.  1.
</event>
<event>
 6    1  0.5317355E-006  0.8560272E+02  0.7561462E-02  0.1313864E+00
          2   -1    0    0  501    0  0.00000000000E+00  0.00000000000E+00  0.17949895022E+03  0.17949895022E+03  0.00000000000E+00 0. -1.
         -2   -1    0    0    0  501 -0.00000000000E+00 -0.00000000000E+00 -0.64157449223E+02  0.64157449223E+02  0.00000000000E+00 0.  1.
          5    1    1    2  502    0  0.53763260382E+02  0.39653177913E+02  0.94375250550E+01  0.67597351758E+02  0.41800000000E+01 0. -1.
         -5    1    1    2    0  502 -0.40535725867E+02 -0.39425742333E+02  0.30433545940E+02  0.64352213237E+02  0.41800000000E+01 0. -1.
        -11    1    1    2    0    0  0.84125150520E+01 -0.17803263995E+02 -0.98000806434E+01  0.21994731164E+02  0.00000000000E+00 0.  1.
         11    1    1    2    0    0 -0.21640049567E+02  0.17575828415E+02  0.85270510642E+02  0.89712103280E+02  0.00000000000E+00 0. -1.
</event>
<event>
 6    1  0.5317355E-006  0.1388542E+03  0.7561462E-02  0.1214879E+00
          2   -1    0    0  501    0  0.00000000000E+00  0.00000000000E+00  0.41060781107E+03  0.41060781107E+03  0.00000000000E+00 0. -1.
         -2   -1    0    0    0  501 -0.00000000000E+00 -0.00000000000E+00 -0.82066253183E+02  0.82066253183E+02  0.00000000000E+00 0.  1.
          5    1    1    2  502    0  0.15256356469E+01  0.16532543756E+00 -0.26582396838E+02  0.26952757155E+02  0.41800000000E+01 0. -1.
         -5    1    1    2    0  502 -0.12775217607E+03 -0.34762214881E+02  0.11093968566E+03  0.17278343765E+03  0.41800000000E+01 0. -1.
        -11    1    1    2    0    0  0.29470558630E+02  0.32696341255E+02  0.15572231239E+03  0.16182398813E+03  0.00000000000E+00 0. -1.
         11    1    1    2    0    0  0.96755981789E+02  0.19005481885E+01  0.88461956678E+02  0.13111388132E+03  0.00000000000E+00 0.  1.
</event>
<event>
 6    1  0.5317355E-006  0.1090132E+03  0.7561462E-02  0.1262408E+00
          2   -1    0    0  501    0  0.00000000000E+00  0.00000000000E+00  0.62664909467E+03  0.62664909467E+03  0.00000000000E+00 0. -1.
         -2   -1    0    0    0  501 -0.00000000000E+00 -0.00000000000E+00 -0.29061845827E+02  0.29061845827E+02  0.00000000000E+00 0.  1.
          5    1    1    2  502    0  0.28275100117E+02  0.33727265036E+02  0.19610347351E+03  0.20102500943E+03  0.41800000000E+01 0.  1.
         -5    1    1    2    0  502  0.45005217820E+02 -0.71037630195E+02  0.99659403899E+02  0.13046564191E+03  0.41800000000E+01 0.  1.
        -11    1    1    2    0    0 -0.34942409549E+02 -0.16207425611E+01  0.27467123244E+02  0.44475180166E+02  0.00000000000E+00 0.  1.
         11    1    1    2    0    0 -0.38337908388E+02  0.38931107720E+02  0.27435724819E+03  0.27974510899E+03  0.00000000000E+00 0. -1.
</event>
<event>
 6    1  0.5317355E-006  0.1006730E+03  0.7561462E-02  0.1278887E+00
         -2   -1    0    0    0  501 -0.00000000000E+00  0.00000000000E+00  0.36048206172E+02  0.36048206172E+02  0.00000000000E+00 0.  1.
          2   -1    0    0  501    0  0.00000000000E+00 -0.00000000000E+00 -0.53100966102E+03  0.53100966102E+03  0.00000000000E+00 0. -1.
          5    1    1    2  502    0  0.29502780450E+02  0.24265734981E+02 -0.17908704873E+03  0.18316354269E+03  0.41800000000E+01 0. -1.
         -5    1    1    2    0  502 -0.55570272170E+02  0.55563303968E+02 -0.58062378269E+02  0.97795951180E+02  0.41800000000E+01 0. -1.
        -11    1    1    2    0    0  0.42752130338E+01 -0.22283746929E+02 -0.17621495062E+01  0.22758470831E+02  0.00000000000E+00 0.  1.
         11    1    1    2    0    0  0.21792278687E+02 -0.57545292020E+02 -0.25604987834E+03  0.26333990249E+03  0.00000000000E+00 0. -1.
</event>
<event>
 6    1  0.6449589E-006  0.1265009E+03  0.7561462E-02  0.1232742E+00
          2   -1    0    0  501    0  0.00000000000E+00  0.00000000000E+00  0.11810420038E+04  0.11810420038E+04  0.00000000000E+00 0. -1.
         -2   -1    0    0    0  501 -0.00000000000E+00 -0.00000000000E+00 -0.16656179124E+02  0.16656179124E+02  0.00000000000E+00 0.  1.
          5    1    1    2  502    0 -0.10319442883E+03 -0.35031851562E+02  0.62885696886E+03  0.63824359022E+03  0.41800000000E+01 0. -1.
         -5    1    1    2    0  502  0.18545905317E+02  0.90958204014E+01  0.22214813715E+02  0.30621151206E+02  0.41800000000E+01 0. -1.
        -11    1    1    2    0    0  0.30284223839E+02  0.53830861623E+02  0.18971653631E+03  0.19951756821E+03  0.00000000000E+00 0.  1.
         11    1    1    2    0    0  0.54364299678E+02 -0.27894830462E+02  0.32359750581E+03  0.32931587331E+03  0.00000000000E+00 0. -1.
</event>
<event>
 6    1  0.5317355E-006  0.1147695E+03  0.7561462E-02  0.1251984E+00
         -2   -1    0    0    0  501 -0.00000000000E+00  0.00000000000E+00  0.21868487971E+02  0.21868487971E+02  0.00000000000E+00 0.  1.
          2   -1    0    0  501    0  0.00000000000E+00 -0.00000000000E+00 -0.82427014518E+03  0.82427014518E+03  0.00000000000E+00 0. -1.
          5    1    1    2  502    0  0.77099229593E+02 -0.32955834395E+02 -0.26792000394E+03  0.28076498916E+03  0.41800000000E+01 0.  1.
         -5    1    1    2    0  502 -0.49252889442E+02 -0.38293293089E+02 -0.18145209154E+03  0.19192331109E+03  0.41800000000E+01 0.  1.
        -11    1    1    2    0    0  0.71568315411E+01  0.77272352109E+01  0.23115690166E+01  0.10783030791E+02  0.00000000000E+00 0.  1.
         11    1    1    2    0    0 -0.35003171692E+02  0.63521892273E+02 -0.35534113074E+03  0.36266730212E+03  0.00000000000E+00 0. -1.
</event>
<event>
 6    1  0.5317355E-006  0.1120200E+03  0.7561462E-02  0.1256874E+00
          2   -1    0    0  501    0  0.00000000000E+00  0.00000000000E+00  0.10596984358E+04  0.10596984358E+04  0.00000000000E+00 0.  1.
         -2   -1    0    0    0  501 -0.00000000000E+00 -0.00000000000E+00 -0.13085870436E+02  0.13085870436E+02  0.00000000000E+00 0. -1.
          5    1    1    2  502    0  0.39991992810E+02  0.30602429244E+02  0.38781585452E+03  0.39109394981E+03  0.41800000000E+01 0. -1.
         -5    1    1    2    0  502 -0.75676768757E+02 -0.68292344721E+01  0.31563617958E+03  0.32468027663E+03  0.41800000000E+01 0. -1.
        -11    1    1    2    0    0  0.32432981676E+02  0.29616931779E+02  0.12904984105E+03  0.13631919316E+03  0.00000000000E+00 0. -1.
         11    1    1    2    0    0  0.32517942705E+01 -0.53390126550E+02  0.21411069025E+03  0.22069088666E+03  0.00000000000E+00 0.  1.
</event>
<event>
 6    1  0.5317355E-006  0.1053576E+03  0.7561462E-02  0.1269417E+00
         -3   -1    0    0    0  501 -0.00000000000E+00  0.00000000000E+00  0.42003521789E+03  0.42003521789E+03  0.00000000000E+00 0.  1.
          3   -1    0    0  501    0  0.00000000000E+00 -0.00000000000E+00 -0.48897807237E+02  0.48897807237E+02  0.00000000000E+00 0. -1.
          5    1    1    2  502    0 -0.70601527037E+02 -0.40396366486E+02  0.50272412673E+02  0.95714314087E+02  0.41800000000E+01 0.  1.
         -5    1    1    2    0  502 -0.15226539297E+02  0.85265074516E+01  0.18603486310E+03  0.18689834541E+03  0.41800000000E+01 0.  1.
        -11    1    1    2    0    0  0.22636076260E+02  0.41624057061E+02  0.10614588164E+03  0.11624070829E+03  0.00000000000E+00 0.  1.
         11    1    1    2    0    0  0.63191990074E+02 -0.97541980275E+01  0.28684253239E+02  0.70079657337E+02  0.00000000000E+00 0. -1.
</event>
<event>
 6    1  0.5317355E-006  0.8766769E+02  0.7561462E-02  0.1308600E+00
          4   -1    0    0  501    0  0.00000000000E+00  0.00000000000E+00  0.44748913362E+03  0.44748913362E+03  0.00000000000E+00 0.  1.
         -4   -1    0    0    0  501 -0.00000000000E+00 -0.00000000000E+00 -0.35363630069E+02  0.35363630069E+02  0.00000000000E+00 0. -1.
          5    1    1    2  502    0 -0.55795127049E+02  0.22356129175E+02  0.27857305812E+02  0.66380679427E+02  0.41800000000E+01 0. -1.
         -5    1    1    2    0  502 -0.27299730289E+01 -0.11608630099E+01  0.20580783605E+03  0.20587165452E+03  0.41800000000E+01 0. -1.
        -11    1    1    2    0    0  0.12151837449E+02  0.35028537301E+02  0.42988408422E+02  0.56768555006E+02  0.00000000000E+00 0. -1.
         11    1    1    2    0    0  0.46373262629E+02 -0.56223803466E+02  0.13547195327E+03  0.15383187474E+03  0.00000000000E+00 0.  1.
</event>
<event>
 6    1  0.5317355E-006  0.6073133E+02  0.7561462E-02  0.1394788E+00
         -2   -1    0    0    0  501 -0.00000000000E+00  0.00000000000E+00  0.48620782292E+02  0.48620782292E+02  0.00000000000E+00 0. -1.
          2   -1    0    0  501    0  0.00000000000E+00 -0.00000000000E+00 -0.26821876624E+03  0.26821876624E+03  0.00000000000E+00 0.  1.
          5    1    1    2  502    0  0.18403149226E+02 -0.23318219088E+01  0.28058483659E+02  0.33894899323E+02  0.41800000000E+01 0. -1.
         -5    1    1    2    0  502  0.72540779089E+01 -0.60925813699E+01 -0.12815648546E+03  0.12857409677E+03  0.41800000000E+01 0. -1.
        -11    1    1    2    0    0 -0.44792468509E+02  0.36729880695E+02 -0.48391713067E+02  0.75479846744E+02  0.00000000000E+00 0. -1.
         11    1    1    2    0    0  0.19135241373E+02 -0.28305477416E+02 -0.71108269083E+02  0.78890705702E+02  0.00000000000E+00 0.  1.
</event>
<event>
 6    1  0.5317355E-006  0.7493623E+02  0.7561462E-02  0.1344069E+00
          2   -1    0    0  501    0  0.00000000000E+00  0.00000000000E+00  0.51373340971E+03  0.51373340971E+03  0.00000000000E+00 0. -1.
         -2   -1    0    0    0  501 -0.00000000000E+00 -0.00000000000E+00 -0.29421571318E+02  0.29421571318E+02  0.00000000000E+00 0.  1.
          5    1    1    2  502    0  0.72070140648E+01  0.42937984432E+02  0.48884790258E+01  0.44011148429E+02  0.41800000000E+01 0. -1.
         -5    1    1    2    0  502 -0.22027234327E+02 -0.19359547833E+01  0.19189637579E+03  0.19321138272E+03  0.41800000000E+01 0. -1.
        -11    1    1    2    0    0  0.24632917585E+02  0.13610376136E+02  0.25120058349E+02  0.37723206369E+02  0.00000000000E+00 0. -1.
         11    1    1    2    0    0 -0.98126973231E+01 -0.54612405785E+02  0.26240692523E+03  0.26820924350E+03  0.00000000000E+00 0.  1.
</event>
<event>
 6    1  0.5317355E-006  0.3164906E+03  0.7561462E-02  0.1077276E+00
          1   -1    0    0  501    0  0.00000000000E+00  0.00000000000E+00  0.17451682801E+04  0.17451682801E+04  0.00000000000E+00 0. -1.
         -1   -1    0    0    0  501 -0.00000000000E+00 -0.00000000000E+00 -0.67519956978E+02  0.67519956978E+02  0.00000000000E+00 0.  1.
          5    1    1    2  502    0  0.32101468829E+02 -0.42630353690E+02  0.20568710037E+03  0.21253824836E+03  0.41800000000E+01 0.  1.
         -5    1    1    2    0  502  0.20496790161E+02 -0.26517754401E+03  0.40188766969E+03  0.48194441558E+03  0.41800000000E+01 0.  1.
        -11    1    1    2    0    0 -0.49648702709E+02  0.21748624144E+03  0.87858335934E+03  0.90646234241E+03  0.00000000000E+00 0.  1.
         11    1    1    2    0    0 -0.29495562807E+01  0.90321656263E+02  0.19149019373E+03  0.21174323075E+03  0.00000000000E+00 0. -1.
</event>
<event>
 6    1  0.5317355E-006  0.1067997E+03  0.7561462E-02  0.1266614E+00
         -1   -1    0    0    0  501 -0.00000000000E+00  0.00000000000E+00  0.42222215523E+02  0.42222215523E+02  0.00000000000E+00 0.  1.
          1   -1    0    0  501    0  0.00000000000E+00 -0.00000000000E+00 -0.28525277988E+03  0.28525277988E+03  0.00000000000E+00 0. -1.
          5    1    1    2  502    0 -0.41772249472E+02  0.37864851816E+02 -0.82915281682E+02  0.10035479144E+03  0.41800000000E+01 0.  1.
         -5    1    1    2    0  502  0.56112751931E+02 -0.35635118902E+02 -0.54755343421E+02  0.86221358500E+02  0.41800000000E+01 0.  1.
        -11    1    1    2    0    0 -0.50859759478E+02 -0.12795928926E+02 -0.42796784310E+02  0.67690587813E+02  0.00000000000E+00 0.  1.
         11    1    1    2    0    0  0.36519257018E+02  0.10566196013E+02 -0.62563154949E+02  0.73208257652E+02  0.00000000000E+00 0. -1.
</event>
<event>
 6    1  0.5317355E-006  0.1264349E+03  0.7561462E-02  0.1232844E+00
          2   -1    0    0  501    0  0.00000000000E+00  0.00000000000E+00  0.28369845729E+03  0.28369845729E+03  0.00000000000E+00 0. -1.
         -2   -1    0    0    0  501 -0.00000000000E+00 -0.00000000000E+00 -0.17373363779E+03  0.17373363779E+03  0.00000000000E+00 0.  1.
          5    1    1    2  502    0  0.43639313789E+02 -0.54940179277E+02  0.37033685029E+02  0.79446706878E+02  0.41800000000E+01 0. -1.
         -5    1    1    2    0  502  0.39687195074E+02  0.53316420620E+02 -0.12696799963E+03  0.14337384521E+03  0.41800000000E+01 0.  1.
        -11    1    1    2    0    0 -0.83364270784E+02  0.29259246726E+02  0.11309046031E+03  0.14351012987E+03  0.00000000000E+00 0.  1.
         11    1    1    2    0    0  0.37761921661E-01 -0.27635488069E+02  0.86808673791E+02  0.91101413118E+02  0.00000000000E+00 0. -1.
</event>
<event>
 6    1  0.5317355E-006  0.1242946E+03  0.7561462E-02  0.1236176E+00
          2   -1    0    0  501    0  0.00000000000E+00  0.00000000000E+00  0.27725395138E+03  0.27725395138E+03  0.00000000000E+00 0. -1.
         -2   -1    0    0    0  501 -0.00000000000E+00 -0.00000000000E+00 -0.81530751304E+02  0.81530751304E+02  0.00000000000E+00 0.  1.
          5    1    1    2  502    0  0.24658971607E+02 -0.45203711460E+02  0.10981431676E+03  0.12135937119E+03  0.41800000000E+01 0. -1.
         -5    1    1    2    0  502  0.63031570453E+02 -0.77455445869E+01 -0.15920896836E+02  0.65604265797E+02  0.41800000000E+01 0. -1.
        -11    1    1    2    0    0 -0.10485875860E+03  0.48601315843E+02  0.69234380747E+02  0.13472507797E+03  0.00000000000E+00 0.  1.
         11    1    1    2    0    0  0.17168216538E+02  0.43479402041E+01  0.32595399402E+02  0.37095987725E+02  0.00000000000E+00 0. -1.
</event>
<event>
 6    1  0.5317355E-006  0.1432201E+03  0.7561462E-02  0.1209061E+00
          1   -1    0    0  501    0  0.00000000000E+00  0.00000000000E+00  0.14140007801E+03  0.14140007801E+03  0.00000000000E+00 0. -1.
         -1   -1    0    0    0  501 -0.00000000000E+00 -0.00000000000E+00 -0.16847771192E+03  0.16847771192E+03  0.00000000000E+00 0.  1.
          5    1    1    2  502    0  0.32103364278E+02  0.49223150002E+02  0.40156525203E+02  0.71299112270E+02  0.41800000000E+01 0.  1.
         -5    1    1    2    0  502  0.74322384446E+02 -0.43748001213E+02 -0.34857221581E+02  0.93113923429E+02  0.41800000000E+01 0.  1.
        -11    1    1    2    0    0 -0.32233730389E+02 -0.46364080448E+02 -0.62446020406E+01  0.56812290794E+02  0.00000000000E+00 0. -1.
         11    1    1    2    0    0 -0.74192018335E+02  0.40888931659E+02 -0.26132335490E+02  0.88652463446E+02  0.00000000000E+00 0.  1.
</event>
<event>
 6    1  0.5317355E-006  0.2300132E+03  0.7561462E-02  0.1126630E+00
          2   -1    0    0  501    0  0.00000000000E+00  0.00000000000E+00  0.77120175515E+03  0.77120175515E+03  0.00000000000E+00 0. -1.
         -2   -1    0    0    0  501 -0.00000000000E+00 -0.00000000000E+00 -0.73677550913E+02  0.73677550913E+02  0.00000000000E+00 0.  1.
          5    1    1    2  502    0  0.50798893260E+02 -0.91018298023E+02  0.20077463689E+03  0.22625822715E+03  0.41800000000E+01 0. -1.
         -5    1    1    2    0  502 -0.17983502759E+03  0.91835078627E+02  0.20574685931E+03  0.28831156989E+03  0.41800000000E+01 0.  1.
        -11    1    1    2    0    0 -0.12277358991E+02  0.17501573780E+01  0.10657750244E+02  0.16351887809E+02  0.00000000000E+00 0.  1.
         11    1    1    2    0    0  0.14131349332E+03 -0.25669379820E+01  0.28034495778E+03  0.31395762122E+03  0.00000000000E+00 0. -1.
</event>
<event>
 6    1  0.5317355E-006  0.1353307E+03  0.7561462E-02  0.1219754E+00
         -2   -1    0    0    0  501 -0.00000000000E+00  0.00000000000E+00  0.46196888751E+02  0.46196888751E+02  0.00000000000E+00 0.  1.
          2   -1    0    0  501    0  0.00000000000E+00 -0.00000000000E+00 -0.50628993650E+03  0.50628993650E+03  0.00000000000E+00 0. -1.
          5    1    1    2  502    0  0.49919819538E+02  0.47719502265E+01 -0.26911650926E+02  0.57065482099E+02  0.41800000000E+01 0.  1.
         -5    1    1    2    0  502  0.32728775714E+01  0.87618129211E+02 -0.24982867132E+03  0.26480084159E+03  0.41800000000E+01 0.  1.
        -11    1    1    2    0    0 -0.17285895923E+02 -0.94999881833E+02 -0.16247761484E+03  0.18900464299E+03  0.00000000000E+00 0.  1.
         11    1    1    2    0    0 -0.35906801186E+02  0.26098023952E+01 -0.20875110668E+02  0.41615858580E+02  0.00000000000E+00 0. -1.
</event>
<event>
 6    1  0.5317355E-006  0.9472348E+02  0.7561462E-02  0.1291800E+00
         -1   -1    0    0    0  501 -0.00000000000E+00  0.00000000000E+00  0.54345322358E+02  0.54345322358E+02  0.00000000000E+00 0.  1.
          1   -1    0    0  501    0  0.00000000000E+00 -0.00000000000E+00 -0.26589863431E+03  0.26589863431E+03  0.00000000000E+00 0. -1.
          5    1    1    2  502    0  0.41259391905E+02 -0.20380174374E+02 -0.14307546835E+02  0.48372174071E+02  0.41800000000E+01 0. -1.
         -5    1    1    2    0  502 -0.53446607495E+02  0.62999966571E+02 -0.74375007584E+02  0.11124140324E+03  0.41800000000E+01 0. -1.
        -11    1    1    2    0    0  0.25643624681E+02 -0.14786714498E+02 -0.12611771047E+03  0.12954504740E+03  0.00000000000E+00 0. -1.
         11    1    1    2    0    0 -0.13456409090E+02 -0.27833077699E+02  0.32469529344E+01  0.31085331962E+02  0.00000000000E+00 0.  1.
</event>
<event>
 6    1  0.5317355E-006  0.9775603E+02  0.7561462E-02  0.1285087E+00
         -1   -1    0    0    0  501 -0.00000000000E+00  0.00000000000E+00  0.48704669710E+03  0.48704669710E+03  0.00000000000E+00 0.  1.
          1   -1    0    0  501    0  0.00000000000E+00 -0.00000000000E+00 -0.31423288903E+02  0.31423288903E+02  0.00000000000E+00 0. -1.
          5    1    1    2  502    0  0.93212328758E+02 -0.40316372268E+01  0.22007683721E+03  0.23907337578E+03  0.41800000000E+01 0.  1.
         -5    1    1    2    0  502 -0.39737044747E+02  0.15422513466E+02  0.96740897671E+02  0.10579773310E+03  0.41800000000E+01 0.  1.
        -11    1    1    2    0    0 -0.39556719736E+02 -0.18490354833E+02  0.14878453158E+03  0.15505955029E+03  0.00000000000E+00 0.  1.
         11    1    1    2    0    0 -0.13918564275E+02  0.70994785945E+01 -0.99788582524E+01  0.18539326844E+02  0.00000000000E+00 0. -1.
</event>
<event>
 6    1  0.5317355E-006  0.1080792E+03  0.7561462E-02  0.1264169E+00
         -4   -1    0    0    0  501 -0.00000000000E+00  0.00000000000E+00  0.21842693219E+02  0.21842693219E+02  0.00000000000E+00 0.  1.
          4   -1    0    0  501    0  0.00000000000E+00 -0.00000000000E+00 -0.85763817966E+03  0.85763817966E+03  0.00000000000E+00 0. -1.
          5    1    1    2  502    0  0.73060595322E+01 -0.87149594592E+02 -0.34602581112E+03  0.35693103634E+03  0.41800000000E+01 0. -1.
         -5    1    1    2    0  502  0.21435814605E+02  0.15524509527E+02 -0.10634191831E+02  0.28828162961E+02  0.41800000000E+01 0. -1.
        -11    1    1    2    0    0  0.10418057232E+02 -0.79596653518E+01 -0.10586575418E+02  0.16851343213E+02  0.00000000000E+00 0.  1.
         11    1    1    2    0    0 -0.39159931368E+02  0.79584750416E+02 -0.46854890807E+03  0.47687033036E+03  0.00000000000E+00 0. -1.
</event>
<event>
 6    1  0.5317355E-006  0.8082655E+02  0.7561462E-02  0.1326722E+00
          1   -1    0    0  501    0  0.00000000000E+00  0.00000000000E+00  0.25175062440E+03  0.25175062440E+03  0.00000000000E+00 0. -1.
         -1   -1    0    0    0  501 -0.00000000000E+00 -0.00000000000E+00 -0.56590332900E+02  0.56590332900E+02  0.00000000000E+00 0.  1.
          5    1    1    2  502    0  0.16529550998E+02  0.55620306161E+02  0.10198614002E+03  0.11741162494E+03  0.41800000000E+01 0. -1.
         -5    1    1    2    0  502  0.17340244819E+02 -0.26222025445E+02 -0.21158317274E+02  0.38123817997E+02  0.41800000000E+01 0. -1.
        -11    1    1    2    0    0  0.24127289220E+01 -0.34973193243E+02  0.11046480509E+03  0.11589399756E+03  0.00000000000E+00 0.  1.
         11    1    1    2    0    0 -0.36282524739E+02  0.55749125268E+01  0.38676636663E+01  0.36911516812E+02  0.00000000000E+00 0. -1.
</event>
<event>
 6    1  0.5317355E-006  0.1238355E+03  0.7561462E-02  0.1236900E+00
          4   -1    0    0  501    0  0.00000000000E+00  0.00000000000E+00  0.95667842870E+02  0.95667842870E+02  0.00000000000E+00 0. -1.
         -4   -1    0    0    0  501 -0.00000000000E+00 -0.00000000000E+00 -0.47852455096E+03  0.47852455096E+03  0.00000000000E+00 0.  1.
          5    1    1    2  502    0 -0.13013164270E+02 -0.11483024044E+03 -0.19592103044E+03  0.22750351455E+03  0.41800000000E+01 0. -1.
         -5    1    1    2    0  502 -0.20226335115E+02  0.11930231560E+02 -0.20200442512E+03  0.20340770690E+03  0.41800000000E+01 0. -1.
        -11    1    1    2    0    0  0.17422874439E+02  0.58850135857E+02 -0.38262452332E+02  0.72325032337E+02  0.00000000000E+00 0.  1.
         11    1    1    2    0    0  0.15816624946E+02  0.44049873023E+02  0.53331199802E+02  0.70956140046E+02  0.00000000000E+00 0. -1.
</event>
<event>
 6    1  0.5317355E-006  0.1491365E+03  0.7561462E-02  0.1201538E+00
         -1   -1    0    0    0  501 -0.00000000000E+00  0.00000000000E+00  0.52317729367E+02  0.52317729367E+02  0.00000000000E+00 0.  1.
          1   -1    0    0  501    0  0.00000000000E+00 -0.00000000000E+00 -0.50014168927E+03  0.50014168927E+03  0.00000000000E+00 0. -1.
          5    1    1    2  502    0  0.51270166028E+02 -0.42183732203E+02 -0.11255961985E+03  0.13074875758E+03  0.41800000000E+01 0.  1.
         -5    1    1    2    0  502 -0.56689880437E+02 -0.68140951770E+02 -0.48276645804E+02  0.10101999199E+03  0.41800000000E+01 0.  1.
        -11    1    1    2    0    0  0.37283311699E+02  0.10405873867E+03 -0.22673926320E+03  0.25224781446E+03  0.00000000000E+00 0.  1.
         11    1    1    2    0    0 -0.31863597290E+02  0.62659453063E+01 -0.60248431048E+02  0.68442854606E+02  0.00000000000E+00 0. -1.
</event>
<event>
 6    1  0.5317355E-006  0.1164116E+03  0.7561462E-02  0.1249137E+00
          2   -1    0    0  501    0  0.00000000000E+00  0.00000000000E+00  0.17978484101E+03  0.17978484101E+03  0.00000000000E+00 0. -1.
         -2   -1    0    0    0  501 -0.00000000000E+00 -0.00000000000E+00 -0.83333469821E+02  0.83333469821E+02  0.00000000000E+00 0.  1.
          5    1    1    2  502    0  0.42272861637E+02 -0.11478048887E+02  0.61929689048E+01  0.44436085574E+02  0.41800000000E+01 0.  1.
         -5    1    1    2    0  502 -0.90719440960E+02 -0.17721565934E+02  0.34516627243E+02  0.98756978606E+02  0.41800000000E+01 0.  1.
        -11    1    1    2    0    0 -0.21529411225E+02  0.38798193764E+01  0.37326315898E+02  0.43264562920E+02  0.00000000000E+00 0. -1.
         11    1    1    2    0    0  0.69975990548E+02  0.25319795445E+02  0.18415459142E+02  0.76660683730E+02  0.00000000000E+00 0.  1.
</event>
<event>
 6    1  0.5317355E-006  0.1280224E+03  0.7561462E-02  0.1230420E+00
         -2   -1    0    0    0  501 -0.00000000000E+00  0.00000000000E+00  0.26453184627E+03  0.26453184627E+03  0.00000000000E+00 0.  1.
          2   -1    0    0  501    0  0.00000000000E+00 -0.00000000000E+00 -0.67545053776E+02  0.67545053776E+02  0.00000000000E+00 0. -1.
          5    1    1    2  502    0  0.75289048361E+02 -0.70974980802E+02  0.12619052541E+03  0.16324034368E+03  0.41800000000E+01 0. -1.
         -5    1    1    2    0  502 -0.31808062728E+02  0.15015472047E+02  0.15646406341E+02  0.38723373907E+02  0.41800000000E+01 0. -1.
        -11    1    1    2    0    0 -0.67580146620E+02  0.14505190448E+02  0.25156251431E+02  0.73554835009E+02  0.00000000000E+00 0. -1.
         11    1    1    2    0    0  0.24099160987E+02  0.41454318307E+02  0.29993609318E+02  0.56558347452E+02  0.00000000000E+00 0.  1.
</event>
<event>
 6    1  0.5317355E-006  0.1276141E+03  0.7561462E-02  0.1231040E+00
         -1   -1    0    0    0  501 -0.00000000000E+00  0.00000000000E+00  0.18454682078E+02  0.18454682078E+02  0.00000000000E+00 0.  1.
          1   -1    0    0  501    0  0.00000000000E+00 -0.00000000000E+00 -0.96649512252E+03  0.96649512252E+03  0.00000000000E+00 0. -1.
          5    1    1    2  502    0  0.43188084172E+02 -0.62262584730E+02 -0.20619806915E+03  0.21972017703E+03  0.41800000000E+01 0. -1.
         -5    1    1    2    0  502 -0.66890416841E+02 -0.19022692580E+02 -0.33473181407E+03  0.34190503133E+03  0.41800000000E+01 0. -1.
        -11    1    1    2    0    0 -0.11815896586E+02  0.71992979585E+02 -0.19795058498E+03  0.21096691356E+03  0.00000000000E+00 0.  1.
         11    1    1    2    0    0  0.35518229255E+02  0.92922977252E+01 -0.20915997223E+03  0.21235768267E+03  0.00000000000E+00 0. -1.
</event>
<event>
 6    1  0.5317355E-006  0.1206116E+03  0.7561462E-02  0.1242091E+00
         -2   -1    0    0    0  501 -0.00000000000E+00  0.00000000000E+00  0.16177732365E+03  0.16177732365E+03  0.00000000000E+00 0.  1.
          2   -1    0    0  501    0  0.00000000000E+00 -0.00000000000E+00 -0.14650185328E+03  0.14650185328E+03  0.00000000000E+00 0. -1.
          5    1    1    2  502    0 -0.92486097816E+01  0.83061164352E+01 -0.36805035349E+02  0.39071874541E+02  0.41800000000E+01 0. -1.
         -5    1    1    2    0  502 -0.81196036584E+02 -0.48513622080E+02  0.85905349084E+02  0.12784196997E+03  0.41800000000E+01 0. -1.
        -11    1    1    2    0    0  0.49282645565E+02  0.67841906771E+02 -0.37069713797E+02  0.91681334792E+02  0.00000000000E+00 0. -1.
         11    1    1    2    0    0  0.41162000800E+02 -0.27634401126E+02  0.32448704316E+01  0.49683997621E+02  0.00000000000E+00 0.  1.
</event>
<event>
 6    1  0.6115456E-006  0.8201065E+02  0.7561462E-02  0.1323440E+00
         -1   -1    0    0    0  501 -0.00000000000E+00  0.00000000000E+00  0.68962918783E+02  0.68962918783E+02  0.00000000000E+00 0.  1.
          1   -1    0    0  501    0  0.00000000000E+00 -0.00000000000E+00 -0.25011686839E+03  0.25011686839E+03  0.00000000000E+00 0. -1.
          5    1    1    2  502    0  0.44024761431E+02 -0.59925622293E+01  0.27193767787E+02  0.52259581203E+02  0.41800000000E+01 0. -1.
         -5    1    1    2    0  502 -0.29699251021E+02  0.54142523116E+02 -0.60593711424E+02  0.86617137938E+02  0.41800000000E+01 0. -1.
        -11    1    1    2    0    0  0.72302190196E+01 -0.24297168956E+02 -0.14580715823E+03  0.14799444543E+03  0.00000000000E+00 0. -1.
         11    1    1    2    0    0 -0.21555729429E+02 -0.23852791930E+02 -0.19468477421E+01  0.32208622606E+02  0.00000000000E+00 0.  1.
</event>
<event>
 6    1  0.5317355E-006  0.2156285E+03  0.7561462E-02  0.1137185E+00
         -4   -1    0    0    0  501 -0.00000000000E+00  0.00000000000E+00  0.11416994205E+03  0.11416994205E+03  0.00000000000E+00 0.  1.
          4   -1    0    0  501    0  0.00000000000E+00 -0.00000000000E+00 -0.47733906138E+03  0.47733906138E+03  0.00000000000E+00 0. -1.
          5    1    1    2  502    0 -0.23843963505E+02 -0.14408089319E+02 -0.13067900194E+02  0.31054308058E+02  0.41800000000E+01 0.  1.
         -5    1    1    2    0  502 -0.33429379156E+02  0.20011092851E+03 -0.86885020503E+02  0.22074507081E+03  0.41800000000E+01 0.  1.
        -11    1    1    2    0    0  0.51014062069E+02 -0.84094909186E+02 -0.19118516926E+03  0.21500269120E+03  0.00000000000E+00 0.  1.
         11    1    1    2    0    0  0.62592805922E+01 -0.10160793001E+03 -0.72031029372E+02  0.12470693335E+03  0.00000000000E+00 0. -1.
</event>
<event>
 6    1  0.5317355E-006  0.9839086E+02  0.7561462E-02  0.1283717E+00
         -1   -1    0    0    0  501 -0.00000000000E+00  0.00000000000E+00  0.98648057491E+02  0.98648057491E+02  0.00000000000E+00 0.  1.
          1   -1    0    0  501    0  0.00000000000E+00 -0.00000000000E+00 -0.13305789012E+03  0.13305789012E+03  0.00000000000E+00 0. -1.
          5    1    1    2  502    0 -0.22435213724E+02  0.25604837648E+02  0.32014401203E+02  0.46918448506E+02  0.41800000000E+01 0.  1.
         -5    1    1    2    0  502  0.31791563948E+02 -0.58805648957E+02 -0.51078524922E+02  0.84233579977E+02  0.41800000000E+01 0.  1.
        -11    1    1    2    0    0 -0.10015473031E+02 -0.30344340291E+02 -0.18506714372E+02  0.36926781129E+02  0.00000000000E+00 0.  1.
         11    1    1    2    0    0  0.65912280649E+00  0.63545151600E+02  0.31610054589E+01  0.63627138002E+02  0.00000000000E+00 0. -1.
</event>
<event>
 6    1  0.5317355E-006  0.1053876E+03  0.7561462E-02  0.1269358E+00
          2   -1    0    0  501    0  0.00000000000E+00  0.00000000000E+00  0.18119193696E+03  0.18119193696E+03  0.00000000000E+00 0. -1.
         -2   -1    0    0    0  501 -0.00000000000E+00 -0.00000000000E+00 -0.12161558921E+03  0.12161558921E+03  0.00000000000E+00 0.  1.
          5    1    1    2  502    0  0.44666036898E+02  0.48799118461E+02  0.86235404422E+02  0.10876776264E+03  0.41800000000E+01 0.  1.
         -5    1    1    2    0  502  0.38544474235E+02  0.63529365001E+01 -0.41763333149E+02  0.57338335273E+02  0.41800000000E+01 0.  1.
        -11    1    1    2    0    0 -0.39798946530E+02 -0.46014922192E+02 -0.34672241207E+02  0.70024949265E+02  0.00000000000E+00 0. -1.
         11    1    1    2    0    0 -0.43411564603E+02 -0.91371327696E+01  0.49776517692E+02  0.66676478987E+02  0.00000000000E+00 0.  1.
</event>
<event>
 6    1  0.5317355E-006  0.1121725E+03  0.7561462E-02  0.1256599E+00
          2   -1    0    0  501    0  0.00000000000E+00  0.00000000000E+00  0.18387511985E+03  0.18387511985E+03  0.00000000000E+00 0. -1.
         -2   -1    0    0    0  501 -0.00000000000E+00 -0.00000000000E+00 -0.15681418742E+03  0.15681418742E+03  0.00000000000E+00 0.  1.
          5    1    1    2  502    0  0.42026545983E+02 -0.52638137412E+02 -0.17674141644E+02  0.69762825060E+02  0.41800000000E+01 0.  1.
         -5    1    1    2    0  502 -0.53552669951E+02 -0.16587265362E+00 -0.86253365755E+02  0.10161216205E+03  0.41800000000E+01 0.  1.
        -11    1    1    2    0    0 -0.57234653694E+01  0.74895580958E+02  0.72203959241E+02  0.10418981636E+03  0.00000000000E+00 0.  1.
         11    1    1    2    0    0  0.17249589337E+02 -0.22091570892E+02  0.58784480585E+02  0.65124503794E+02  0.00000000000E+00 0. -1.
</event>
<event>
 6    1  0.5317355E-006  0.8728079E+02  0.7561462E-02  0.1309574E+00
          2   -1    0    0  501    0  0.00000000000E+00  0.00000000000E+00  0.91546771236E+02  0.91546771236E+02  0.00000000000E+00 0. -1.
         -2   -1    0    0    0  501 -0.00000000000E+00 -0.00000000000E+00 -0.18888789944E+03  0.18888789944E+03  0.00000000000E+00 0.  1.
          5    1    1    2  502    0 -0.44182211245E+02 -0.42245564430E+02 -0.81805381684E+01  0.61815443938E+02  0.41800000000E+01 0.  1.
         -5    1    1    2    0  502  0.51681084350E+02 -0.13903622870E+02 -0.98106008835E+02  0.11183249339E+03  0.41800000000E+01 0.  1.
        -11    1    1    2    0    0  0.52089343759E+01  0.30958708649E+02  0.48757790322E+02  0.57990488493E+02  0.00000000000E+00 0. -1.
         11    1    1    2    0    0 -0.12707807482E+02  0.25190478651E+02 -0.39812371526E+02  0.48796244857E+02  0.00000000000E+00 0.  1.
</event>
<event>
 6    1  0.5317355E-006  0.1045169E+03  0.7561462E-02  0.1271074E+00
         -2   -1    0    0    0  501 -0.00000000000E+00  0.00000000000E+00  0.11379828948E+03  0.11379828948E+03  0.00000000000E+00 0.  1.
          2   -1    0    0  501    0  0.00000000000E+00 -0.00000000000E+00 -0.16523858771E+03  0.16523858771E+03  0.00000000000E+00 0. -1.
          5    1    1    2  502    0  0.60676156421E+02 -0.12720442140E+02  0.65749558204E+02  0.90464813106E+02  0.41800000000E+01 0. -1.
         -5    1    1    2    0  502 -0.18957191089E+02 -0.31960346150E+02 -0.36009594450E+02  0.51913409756E+02  0.41800000000E+01 0. -1.
        -11    1    1    2    0    0 -0.75500205559E+01 -0.28102480445E+02 -0.16383139108E+02  0.33394003422E+02  0.00000000000E+00 0.  1.
         11    1    1    2    0    0 -0.34168944775E+02  0.72783268735E+02 -0.64797122876E+02  0.10326465091E+03  0.00000000000E+00 0. -1.
</event>
<event>
 6    1  0.5317355E-006  0.1193735E+03  0.7561462E-02  0.1244134E+00
          2   -1    0    0  501    0  0.00000000000E+00  0.00000000000E+00  0.56918572035E+03  0.56918572035E+03  0.00000000000E+00 0. -1.
         -2   -1    0    0    0  501 -0.00000000000E+00 -0.00000000000E+00 -0.47265324395E+02  0.47265324395E+02  0.00000000000E+00 0.  1.
          5    1    1    2  502    0 -0.13391971523E+02  0.25498035943E+02  0.15079062893E+03  0.15357337305E+03  0.41800000000E+01 0.  1.
         -5    1    1    2    0  502 -0.72152808928E+02  0.41431897502E+02  0.22777043793E+02  0.86364900803E+02  0.41800000000E+01 0.  1.
        -11    1    1    2    0    0  0.50963580329E+02  0.42358177711E-01  0.23448048325E+03  0.23995496523E+03  0.00000000000E+00 0.  1.
         11    1    1    2    0    0  0.34581200122E+02 -0.66972291623E+02  0.11387223998E+03  0.13655780566E+03  0.00000000000E+00 0. -1.
</event>
<event>
 6    1  0.5317355E-006  0.1090970E+03  0.7561462E-02  0.1262251E+00
         -2   -1    0    0    0  501 -0.00000000000E+00  0.00000000000E+00  0.24693880027E+02  0.24693880027E+02  0.00000000000E+00 0.  1.
          2   -1    0    0  501    0  0.00000000000E+00 -0.00000000000E+00 -0.65048943052E+03  0.65048943052E+03  0.00000000000E+00 0. -1.
          5    1    1    2  502    0  0.39640799578E+02 -0.27500742358E+02 -0.12533274437E+03  0.13436313866E+03  0.41800000000E+01 0.  1.
         -5    1    1    2    0  502 -0.31005487968E+02  0.68674634148E+02 -0.82187735697E+02  0.11157885982E+03  0.41800000000E+01 0.  1.
        -11    1    1    2    0    0 -0.46428581618E+02 -0.17022385542E+02 -0.17435617518E+03  0.18123313887E+03  0.00000000000E+00 0.  1.
         11    1    1    2    0    0  0.37793270007E+02 -0.24151506249E+02 -0.24391889525E+03  0.24800817319E+03  0.00000000000E+00 0. -1.
</event>
<event>
 6    1  0.5317355E-006  0.1048410E+03  0.7561462E-02  0.1270433E+00
         -1   -1    0    0    0  501 -0.00000000000E+00  0.00000000000E+00  0.59031102697E+03  0.59031102697E+03  0.00000000000E+00 0.  1.
          1   -1    0    0  501    0  0.00000000000E+00 -0.00000000000E+00 -0.39468790732E+02  0.39468790732E+02  0.00000000000E+00 0. -1.
          5    1    1    2  502    0  0.53711665387E+02 -0.36357166808E+02  0.39298902280E+03  0.39832729133E+03  0.41800000000E+01 0. -1.
         -5    1    1    2    0  502 -0.49689919606E+02  0.98838830835E+01  0.11907680533E+03  0.12947407935E+03  0.41800000000E+01 0. -1.
        -11    1    1    2    0    0 -0.46336852545E+02  0.22021849585E+02  0.26221162624E+02  0.57616101328E+02  0.00000000000E+00 0. -1.
         11    1    1    2    0    0  0.42315106764E+02  0.44514341401E+01  0.12555245480E+02  0.44362345694E+02  0.00000000000E+00 0.  1.
</event>
<event>
 6    1  0.5317355E-006  0.1099586E+03  0.7561462E-02  0.1260647E+00
          1   -1    0    0  501    0  0.00000000000E+00  0.00000000000E+00  0.31903582559E+03  0.31903582559E+03  0.00000000000E+00 0. -1.
         -1   -1    0    0    0  501 -0.00000000000E+00 -0.00000000000E+00 -0.56635755521E+02  0.56635755521E+02  0.00000000000E+00 0.  1.
          5    1    1    2  502    0 -0.46996732574E+02  0.19682088539E+02  0.12551063549E+03  0.13552294825E+03  0.41800000000E+01 0.  1.
         -5    1    1    2    0  502  0.12038132499E+02  0.48353660825E+02 -0.10174303197E+02  0.51029226869E+02  0.41800000000E+01 0.  1.
        -11    1    1    2    0    0  0.29868011761E+02  0.16485296765E+02  0.38526689982E+02  0.51460363164E+02  0.00000000000E+00 0.  1.
         11    1    1    2    0    0  0.50905883134E+01 -0.84521046130E+02  0.10853704780E+03  0.13765904283E+03  0.00000000000E+00 0. -1.
</event>
<event>
 6    1  0.5317355E-006  0.1113482E+03  0.7561462E-02  0.1258093E+00
         -1   -1    0    0    0  501 -0.00000000000E+00  0.00000000000E+00  0.11436295446E+03  0.11436295446E+03  0.00000000000E+00 0. -1.
          1   -1    0    0  501    0  0.00000000000E+00 -0.00000000000E+00 -0.11357526515E+03  0.11357526515E+03  0.00000000000E+00 0.  1.
          5    1    1    2  502    0  0.70491125775E+02 -0.25806329825E+02  0.88529040567E+00  0.75187908676E+02  0.41800000000E+01 0. -1.
         -5    1    1    2    0  502 -0.47969709441E+02  0.15544124760E+02  0.18063161005E+02  0.53725813386E+02  0.41800000000E+01 0. -1.
        -11    1    1    2    0    0 -0.59154496652E+02  0.11498033733E+02 -0.15779687313E+02  0.62293320554E+02  0.00000000000E+00 0. -1.
         11    1    1    2    0    0  0.36633080319E+02 -0.12358286687E+01 -0.23810747887E+01  0.36731176993E+02  0.00000000000E+00 0.  1.
</event>
<event>
 6    1  0.5317355E-006  0.8828363E+02  0.7561462E-02  0.1307062E+00
         -3   -1    0    0    0  501 -0.00000000000E+00  0.00000000000E+00  0.24369835227E+03  0.24369835227E+03  0.00000000000E+00 0.  1.
          3   -1    0    0  501    0  0.00000000000E+00 -0.00000000000E+00 -0.62154549099E+02  0.62154549099E+02  0.00000000000E+00 0. -1.
          5    1    1    2  502    0 -0.13565777230E+02 -0.86926984131E+01 -0.20129874122E+02  0.26120443138E+02  0.41800000000E+01 0. -1.
         -5    1    1    2    0  502  0.67893080698E+02 -0.58297108958E+01  0.14112582797E+03  0.15677189690E+03  0.41800000000E+01 0. -1.
        -11    1    1    2    0    0 -0.35918374893E+02 -0.27851197774E+02 -0.16504972009E+01  0.45481238037E+02  0.00000000000E+00 0. -1.
         11    1    1    2    0    0 -0.18408928575E+02  0.42373607083E+02  0.62198346522E+02  0.77479323297E+02  0.00000000000E+00 0.  1.
</event>
<event>
 6    1  0.5317355E-006  0.9791215E+02  0.7561462E-02  0.1284749E+00
          1   -1    0    0  501    0  0.00000000000E+00  0.00000000000E+00  0.18227416702E+03  0.18227416702E+03  0.00000000000E+00 0. -1.
         -1   -1    0    0    0  501 -0.00000000000E+00 -0.00000000000E+00 -0.10297629498E+03  0.10297629498E+03  0.00000000000E+00 0.  1.
          5    1    1    2  502    0 -0.46270908376E+02  0.28145073455E+02 -0.57618375614E+02  0.79186436529E+02  0.41800000000E+01 0. -1.
         -5    1    1    2    0  502  0.48798202752E+02 -0.17255385774E+02  0.13967258911E+02  0.53773317283E+02  0.41800000000E+01 0. -1.
        -11    1    1    2    0    0 -0.30363914598E+02  0.28299924457E+02  0.50908353438E+02  0.65684956297E+02  0.00000000000E+00 0.  1.
         11    1    1    2    0    0  0.27836620222E+02 -0.39189612138E+02  0.72040635309E+02  0.86605751891E+02  0.00000000000E+00 0. -1.
</event>
<event>
 6    1  0.5317355E-006  0.8815311E+02  0.7561462E-02  0.1307387E+00
         -2   -1    0    0    0  501 -0.00000000000E+00  0.00000000000E+00  0.28555421637E+02  0.28555421637E+02  0.00000000000E+00 0.  1.
          2   -1    0    0  501    0  0.00000000000E+00 -0.00000000000E+00 -0.53452285987E+03  0.53452285987E+03  0.00000000000E+00 0. -1.
          5    1    1    2  502    0  0.67650056273E+02  0.36043356358E+02 -0.89736832121E+02  0.11809244299E+03  0.41800000000E+01 0.  1.
         -5    1    1    2    0  502 -0.17975517669E+02 -0.15118270565E+02 -0.20749715653E+03  0.20886412739E+03  0.41800000000E+01 0.  1.
        -11    1    1    2    0    0 -0.43954041777E+02  0.92947718209E+01 -0.28323981607E+02  0.53109307148E+02  0.00000000000E+00 0.  1.
         11    1    1    2    0    0 -0.57204968278E+01 -0.30219857614E+02 -0.18040946797E+03  0.18301240399E+03  0.00000000000E+00 0. -1.
</event>
<event>
 6    1  0.5317355E-006  0.1272255E+03  0.7561462E-02  0.1231632E+00
          2   -1    0    0  501    0  0.00000000000E+00  0.00000000000E+00  0.31143706564E+02  0.31143706564E+02  0.00000000000E+00 0. -1.
         -2   -1    0    0    0  501 -0.00000000000E+00 -0.00000000000E+00 -0.62411424932E+03  0.62411424932E+03  0.00000000000E+00 0.  1.
          5    1    1    2  502    0 -0.44018587756E+02  0.37485232788E+02 -0.12765321021E+03  0.14019840663E+03  0.41800000000E+01 0. -1.
         -5    1    1    2    0  502  0.84565123294E+02  0.36063059711E+02 -0.24996893729E+03  0.26637144435E+03  0.41800000000E+01 0. -1.
        -11    1    1    2    0    0 -0.47784760320E+02 -0.22360563468E+02 -0.17595061055E+03  0.18368994384E+03  0.00000000000E+00 0.  1.
         11    1    1    2    0    0  0.72382247824E+01 -0.51187729032E+02 -0.39397784709E+02  0.64998161062E+02  0.00000000000E+00 0. -1.
</event>
<event>
 6    1  0.5317355E-006  0.1392506E+03  0.7561462E-02  0.1214341E+00
         -2   -1    0    0    0  501 -0.00000000000E+00  0.00000000000E+00  0.43419830172E+02  0.43419830172E+02  0.00000000000E+00 0.  1.
          2   -1    0    0  501    0  0.00000000000E+00 -0.00000000000E+00 -0.65823006034E+03  0.65823006034E+03  0.00000000000E+00 0. -1.
          5    1    1    2  502    0  0.34497869098E+02 -0.40260168939E+02 -0.24030848346E+02  0.58360416786E+02  0.41800000000E+01 0. -1.
         -5    1    1    2    0  502 -0.72184024767E+02 -0.72124508899E+02 -0.19717509960E+03  0.22205398109E+03  0.41800000000E+01 0. -1.
        -11    1    1    2    0    0  0.39219864871E+02  0.65949423622E+02 -0.34717256372E+03  0.35555071829E+03  0.00000000000E+00 0. -1.
         11    1    1    2    0    0 -0.15337092016E+01  0.46435254215E+02 -0.46431718505E+02  0.65684774349E+02  0.00000000000E+00 0.  1.
</event>
<event>
 6    1  0.5317355E-006  0.1224373E+03  0.7561462E-02  0.1239130E+00
         -2   -1    0    0    0  501 -0.00000000000E+00  0.00000000000E+00  0.11357599087E+03  0.11357599087E+03  0.00000000000E+00 0.  1.
          2   -1    0    0  501    0  0.00000000000E+00 -0.00000000000E+00 -0.15130590886E+03  0.15130590886E+03  0.00000000000E+00 0. -1.
          5    1    1    2  502    0  0.14351507385E+02 -0.43567474027E+02 -0.23619878011E+01  0.46120949076E+02  0.41800000000E+01 0. -1.
         -5    1    1    2    0  502 -0.81510265906E+02  0.50620384200E+02  0.50564976870E+00  0.96042047179E+02  0.41800000000E+01 0. -1.
        -11    1    1    2    0    0  0.49121847744E+02 -0.41228209986E+02  0.75700160853E+01  0.64575741328E+02  0.00000000000E+00 0.  1.
         11    1    1    2    0    0  0.18036910777E+02  0.34175299814E+02 -0.43443596041E+02  0.58143162150E+02  0.00000000000E+00 0. -1.
</event>
<event>
 6    1  0.5317355E-006  0.7999914E+02  0.7561462E-02  0.1329054E+00
          2   -1    0    0  501    0  0.00000000000E+00  0.00000000000E+00  0.21054448118E+03  0.21054448118E+03  0.00000000000E+00 0. -1.
         -2   -1    0    0    0  501 -0.00000000000E+00 -0.00000000000E+00 -0.63422993538E+02  0.63422993538E+02  0.00000000000E+00 0.  1.
          5    1    1    2  502    0  0.24322346745E+02  0.30242333230E+02  0.10911043096E+03  0.11588241374E+03  0.41800000000E+01 0. -1.
         -5    1    1    2    0  502 -0.34514970308E+02  0.10657693909E+02 -0.21783717842E+02  0.42389531465E+02  0.41800000000E+01 0. -1.
        -11    1    1    2    0    0 -0.31810597257E+02 -0.14253772254E+02  0.55800088324E+02  0.65793114976E+02  0.00000000000E+00 0. -1.
         11    1    1    2    0    0  0.42003220821E+02 -0.26646254885E+02  0.39946862009E+01  0.49902414536E+02  0.00000000000E+00 0.  1.
</event>
<event>
 6    1  0.5317355E-006  0.1172732E+03  0.7561462E-02  0.1247664E+00
         -1   -1    0    0    0  501 -0.00000000000E+00  0.00000000000E+00  0.30867399401E+02  0.30867399401E+02  0.00000000000E+00 0.  1.
          1   -1    0    0  501    0  0.00000000000E+00 -0.00000000000E+00 -0.59222960201E+03  0.59222960201E+03  0.00000000000E+00 0. -1.
          5    1    1    2  502    0  0.76621213282E+02 -0.77635678494E+01 -0.15541346565E+03  0.17349899428E+03  0.41800000000E+01 0. -1.
         -5    1    1    2    0  502 -0.37390319335E+02 -0.33630880389E+02 -0.35183087339E+02  0.61517429485E+02  0.41800000000E+01 0. -1.
        -11    1    1    2    0    0 -0.25480787060E+02 -0.27039950045E+02 -0.69216012698E+02  0.78557531921E+02  0.00000000000E+00 0.  1.
         11    1    1    2    0    0 -0.13750106887E+02  0.68434398283E+02 -0.30154963692E+03  0.30952304573E+03  0.00000000000E+00 0. -1.
</event>
<event>
 6    1  0.5317355E-006  0.1068125E+03  0.7561462E-02  0.1266589E+00
         -1   -1    0    0    0  501 -0.00000000000E+00  0.00000000000E+00  0.22996184133E+03  0.22996184133E+03  0.00000000000E+00 0.  1.
          1   -1    0    0  501    0  0.00000000000E+00 -0.00000000000E+00 -0.94715547887E+02  0.94715547887E+02  0.00000000000E+00 0. -1.
          5    1    1    2  502    0  0.43892482509E+02  0.76567064657E+02  0.12765435556E+03  0.15524874333E+03  0.41800000000E+01 0. -1.
         -5    1    1    2    0  502 -0.32783511368E+02 -0.29268556506E+02  0.40706354203E+02  0.60049035713E+02  0.41800000000E+01 0. -1.
        -11    1    1    2    0    0 -0.32548246951E+02 -0.49848610612E+02  0.10743521059E+02  0.60495418043E+02  0.00000000000E+00 0.  1.
         11    1    1    2    0    0  0.21439275810E+02  0.25501024605E+01 -0.43857937377E+02  0.48884192136E+02  0.00000000000E+00 0. -1.
</event>
<event>
 6    1  0.5317355E-006  0.1284156E+03  0.7561462E-02  0.1229826E+00
         -1   -1    0    0    0  501 -0.00000000000E+00  0.00000000000E+00  0.34873541678E+03  0.34873541678E+03  0.00000000000E+00 0.  1.
          1   -1    0    0  501    0  0.00000000000E+00 -0.00000000000E+00 -0.81940007628E+02  0.81940007628E+02  0.00000000000E+00 0. -1.
          5    1    1    2  502    0  0.16206626039E+02  0.37637703896E+02  0.26947770415E+02  0.49223025226E+02  0.41800000000E+01 0. -1.
         -5    1    1    2    0  502  0.11735298322E+02 -0.82211573415E+02  0.17971356895E+03  0.19801742169E+03  0.41800000000E+01 0. -1.
        -11    1    1    2    0    0 -0.21551525927E+02 -0.41190418156E+02 -0.32738056525E+02  0.56858589173E+02  0.00000000000E+00 0. -1.
         11    1    1    2    0    0 -0.63903984339E+01  0.85764287675E+02  0.92872126313E+02  0.12657638831E+03  0.00000000000E+00 0.  1.
</event>
<event>
 6    1  0.5317355E-006  0.1435346E+03  0.7561462E-02  0.1208650E+00
         -1   -1    0    0    0  501 -0.00000000000E+00  0.00000000000E+00  0.35677069477E+02  0.35677069477E+02  0.00000000000E+00 0.  1.
          1   -1    0    0  501    0  0.00000000000E+00 -0.00000000000E+00 -0.78520624118E+03  0.78520624118E+03  0.00000000000E+00 0. -1.
          5    1    1    2  502    0  0.43577823994E+02  0.10202892567E+03 -0.26629178285E+03  0.28850947026E+03  0.41800000000E+01 0.  1.
         -5    1    1    2    0  502  0.47250257626E+02 -0.20627869682E+02 -0.45474594763E+02  0.68873122640E+02  0.41800000000E+01 0.  1.
        -11    1    1    2    0    0 -0.83416721238E+02 -0.63161878245E+02 -0.42965062316E+03  0.44220745157E+03  0.00000000000E+00 0. -1.
         11    1    1    2    0    0 -0.74113603820E+01 -0.18239177741E+02 -0.81121709274E+01  0.21293266178E+02  0.00000000000E+00 0.  1.
</event>
<event>
 6    1  0.5317355E-006  0.1475225E+03  0.7561462E-02  0.1203551E+00
         -2   -1    0    0    0  501 -0.00000000000E+00  0.00000000000E+00  0.23522709535E+03  0.23522709535E+03  0.00000000000E+00 0.  1.
          2   -1    0    0  501    0  0.00000000000E+00 -0.00000000000E+00 -0.11269690337E+03  0.11269690337E+03  0.00000000000E+00 0. -1.
          5    1    1    2  502    0 -0.10714794060E+03  0.49220828281E+02  0.41262867967E+02  0.12499387099E+03  0.41800000000E+01 0.  1.
         -5    1    1    2    0  502 -0.13032961932E+02 -0.53255242060E+02  0.29464173471E+02  0.62382600314E+02  0.41800000000E+01 0.  1.
        -11    1    1    2    0    0  0.22875949001E+02  0.91386708876E+01  0.57895711982E+02  0.62918501367E+02  0.00000000000E+00 0.  1.
         11    1    1    2    0    0  0.97304953533E+02 -0.51042571078E+01 -0.60925614380E+01  0.97629026051E+02  0.00000000000E+00 0. -1.
</event>
<event>
 6    1  0.1705401E-005  0.3337973E+03  0.7561462E-02  0.1069469E+00
         -2   -1    0    0    0  501 -0.00000000000E+00  0.00000000000E+00  0.75033443524E+02  0.75033443524E+02  0.00000000000E+00 0.  1.
          2   -1    0    0  501    0  0.00000000000E+00 -0.00000000000E+00 -0.15279378317E+04  0.15279378317E+04  0.00000000000E+00 0. -1.
          5    1    1    2  502    0  0.96521360349E+02 -0.87205941619E+02 -0.25276095981E+03  0.28430058822E+03  0.41800000000E+01 0. -1.
         -5    1    1    2    0  502  0.21285501862E+03  0.38517079397E+01 -0.48699629294E+03  0.53151195315E+03  0.41800000000E+01 0. -1.
        -11    1    1    2    0    0 -0.60746307059E+02  0.38365483087E+02 -0.93043006407E+02  0.11755434979E+03  0.00000000000E+00 0.  1.
         11    1    1    2    0    0 -0.24863007191E+03  0.44988750592E+02 -0.62010412907E+03  0.66960438411E+03  0.00000000000E+00 0. -1.
</event>
<event>
 6    1  0.5317355E-006  0.7121622E+02  0.7561462E-02  0.1356005E+00
         -2   -1    0    0    0  501 -0.00000000000E+00  0.00000000000E+00  0.40325101529E+03  0.40325101529E+03  0.00000000000E+00 0.  1.
          2   -1    0    0  501    0  0.00000000000E+00 -0.00000000000E+00 -0.39238840281E+02  0.39238840281E+02  0.00000000000E+00 0. -1.
          5    1    1    2  502    0 -0.33572878545E+02  0.44198379604E+02  0.32508111894E+02  0.64458394894E+02  0.41800000000E+01 0. -1.
         -5    1    1    2    0  502  0.37188730903E+01 -0.13209824334E+02  0.22112520277E+03  0.22159006561E+03  0.41800000000E+01 0. -1.
        -11    1    1    2    0    0  0.79447538995E+01 -0.45472919454E+02  0.11991990328E+03  0.12849781602E+03  0.00000000000E+00 0.  1.
         11    1    1    2    0    0  0.21909251555E+02  0.14484364185E+02 -0.95410429408E+01  0.27943579047E+02  0.00000000000E+00 0. -1.
</event>
<event>
 6    1  0.5317355E-006  0.7812150E+02  0.7561462E-02  0.1334468E+00
         -2   -1    0    0    0  501 -0.00000000000E+00  0.00000000000E+00  0.18447815080E+03  0.18447815080E+03  0.00000000000E+00 0.  1.
          2   -1    0    0  501    0  0.00000000000E+00 -0.00000000000E+00 -0.78393472927E+02  0.78393472927E+02  0.00000000000E+00 0. -1.
          5    1    1    2  502    0  0.23331950816E+01  0.37910175267E+01 -0.35345794750E+02  0.35869391125E+02  0.41800000000E+01 0.  1.
         -5    1    1    2    0  502 -0.43279875318E+02 -0.19069603310E+02  0.10188422618E+03  0.11240402716E+03  0.41800000000E+01 0.  1.
        -11    1    1    2    0    0  0.61877431312E+02  0.37320626355E+02  0.11367585882E+02  0.73149625194E+02  0.00000000000E+00 0. -1.
         11    1    1    2    0    0 -0.20930751075E+02 -0.22042040572E+02  0.28178660559E+02  0.41448580241E+02  0.00000000000E+00 0.  1.
</event>
<event>
 6    1  0.5317355E-006  0.1208815E+03  0.7561462E-02  0.1241650E+00
          4   -1    0    0  501    0  0.00000000000E+00  0.00000000000E+00  0.19593723136E+02  0.19593723136E+02  0.00000000000E+00 0. -1.
         -4   -1    0    0    0  501 -0.00000000000E+00 -0.00000000000E+00 -0.98327173559E+03  0.98327173559E+03  0.00000000000E+00 0.  1.
          5    1    1    2  502    0  0.67980247781E+02  0.54642988356E+02 -0.49326289088E+03  0.50093205346E+03  0.41800000000E+01 0.  1.
         -5    1    1    2    0  502 -0.21341191593E+02  0.22165052832E+02 -0.25403510035E+02  0.40119156867E+02  0.41800000000E+01 0.  1.
        -11    1    1    2    0    0  0.93843828050E+01 -0.65588183870E+02 -0.24525734351E+03  0.25404928863E+03  0.00000000000E+00 0.  1.
         11    1    1    2    0    0 -0.56023438993E+02 -0.11219857317E+02 -0.19975426803E+03  0.20776495977E+03  0.00000000000E+00 0. -1.
</event>
<event>
 6    1  0.5317355E-006  0.1099613E+03  0.7561462E-02  0.1260642E+00
          3   -1    0    0  501    0  0.00000000000E+00  0.00000000000E+00  0.49120325924E+02  0.49120325924E+02  0.00000000000E+00 0. -1.
         -3   -1    0    0    0  501 -0.00000000000E+00 -0.00000000000E+00 -0.29106593477E+03  0.29106593477E+03  0.00000000000E+00 0.  1.
          5    1    1    2  502    0 -0.59961476117E+02  0.58728943665E+02 -0.93300319188E+02  0.12556627494E+03  0.41800000000E+01 0. -1.
         -5    1    1    2    0  502  0.17216415966E+02 -0.41368523325E+02 -0.95404517499E+02  0.10548580028E+03  0.41800000000E+01 0. -1.
        -11    1    1    2    0    0 -0.97043280055E+01 -0.34395397969E+02 -0.54308775564E+01  0.36148469048E+02  0.00000000000E+00 0. -1.
         11    1    1    2    0    0  0.52449388156E+02  0.17034977629E+02 -0.47809894607E+02  0.72985716432E+02  0.00000000000E+00 0.  1.
</event>
<event>
 6    1  0.5317355E-006  0.1286003E+03  0.7561462E-02  0.1229548E+00
          4   -1    0    0  501    0  0.00000000000E+00  0.00000000000E+00  0.28600587405E+03  0.28600587405E+03  0.00000000000E+00 0. -1.
         -4   -1    0    0    0  501 -0.00000000000E+00 -0.00000000000E+00 -0.86715153681E+02  0.86715153681E+02  0.00000000000E+00 0.  1.
          5    1    1    2  502    0 -0.24442868259E+02 -0.30224081589E+02  0.83616362224E+00  0.39103970211E+02  0.41800000000E+01 0. -1.
         -5    1    1    2    0  502  0.22633002682E+02  0.96073438964E+02  0.15115272301E+02  0.99941494593E+02  0.41800000000E+01 0.  1.
        -11    1    1    2    0    0  0.72832113736E+01  0.26153250431E+02  0.11702430681E+03  0.12013211919E+03  0.00000000000E+00 0.  1.
         11    1    1    2    0    0 -0.54733457963E+01 -0.92002607806E+02  0.66314977632E+02  0.11354344374E+03  0.00000000000E+00 0. -1.
</event>
<event>
 6    1  0.5317355E-006  0.1133334E+03  0.7561462E-02  0.1254519E+00
          1   -1    0    0  501    0  0.00000000000E+00  0.00000000000E+00  0.29780578514E+03  0.29780578514E+03  0.00000000000E+00 0. -1.
         -1   -1    0    0    0  501 -0.00000000000E+00 -0.00000000000E+00 -0.70561903277E+02  0.70561903277E+02  0.00000000000E+00 0.  1.
          5    1    1    2  502    0  0.78436374285E+02  0.38216697647E+01  0.15488248528E+03  0.17370355960E+03  0.41800000000E+01 0.  1.
         -5    1    1    2    0  502  0.15177257331E+02  0.52858285387E+01 -0.24770187244E+02  0.29821530805E+02  0.41800000000E+01 0.  1.
        -11    1    1    2    0    0 -0.97209300658E+02  0.22360062555E+02  0.61562094505E+02  0.11721566453E+03  0.00000000000E+00 0. -1.
         11    1    1    2    0    0  0.35956690417E+01 -0.31467560859E+02  0.35569489325E+02  0.47626933484E+02  0.00000000000E+00 0.  1.
</event>
<event>
 6    1  0.5317355E-006  0.9685152E+02  0.7561462E-02  0.1287060E+00
          1   -1    0    0  501    0  0.00000000000E+00  0.00000000000E+00  0.46507242231E+02  0.46507242231E+02  0.00000000000E+00 0. -1.
         -1   -1    0    0    0  501 -0.00000000000E+00 -0.00000000000E+00 -0.32969827587E+03  0.32969827587E+03  0.00000000000E+00 0.  1.
          5    1    1    2  502    0  0.37118617633E+02  0.20783951475E+02 -0.73014725701E+02  0.84607251363E+02  0.41800000000E+01 0. -1.
         -5    1    1    2    0  502 -0.56151733286E+02 -0.74817357025E+02 -0.11280687134E+03  0.14660667340E+03  0.41800000000E+01 0. -1.
        -11    1    1    2    0    0  0.10001431323E+02  0.25559642433E+02  0.13201530193E+02  0.30456597795E+02  0.00000000000E+00 0. -1.
         11    1    1    2    0    0  0.90316843304E+01  0.28473763117E+02 -0.11057096679E+03  0.11453499554E+03  0.00000000000E+00 0.  1.
</event>
<event>
 6    1  0.5317355E-006  0.1220035E+03  0.7561462E-02  0.1239828E+00
          2   -1    0    0  501    0  0.00000000000E+00  0.00000000000E+00  0.53434638900E+03  0.53434638900E+03  0.00000000000E+00 0. -1.
         -2   -1    0    0    0  501 -0.00000000000E+00 -0.00000000000E+00 -0.36341215290E+02  0.36341215290E+02  0.00000000000E+00 0.  1.
          5    1    1    2  502    0 -0.80490214604E+02 -0.36972054594E+02  0.30880837271E+03  0.32128755177E+03  0.41800000000E+01 0. -1.
         -5    1    1    2    0  502  0.54727388388E+02 -0.61261113322E+00  0.34437557794E+02  0.64798766338E+02  0.41800000000E+01 0.  1.
        -11    1    1    2    0    0  0.17892863990E+02 -0.28630334043E+02  0.57491215614E+02  0.66671511772E+02  0.00000000000E+00 0. -1.
         11    1    1    2    0    0  0.78699622258E+01  0.66214999770E+02  0.97268027589E+02  0.11792977440E+03  0.00000000000E+00 0.  1.
</event>
<event>
 6    1  0.5317355E-006  0.8432497E+02  0.7561462E-02  0.1317207E+00
          2   -1    0    0  501    0  0.00000000000E+00  0.00000000000E+00  0.62691497319E+03  0.62691497319E+03  0.00000000000E+00 0. -1.
         -2   -1    0    0    0  501 -0.00000000000E+00 -0.00000000000E+00 -0.26915147038E+02  0.26915147038E+02  0.00000000000E+00 0.  1.
          5    1    1    2  502    0 -0.98931266668E+01 -0.14131252150E+02  0.22902519569E+03  0.22971194768E+03  0.41800000000E+01 0.  1.
         -5    1    1    2    0  502 -0.89799180075E+01 -0.42645742194E+02  0.74219140798E+01  0.44405579191E+02  0.41800000000E+01 0.  1.
        -11    1    1    2    0    0  0.40778928297E+02 -0.54574137490E+01  0.10243565612E+03  0.11038916614E+03  0.00000000000E+00 0.  1.
         11    1    1    2    0    0 -0.21905883623E+02  0.62234408093E+02  0.26111706027E+03  0.26932342722E+03  0.00000000000E+00 0. -1.
</event>
<event>
 6    1  0.5317355E-006  0.1468381E+03  0.7561462E-02  0.1204413E+00
          1   -1    0    0  501    0  0.00000000000E+00  0.00000000000E+00  0.70539134482E+03  0.70539134482E+03  0.00000000000E+00 0. -1.
         -1   -1    0    0    0  501 -0.00000000000E+00 -0.00000000000E+00 -0.37627259430E+02  0.37627259430E+02  0.00000000000E+00 0.  1.
          5    1    1    2  502    0 -0.69725192241E+02  0.30290073310E+02  0.80961962802E+02  0.11113686515E+03  0.41800000000E+01 0. -1.
         -5    1    1    2    0  502 -0.15066436333E+02 -0.80331674788E+02  0.11962011554E+03  0.14493660655E+03  0.41800000000E+01 0. -1.
        -11    1    1    2    0    0  0.15183868408E+02 -0.27553729861E+02  0.14283602001E+03  0.14625965439E+03  0.00000000000E+00 0. -1.
         11    1    1    2    0    0  0.69607760165E+02  0.77595331340E+02  0.32434598704E+03  0.34068547816E+03  0.00000000000E+00 0.  1.
</event>
<event>
 6    1  0.5317355E-006  0.2357990E+03  0.7561462E-02  0.1122623E+00
          1   -1    0    0  501    0  0.00000000000E+00  0.00000000000E+00  0.43178447276E+03  0.43178447276E+03  0.00000000000E+00 0. -1.
         -1   -1    0    0    0  501 -0.00000000000E+00 -0.00000000000E+00 -0.20151635980E+03  0.20151635980E+03  0.00000000000E+00 0.  1.
          5    1    1    2  502    0  0.80746178608E+02  0.35964573347E+02  0.14385489646E+02  0.89653837666E+02  0.41800000000E+01 0.  1.
         -5    1    1    2    0  502  0.13466085201E+03 -0.66746149445E+02 -0.77487384204E+02  0.16914597435E+03  0.41800000000E+01 0.  1.
        -11    1    1    2    0    0 -0.80861821093E+02 -0.28485324230E+02  0.10547016307E+03  0.13591910501E+03  0.00000000000E+00 0.  1.
         11    1    1    2    0    0 -0.13454520952E+03  0.59266900328E+02  0.18789984444E+03  0.23858191553E+03  0.00000000000E+00 0. -1.
</event>
<event>
 6    1  0.5317355E-006  0.9624432E+02  0.7561462E-02  0.1288398E+00
          1   -1    0    0  501    0  0.00000000000E+00  0.00000000000E+00  0.23610979407E+02  0.23610979407E+02  0.00000000000E+00 0. -1.
         -1   -1    0    0    0  501 -0.00000000000E+00 -0.00000000000E+00 -0.69508624848E+03  0.69508624848E+03  0.00000000000E+00 0.  1.
          5    1    1    2  502    0  0.15580269149E+01  0.60181032205E+02 -0.12987292279E+03  0.14320835367E+03  0.41800000000E+01 0. -1.
         -5    1    1    2    0  502  0.16562195756E+02 -0.34941252723E+02 -0.40986254381E+03  0.41170374626E+03  0.41800000000E+01 0. -1.
        -11    1    1    2    0    0  0.28965408704E+02 -0.34723171288E+02 -0.87458654337E+02  0.98456638904E+02  0.00000000000E+00 0.  1.
         11    1    1    2    0    0 -0.47085631375E+02  0.94833918057E+01 -0.44281148141E+02  0.65328489059E+02  0.00000000000E+00 0. -1.
</event>
<event>
 6    1  0.5317355E-006  0.5938943E+02  0.7561462E-02  0.1400412E+00
         -1   -1    0    0    0  501 -0.00000000000E+00  0.00000000000E+00  0.61821602660E+03  0.61821602660E+03  0.00000000000E+00 0.  1.
          1   -1    0    0  501    0  0.00000000000E+00 -0.00000000000E+00 -0.24275654385E+02  0.24275654385E+02  0.00000000000E+00 0. -1.
          5    1    1    2  502    0 -0.50671281929E+02  0.18928534874E+02  0.44215413266E+03  0.44547010862E+03  0.41800000000E+01 0.  1.
         -5    1    1    2    0  502  0.17952755640E+02  0.12014498881E+01  0.32501309249E+01  0.18755816909E+02  0.41800000000E+01 0.  1.
        -11    1    1    2    0    0  0.11840298880E+02  0.54509363897E+01 -0.99361811140E+01  0.16390029903E+02  0.00000000000E+00 0. -1.
         11    1    1    2    0    0  0.20878227410E+02 -0.25580921151E+02  0.15847228974E+03  0.16187572555E+03  0.00000000000E+00 0.  1.
</event>
<event>
 6    1  0.5317355E-006  0.1671041E+03  0.7561462E-02  0.1180902E+00
          3   -1    0    0  501    0  0.00000000000E+00  0.00000000000E+00  0.72257668797E+03  0.72257668797E+03  0.00000000000E+00 0. -1.
         -3   -1    0    0    0  501 -0.00000000000E+00 -0.00000000000E+00 -0.60011790419E+02  0.60011790419E+02  0.00000000000E+00 0.  1.
          5    1    1    2  502    0 -0.21324195217E+02  0.14871915173E+03  0.16086820564E+03  0.22015485318E+03  0.41800000000E+01 0. -1.
         -5    1    1    2    0  502 -0.12644608567E+02 -0.91937867920E+01 -0.13158617411E+02  0.20857455586E+02  0.41800000000E+01 0. -1.
        -11    1    1    2    0    0 -0.20652941766E+02 -0.32429681840E+01  0.54356705349E+02  0.58238408827E+02  0.00000000000E+00 0.  1.
         11    1    1    2    0    0  0.54621745549E+02 -0.13628239675E+03  0.46049860397E+03  0.48333776080E+03  0.00000000000E+00 0. -1.
</event>
<event>
 6    1  0.5317355E-006  0.7635128E+02  0.7561462E-02  0.1339737E+00
         -1   -1    0    0    0  501 -0.00000000000E+00  0.00000000000E+00  0.23933218505E+03  0.23933218505E+03  0.00000000000E+00 0.  1.
          1   -1    0    0  501    0  0.00000000000E+00 -0.00000000000E+00 -0.58244844999E+02  0.58244844999E+02  0.00000000000E+00 0. -1.
          5    1    1    2  502    0  0.44432381998E+02  0.28427683532E+02  0.20916538254E+01  0.52954859803E+02  0.41800000000E+01 0. -1.
         -5    1    1    2    0  502 -0.10390449488E+02 -0.11551366977E+02  0.13696497291E+03  0.13790675011E+03  0.41800000000E+01 0. -1.
        -11    1    1    2    0    0 -0.88714495400E+01 -0.45052729873E+02  0.50228970892E+02  0.68054394441E+02  0.00000000000E+00 0.  1.
         11    1    1    2    0    0 -0.25170482970E+02  0.28176413317E+02 -0.81982575825E+01  0.38661025695E+02  0.00000000000E+00 0. -1.
</event>
<event>
 6    1  0.5317355E-006  0.1092986E+03  0.7561462E-02  0.1261874E+00
          2   -1    0    0  501    0  0.00000000000E+00  0.00000000000E+00  0.10751200396E+04  0.10751200396E+04  0.00000000000E+00 0. -1.
         -2   -1    0    0    0  501 -0.00000000000E+00 -0.00000000000E+00 -0.11516182740E+02  0.11516182740E+02  0.00000000000E+00 0.  1.
          5    1    1    2  502    0  0.45568853083E+02  0.28606754925E+02  0.27794324691E+03  0.28313386887E+03  0.41800000000E+01 0. -1.
         -5    1    1    2    0  502 -0.57000579498E+02 -0.41332298362E+02  0.25662485182E+03  0.26614133824E+03  0.41800000000E+01 0. -1.
        -11    1    1    2    0    0 -0.40703253692E+02  0.98824460252E+01  0.24932145371E+03  0.25281535729E+03  0.00000000000E+00 0. -1.
         11    1    1    2    0    0  0.52134980107E+02  0.28430974117E+01  0.27971430447E+03  0.28454565799E+03  0.00000000000E+00 0.  1.
</event>
<event>
 6    1  0.5317355E-006  0.1319775E+03  0.7561462E-02  0.1224551E+00
         -2   -1    0    0    0  501 -0.00000000000E+00  0.00000000000E+00  0.15936409049E+03  0.15936409049E+03  0.00000000000E+00 0.  1.
          2   -1    0    0  501    0  0.00000000000E+00 -0.00000000000E+00 -0.16556644620E+03  0.16556644620E+03  0.00000000000E+00 0. -1.
          5    1    1    2  502    0 -0.42706709128E+02  0.93028832128E+02 -0.22225748614E+02  0.10483168850E+03  0.41800000000E+01 0.  1.
         -5    1    1    2    0  502  0.38250780836E+02  0.23201704142E+02  0.51711288852E+02  0.68505263333E+02  0.41800000000E+01 0.  1.
        -11    1    1    2    0    0 -0.21583001114E+01 -0.39532798403E+02 -0.59094615554E+02  0.71131385453E+02  0.00000000000E+00 0. -1.
         11    1    1    2    0    0  0.66142284036E+01 -0.76697737867E+02  0.23406719609E+02  0.80462199411E+02  0.00000000000E+00 0.  1.
</event>
<event>
 6    1  0.5317355E-006  0.8458358E+02  0.7561462E-02  0.1316525E+00
         -2   -1    0    0    0  501 -0.00000000000E+00  0.00000000000E+00  0.81352438489E+02  0.81352438489E+02  0.00000000000E+00 0.  1.
          2   -1    0    0  501    0  0.00000000000E+00 -0.00000000000E+00 -0.16002273025E+03  0.16002273025E+03  0.00000000000E+00 0. -1.
          5    1    1    2  502    0 -0.19088778725E+02  0.31299249775E+02  0.40101896748E+02  0.54494578010E+02  0.41800000000E+01 0.  1.
         -5    1    1    2    0  502  0.40798501725E+02 -0.16794048794E+02 -0.60393878972E+02  0.74909617775E+02  0.41800000000E+01 0.  1.
        -11    1    1    2    0    0  0.32117089415E+02  0.32551327438E+00 -0.13281514682E+01  0.32146187607E+02  0.00000000000E+00 0. -1.
         11    1    1    2    0    0 -0.53826812415E+02 -0.14830714256E+02 -0.57050158069E+02  0.79824785348E+02  0.00000000000E+00 0.  1.
</event>
<event>
 6    1  0.5317355E-006  0.2044216E+03  0.7561462E-02  0.1146061E+00
         -1   -1    0    0    0  501 -0.00000000000E+00  0.00000000000E+00  0.41347858679E+02  0.41347858679E+02  0.00000000000E+00 0.  1.
          1   -1    0    0  501    0  0.00000000000E+00 -0.00000000000E+00 -0.11253821378E+04  0.11253821378E+04  0.00000000000E+00 0. -1.
          5    1    1    2  502    0 -0.41382071068E+02 -0.16340090921E+03 -0.53123390280E+03  0.55735021739E+03  0.41800000000E+01 0. -1.
         -5    1    1    2    0  502  0.26933693681E+02 -0.23688435796E+02 -0.28164011988E+02  0.45795740162E+02  0.41800000000E+01 0. -1.
        -11    1    1    2    0    0 -0.30419369976E+02  0.39463368949E+02 -0.16195789204E+03  0.16944926779E+03  0.00000000000E+00 0. -1.
         11    1    1    2    0    0  0.44867747364E+02  0.14762597606E+03 -0.36267847228E+03  0.39413477113E+03  0.00000000000E+00 0.  1.
</event>
<event>
 6    1  0.5317355E-006  0.1123591E+03  0.7561462E-02  0.1256262E+00
         -2   -1    0    0    0  501 -0.00000000000E+00  0.00000000000E+00  0.42566091058E+02  0.42566091058E+02  0.00000000000E+00 0.  1.
          2   -1    0    0  501    0  0.00000000000E+00 -0.00000000000E+00 -0.37506984190E+03  0.37506984190E+03  0.00000000000E+00 0. -1.
          5    1    1    2  502    0  0.20470949358E+02 -0.47812136734E+02 -0.51594181842E+02  0.73379099113E+02  0.41800000000E+01 0.  1.
         -5    1    1    2    0  502  0.34894195546E+02  0.79687464902E+02 -0.12269668453E+03  0.15046476578E+03  0.41800000000E+01 0.  1.
        -11    1    1    2    0    0 -0.55944328598E+02 -0.24306647754E+01 -0.15422084439E+03  0.16407237695E+03  0.00000000000E+00 0. -1.
         11    1    1    2    0    0  0.57918369378E+00 -0.29444663393E+02 -0.39920400762E+01  0.29719691116E+02  0.00000000000E+00 0.  1.
</event>
<event>
 6    1  0.5317355E-006  0.8867907E+02  0.7561462E-02  0.1306082E+00
          3   -1    0    0  501    0  0.00000000000E+00  0.00000000000E+00  0.91543344000E+02  0.91543344000E+02  0.00000000000E+00 0. -1.
         -3   -1    0    0    0  501 -0.00000000000E+00 -0.00000000000E+00 -0.16856255094E+03  0.16856255094E+03  0.00000000000E+00 0.  1.
          5    1    1    2  502    0 -0.46160189458E+02 -0.13025657270E+02 -0.90844776148E+02  0.10281379573E+03  0.41800000000E+01 0.  1.
         -5    1    1    2    0  502  0.13084710875E+01 -0.27061189896E+02  0.37015319899E+02  0.46061115948E+02  0.41800000000E+01 0.  1.
        -11    1    1    2    0    0  0.58681210008E+02 -0.74912814965E+00  0.62597108302E+01  0.59018891727E+02  0.00000000000E+00 0. -1.
         11    1    1    2    0    0 -0.13829491638E+02  0.40835975315E+02 -0.29449461519E+02  0.52212091537E+02  0.00000000000E+00 0.  1.
</event>
<event>
 6    1  0.5317355E-006  0.9031168E+02  0.7561462E-02  0.1302099E+00
          1   -1    0    0  501    0  0.00000000000E+00  0.00000000000E+00  0.17512336253E+02  0.17512336253E+02  0.00000000000E+00 0. -1.
         -1   -1    0    0    0  501 -0.00000000000E+00 -0.00000000000E+00 -0.84984801373E+03  0.84984801373E+03  0.00000000000E+00 0.  1.
          5    1    1    2  502    0  0.40016170116E+02  0.39844071751E+02 -0.10565772099E+03  0.11987439397E+03  0.41800000000E+01 0. -1.
         -5    1    1    2    0  502  0.12317593630E+01 -0.22552566921E+02 -0.48477410522E+03  0.48531797926E+03  0.41800000000E+01 0. -1.
        -11    1    1    2    0    0 -0.70221659109E+02 -0.16030270877E+02 -0.16917766101E+03  0.18387259714E+03  0.00000000000E+00 0.  1.
         11    1    1    2    0    0  0.28973729630E+02 -0.12612339520E+01 -0.72726190260E+02  0.78295379617E+02  0.00000000000E+00 0. -1.
</event>
<event>
 6    1  0.5317355E-006  0.1931839E+03  0.7561462E-02  0.1155621E+00
         -2   -1    0    0    0  501 -0.00000000000E+00  0.00000000000E+00  0.16296834577E+03  0.16296834577E+03  0.00000000000E+00 0.  1.
          2   -1    0    0  501    0  0.00000000000E+00 -0.00000000000E+00 -0.29398866434E+03  0.29398866434E+03  0.00000000000E+00 0. -1.
          5    1    1    2  502    0 -0.83848767490E+02 -0.43330154906E+02 -0.27224149513E+02  0.98319605626E+02  0.41800000000E+01 0.  1.
         -5    1    1    2    0  502 -0.30392592489E+01 -0.10309312210E+03  0.48419190203E+02  0.11401455741E+03  0.41800000000E+01 0.  1.
        -11    1    1    2    0    0  0.38857332002E+02  0.48353261733E+01 -0.50006116497E+02  0.63512867331E+02  0.00000000000E+00 0.  1.
         11    1    1    2    0    0  0.48030694737E+02  0.14158795083E+03 -0.10220924276E+03  0.18110997975E+03  0.00000000000E+00 0. -1.
</event>
<event>
 6    1  0.5317355E-006  0.1144437E+03  0.7561462E-02  0.1252555E+00
          2   -1    0    0  501    0  0.00000000000E+00  0.00000000000E+00  0.55034832216E+03  0.55034832216E+03  0.00000000000E+00 0. -1.
         -2   -1    0    0    0  501 -0.00000000000E+00 -0.00000000000E+00 -0.39022980128E+02  0.39022980128E+02  0.00000000000E+00 0.  1.
          5    1    1    2  502    0  0.54071513349E+02  0.11111099621E+01  0.20208104545E+03  0.20923475918E+03  0.41800000000E+01 0. -1.
         -5    1    1    2    0  502  0.29204376176E+02 -0.39018911376E+02  0.46517353925E+01  0.49137379610E+02  0.41800000000E+01 0. -1.
        -11    1    1    2    0    0 -0.22307208993E+01  0.44368249472E+02  0.14849558633E+03  0.15499824785E+03  0.00000000000E+00 0. -1.
         11    1    1    2    0    0 -0.81045168626E+02 -0.64604480587E+01  0.15609697486E+03  0.17600091564E+03  0.00000000000E+00 0.  1.
</event>
<event>
 6    1  0.5317355E-006  0.1059867E+03  0.7561462E-02  0.1268188E+00
         -2   -1    0    0    0  501 -0.00000000000E+00  0.00000000000E+00  0.37379327906E+02  0.37379327906E+02  0.00000000000E+00 0. -1.
          2   -1    0    0  501    0  0.00000000000E+00 -0.00000000000E+00 -0.35161125535E+03  0.35161125535E+03  0.00000000000E+00 0.  1.
          5    1    1    2  502    0 -0.13620325119E+02  0.40620729699E+02 -0.11187904764E+03  0.11987472894E+03  0.41800000000E+01 0.  1.
         -5    1    1    2    0  502  0.53324251167E+02 -0.57846476892E+02 -0.72281136683E+02  0.10691924884E+03  0.41800000000E+01 0.  1.
        -11    1    1    2    0    0 -0.54188341076E+02 -0.13785071988E+02 -0.49579826509E+02  0.74729938545E+02  0.00000000000E+00 0.  1.
         11    1    1    2    0    0  0.14484415027E+02  0.31010819181E+02 -0.80491916617E+02  0.87466666940E+02  0.00000000000E+00 0. -1.
</event>
<event>
 6    1  0.5317355E-006  0.1197716E+03  0.7561462E-02  0.1243474E+00
          2   -1    0    0  501    0  0.00000000000E+00  0.00000000000E+00  0.84373103596E+03  0.84373103596E+03  0.00000000000E+00 0. -1.
         -2   -1    0    0    0  501 -0.00000000000E+00 -0.00000000000E+00 -0.30450649828E+02  0.30450649828E+02  0.00000000000E+00 0.  1.
          5    1    1    2  502    0  0.16783685563E+02  0.59784059565E+02  0.29525748511E+02  0.68884454736E+02  0.41800000000E+01 0.  1.
         -5    1    1    2    0  502 -0.11527040319E+02  0.43607648130E+02  0.25261721836E+03  0.25664650991E+03  0.41800000000E+01 0.  1.
        -11    1    1    2    0    0 -0.36627748966E+02 -0.17551908785E+02  0.24286254052E+03  0.24623540583E+03  0.00000000000E+00 0. -1.
         11    1    1    2    0    0  0.31371103722E+02 -0.85839798909E+02  0.28827487874E+03  0.30241531532E+03  0.00000000000E+00 0.  1.
</event>
<event>
 6    1  0.5317355E-006  0.1114050E+03  0.7561462E-02  0.1257990E+00
          1   -1    0    0  501    0  0.00000000000E+00  0.00000000000E+00  0.12241549972E+03  0.12241549972E+03  0.00000000000E+00 0. -1.
         -1   -1    0    0    0  501 -0.00000000000E+00 -0.00000000000E+00 -0.11760680804E+03  0.11760680804E+03  0.00000000000E+00 0.  1.
          5    1    1    2  502    0 -0.29740325266E+02 -0.57701768282E+02 -0.99372800883E+01  0.65804277561E+02  0.41800000000E+01 0.  1.
         -5    1    1    2    0  502 -0.28396999770E+02  0.67178888566E+02 -0.40703076862E+01  0.73167154308E+02  0.41800000000E+01 0.  1.
        -11    1    1    2    0    0  0.62224002836E+02  0.11549291050E+02 -0.11104183232E+02  0.64253525490E+02  0.00000000000E+00 0.  1.
         11    1    1    2    0    0 -0.40866777999E+01 -0.21026411333E+02  0.29920462682E+02  0.36797350395E+02  0.00000000000E+00 0. -1.
</event>
<event>
 6    1  0.5317355E-006  0.8832035E+02  0.7561462E-02  0.1306971E+00
         -1   -1    0    0    0  501 -0.00000000000E+00  0.00000000000E+00  0.93603813986E+03  0.93603813986E+03  0.00000000000E+00 0.  1.
          1   -1    0    0  501    0  0.00000000000E+00 -0.00000000000E+00 -0.17496164703E+02  0.17496164703E+02  0.00000000000E+00 0. -1.
          5    1    1    2  502    0  0.21837505285E+00 -0.23468172764E+01 -0.56158391299E+01  0.73868320764E+01  0.41800000000E+01 0.  1.
         -5    1    1    2    0  502 -0.54256869647E+02 -0.30578519095E+02  0.60313108536E+03  0.60635256433E+03  0.41800000000E+01 0.  1.
        -11    1    1    2    0    0  0.27596702217E+02  0.63357383130E+02  0.17074987999E+03  0.18420439052E+03  0.00000000000E+00 0.  1.
         11    1    1    2    0    0  0.26441792378E+02 -0.30432046759E+02  0.15027684893E+03  0.15559051763E+03  0.00000000000E+00 0. -1.
</event>
<event>
 6    1  0.5317355E-006  0.1042174E+03  0.7561462E-02  0.1271669E+00
          1   -1    0    0  501    0  0.00000000000E+00  0.00000000000E+00  0.62359536170E+02  0.62359536170E+02  0.00000000000E+00 0. -1.
         -1   -1    0    0    0  501 -0.00000000000E+00 -0.00000000000E+00 -0.27883742973E+03  0.27883742973E+03  0.00000000000E+00 0.  1.
          5    1    1    2  502    0  0.46734669882E+01  0.74220590862E+02 -0.11431728722E+03  0.13644211945E+03  0.41800000000E+01 0. -1.
         -5    1    1    2    0  502 -0.15352272029E+02 -0.64199385285E+01  0.26034936369E+02  0.31180092670E+02  0.41800000000E+01 0. -1.
        -11    1    1    2    0    0  0.35638264259E+02  0.83942895500E+01 -0.35240473819E+02  0.50817723006E+02  0.00000000000E+00 0. -1.
         11    1    1    2    0    0 -0.24959459218E+02 -0.76194941884E+02 -0.92955068886E+02  0.12275703078E+03  0.00000000000E+00 0.  1.
</event>
<event>
 6    1  0.5317355E-006  0.1153006E+03  0.7561462E-02  0.1251057E+00
          1   -1    0    0  501    0  0.00000000000E+00  0.00000000000E+00  0.74133868966E+03  0.74133868966E+03  0.00000000000E+00 0. -1.
         -1   -1    0    0    0  501 -0.00000000000E+00 -0.00000000000E+00 -0.24227602134E+02  0.24227602134E+02  0.00000000000E+00 0.  1.
          5    1    1    2  502    0  0.43003038336E+02  0.32138497857E+02  0.65908253185E+02  0.85108839661E+02  0.41800000000E+01 0.  1.
         -5    1    1    2    0  502  0.23161437485E+02 -0.62628768821E+02  0.32326432842E+03  0.33011530304E+03  0.41800000000E+01 0.  1.
        -11    1    1    2    0    0 -0.19628351658E+02  0.54182286256E+02  0.90963299335E+02  0.10768154047E+03  0.00000000000E+00 0.  1.
         11    1    1    2    0    0 -0.46536124162E+02 -0.23692015292E+02  0.23697520659E+03  0.24266060862E+03  0.00000000000E+00 0. -1.
</event>
<event>
 6    1  0.5317355E-006  0.9194681E+02  0.7561462E-02  0.1298205E+00
         -1   -1    0    0    0  501 -0.00000000000E+00  0.00000000000E+00  0.39649917312E+02  0.39649917312E+02  0.00000000000E+00 0.  1.
          1   -1    0    0  501    0  0.00000000000E+00 -0.00000000000E+00 -0.33288122111E+03  0.33288122111E+03  0.00000000000E+00 0. -1.
          5    1    1    2  502    0 -0.21610822431E+02  0.67010156164E+02 -0.69658981064E+02  0.99132410029E+02  0.41800000000E+01 0.  1.
         -5    1    1    2    0  502 -0.16519158210E+01 -0.56887627987E+02 -0.56674150372E+02  0.80426132347E+02  0.41800000000E+01 0.  1.
        -11    1    1    2    0    0  0.96461782842E+01 -0.30387210030E+02 -0.16547324401E+03  0.16851654451E+03  0.00000000000E+00 0. -1.
         11    1    1    2    0    0  0.13616559968E+02  0.20264681852E+02 -0.14249283473E+01  0.24456051536E+02  0.00000000000E+00 0.  1.
</event>
<event>
 6    1  0.5317355E-006  0.1547502E+03  0.7561462E-02  0.1194754E+00
         -1   -1    0    0    0  501 -0.00000000000E+00  0.00000000000E+00  0.89949668493E+02  0.89949668493E+02  0.00000000000E+00 0.  1.
          1   -1    0    0  501    0  0.00000000000E+00 -0.00000000000E+00 -0.32483161018E+03  0.32483161018E+03  0.00000000000E+00 0. -1.
          5    1    1    2  502    0  0.61030295363E+02  0.71564779776E+02 -0.12812567120E+03  0.15899646121E+03  0.41800000000E+01 0. -1.
         -5    1    1    2    0  502 -0.32381548840E+02  0.57704597131E+02 -0.47561809698E+01  0.66471639763E+02  0.41800000000E+01 0. -1.
        -11    1    1    2    0    0  0.21891678893E+02 -0.55200933372E+02 -0.75009719811E+02  0.95670511214E+02  0.00000000000E+00 0.  1.
         11    1    1    2    0    0 -0.50540425415E+02 -0.74068443536E+02 -0.26990369697E+02  0.93642666480E+02  0.00000000000E+00 0. -1.
</event>
<event>
 6    1  0.5317355E-006  0.3412418E+03  0.7561462E-02  0.1066268E+00
         -2   -1    0    0    0  501 -0.00000000000E+00  0.00000000000E+00  0.26410267202E+03  0.26410267202E+03  0.00000000000E+00 0.  1.
          2   -1    0    0  501    0  0.00000000000E+00 -0.00000000000E+00 -0.52721802793E+03  0.52721802793E+03  0.00000000000E+00 0. -1.
          5    1    1    2  502    0 -0.55223731463E+02  0.14249852555E+03  0.53192395662E+02  0.16187153442E+03  0.41800000000E+01 0. -1.
         -5    1    1    2    0  502 -0.45945585071E+02  0.18179463004E+03 -0.71076444170E+02  0.20057322257E+03  0.41800000000E+01 0. -1.
        -11    1    1    2    0    0  0.49482600129E+02 -0.22183598983E+03 -0.11311414627E+03  0.25387899517E+03  0.00000000000E+00 0.  1.
         11    1    1    2    0    0  0.51686716405E+02 -0.10245716575E+03 -0.13211716113E+03  0.17499694778E+03  0.00000000000E+00 0. -1.
</event>
<event>
 6    1  0.5317355E-006  0.3535080E+03  0.7561462E-02  0.1061184E+00
          1   -1    0    0  501    0  0.00000000000E+00  0.00000000000E+00  0.11543851670E+04  0.11543851670E+04  0.00000000000E+00 0. -1.
         -1   -1    0    0    0  501 -0.00000000000E+00 -0.00000000000E+00 -0.15246698187E+03  0.15246698187E+03  0.00000000000E+00 0.  1.
          5    1    1    2  502    0  0.31348700878E+03  0.40964496816E+02  0.14654936179E+03  0.34849158169E+03  0.41800000000E+01 0. -1.
         -5    1    1    2    0  502  0.23905165667E+02 -0.35414696000E+02  0.10732692485E+02  0.44252917716E+02  0.41800000000E+01 0. -1.
        -11    1    1    2    0    0 -0.27527402676E+03 -0.37894322964E+02  0.63666870413E+03  0.69466452936E+03  0.00000000000E+00 0. -1.
         11    1    1    2    0    0 -0.62118147686E+02  0.32344522148E+02  0.20796742673E+03  0.21944312012E+03  0.00000000000E+00 0.  1.
</event>
<event>
 6    1  0.5317355E-006  0.5763739E+02  0.7561462E-02  0.1408023E+00
          1   -1    0    0  501    0  0.00000000000E+00  0.00000000000E+00  0.11012609169E+02  0.11012609169E+02  0.00000000000E+00 0. -1.
         -1   -1    0    0    0  501 -0.00000000000E+00 -0.00000000000E+00 -0.17345423276E+04  0.17345423276E+04  0.00000000000E+00 0.  1.
          5    1    1    2  502    0 -0.11802021318E+01  0.38859903252E+01  0.19369167175E+01  0.61414855084E+01  0.41800000000E+01 0. -1.
         -5    1    1    2    0  502  0.15193352449E+02 -0.17378243361E+02 -0.14247318286E+04  0.14249249444E+04  0.41800000000E+01 0.  1.
        -11    1    1    2    0    0 -0.48585396879E+02  0.16437072331E+02 -0.12078323613E+03  0.13122236191E+03  0.00000000000E+00 0. -1.
         11    1    1    2    0    0  0.34572246562E+02 -0.29448192949E+01 -0.17995157049E+03  0.18326614503E+03  0.00000000000E+00 0.  1.
</event>
<event>
 6    1  0.5317355E-006  0.1005324E+03  0.7561462E-02  0.1279180E+00
          2   -1    0    0  501    0  0.00000000000E+00  0.00000000000E+00  0.26055220821E+02  0.26055220821E+02  0.00000000000E+00 0.  1.
         -2   -1    0    0    0  501 -0.00000000000E+00 -0.00000000000E+00 -0.45557659068E+03  0.45557659068E+03  0.00000000000E+00 0. -1.
          5    1    1    2  502    0 -0.38421333932E+02  0.40026968616E+02 -0.71236131821E+02  0.90390353437E+02  0.41800000000E+01 0.  1.
         -5    1    1    2    0  502  0.36838362054E+02 -0.43854888250E+02 -0.20471375814E+03  0.21261587738E+03  0.41800000000E+01 0.  1.
        -11    1    1    2    0    0  0.31424612311E+02 -0.29612457396E+02 -0.51896337358E+02  0.67510249023E+02  0.00000000000E+00 0.  1.
         11    1    1    2    0    0 -0.29841640432E+02  0.33440377030E+02 -0.10167514254E+03  0.11111533166E+03  0.00000000000E+00 0. -1.
</event>
<event>
 6    1  0.5317355E-006  0.7747806E+02  0.7561462E-02  0.1336365E+00
          2   -1    0    0  501    0  0.00000000000E+00  0.00000000000E+00  0.12645769137E+03  0.12645769137E+03  0.00000000000E+00 0.  1.
         -2   -1    0    0    0  501 -0.00000000000E+00 -0.00000000000E+00 -0.94895674490E+02  0.94895674490E+02  0.00000000000E+00 0. -1.
          5    1    1    2  502    0  0.32588393257E+02 -0.24608886274E+02  0.61147419638E+02  0.73648353595E+02  0.41800000000E+01 0. -1.
         -5    1    1    2    0  502 -0.16617518198E+02  0.18599486779E+02 -0.47020285586E+02  0.53389722570E+02  0.41800000000E+01 0. -1.
        -11    1    1    2    0    0 -0.51519582939E+02 -0.40327006234E+01  0.23691902716E+02  0.56849242342E+02  0.00000000000E+00 0.  1.
         11    1    1    2    0    0  0.35548707880E+02  0.10042100119E+02 -0.62570198844E+01  0.37466047357E+02  0.00000000000E+00 0. -1.
</event>
<event>
 6    1  0.5317355E-006  0.1337851E+03  0.7561462E-02  0.1221945E+00
          2   -1    0    0  501    0  0.00000000000E+00  0.00000000000E+00  0.12544665925E+04  0.12544665925E+04  0.00000000000E+00 0. -1.
         -2   -1    0    0    0  501 -0.00000000000E+00 -0.00000000000E+00 -0.19933621319E+02  0.19933621319E+02  0.00000000000E+00 0.  1.
          5    1    1    2  502    0 -0.10242352964E+03 -0.20118731401E+02  0.63544508167E+03  0.64397458567E+03  0.41800000000E+01 0. -1.
         -5    1    1    2    0  502  0.11553543479E+01 -0.32427391398E+02  0.36694415785E+02  0.49161195127E+02  0.41800000000E+01 0. -1.
        -11    1    1    2    0    0  0.81922979997E+02  0.85987767361E+01  0.46974245886E+03  0.47691015010E+03  0.00000000000E+00 0. -1.
         11    1    1    2    0    0  0.19345195292E+02  0.43947346063E+02  0.92651014851E+02  0.10435428290E+03  0.00000000000E+00 0.  1.
</event>
<event>
 6    1  0.5317355E-006  0.7985590E+02  0.7561462E-02  0.1329461E+00
          2   -1    0    0  501    0  0.00000000000E+00  0.00000000000E+00  0.16893657833E+03  0.16893657833E+03  0.00000000000E+00 0. -1.
         -2   -1    0    0    0  501 -0.00000000000E+00 -0.00000000000E+00 -0.73748909644E+02  0.73748909644E+02  0.00000000000E+00 0.  1.
          5    1    1    2  502    0 -0.21143308216E+02  0.34766828092E+02  0.76814334485E+02  0.87026928018E+02  0.41800000000E+01 0. -1.
         -5    1    1    2    0  502 -0.61221919943E+00 -0.28485858567E+02 -0.36356092917E+02  0.46379487306E+02  0.41800000000E+01 0. -1.
        -11    1    1    2    0    0  0.46267806046E+02 -0.30606770517E+02  0.49505137338E+02  0.74352154647E+02  0.00000000000E+00 0. -1.
         11    1    1    2    0    0 -0.24512278631E+02  0.24325800992E+02  0.52242897806E+01  0.34926918005E+02  0.00000000000E+00 0.  1.
</event>
<event>
 6    1  0.5317355E-006  0.7345756E+02  0.7561462E-02  0.1348715E+00
          1   -1    0    0  501    0  0.00000000000E+00  0.00000000000E+00  0.55232423002E+03  0.55232423002E+03  0.00000000000E+00 0. -1.
         -1   -1    0    0    0  501 -0.00000000000E+00 -0.00000000000E+00 -0.38027400216E+02  0.38027400216E+02  0.00000000000E+00 0.  1.
          5    1    1    2  502    0  0.23161025226E+02  0.16295995333E+02  0.86385763369E+02  0.91005302408E+02  0.41800000000E+01 0. -1.
         -5    1    1    2    0  502 -0.25647979300E+02 -0.71315571407E+01 -0.25238669921E+02  0.36920736840E+02  0.41800000000E+01 0.  1.
        -11    1    1    2    0    0  0.38366566499E+00 -0.50225394135E+02  0.27930073672E+03  0.28378097002E+03  0.00000000000E+00 0. -1.
         11    1    1    2    0    0  0.21032884093E+01  0.41060955943E+02  0.17384899964E+03  0.17864462097E+03  0.00000000000E+00 0.  1.
</event>
<event>
 6    1  0.5317355E-006  0.1193944E+03  0.7561462E-02  0.1244099E+00
         -1   -1    0    0    0  501 -0.00000000000E+00  0.00000000000E+00  0.63996412551E+02  0.63996412551E+02  0.00000000000E+00 0.  1.
          1   -1    0    0  501    0  0.00000000000E+00 -0.00000000000E+00 -0.35737299008E+03  0.35737299008E+03  0.00000000000E+00 0. -1.
          5    1    1    2  502    0 -0.11620023077E+02  0.45168017435E+02 -0.34816860501E+02  0.58351186024E+02  0.41800000000E+01 0. -1.
         -5    1    1    2    0  502  0.71508199829E+02 -0.46791865853E+02 -0.39015967653E+01  0.85648095193E+02  0.41800000000E+01 0. -1.
        -11    1    1    2    0    0  0.10648136796E+02  0.28883255887E+02 -0.45266414019E+02  0.54741880914E+02  0.00000000000E+00 0.  1.
         11    1    1    2    0    0 -0.70536313548E+02 -0.27259407468E+02 -0.20939170625E+03  0.22262824050E+03  0.00000000000E+00 0. -1.
</event>
<event>
 6    1  0.5317355E-006  0.1551128E+03  0.7561462E-02  0.1194328E+00
          1   -1    0    0  501    0  0.00000000000E+00  0.00000000000E+00  0.18298853087E+03  0.18298853087E+03  0.00000000000E+00 0. -1.
         -1   -1    0    0    0  501 -0.00000000000E+00 -0.00000000000E+00 -0.28056385432E+03  0.28056385432E+03  0.00000000000E+00 0.  1.
          5    1    1    2  502    0  0.33989302752E+01 -0.22949332763E+01  0.15563380960E+02  0.16628610064E+02  0.41800000000E+01 0. -1.
         -5    1    1    2    0  502 -0.64405286840E+02  0.13966510369E+03 -0.19857949720E+03  0.25120842198E+03  0.41800000000E+01 0. -1.
        -11    1    1    2    0    0  0.28014137878E+02 -0.53582729045E+02  0.86647388101E+02  0.10565827293E+03  0.00000000000E+00 0. -1.
         11    1    1    2    0    0  0.32992218687E+02 -0.83787441369E+02 -0.12065953088E+01  0.90057080218E+02  0.00000000000E+00 0.  1.
</event>
<event>
 6    1  0.5317355E-006  0.9331397E+02  0.7561462E-02  0.1295019E+00
         -2   -1    0    0    0  501 -0.00000000000E+00  0.00000000000E+00  0.44599169867E+02  0.44599169867E+02  0.00000000000E+00 0.  1.
          2   -1    0    0  501    0  0.00000000000E+00 -0.00000000000E+00 -0.31424776007E+03  0.31424776007E+03  0.00000000000E+00 0. -1.
          5    1    1    2  502    0 -0.39130330233E+02  0.60328131512E+02 -0.15156853816E+03  0.16781287304E+03  0.41800000000E+01 0.  1.
         -5    1    1    2    0  502  0.81395571888E+01 -0.28316300896E+02  0.47686254798E+01  0.30137642188E+02  0.41800000000E+01 0.  1.
        -11    1    1    2    0    0  0.50684102297E+02 -0.43295945419E+01 -0.11540386421E+03  0.12611770490E+03  0.00000000000E+00 0. -1.
         11    1    1    2    0    0 -0.19693329253E+02 -0.27682236074E+02 -0.74448133127E+01  0.34778709815E+02  0.00000000000E+00 0.  1.
</event>
<event>
 6    1  0.5317355E-006  0.2273481E+03  0.7561462E-02  0.1128520E+00
          2   -1    0    0  501    0  0.00000000000E+00  0.00000000000E+00  0.18402084481E+03  0.18402084481E+03  0.00000000000E+00 0. -1.
         -2   -1    0    0    0  501 -0.00000000000E+00 -0.00000000000E+00 -0.31666269312E+03  0.31666269312E+03  0.00000000000E+00 0.  1.
          5    1    1    2  502    0  0.40741525332E+02 -0.64818056542E+02  0.12178825928E+02  0.77634068174E+02  0.41800000000E+01 0.  1.
         -5    1    1    2    0  502 -0.58238012241E+02 -0.14959493187E+03 -0.84761927819E+02  0.18158294666E+03  0.41800000000E+01 0.  1.
        -11    1    1    2    0    0 -0.16907675075E+01  0.15487434739E+03 -0.81906123278E+02  0.17520712088E+03  0.00000000000E+00 0.  1.
         11    1    1    2    0    0  0.19187254416E+02  0.59538641014E+02  0.21847376861E+02  0.66259402212E+02  0.00000000000E+00 0. -1.
</event>
<event>
 6    1  0.5317355E-006  0.9531627E+02  0.7561462E-02  0.1290465E+00
         -1   -1    0    0    0  501 -0.00000000000E+00  0.00000000000E+00  0.45904240887E+02  0.45904240887E+02  0.00000000000E+00 0.  1.
          1   -1    0    0  501    0  0.00000000000E+00 -0.00000000000E+00 -0.36521125648E+03  0.36521125648E+03  0.00000000000E+00 0. -1.
          5    1    1    2  502    0 -0.41648438329E+02  0.22298862604E+02  0.45191488312E+01  0.47641649791E+02  0.41800000000E+01 0.  1.
         -5    1    1    2    0  502 -0.26963190540E+02 -0.15748177219E+02 -0.16167570284E+03  0.16471649589E+03  0.41800000000E+01 0.  1.
        -11    1    1    2    0    0  0.67818379562E+01  0.36007824126E+02 -0.32656600439E+02  0.49081669456E+02  0.00000000000E+00 0.  1.
         11    1    1    2    0    0  0.61829790913E+02 -0.42558509510E+02 -0.12949386114E+03  0.14967568222E+03  0.00000000000E+00 0. -1.
</event>
<event>
 6    1  0.5317355E-006  0.1617079E+03  0.7561462E-02  0.1186782E+00
          1   -1    0    0  501    0  0.00000000000E+00  0.00000000000E+00  0.84439108861E+03  0.84439108861E+03  0.00000000000E+00 0. -1.
         -1   -1    0    0    0  501 -0.00000000000E+00 -0.00000000000E+00 -0.41329367015E+02  0.41329367015E+02  0.00000000000E+00 0.  1.
          5    1    1    2  502    0  0.25507850426E+02 -0.15784684427E+02  0.43307797547E+02  0.52847369132E+02  0.41800000000E+01 0.  1.
         -5    1    1    2    0  502 -0.14310726959E+03 -0.17043820033E+02  0.16773743570E+03  0.22118657768E+03  0.41800000000E+01 0.  1.
        -11    1    1    2    0    0  0.76968784427E+02  0.62080459132E+02  0.45969774624E+03  0.47021292525E+03  0.00000000000E+00 0. -1.
         11    1    1    2    0    0  0.40630634734E+02 -0.29251954671E+02  0.13231874212E+03  0.14147358356E+03  0.00000000000E+00 0.  1.
</event>
<event>
 6    1  0.5317355E-006  0.1572869E+03  0.7561462E-02  0.1191794E+00
         -1   -1    0    0    0  501 -0.00000000000E+00  0.00000000000E+00  0.91467931968E+02  0.91467931968E+02  0.00000000000E+00 0.  1.
          1   -1    0    0  501    0  0.00000000000E+00 -0.00000000000E+00 -0.38674763784E+03  0.38674763784E+03  0.00000000000E+00 0. -1.
          5    1    1    2  502    0  0.62318912881E+02  0.84260242144E+02 -0.41345617121E+02  0.11274026683E+03  0.41800000000E+01 0. -1.
         -5    1    1    2    0  502 -0.51203854444E+02  0.33330264519E+02  0.10246371355E+02  0.62090271128E+02  0.41800000000E+01 0. -1.
        -11    1    1    2    0    0  0.18333963439E+02 -0.11757981410E+03 -0.19911369095E+03  0.23196424039E+03  0.00000000000E+00 0. -1.
         11    1    1    2    0    0 -0.29449021876E+02 -0.10692562462E-01 -0.65066769161E+02  0.71420791460E+02  0.00000000000E+00 0.  1.
</event>
<event>
 6    1  0.5317355E-006  0.7944525E+02  0.7561462E-02  0.1330633E+00
         -1   -1    0    0    0  501 -0.00000000000E+00  0.00000000000E+00  0.60206194938E+02  0.60206194938E+02  0.00000000000E+00 0.  1.
          1   -1    0    0  501    0  0.00000000000E+00 -0.00000000000E+00 -0.58482117692E+03  0.58482117692E+03  0.00000000000E+00 0. -1.
          5    1    1    2  502    0 -0.25064981003E+02 -0.16071204829E+02  0.47231177336E+02  0.55989225837E+02  0.41800000000E+01 0. -1.
         -5    1    1    2    0  502  0.31645809301E+02  0.76103329922E+01 -0.62354887792E+02  0.70462606013E+02  0.41800000000E+01 0. -1.
        -11    1    1    2    0    0 -0.27039141540E+02 -0.37191404876E+02 -0.27371539162E+03  0.27755077262E+03  0.00000000000E+00 0. -1.
         11    1    1    2    0    0  0.20458313242E+02  0.45652276713E+02 -0.23577587990E+03  0.24102476739E+03  0.00000000000E+00 0.  1.
</event>
<event>
 6    1  0.5317355E-006  0.9724496E+02  0.7561462E-02  0.1286198E+00
         -1   -1    0    0    0  501 -0.00000000000E+00  0.00000000000E+00  0.43625946982E+02  0.43625946982E+02  0.00000000000E+00 0.  1.
          1   -1    0    0  501    0  0.00000000000E+00 -0.00000000000E+00 -0.51484088142E+03  0.51484088142E+03  0.00000000000E+00 0. -1.
          5    1    1    2  502    0 -0.40842837191E+02  0.41022339275E+02  0.83439565134E+01  0.58635003877E+02  0.41800000000E+01 0. -1.
         -5    1    1    2    0  502  0.21942276415E+01  0.19861788756E+02 -0.12593467708E+03  0.12757868388E+03  0.41800000000E+01 0. -1.
        -11    1    1    2    0    0 -0.22165356950E+02  0.85306585615E+01 -0.82660637160E+02  0.86004977297E+02  0.00000000000E+00 0. -1.
         11    1    1    2    0    0  0.60813966500E+02 -0.69414786592E+02 -0.27096357671E+03  0.28624816335E+03  0.00000000000E+00 0.  1.
</event>
<event>
 6    1  0.5317355E-006  0.1051800E+03  0.7561462E-02  0.1269765E+00
         -2   -1    0    0    0  501 -0.00000000000E+00  0.00000000000E+00  0.34072930054E+02  0.34072930054E+02  0.00000000000E+00 0.  1.
          2   -1    0    0  501    0  0.00000000000E+00 -0.00000000000E+00 -0.52172919718E+03  0.52172919718E+03  0.00000000000E+00 0. -1.
          5    1    1    2  502    0  0.91442624902E+02  0.15918839817E+02 -0.96441009244E+02  0.13391603255E+03  0.41800000000E+01 0. -1.
         -5    1    1    2    0  502 -0.37590331763E+02 -0.19263390690E+02 -0.60424118293E+02  0.73842113556E+02  0.41800000000E+01 0. -1.
        -11    1    1    2    0    0 -0.59548449294E+02 -0.10102373792E+02 -0.32756671260E+03  0.33308861730E+03  0.00000000000E+00 0. -1.
         11    1    1    2    0    0  0.56961561551E+01  0.13446924665E+02 -0.32244269894E+01  0.14955363830E+02  0.00000000000E+00 0.  1.
</event>
<event>
 6    1  0.5317355E-006  0.1448593E+03  0.7561462E-02  0.1206936E+00
          3   -1    0    0  501    0  0.00000000000E+00  0.00000000000E+00  0.26144517113E+03  0.26144517113E+03  0.00000000000E+00 0. -1.
         -3   -1    0    0    0  501 -0.00000000000E+00 -0.00000000000E+00 -0.12035834983E+03  0.12035834983E+03  0.00000000000E+00 0.  1.
          5    1    1    2  502    0 -0.10034580302E+03 -0.50526659403E+02 -0.27466060608E+02  0.11573279733E+03  0.41800000000E+01 0.  1.
         -5    1    1    2    0  502  0.36831977303E+02 -0.32005594488E+02  0.19074768972E+01  0.49010850826E+02  0.41800000000E+01 0.  1.
        -11    1    1    2    0    0  0.74976900370E+02  0.41459749153E+02  0.14692038197E+03  0.17007658577E+03  0.00000000000E+00 0. -1.
         11    1    1    2    0    0 -0.11463074656E+02  0.41072504738E+02  0.19725023039E+02  0.46983287028E+02  0.00000000000E+00 0.  1.
</event>
<event>
 6    1  0.5317355E-006  0.1157196E+03  0.7561462E-02  0.1250330E+00
          2   -1    0    0  501    0  0.00000000000E+00  0.00000000000E+00  0.68743602151E+03  0.68743602151E+03  0.00000000000E+00 0. -1.
         -2   -1    0    0    0  501 -0.00000000000E+00 -0.00000000000E+00 -0.25437059430E+02  0.25437059430E+02  0.00000000000E+00 0.  1.
          5    1    1    2  502    0 -0.94670818952E+02  0.32870355878E+02  0.19607662357E+03  0.22024200092E+03  0.41800000000E+01 0. -1.
         -5    1    1    2    0  502  0.28442906703E+02 -0.29390362332E+02  0.70356773442E+02  0.81488283261E+02  0.41800000000E+01 0. -1.
        -11    1    1    2    0    0 -0.11784082753E+02 -0.22826197071E+01  0.52420135620E+01  0.13097849642E+02  0.00000000000E+00 0.  1.
         11    1    1    2    0    0  0.78011995002E+02 -0.11973738381E+01  0.39032355151E+03  0.39804494712E+03  0.00000000000E+00 0. -1.
</event>
<event>
 6    1  0.5317355E-006  0.1246282E+03  0.7561462E-02  0.1235651E+00
         -3   -1    0    0    0  501 -0.00000000000E+00  0.00000000000E+00  0.79588111457E+03  0.79588111457E+03  0.00000000000E+00 0.  1.
          3   -1    0    0  501    0  0.00000000000E+00 -0.00000000000E+00 -0.32457847697E+02  0.32457847697E+02  0.00000000000E+00 0. -1.
          5    1    1    2  502    0 -0.97126798255E+01 -0.14987774316E+02  0.42336223195E+01  0.18824597905E+02  0.41800000000E+01 0.  1.
         -5    1    1    2    0  502 -0.95103530148E+02  0.45624413910E+02  0.53823631006E+03  0.54849071684E+03  0.41800000000E+01 0.  1.
        -11    1    1    2    0    0  0.85273138094E+02  0.42321396436E+01  0.89777272962E+02  0.12389260602E+03  0.00000000000E+00 0.  1.
         11    1    1    2    0    0  0.19543071879E+02 -0.34868779238E+02  0.13117606153E+03  0.13713104150E+03  0.00000000000E+00 0. -1.
</event>
<event>
 6    1  0.5317355E-006  0.9863665E+02  0.7561462E-02  0.1283189E+00
         -1   -1    0    0    0  501 -0.00000000000E+00  0.00000000000E+00  0.20146406838E+03  0.20146406838E+03  0.00000000000E+00 0.  1.
          1   -1    0    0  501    0  0.00000000000E+00 -0.00000000000E+00 -0.79592070187E+02  0.79592070187E+02  0.00000000000E+00 0. -1.
          5    1    1    2  502    0 -0.58847469795E+01 -0.40007190610E+02  0.11407722691E+03  0.12110446584E+03  0.41800000000E+01 0.  1.
         -5    1    1    2    0  502 -0.47098634974E+02  0.37267009084E+02  0.64911714180E+01  0.60553439943E+02  0.41800000000E+01 0.  1.
        -11    1    1    2    0    0  0.64635401495E+02 -0.22642210948E+02 -0.10106626406E+02  0.69228236583E+02  0.00000000000E+00 0. -1.
         11    1    1    2    0    0 -0.11652019542E+02  0.25382392473E+02  0.11410226271E+02  0.30169996199E+02  0.00000000000E+00 0.  1.
</event>
<event>
 6    1  0.5317355E-006  0.1194381E+03  0.7561462E-02  0.1244027E+00
         -2   -1    0    0    0  501 -0.00000000000E+00  0.00000000000E+00  0.38157429466E+02  0.38157429466E+02  0.00000000000E+00 0.  1.
          2   -1    0    0  501    0  0.00000000000E+00 -0.00000000000E+00 -0.46733471967E+03  0.46733471967E+03  0.00000000000E+00 0. -1.
          5    1    1    2  502    0 -0.17063065842E+02  0.66993497079E+02 -0.18125466803E+03  0.19403608929E+03  0.41800000000E+01 0. -1.
         -5    1    1    2    0  502  0.65201132363E+02 -0.56528474450E+01 -0.61120486511E+02  0.89645572211E+02  0.41800000000E+01 0. -1.
        -11    1    1    2    0    0  0.53927873452E+01 -0.48749563517E+02 -0.14400315226E+03  0.15212662475E+03  0.00000000000E+00 0. -1.
         11    1    1    2    0    0 -0.53530853866E+02 -0.12591086117E+02 -0.42798983411E+02  0.69683862883E+02  0.00000000000E+00 0.  1.
</event>
<event>
 6    1  0.5317355E-006  0.1554144E+03  0.7561462E-02  0.1193973E+00
         -2   -1    0    0    0  501 -0.00000000000E+00  0.00000000000E+00  0.10310963154E+04  0.10310963154E+04  0.00000000000E+00 0. -1.
          2   -1    0    0  501    0  0.00000000000E+00 -0.00000000000E+00 -0.33606174667E+02  0.33606174667E+02  0.00000000000E+00 0.  1.
          5    1    1    2  502    0 -0.14165386756E+03  0.40796450822E+02  0.34976801846E+03  0.37958570539E+03  0.41800000000E+01 0. -1.
         -5    1    1    2    0  502 -0.41175095618E+01 -0.13951211380E+02  0.25657367996E+03  0.25701967986E+03  0.41800000000E+01 0. -1.
        -11    1    1    2    0    0  0.25636294721E+02 -0.45808047608E+01  0.10087707812E+02  0.27927857565E+02  0.00000000000E+00 0.  1.
         11    1    1    2    0    0  0.12013508240E+03 -0.22264434681E+02  0.38106073445E+03  0.40016924722E+03  0.00000000000E+00 0. -1.
</event>
<event>
 6    1  0.5317355E-006  0.1438832E+03  0.7561462E-02  0.1208197E+00
         -1   -1    0    0    0  501 -0.00000000000E+00  0.00000000000E+00  0.52938962039E+02  0.52938962039E+02  0.00000000000E+00 0.  1.
          1   -1    0    0  501    0  0.00000000000E+00 -0.00000000000E+00 -0.67557751264E+03  0.67557751264E+03  0.00000000000E+00 0. -1.
          5    1    1    2  502    0  0.61926995315E+01 -0.12187299460E+03 -0.62417239325E+02  0.13713045068E+03  0.41800000000E+01 0.  1.
         -5    1    1    2    0  502 -0.12460411665E+02 -0.13955708213E+02 -0.12350152937E+03  0.12498049371E+03  0.41800000000E+01 0.  1.
        -11    1    1    2    0    0 -0.24295318866E+02  0.58400090849E+02 -0.91119529445E+02  0.11092160194E+03  0.00000000000E+00 0.  1.
         11    1    1    2    0    0  0.30563030999E+02  0.77428611964E+02 -0.34560025245E+03  0.35548392834E+03  0.00000000000E+00 0. -1.
</event>
<event>
 6    1  0.5317355E-006  0.9952324E+02  0.7561462E-02  0.1281302E+00
          3   -1    0    0  501    0  0.00000000000E+00  0.00000000000E+00  0.66558740137E+03  0.66558740137E+03  0.00000000000E+00 0. -1.
         -3   -1    0    0    0  501 -0.00000000000E+00 -0.00000000000E+00 -0.18563469351E+02  0.18563469351E+02  0.00000000000E+00 0.  1.
          5    1    1    2  502    0 -0.50793769751E+02  0.24849997075E+02  0.18910136404E+03  0.19741916746E+03  0.41800000000E+01 0.  1.
         -5    1    1    2    0  502  0.48641679271E+02 -0.34304540617E+02  0.83073494178E+02  0.10228143675E+03  0.41800000000E+01 0.  1.
        -11    1    1    2    0    0  0.34950998901E+02 -0.18532800228E+02  0.22782712914E+03  0.23123632452E+03  0.00000000000E+00 0.  1.
         11    1    1    2    0    0 -0.32798908421E+02  0.27987343770E+02  0.14702194467E+03  0.15321394198E+03  0.00000000000E+00 0. -1.
</event>
<event>
 6    1  0.5317355E-006  0.1098319E+03  0.7561462E-02  0.1260881E+00
          1   -1    0    0  501    0  0.00000000000E+00  0.00000000000E+00  0.56068263661E+02  0.56068263661E+02  0.00000000000E+00 0. -1.
         -1   -1    0    0    0  501 -0.00000000000E+00 -0.00000000000E+00 -0.36177207966E+03  0.36177207966E+03  0.00000000000E+00 0.  1.
          5    1    1    2  502    0  0.45489564480E+02 -0.15530471790E+02 -0.10957154159E+03  0.11972422962E+03  0.41800000000E+01 0. -1.
         -5    1    1    2    0  502  0.17771971726E+02  0.79183068250E+02 -0.25729404762E+02  0.85236588071E+02  0.41800000000E+01 0. -1.
        -11    1    1    2    0    0 -0.44029961257E+02 -0.38473890910E+02 -0.17148346988E+03  0.18117797386E+03  0.00000000000E+00 0.  1.
         11    1    1    2    0    0 -0.19231574949E+02 -0.25178705549E+02  0.10806002319E+01  0.31701551776E+02  0.00000000000E+00 0. -1.
</event>
<event>
 6    1  0.5317355E-006  0.9784352E+02  0.7561462E-02  0.1284897E+00
          1   -1    0    0  501    0  0.00000000000E+00  0.00000000000E+00  0.99663835009E+02  0.99663835009E+02  0.00000000000E+00 0. -1.
         -1   -1    0    0    0  501 -0.00000000000E+00 -0.00000000000E+00 -0.26723816738E+03  0.26723816738E+03  0.00000000000E+00 0.  1.
          5    1    1    2  502    0 -0.21867184956E+02  0.38684546286E+02 -0.11668062504E+03  0.12492601234E+03  0.41800000000E+01 0. -1.
         -5    1    1    2    0  502  0.82483569340E+02 -0.24536672668E+02 -0.90270838068E+02  0.12478735562E+03  0.41800000000E+01 0. -1.
        -11    1    1    2    0    0 -0.43098698229E+02 -0.12041268897E+01  0.68428499802E+02  0.80878966956E+02  0.00000000000E+00 0. -1.
         11    1    1    2    0    0 -0.17517686155E+02 -0.12943746728E+02 -0.29051369065E+02  0.36309667475E+02  0.00000000000E+00 0.  1.
</event>
<event>
 6    1  0.5317355E-006  0.1143169E+03  0.7561462E-02  0.1252778E+00
          2   -1    0    0  501    0  0.00000000000E+00  0.00000000000E+00  0.47924758203E+02  0.47924758203E+02  0.00000000000E+00 0. -1.
         -2   -1    0    0    0  501 -0.00000000000E+00 -0.00000000000E+00 -0.31035792739E+03  0.31035792739E+03  0.00000000000E+00 0.  1.
          5    1    1    2  502    0 -0.43625116556E+02 -0.77491067354E+02 -0.15311653297E+03  0.17711623692E+03  0.41800000000E+01 0.  1.
         -5    1    1    2    0  502  0.12600633437E+02  0.32844978595E+02 -0.12800097124E+02  0.37668069612E+02  0.41800000000E+01 0.  1.
        -11    1    1    2    0    0 -0.31742202497E+00 -0.26466802331E+02 -0.13247125564E+02  0.29598626963E+02  0.00000000000E+00 0.  1.
         11    1    1    2    0    0  0.31341905144E+02  0.71112891090E+02 -0.83269413530E+02  0.11389975209E+03  0.00000000000E+00 0. -1.
</event>
<event>
 6    1  0.5317355E-006  0.1082305E+03  0.7561462E-02  0.1263882E+00
         -1   -1    0    0    0  501 -0.00000000000E+00  0.00000000000E+00  0.41473553592E+03  0.41473553592E+03  0.00000000000E+00 0.  1.
          1   -1    0    0  501    0  0.00000000000E+00 -0.00000000000E+00 -0.45642216307E+02  0.45642216307E+02  0.00000000000E+00 0. -1.
          5    1    1    2  502    0 -0.43294412002E+02  0.30982303626E+01  0.41919561519E+02  0.60487413401E+02  0.41800000000E+01 0.  1.
         -5    1    1    2    0  502  0.51291320656E+02  0.52685340022E+02  0.27842279122E+03  0.28799872864E+03  0.41800000000E+01 0.  1.
        -11    1    1    2    0    0 -0.14213292905E+02  0.19243242132E+02  0.20420980623E+02  0.31453720170E+02  0.00000000000E+00 0.  1.
         11    1    1    2    0    0  0.62163842510E+01 -0.75026812517E+02  0.28329986255E+02  0.80437890020E+02  0.00000000000E+00 0. -1.
</event>
<event>
 6    1  0.5317355E-006  0.1015320E+03  0.7561462E-02  0.1277107E+00
         -1   -1    0    0    0  501 -0.00000000000E+00  0.00000000000E+00  0.25552361991E+03  0.25552361991E+03  0.00000000000E+00 0.  1.
          1   -1    0    0  501    0  0.00000000000E+00 -0.00000000000E+00 -0.60837600706E+02  0.60837600706E+02  0.00000000000E+00 0. -1.
          5    1    1    2  502    0 -0.28230753595E+02 -0.62760307283E+02  0.11544510164E+03  0.13446514609E+03  0.41800000000E+01 0. -1.
         -5    1    1    2    0  502 -0.28882058460E+02  0.43144113454E+02  0.10712849926E+02  0.53177301362E+02  0.41800000000E+01 0. -1.
        -11    1    1    2    0    0  0.22237637995E+02  0.36920623612E+02  0.77579566817E+02  0.88748150285E+02  0.00000000000E+00 0.  1.
         11    1    1    2    0    0  0.34875174060E+02 -0.17304429783E+02 -0.90514991855E+01  0.39970622879E+02  0.00000000000E+00 0. -1.
</event>
<event>
 6    1  0.6595375E-006  0.2792617E+03  0.7561462E-02  0.1096093E+00
         -1   -1    0    0    0  501 -0.00000000000E+00  0.00000000000E+00  0.33565046370E+03  0.33565046370E+03  0.00000000000E+00 0.  1.
          1   -1    0    0  501    0  0.00000000000E+00 -0.00000000000E+00 -0.24591175144E+03  0.24591175144E+03  0.00000000000E+00 0. -1.
          5    1    1    2  502    0  0.85120624409E+02 -0.87012023181E+01 -0.13124822932E+01  0.85676289785E+02  0.41800000000E+01 0. -1.
         -5    1    1    2    0  502  0.14130252188E+03  0.14521681647E+03  0.73633508085E+02  0.21562396061E+03  0.41800000000E+01 0. -1.
        -11    1    1    2    0    0 -0.20138064643E+03 -0.13949611789E+03  0.37749516039E+02  0.24786762117E+03  0.00000000000E+00 0.  1.
         11    1    1    2    0    0 -0.25042499858E+02  0.29805037376E+01 -0.20331829573E+02  0.32394343572E+02  0.00000000000E+00 0. -1.
</event>
<event>
 6    1  0.5317355E-006  0.1628199E+03  0.7561462E-02  0.1185549E+00
         -1   -1    0    0    0  501 -0.00000000000E+00  0.00000000000E+00  0.19344836952E+03  0.19344836952E+03  0.00000000000E+00 0.  1.
          1   -1    0    0  501    0  0.00000000000E+00 -0.00000000000E+00 -0.18078704639E+03  0.18078704639E+03  0.00000000000E+00 0. -1.
          5    1    1    2  502    0 -0.14967807452E+02 -0.48542774223E+02  0.48588890253E+02  0.70418668301E+02  0.41800000000E+01 0.  1.
         -5    1    1    2    0  502  0.11516685662E+03 -0.54898047839E+02  0.53133256694E+01  0.12776112221E+03  0.41800000000E+01 0.  1.
        -11    1    1    2    0    0 -0.15840384374E+02  0.34898856445E+02  0.27748174395E+02  0.47316055843E+02  0.00000000000E+00 0.  1.
         11    1    1    2    0    0 -0.84358664792E+02  0.68541965616E+02 -0.68989067192E+02  0.12873956955E+03  0.00000000000E+00 0. -1.
</event>
<event>
 6    1  0.5317355E-006  0.1124050E+03  0.7561462E-02  0.1256180E+00
          1   -1    0    0  501    0  0.00000000000E+00  0.00000000000E+00  0.59733009324E+02  0.59733009324E+02  0.00000000000E+00 0. -1.
         -1   -1    0    0    0  501 -0.00000000000E+00 -0.00000000000E+00 -0.31114626494E+03  0.31114626494E+03  0.00000000000E+00 0.  1.
          5    1    1    2  502    0 -0.32517792859E+02 -0.81025186133E+01 -0.32692389745E+01  0.33929603354E+02  0.41800000000E+01 0.  1.
         -5    1    1    2    0  502  0.31269300226E+02  0.72239254412E+02 -0.18448549100E+03  0.20062065647E+03  0.41800000000E+01 0.  1.
        -11    1    1    2    0    0 -0.42118518167E+02 -0.10823843778E+02 -0.49991958353E+02  0.66259497936E+02  0.00000000000E+00 0.  1.
         11    1    1    2    0    0  0.43367010800E+02 -0.53312892021E+02 -0.13666567292E+02  0.70069516503E+02  0.00000000000E+00 0. -1.
</event>
<event>
 6    1  0.5317355E-006  0.1115362E+03  0.7561462E-02  0.1257751E+00
          2   -1    0    0  501    0  0.00000000000E+00  0.00000000000E+00  0.12936286372E+03  0.12936286372E+03  0.00000000000E+00 0. -1.
         -2   -1    0    0    0  501 -0.00000000000E+00 -0.00000000000E+00 -0.19023387191E+03  0.19023387191E+03  0.00000000000E+00 0.  1.
          5    1    1    2  502    0  0.68669060550E+02  0.68418309408E+01  0.22106621259E+02  0.72583921298E+02  0.41800000000E+01 0. -1.
         -5    1    1    2    0  502 -0.21201320366E+02  0.38053737467E+02 -0.12070829387E+03  0.12839605729E+03  0.41800000000E+01 0.  1.
        -11    1    1    2    0    0  0.67468440421E+01 -0.54671817598E+02  0.30748058337E+02  0.63087008452E+02  0.00000000000E+00 0.  1.
         11    1    1    2    0    0 -0.54214584226E+02  0.97762491895E+01  0.69826060819E+01  0.55529748592E+02  0.00000000000E+00 0. -1.
</event>
<event>
 6    1  0.5317355E-006  0.1770170E+03  0.7561462E-02  0.1170722E+00
          2   -1    0    0  501    0  0.00000000000E+00  0.00000000000E+00  0.10967859817E+03  0.10967859817E+03  0.00000000000E+00 0. -1.
         -2   -1    0    0    0  501 -0.00000000000E+00 -0.00000000000E+00 -0.42160856194E+03  0.42160856194E+03  0.00000000000E+00 0.  1.
          5    1    1    2  502    0  0.39904909308E+02 -0.37223293528E+02 -0.12796592762E+03  0.13917875700E+03  0.41800000000E+01 0. -1.
         -5    1    1    2    0  502 -0.87514419321E+02 -0.96999623991E+02 -0.18012588453E+03  0.22255450416E+03  0.41800000000E+01 0. -1.
        -11    1    1    2    0    0  0.64492938932E+02  0.47129182598E+02 -0.10615407630E+02  0.80580307170E+02  0.00000000000E+00 0. -1.
         11    1    1    2    0    0 -0.16883428919E+02  0.87093734920E+02  0.67772560115E+01  0.88973591776E+02  0.00000000000E+00 0.  1.
</event>
<event>
 6    1  0.5317355E-006  0.1088463E+03  0.7561462E-02  0.1262721E+00
         -2   -1    0    0    0  501 -0.00000000000E+00  0.00000000000E+00  0.26112638250E+02  0.26112638250E+02  0.00000000000E+00 0.  1.
          2   -1    0    0  501    0  0.00000000000E+00 -0.00000000000E+00 -0.53832805511E+03  0.53832805511E+03  0.00000000000E+00 0. -1.
          5    1    1    2  502    0  0.50453111941E+02 -0.58108555294E+01 -0.16084954285E+03  0.16872857014E+03  0.41800000000E+01 0.  1.
         -5    1    1    2    0  502 -0.58098141003E+02  0.51114960972E+02 -0.13309762227E+03  0.15401487810E+03  0.41800000000E+01 0.  1.
        -11    1    1    2    0    0  0.34014637594E+01 -0.67022761295E+02 -0.94136538699E+02  0.11560842705E+03  0.00000000000E+00 0.  1.
         11    1    1    2    0    0  0.42435653027E+01  0.21718655852E+02 -0.12413171305E+03  0.12608881807E+03  0.00000000000E+00 0. -1.
</event>
<event>
 6    1  0.5317355E-006  0.1188277E+03  0.7561462E-02  0.1245044E+00
          2   -1    0    0  501    0  0.00000000000E+00  0.00000000000E+00  0.14800486949E+03  0.14800486949E+03  0.00000000000E+00 0. -1.
         -2   -1    0    0    0  501 -0.00000000000E+00 -0.00000000000E+00 -0.11078832463E+03  0.11078832463E+03  0.00000000000E+00 0.  1.
          5    1    1    2  502    0 -0.53374166075E+02 -0.85819750645E+02  0.13789935992E+02  0.10208558145E+03  0.41800000000E+01 0. -1.
         -5    1    1    2    0  502  0.13067476575E+02  0.35486946625E+02 -0.75282251149E+01  0.38784389877E+02  0.41800000000E+01 0. -1.
        -11    1    1    2    0    0  0.23334289847E+02  0.69231082731E+02 -0.57529681660E+01  0.73283890055E+02  0.00000000000E+00 0.  1.
         11    1    1    2    0    0  0.16972399654E+02 -0.18898278711E+02  0.36707802150E+02  0.44639332733E+02  0.00000000000E+00 0. -1.
</event>
<event>
 6    1  0.5317355E-006  0.1109573E+03  0.7561462E-02  0.1258807E+00
          1   -1    0    0  501    0  0.00000000000E+00  0.00000000000E+00  0.53109753543E+02  0.53109753543E+02  0.00000000000E+00 0. -1.
         -1   -1    0    0    0  501 -0.00000000000E+00 -0.00000000000E+00 -0.45336709491E+03  0.45336709491E+03  0.00000000000E+00 0.  1.
          5    1    1    2  502    0 -0.22061287073E+02 -0.29523079216E+02 -0.19115224980E+02  0.41727410892E+02  0.41800000000E+01 0. -1.
         -5    1    1    2    0  502 -0.56179526650E+02  0.51827067884E+02 -0.31553401979E+03  0.32468657845E+03  0.41800000000E+01 0. -1.
        -11    1    1    2    0    0 -0.74627309206E+01 -0.21295321648E+02 -0.47318768586E+02  0.52423744023E+02  0.00000000000E+00 0.  1.
         11    1    1    2    0    0  0.85703544644E+02 -0.10086670207E+01 -0.18289328004E+02  0.87639115083E+02  0.00000000000E+00 0. -1.
</event>
<event>
 6    1  0.5317355E-006  0.2364550E+03  0.7561462E-02  0.1122177E+00
          2   -1    0    0  501    0  0.00000000000E+00  0.00000000000E+00  0.11280252216E+04  0.11280252216E+04  0.00000000000E+00 0. -1.
         -2   -1    0    0    0  501 -0.00000000000E+00 -0.00000000000E+00 -0.72652094210E+02  0.72652094210E+02  0.00000000000E+00 0.  1.
          5    1    1    2  502    0 -0.13903077450E+03 -0.80932095392E+02  0.15200732072E+03  0.22136679578E+03  0.41800000000E+01 0.  1.
         -5    1    1    2    0  502 -0.69056475410E+02  0.45530228638E+02  0.52625391831E+02  0.98125953658E+02  0.41800000000E+01 0.  1.
        -11    1    1    2    0    0  0.40280399510E+02  0.45851667839E+02  0.20271606475E+03  0.21170424875E+03  0.00000000000E+00 0.  1.
         11    1    1    2    0    0  0.16780685040E+03 -0.10449801085E+02  0.64802435009E+03  0.66948031763E+03  0.00000000000E+00 0. -1.
</event>
<event>
 6    1  0.5317355E-006  0.1941732E+03  0.7561462E-02  0.1154750E+00
          1   -1    0    0  501    0  0.00000000000E+00  0.00000000000E+00  0.75931999466E+03  0.75931999466E+03  0.00000000000E+00 0. -1.
         -1   -1    0    0    0  501 -0.00000000000E+00 -0.00000000000E+00 -0.85118945805E+02  0.85118945805E+02  0.00000000000E+00 0.  1.
          5    1    1    2  502    0  0.88587912049E+02  0.82746029241E+02  0.48193377162E+03  0.49696313359E+03  0.41800000000E+01 0. -1.
         -5    1    1    2    0  502 -0.77198524750E+02  0.74126501553E+02  0.60721051057E+02  0.12312135841E+03  0.41800000000E+01 0.  1.
        -11    1    1    2    0    0 -0.21081139208E+02 -0.11900602720E+03  0.44246026039E+02  0.12870337898E+03  0.00000000000E+00 0.  1.
         11    1    1    2    0    0  0.96917519090E+01 -0.37866503592E+02  0.87300200138E+02  0.95651069484E+02  0.00000000000E+00 0. -1.
</event>
<event>
 6    1  0.5317355E-006  0.1144856E+03  0.7561462E-02  0.1252482E+00
          1   -1    0    0  501    0  0.00000000000E+00  0.00000000000E+00  0.44977001516E+02  0.44977001516E+02  0.00000000000E+00 0. -1.
         -1   -1    0    0    0  501 -0.00000000000E+00 -0.00000000000E+00 -0.31670421443E+03  0.31670421443E+03  0.00000000000E+00 0.  1.
          5    1    1    2  502    0 -0.42807602111E+02  0.23954489640E+02 -0.70704142997E+02  0.86156001587E+02  0.41800000000E+01 0.  1.
         -5    1    1    2    0  502  0.45321621720E+02 -0.71145546248E+02 -0.11478402480E+03  0.14250818536E+03  0.41800000000E+01 0.  1.
        -11    1    1    2    0    0  0.26692790245E+02  0.58230850549E+02 -0.77593579593E+02  0.10061858974E+03  0.00000000000E+00 0. -1.
         11    1    1    2    0    0 -0.29206809854E+02 -0.11039793940E+02 -0.86454655199E+01  0.32398439255E+02  0.00000000000E+00 0.  1.
</event>
<event>
 6    1  0.5317355E-006  0.2904378E+03  0.7561462E-02  0.1090121E+00
         -1   -1    0    0    0  501 -0.00000000000E+00  0.00000000000E+00  0.86126047064E+02  0.86126047064E+02  0.00000000000E+00 0.  1.
          1   -1    0    0  501    0  0.00000000000E+00 -0.00000000000E+00 -0.10161324313E+04  0.10161324313E+04  0.00000000000E+00 0. -1.
          5    1    1    2  502    0 -0.91534245114E+02 -0.62788763447E+02 -0.12780646184E+03  0.16933077373E+03  0.41800000000E+01 0. -1.
         -5    1    1    2    0  502 -0.18139304128E+03  0.29176313047E+02 -0.36627912983E+03  0.40979576135E+03  0.41800000000E+01 0. -1.
        -11    1    1    2    0    0  0.23038127299E+03  0.57202931935E+02 -0.38794518891E+03  0.45480674573E+03  0.00000000000E+00 0.  1.
         11    1    1    2    0    0  0.42546013410E+02 -0.23590481535E+02 -0.47975603687E+02  0.68325197587E+02  0.00000000000E+00 0. -1.
</event>
<event>
 6    1  0.5317355E-006  0.1138887E+03  0.7561462E-02  0.1253533E+00
          1   -1    0    0  501    0  0.00000000000E+00  0.00000000000E+00  0.47525145803E+03  0.47525145803E+03  0.00000000000E+00 0. -1.
         -1   -1    0    0    0  501 -0.00000000000E+00 -0.00000000000E+00 -0.29937932687E+02  0.29937932687E+02  0.00000000000E+00 0.  1.
          5    1    1    2  502    0  0.12343099210E+02  0.71885557768E+02  0.10661523082E+03  0.12924459507E+03  0.41800000000E+01 0.  1.
         -5    1    1    2    0  502  0.30440152415E+02 -0.51547719960E+02  0.11133624734E+03  0.12647925792E+03  0.41800000000E+01 0.  1.
        -11    1    1    2    0    0 -0.35839682818E+02  0.28245943465E+02  0.62053556367E+02  0.77025710283E+02  0.00000000000E+00 0.  1.
         11    1    1    2    0    0 -0.69435688073E+01 -0.48583781273E+02  0.16530849082E+03  0.17243982744E+03  0.00000000000E+00 0. -1.
</event>
<event>
 6    1  0.7984693E-006  0.2652686E+03  0.7561462E-02  0.1104018E+00
         -2   -1    0    0    0  501 -0.00000000000E+00  0.00000000000E+00  0.47989662067E+03  0.47989662067E+03  0.00000000000E+00 0.  1.
          2   -1    0    0  501    0  0.00000000000E+00 -0.00000000000E+00 -0.15402167061E+03  0.15402167061E+03  0.00000000000E+00 0. -1.
          5    1    1    2  502    0  0.35049220769E+02  0.25548984541E+03  0.20298394049E+03  0.32821252487E+03  0.41800000000E+01 0.  1.
         -5    1    1    2    0  502 -0.15927490337E+00 -0.10408568625E+02 -0.52815243419E+01  0.12398813196E+02  0.41800000000E+01 0.  1.
        -11    1    1    2    0    0  0.26497969531E+02 -0.10801102056E+03  0.35117754503E+02  0.11662666776E+03  0.00000000000E+00 0.  1.
         11    1    1    2    0    0 -0.61387915396E+02 -0.13707025622E+03  0.93054779405E+02  0.17668028545E+03  0.00000000000E+00 0. -1.
</event>
<event>
 6    1  0.5317355E-006  0.1350941E+03  0.7561462E-02  0.1220087E+00
         -1   -1    0    0    0  501 -0.00000000000E+00  0.00000000000E+00  0.10197859484E+03  0.10197859484E+03  0.00000000000E+00 0.  1.
          1   -1    0    0  501    0  0.00000000000E+00 -0.00000000000E+00 -0.42480700216E+03  0.42480700216E+03  0.00000000000E+00 0. -1.
          5    1    1    2  502    0  0.23585425498E+02  0.73485589307E+00  0.47952920184E+02  0.53607529912E+02  0.41800000000E+01 0. -1.
         -5    1    1    2    0  502  0.62277659588E+02 -0.89431645651E+02 -0.55336814131E+02  0.12229538636E+03  0.41800000000E+01 0. -1.
        -11    1    1    2    0    0 -0.46258789635E+02  0.85773300337E+02 -0.13732362094E+03  0.16838857306E+03  0.00000000000E+00 0.  1.
         11    1    1    2    0    0 -0.39604295451E+02  0.29234894205E+01 -0.17812089243E+03  0.18249410766E+03  0.00000000000E+00 0. -1.
</event>
<event>
 6    1  0.5317355E-006  0.1289937E+03  0.7561462E-02  0.1228957E+00
         -2   -1    0    0    0  501 -0.00000000000E+00  0.00000000000E+00  0.26981774883E+03  0.26981774883E+03  0.00000000000E+00 0.  1.
          2   -1    0    0  501    0  0.00000000000E+00 -0.00000000000E+00 -0.97977536199E+02  0.97977536199E+02  0.00000000000E+00 0. -1.
          5    1    1    2  502    0 -0.13530563963E+02  0.18031959643E+01 -0.21709741048E+02  0.25982935424E+02  0.41800000000E+01 0.  1.
         -5    1    1    2    0  502 -0.50134190261E+02 -0.97526137717E+02  0.15521596644E+03  0.19009011865E+03  0.41800000000E+01 0.  1.
        -11    1    1    2    0    0  0.52243326229E+02  0.17760451413E+02  0.46959534100E+02  0.72456860357E+02  0.00000000000E+00 0.  1.
         11    1    1    2    0    0  0.11421427995E+02  0.77962490339E+02 -0.86255468604E+01  0.79265370598E+02  0.00000000000E+00 0. -1.
</event>
<event>
 6    1  0.5317355E-006  0.1503366E+03  0.7561462E-02  0.1200060E+00
         -4   -1    0    0    0  501 -0.00000000000E+00  0.00000000000E+00  0.13894558518E+03  0.13894558518E+03  0.00000000000E+00 0.  1.
          4   -1    0    0  501    0  0.00000000000E+00 -0.00000000000E+00 -0.21759852292E+03  0.21759852292E+03  0.00000000000E+00 0. -1.
          5    1    1    2  502    0 -0.16141451248E+01  0.13924959565E+03 -0.44365181916E+02  0.14621490047E+03  0.41800000000E+01 0.  1.
         -5    1    1    2    0  502 -0.23502816161E+02 -0.87256017866E+01  0.27065245978E+02  0.37128404678E+02  0.41800000000E+01 0.  1.
        -11    1    1    2    0    0  0.16400421385E+02 -0.12391700666E+03 -0.15374850736E+02  0.12593960614E+03  0.00000000000E+00 0.  1.
         11    1    1    2    0    0  0.87165399009E+01 -0.66069872103E+01 -0.45978151068E+02  0.47261196805E+02  0.00000000000E+00 0. -1.
</event>
<event>
 6    1  0.5317355E-006  0.1531923E+03  0.7561462E-02  0.1196604E+00
         -4   -1    0    0    0  501 -0.00000000000E+00  0.00000000000E+00  0.42245425291E+03  0.42245425291E+03  0.00000000000E+00 0.  1.
          4   -1    0    0  501    0  0.00000000000E+00 -0.00000000000E+00 -0.59884018746E+02  0.59884018746E+02  0.00000000000E+00 0. -1.
          5    1    1    2  502    0 -0.13199060376E+03 -0.50119869656E+02  0.14487295171E+03  0.20233429110E+03  0.41800000000E+01 0.  1.
         -5    1    1    2    0  502  0.28014979610E+02 -0.66592799573E+00  0.40810325401E+02  0.49681360710E+02  0.41800000000E+01 0.  1.
        -11    1    1    2    0    0  0.40550197727E+02  0.60302216583E+02  0.50185429501E+02  0.88313380609E+02  0.00000000000E+00 0.  1.
         11    1    1    2    0    0  0.63425426425E+02 -0.95164189311E+01  0.12670152755E+03  0.14200923924E+03  0.00000000000E+00 0. -1.
</event>
<event>
 6    1  0.5317355E-006  0.1050002E+03  0.7561462E-02  0.1270119E+00
          2   -1    0    0  501    0  0.00000000000E+00  0.00000000000E+00  0.11640830366E+03  0.11640830366E+03  0.00000000000E+00 0.  1.
         -2   -1    0    0    0  501 -0.00000000000E+00 -0.00000000000E+00 -0.13841896462E+03  0.13841896462E+03  0.00000000000E+00 0. -1.
          5    1    1    2  502    0  0.36112647561E+02  0.18576493019E+02 -0.59190327501E+02  0.71903940618E+02  0.41800000000E+01 0.  1.
         -5    1    1    2    0  502 -0.48299259274E+02 -0.58421838174E+02 -0.87545590214E+01  0.76420182712E+02  0.41800000000E+01 0.  1.
        -11    1    1    2    0    0  0.45245784085E+02  0.39707807220E+02  0.41569552188E+02  0.73156808301E+02  0.00000000000E+00 0.  1.
         11    1    1    2    0    0 -0.33059172372E+02  0.13753793490E+00  0.43646733730E+01  0.33346336654E+02  0.00000000000E+00 0. -1.
</event>
<event>
 6    1  0.5317355E-006  0.8007255E+02  0.7561462E-02  0.1328846E+00
          1   -1    0    0  501    0  0.00000000000E+00  0.00000000000E+00  0.47377204616E+02  0.47377204616E+02  0.00000000000E+00 0. -1.
         -1   -1    0    0    0  501 -0.00000000000E+00 -0.00000000000E+00 -0.37103788015E+03  0.37103788015E+03  0.00000000000E+00 0.  1.
          5    1    1    2  502    0  0.23300521358E+02  0.54104714389E+02 -0.18407530546E+03  0.19331690276E+03  0.41800000000E+01 0. -1.
         -5    1    1    2    0  502 -0.26537496384E+02 -0.57121653101E+02 -0.12198244652E+03  0.13734741216E+03  0.41800000000E+01 0. -1.
        -11    1    1    2    0    0  0.86739336866E+01 -0.15992300720E+02  0.30628389944E+02  0.35624276532E+02  0.00000000000E+00 0. -1.
         11    1    1    2    0    0 -0.54369586603E+01  0.19009239432E+02 -0.48231313507E+02  0.52126493320E+02  0.00000000000E+00 0.  1.
</event>
<event>
 6    1  0.5317355E-006  0.1808278E+03  0.7561462E-02  0.1167004E+00
         -1   -1    0    0    0  501 -0.00000000000E+00  0.00000000000E+00  0.27327598894E+03  0.27327598894E+03  0.00000000000E+00 0.  1.
          1   -1    0    0  501    0  0.00000000000E+00 -0.00000000000E+00 -0.12462744124E+03  0.12462744124E+03  0.00000000000E+00 0. -1.
          5    1    1    2  502    0  0.27430306541E+02 -0.13825833410E+03  0.57672206188E+02  0.15235269748E+03  0.41800000000E+01 0. -1.
         -5    1    1    2    0  502  0.16280498238E+02  0.25488347415E+02 -0.12871418202E+01  0.30558789422E+02  0.41800000000E+01 0. -1.
        -11    1    1    2    0    0 -0.89002570356E+02  0.26820233485E+02  0.23243197914E+02  0.95817684712E+02  0.00000000000E+00 0.  1.
         11    1    1    2    0    0  0.45291765577E+02  0.85949753196E+02  0.69020285427E+02  0.11917425856E+03  0.00000000000E+00 0. -1.
</event>
<event>
 6    1  0.5317355E-006  0.1845309E+03  0.7561462E-02  0.1163489E+00
         -4   -1    0    0    0  501 -0.00000000000E+00  0.00000000000E+00  0.57529352255E+02  0.57529352255E+02  0.00000000000E+00 0.  1.
          4   -1    0    0  501    0  0.00000000000E+00 -0.00000000000E+00 -0.67486258857E+03  0.67486258857E+03  0.00000000000E+00 0. -1.
          5    1    1    2  502    0 -0.16693526055E+02 -0.54401697774E+01 -0.11431973718E+03  0.11573566420E+03  0.41800000000E+01 0.  1.
         -5    1    1    2    0  502 -0.22821433743E+02  0.16575446462E+03 -0.20131815087E+03  0.26180494771E+03  0.41800000000E+01 0.  1.
        -11    1    1    2    0    0 -0.94866770035E+01 -0.11948411096E+03 -0.16431105556E+03  0.20338282325E+03  0.00000000000E+00 0. -1.
         11    1    1    2    0    0  0.49001636801E+02 -0.40830183881E+02 -0.13738429271E+03  0.15146850567E+03  0.00000000000E+00 0.  1.
</event>
<event>
 6    1  0.5317355E-006  0.1255740E+03  0.7561462E-02  0.1234175E+00
          2   -1    0    0  501    0  0.00000000000E+00  0.00000000000E+00  0.15170036737E+03  0.15170036737E+03  0.00000000000E+00 0. -1.
         -2   -1    0    0    0  501 -0.00000000000E+00 -0.00000000000E+00 -0.22876494611E+03  0.22876494611E+03  0.00000000000E+00 0.  1.
          5    1    1    2  502    0 -0.18233272453E+02 -0.81368073598E+01 -0.12741661939E+03  0.12903924657E+03  0.41800000000E+01 0. -1.
         -5    1    1    2    0  502 -0.78293627117E+02 -0.44294955795E+02 -0.17628205936E+02  0.91761436348E+02  0.41800000000E+01 0. -1.
        -11    1    1    2    0    0 -0.97308226994E+01  0.30745168321E+02  0.11307612862E+01  0.32268140736E+02  0.00000000000E+00 0. -1.
         11    1    1    2    0    0  0.10625772227E+03  0.21686594835E+02  0.66849485289E+02  0.12739648983E+03  0.00000000000E+00 0.  1.
</event>
<event>
 6    1  0.5317355E-006  0.9323323E+02  0.7561462E-02  0.1295206E+00
          1   -1    0    0  501    0  0.00000000000E+00  0.00000000000E+00  0.26694925854E+02  0.26694925854E+02  0.00000000000E+00 0. -1.
         -1   -1    0    0    0  501 -0.00000000000E+00 -0.00000000000E+00 -0.53319652088E+03  0.53319652088E+03  0.00000000000E+00 0.  1.
          5    1    1    2  502    0  0.67627490863E+01 -0.40277301018E+02 -0.30472482231E+03  0.30747794309E+03  0.41800000000E+01 0. -1.
         -5    1    1    2    0  502  0.11586327577E+02  0.57863181462E+02 -0.92937620987E+02  0.11016925411E+03  0.41800000000E+01 0. -1.
        -11    1    1    2    0    0 -0.50257041653E+02 -0.20358921767E+02 -0.43643046366E+02  0.69605828975E+02  0.00000000000E+00 0. -1.
         11    1    1    2    0    0  0.31907964990E+02  0.27730413217E+01 -0.65196105361E+02  0.72638420565E+02  0.00000000000E+00 0.  1.
</event>
<event>
 6    1  0.5317355E-006  0.9649214E+02  0.7561462E-02  0.1287850E+00
         -2   -1    0    0    0  501 -0.00000000000E+00  0.00000000000E+00  0.23061426587E+03  0.23061426587E+03  0.00000000000E+00 0. -1.
          2   -1    0    0  501    0  0.00000000000E+00 -0.00000000000E+00 -0.65166148486E+02  0.65166148486E+02  0.00000000000E+00 0.  1.
          5    1    1    2  502    0  0.50872427509E+02  0.28658990815E+02  0.27043106873E+01  0.58601427726E+02  0.41800000000E+01 0.  1.
         -5    1    1    2    0  502 -0.29601317983E+02  0.18872429627E+02  0.11689259602E+03  0.12212189824E+03  0.41800000000E+01 0.  1.
        -11    1    1    2    0    0 -0.53771297178E+02 -0.35514804615E+02  0.10026166660E+02  0.65216391842E+02  0.00000000000E+00 0.  1.
         11    1    1    2    0    0  0.32500187652E+02 -0.12016615827E+02  0.35825044022E+02  0.49840696549E+02  0.00000000000E+00 0. -1.
</event>
<event>
 6    1  0.5317355E-006  0.1149488E+03  0.7561462E-02  0.1251671E+00
          2   -1    0    0  501    0  0.00000000000E+00  0.00000000000E+00  0.29585870566E+02  0.29585870566E+02  0.00000000000E+00 0. -1.
         -2   -1    0    0    0  501 -0.00000000000E+00 -0.00000000000E+00 -0.64335919166E+03  0.64335919166E+03  0.00000000000E+00 0.  1.
          5    1    1    2  502    0 -0.17307058946E+02 -0.21590456612E+02 -0.18863757744E+02  0.33749012760E+02  0.41800000000E+01 0. -1.
         -5    1    1    2    0  502 -0.27488862434E+02  0.80024210624E+02 -0.42119298103E+03  0.42962834114E+03  0.41800000000E+01 0. -1.
        -11    1    1    2    0    0  0.14378633993E+02 -0.79116547831E+02 -0.11708275273E+03  0.14203712276E+03  0.00000000000E+00 0.  1.
         11    1    1    2    0    0  0.30417287387E+02  0.20682793819E+02 -0.56633829601E+02  0.67530585570E+02  0.00000000000E+00 0. -1.
</event>
<event>
 6    1  0.5317355E-006  0.1119805E+03  0.7561462E-02  0.1256946E+00
          1   -1    0    0  501    0  0.00000000000E+00  0.00000000000E+00  0.56614369663E+03  0.56614369663E+03  0.00000000000E+00 0. -1.
         -1   -1    0    0    0  501 -0.00000000000E+00 -0.00000000000E+00 -0.28167107873E+02  0.28167107873E+02  0.00000000000E+00 0.  1.
          5    1    1    2  502    0  0.20186578027E+02 -0.50558163613E+02  0.14987056912E+03  0.15950638147E+03  0.41800000000E+01 0. -1.
         -5    1    1    2    0  502  0.35966419405E+02  0.64655314045E+02  0.84483299839E+02  0.11237790401E+03  0.41800000000E+01 0. -1.
        -11    1    1    2    0    0  0.17238770007E+02  0.74334425652E+01  0.15561443256E+02  0.24384211612E+02  0.00000000000E+00 0.  1.
         11    1    1    2    0    0 -0.73391767439E+02 -0.21530592997E+02  0.28806127654E+03  0.29804230741E+03  0.00000000000E+00 0. -1.
</event>
<event>
 6    1  0.5317355E-006  0.5934547E+03  0.7561462E-02  0.9919079E-01
          1   -1    0    0  501    0  0.00000000000E+00  0.00000000000E+00  0.16269315400E+04  0.16269315400E+04  0.00000000000E+00 0. -1.
         -1   -1    0    0    0  501 -0.00000000000E+00 -0.00000000000E+00 -0.41200382739E+03  0.41200382739E+03  0.00000000000E+00 0.  1.
          5    1    1    2  502    0  0.93350331902E+02  0.24570185637E+03 -0.13439605212E+03  0.29523458116E+03  0.41800000000E+01 0. -1.
         -5    1    1    2    0  502  0.14305740088E+02  0.51116277395E+02  0.28648079157E+02  0.60462491295E+02  0.41800000000E+01 0. -1.
        -11    1    1    2    0    0  0.28555562004E+03 -0.37352161012E+03  0.11598780793E+04  0.12515500646E+04  0.00000000000E+00 0. -1.
         11    1    1    2    0    0 -0.39321169203E+03  0.76703476353E+02  0.16079760630E+03  0.43168823035E+03  0.00000000000E+00 0.  1.
</event>
<event>
 6    1  0.5317355E-006  0.2476719E+03  0.7561462E-02  0.1114785E+00
          2   -1    0    0  501    0  0.00000000000E+00  0.00000000000E+00  0.15362789795E+03  0.15362789795E+03  0.00000000000E+00 0. -1.
         -2   -1    0    0    0  501 -0.00000000000E+00 -0.00000000000E+00 -0.69203586403E+03  0.69203586403E+03  0.00000000000E+00 0.  1.
          5    1    1    2  502    0  0.32407004556E+02 -0.29591912599E+02 -0.29504100878E+02  0.53045825512E+02  0.41800000000E+01 0. -1.
         -5    1    1    2    0  502  0.73249053229E+02  0.21319748518E+03 -0.51450287666E+03  0.56173772704E+03  0.41800000000E+01 0.  1.
        -11    1    1    2    0    0 -0.28905340190E+02 -0.12746118137E+03  0.26882240849E+02  0.13343360266E+03  0.00000000000E+00 0. -1.
         11    1    1    2    0    0 -0.76750717595E+02 -0.56144391216E+02 -0.21283229393E+02  0.97446606764E+02  0.00000000000E+00 0.  1.
</event>
<event>
 6    1  0.5317355E-006  0.5891668E+02  0.7561462E-02  0.1402435E+00
         -1   -1    0    0    0  501 -0.00000000000E+00  0.00000000000E+00  0.30430010001E+02  0.30430010001E+02  0.00000000000E+00 0.  1.
          1   -1    0    0  501    0  0.00000000000E+00 -0.00000000000E+00 -0.40700799095E+03  0.40700799095E+03  0.00000000000E+00 0. -1.
          5    1    1    2  502    0 -0.12780623254E+02 -0.63908182243E+01  0.16295098586E+02  0.22072370201E+02  0.41800000000E+01 0.  1.
         -5    1    1    2    0  502  0.19018991572E+02  0.11189275844E+02 -0.19451477385E+03  0.19580702638E+03  0.41800000000E+01 0.  1.
        -11    1    1    2    0    0  0.33639866882E+01  0.37226598996E+02 -0.37202093179E+02  0.52736437272E+02  0.00000000000E+00 0.  1.
         11    1    1    2    0    0 -0.96023550056E+01 -0.42025056616E+02 -0.16115621250E+03  0.16682216709E+03  0.00000000000E+00 0. -1.
</event>
<event>
 6    1  0.5317355E-006  0.1100936E+03  0.7561462E-02  0.1260397E+00
         -1   -1    0    0    0  501 -0.00000000000E+00  0.00000000000E+00  0.71726085740E+02  0.71726085740E+02  0.00000000000E+00 0.  1.
          1   -1    0    0  501    0  0.00000000000E+00 -0.00000000000E+00 -0.17902174094E+03  0.17902174094E+03  0.00000000000E+00 0. -1.
          5    1    1    2  502    0 -0.47316513390E+02 -0.51126100308E+01 -0.42568762193E+01  0.47964409887E+02  0.41800000000E+01 0.  1.
         -5    1    1    2    0  502  0.76844610427E+02  0.14444150714E+02 -0.42717321870E+02  0.89196242237E+02  0.41800000000E+01 0.  1.
        -11    1    1    2    0    0 -0.59716517102E+02 -0.18574266549E+02 -0.50916042480E+02  0.80644337523E+02  0.00000000000E+00 0.  1.
         11    1    1    2    0    0  0.30188420065E+02  0.92427258655E+01 -0.94054146312E+01  0.32942837034E+02  0.00000000000E+00 0. -1.
</event>
<event>
 6    1  0.5317355E-006  0.1088628E+03  0.7561462E-02  0.1262690E+00
          2   -1    0    0  501    0  0.00000000000E+00  0.00000000000E+00  0.25194689516E+03  0.25194689516E+03  0.00000000000E+00 0. -1.
         -2   -1    0    0    0  501 -0.00000000000E+00 -0.00000000000E+00 -0.83578543107E+02  0.83578543107E+02  0.00000000000E+00 0.  1.
          5    1    1    2  502    0 -0.44607576240E+02 -0.45124847869E+02 -0.22080551659E+02  0.67313526982E+02  0.41800000000E+01 0.  1.
         -5    1    1    2    0  502  0.31610191455E+02  0.50318793914E+02  0.46749606952E+01  0.59753768770E+02  0.41800000000E+01 0.  1.
        -11    1    1    2    0    0  0.52272750185E+02 -0.14412538291E+02  0.10688431117E+03  0.11985164849E+03  0.00000000000E+00 0. -1.
         11    1    1    2    0    0 -0.39275365401E+02  0.92185922459E+01  0.78889631851E+02  0.88606494028E+02  0.00000000000E+00 0.  1.
</event>
<event>
 6    1  0.5317355E-006  0.1529200E+03  0.7561462E-02  0.1196930E+00
          1   -1    0    0  501    0  0.00000000000E+00  0.00000000000E+00  0.82885813206E+03  0.82885813206E+03  0.00000000000E+00 0. -1.
         -1   -1    0    0    0  501 -0.00000000000E+00 -0.00000000000E+00 -0.33787501412E+02  0.33787501412E+02  0.00000000000E+00 0.  1.
          5    1    1    2  502    0 -0.12953231170E+02 -0.32823968594E+02  0.37895207296E+02  0.51949189098E+02  0.41800000000E+01 0.  1.
         -5    1    1    2    0  502  0.13074445543E+03 -0.15035768985E+02  0.39010240491E+03  0.41172508509E+03  0.41800000000E+01 0.  1.
        -11    1    1    2    0    0 -0.41941512950E+02  0.46707715291E+02  0.26175799325E+03  0.26918014081E+03  0.00000000000E+00 0. -1.
         11    1    1    2    0    0 -0.75849711312E+02  0.11520222878E+01  0.10531502519E+03  0.12979121847E+03  0.00000000000E+00 0.  1.
</event>
<event>
 6    1  0.5317355E-006  0.8377461E+02  0.7561462E-02  0.1318669E+00
         -2   -1    0    0    0  501 -0.00000000000E+00  0.00000000000E+00  0.39988754368E+02  0.39988754368E+02  0.00000000000E+00 0.  1.
          2   -1    0    0  501    0  0.00000000000E+00 -0.00000000000E+00 -0.33173936610E+03  0.33173936610E+03  0.00000000000E+00 0. -1.
          5    1    1    2  502    0 -0.34938078688E+02  0.26321207117E+02 -0.14330949997E+03  0.14989516492E+03  0.41800000000E+01 0.  1.
         -5    1    1    2    0  502  0.46600460006E+01 -0.28253898735E+02  0.14356466619E+02  0.32304478889E+02  0.41800000000E+01 0.  1.
        -11    1    1    2    0    0  0.53276681539E+02 -0.25336814080E+02 -0.80238689827E+02  0.99592199939E+02  0.00000000000E+00 0.  1.
         11    1    1    2    0    0 -0.22998648852E+02  0.27269505698E+02 -0.82558888559E+02  0.89936276719E+02  0.00000000000E+00 0. -1.
</event>
<event>
 6    1  0.5317355E-006  0.6527402E+02  0.7561462E-02  0.1376944E+00
         -2   -1    0    0    0  501 -0.00000000000E+00  0.00000000000E+00  0.17187843659E+03  0.17187843659E+03  0.00000000000E+00 0. -1.
          2   -1    0    0  501    0  0.00000000000E+00 -0.00000000000E+00 -0.94921336833E+02  0.94921336833E+02  0.00000000000E+00 0.  1.
          5    1    1    2  502    0 -0.23945754053E+02 -0.68905245896E+01 -0.18380472718E+02  0.31244081738E+02  0.41800000000E+01 0.  1.
         -5    1    1    2    0  502  0.58072998376E+02  0.27258140875E+02  0.11495315593E+03  0.13170869312E+03  0.41800000000E+01 0.  1.
        -11    1    1    2    0    0 -0.81007920630E+01 -0.10263899318E+02 -0.56270942202E+02  0.57770142787E+02  0.00000000000E+00 0.  1.
         11    1    1    2    0    0 -0.26026452260E+02 -0.10103716967E+02  0.36655358746E+02  0.46076855780E+02  0.00000000000E+00 0. -1.
</event>
<event>
 6    1  0.5317355E-006  0.1053165E+03  0.7561462E-02  0.1269497E+00
          1   -1    0    0  501    0  0.00000000000E+00  0.00000000000E+00  0.35552380562E+03  0.35552380562E+03  0.00000000000E+00 0. -1.
         -1   -1    0    0    0  501 -0.00000000000E+00 -0.00000000000E+00 -0.36796260220E+02  0.36796260220E+02  0.00000000000E+00 0.  1.
          5    1    1    2  502    0  0.29229524219E+02  0.68877389414E+02  0.77352292112E+02  0.10770008985E+03  0.41800000000E+01 0. -1.
         -5    1    1    2    0  502 -0.18402959589E+02 -0.47545873539E+02  0.76625334231E+02  0.92131391275E+02  0.41800000000E+01 0. -1.
        -11    1    1    2    0    0  0.34169360870E+02  0.12555254089E+01  0.20880002396E+02  0.40063650188E+02  0.00000000000E+00 0.  1.
         11    1    1    2    0    0 -0.44995925500E+02 -0.22587041284E+02  0.14386991666E+03  0.15242493453E+03  0.00000000000E+00 0. -1.
</event>
<event>
 6    1  0.5317355E-006  0.7527768E+02  0.7561462E-02  0.1343013E+00
          1   -1    0    0  501    0  0.00000000000E+00  0.00000000000E+00  0.59854910398E+02  0.59854910398E+02  0.00000000000E+00 0. -1.
         -1   -1    0    0    0  501 -0.00000000000E+00 -0.00000000000E+00 -0.22005793948E+03  0.22005793948E+03  0.00000000000E+00 0.  1.
          5    1    1    2  502    0 -0.28481230406E+02 -0.20621406138E+02 -0.14285133277E+03  0.14717472117E+03  0.41800000000E+01 0. -1.
         -5    1    1    2    0  502  0.33527381204E+02 -0.64046052698E+01  0.65430166329E+01  0.35005538501E+02  0.41800000000E+01 0.  1.
        -11    1    1    2    0    0  0.17935543925E+02 -0.20938707305E+02  0.15423516926E+02  0.31591107512E+02  0.00000000000E+00 0. -1.
         11    1    1    2    0    0 -0.22981694723E+02  0.47964718712E+02 -0.39318229870E+02  0.66141482698E+02  0.00000000000E+00 0.  1.
</event>
<event>
 6    1  0.5317355E-006  0.1772209E+03  0.7561462E-02  0.1170520E+00
         -4   -1    0    0    0  501 -0.00000000000E+00  0.00000000000E+00  0.50549744678E+02  0.50549744678E+02  0.00000000000E+00 0.  1.
          4   -1    0    0  501    0  0.00000000000E+00 -0.00000000000E+00 -0.67541848018E+03  0.67541848018E+03  0.00000000000E+00 0. -1.
          5    1    1    2  502    0 -0.56834710367E+02 -0.78936560298E+01 -0.15365284993E+03  0.16407060919E+03  0.41800000000E+01 0. -1.
         -5    1    1    2    0  502 -0.49247652802E+01  0.13146883688E+03 -0.14274603944E+03  0.19417057593E+03  0.41800000000E+01 0.  1.
        -11    1    1    2    0    0  0.80895588428E+02 -0.12159182314E+03 -0.29271101014E+03  0.32712138899E+03  0.00000000000E+00 0. -1.
         11    1    1    2    0    0 -0.19136112781E+02 -0.19833577080E+01 -0.35758835992E+02  0.40605650736E+02  0.00000000000E+00 0.  1.
</event>
<event>
 6    1  0.5317355E-006  0.1046959E+03  0.7561462E-02  0.1270720E+00
          1   -1    0    0  501    0  0.00000000000E+00  0.00000000000E+00  0.75268730652E+03  0.75268730652E+03  0.00000000000E+00 0. -1.
         -1   -1    0    0    0  501 -0.00000000000E+00 -0.00000000000E+00 -0.26526700172E+02  0.26526700172E+02  0.00000000000E+00 0.  1.
          5    1    1    2  502    0 -0.59730028354E+02 -0.36668179165E+02  0.82039285563E+02  0.10798216717E+03  0.41800000000E+01 0. -1.
         -5    1    1    2    0  502 -0.30253105041E+02  0.36678231689E+02  0.30317704579E+03  0.30691095865E+03  0.41800000000E+01 0. -1.
        -11    1    1    2    0    0  0.52200912243E+02  0.80526720520E+01  0.31096922243E+03  0.31542295107E+03  0.00000000000E+00 0. -1.
         11    1    1    2    0    0  0.37782221152E+02 -0.80627245765E+01  0.29975052570E+02  0.48897929807E+02  0.00000000000E+00 0.  1.
</event>
<event>
 6    1  0.5317355E-006  0.1091024E+03  0.7561462E-02  0.1262241E+00
         -1   -1    0    0    0  501 -0.00000000000E+00  0.00000000000E+00  0.14431275367E+03  0.14431275367E+03  0.00000000000E+00 0.  1.
          1   -1    0    0  501    0  0.00000000000E+00 -0.00000000000E+00 -0.10365792431E+03  0.10365792431E+03  0.00000000000E+00 0. -1.
          5    1    1    2  502    0 -0.23379227537E+02 -0.41691527614E+02  0.21959010223E+02  0.52767814859E+02  0.41800000000E+01 0.  1.
         -5    1    1    2    0  502  0.27318668198E+02  0.76958004086E+02  0.49696876063E+02  0.95687490904E+02  0.41800000000E+01 0.  1.
        -11    1    1    2    0    0 -0.26469142803E+02 -0.53355459204E+02 -0.35576006198E+01  0.59666381403E+02  0.00000000000E+00 0.  1.
         11    1    1    2    0    0  0.22529702143E+02  0.18088982731E+02 -0.27443456303E+02  0.39848990812E+02  0.00000000000E+00 0. -1.
</event>
<event>
 6    1  0.5317355E-006  0.1400977E+03  0.7561462E-02  0.1213198E+00
         -2   -1    0    0    0  501 -0.00000000000E+00  0.00000000000E+00  0.20495876224E+02  0.20495876224E+02  0.00000000000E+00 0.  1.
          2   -1    0    0  501    0  0.00000000000E+00 -0.00000000000E+00 -0.13803288550E+04  0.13803288550E+04  0.00000000000E+00 0. -1.
          5    1    1    2  502    0  0.68618723453E+02 -0.85112031170E+02 -0.27574472367E+03  0.29665672433E+03  0.41800000000E+01 0. -1.
         -5    1    1    2    0  502  0.24839189310E+02 -0.64420397161E+01 -0.47083773022E+03  0.47155500824E+03  0.41800000000E+01 0. -1.
        -11    1    1    2    0    0 -0.59424179992E+02  0.15417941338E+02 -0.15281298030E+03  0.16468379711E+03  0.00000000000E+00 0.  1.
         11    1    1    2    0    0 -0.34033732771E+02  0.76136129548E+02 -0.46043754462E+03  0.46792920157E+03  0.00000000000E+00 0. -1.
</event>
<event>
 6    1  0.5317355E-006  0.8878232E+02  0.7561462E-02  0.1305828E+00
         -1   -1    0    0    0  501 -0.00000000000E+00  0.00000000000E+00  0.77538955371E+02  0.77538955371E+02  0.00000000000E+00 0.  1.
          1   -1    0    0  501    0  0.00000000000E+00 -0.00000000000E+00 -0.19607257091E+03  0.19607257091E+03  0.00000000000E+00 0. -1.
          5    1    1    2  502    0  0.25921436464E+02  0.42779317392E+02  0.28789270331E+02  0.57864370308E+02  0.41800000000E+01 0. -1.
         -5    1    1    2    0  502  0.19786479190E+02 -0.45143517342E+01 -0.92231331055E+02  0.94530285932E+02  0.41800000000E+01 0. -1.
        -11    1    1    2    0    0 -0.25280310144E+02 -0.66875825212E+02 -0.45615871662E+02  0.84807298189E+02  0.00000000000E+00 0.  1.
         11    1    1    2    0    0 -0.20427605511E+02  0.28610859554E+02 -0.94756831536E+01  0.36409571853E+02  0.00000000000E+00 0. -1.
</event>
<event>
 6    1  0.5317355E-006  0.1037501E+03  0.7561462E-02  0.1272602E+00
          1   -1    0    0  501    0  0.00000000000E+00  0.00000000000E+00  0.76147750339E+03  0.76147750339E+03  0.00000000000E+00 0. -1.
         -1   -1    0    0    0  501 -0.00000000000E+00 -0.00000000000E+00 -0.16638276240E+02  0.16638276240E+02  0.00000000000E+00 0.  1.
          5    1    1    2  502    0  0.64963124456E+02  0.23120399468E+02  0.29114140094E+03  0.29922491231E+03  0.41800000000E+01 0.  1.
         -5    1    1    2    0  502 -0.44618813390E+02 -0.70506146201E+01  0.66105034073E+02  0.80174170433E+02  0.41800000000E+01 0.  1.
        -11    1    1    2    0    0 -0.35271685695E+02  0.28945173123E+02  0.17011079301E+03  0.17612381088E+03  0.00000000000E+00 0.  1.
         11    1    1    2    0    0  0.14927374629E+02 -0.45014957971E+02  0.21748199913E+03  0.22259288601E+03  0.00000000000E+00 0. -1.
</event>
<event>
 6    1  0.5317355E-006  0.9586296E+02  0.7561462E-02  0.1289244E+00
         -1   -1    0    0    0  501 -0.00000000000E+00  0.00000000000E+00  0.12681393252E+04  0.12681393252E+04  0.00000000000E+00 0.  1.
          1   -1    0    0  501    0  0.00000000000E+00 -0.00000000000E+00 -0.16693226241E+02  0.16693226241E+02  0.00000000000E+00 0. -1.
          5    1    1    2  502    0  0.46170384796E+02 -0.10947924423E+02  0.83249262673E+03  0.83385430828E+03  0.41800000000E+01 0.  1.
         -5    1    1    2    0  502 -0.56691713065E+02  0.38112038350E+01  0.28121857716E+03  0.28693176217E+03  0.41800000000E+01 0.  1.
        -11    1    1    2    0    0 -0.33816058144E+02 -0.15657153856E+02  0.76421845854E+02  0.85023354315E+02  0.00000000000E+00 0.  1.
         11    1    1    2    0    0  0.44337386414E+02  0.22793874445E+02  0.61313049267E+02  0.79023126720E+02  0.00000000000E+00 0. -1.
</event>
<event>
 6    1  0.7533634E-006  0.2158714E+03  0.7561462E-02  0.1136999E+00
         -2   -1    0    0    0  501 -0.00000000000E+00  0.00000000000E+00  0.52580599202E+02  0.52580599202E+02  0.00000000000E+00 0.  1.
          2   -1    0    0  501    0  0.00000000000E+00 -0.00000000000E+00 -0.11291984030E+04  0.11291984030E+04  0.00000000000E+00 0. -1.
          5    1    1    2  502    0 -0.15276032065E+02  0.92985415506E+02 -0.81459151895E+02  0.12463029519E+03  0.41800000000E+01 0. -1.
         -5    1    1    2    0  502  0.27187527513E+02  0.12040716890E+03 -0.37305729189E+03  0.39297107198E+03  0.41800000000E+01 0. -1.
        -11    1    1    2    0    0 -0.19316142950E+01 -0.11406699595E+03 -0.19826895572E+03  0.22874787321E+03  0.00000000000E+00 0.  1.
         11    1    1    2    0    0 -0.99798811528E+01 -0.99325588453E+02 -0.42383240434E+03  0.43542976187E+03  0.00000000000E+00 0. -1.
</event>
<event>
 6    1  0.5317355E-006  0.1541511E+03  0.7561462E-02  0.1195463E+00
         -3   -1    0    0    0  501 -0.00000000000E+00  0.00000000000E+00  0.90750501097E+02  0.90750501097E+02  0.00000000000E+00 0.  1.
          3   -1    0    0  501    0  0.00000000000E+00 -0.00000000000E+00 -0.33696568760E+03  0.33696568760E+03  0.00000000000E+00 0. -1.
          5    1    1    2  502    0  0.12167539670E+03 -0.40148439831E+02 -0.10213705576E+02  0.12860245551E+03  0.41800000000E+01 0. -1.
         -5    1    1    2    0  502 -0.20193573797E+02 -0.25730257205E+02 -0.41383085809E+02  0.52913691513E+02  0.41800000000E+01 0. -1.
        -11    1    1    2    0    0 -0.70148111434E+02 -0.42958275048E+01 -0.12010198133E+03  0.13915350370E+03  0.00000000000E+00 0. -1.
         11    1    1    2    0    0 -0.31333711467E+02  0.70174524540E+02 -0.74516413795E+02  0.10704653798E+03  0.00000000000E+00 0.  1.
</event>
<event>
 6    1  0.5317355E-006  0.1218630E+03  0.7561462E-02  0.1240055E+00
          2   -1    0    0  501    0  0.00000000000E+00  0.00000000000E+00  0.30589367094E+03  0.30589367094E+03  0.00000000000E+00 0. -1.
         -2   -1    0    0    0  501 -0.00000000000E+00 -0.00000000000E+00 -0.53732593410E+02  0.53732593410E+02  0.00000000000E+00 0.  1.
          5    1    1    2  502    0  0.47424041617E+00 -0.60415604527E+02  0.24839590370E+02  0.65457985182E+02  0.41800000000E+01 0.  1.
         -5    1    1    2    0  502 -0.63004614081E+02  0.40482245151E+02  0.85887618712E+02  0.11402872014E+03  0.41800000000E+01 0.  1.
        -11    1    1    2    0    0 -0.16493715922E+02 -0.14497216356E+02  0.49299447449E+02  0.53968949089E+02  0.00000000000E+00 0.  1.
         11    1    1    2    0    0  0.79024089587E+02  0.34430575732E+02  0.92134421001E+02  0.12617060994E+03  0.00000000000E+00 0. -1.
</event>
<event>
 6    1  0.5317355E-006  0.7133706E+02  0.7561462E-02  0.1355604E+00
          2   -1    0    0  501    0  0.00000000000E+00  0.00000000000E+00  0.59952904908E+02  0.59952904908E+02  0.00000000000E+00 0. -1.
         -2   -1    0    0    0  501 -0.00000000000E+00 -0.00000000000E+00 -0.24762492807E+03  0.24762492807E+03  0.00000000000E+00 0.  1.
          5    1    1    2  502    0 -0.16737471085E+02  0.11283737074E+02 -0.13996274393E+03  0.14147263958E+03  0.41800000000E+01 0.  1.
         -5    1    1    2    0  502  0.58598817513E+02  0.39999421599E+01 -0.11558015401E+02  0.60007341811E+02  0.41800000000E+01 0.  1.
        -11    1    1    2    0    0 -0.41885183061E+02 -0.28049998243E+02  0.15620954840E+02  0.52774853781E+02  0.00000000000E+00 0. -1.
         11    1    1    2    0    0  0.23836633020E-01  0.12766319009E+02 -0.51772218668E+02  0.53322997806E+02  0.00000000000E+00 0.  1.
</event>
<event>
 6    1  0.5317355E-006  0.1080517E+03  0.7561462E-02  0.1264221E+00
          1   -1    0    0  501    0  0.00000000000E+00  0.00000000000E+00  0.53364655923E+03  0.53364655923E+03  0.00000000000E+00 0. -1.
         -1   -1    0    0    0  501 -0.00000000000E+00 -0.00000000000E+00 -0.38375263933E+02  0.38375263933E+02  0.00000000000E+00 0.  1.
          5    1    1    2  502    0 -0.67534101966E+01 -0.75727079913E+02  0.39942475577E+02  0.85982980506E+02  0.41800000000E+01 0.  1.
         -5    1    1    2    0  502  0.22924367794E+02 -0.97150033819E+01  0.17883792431E+03  0.18061113892E+03  0.41800000000E+01 0.  1.
        -11    1    1    2    0    0 -0.20366109664E+02  0.98715204534E+02  0.27309101139E+03  0.29109821458E+03  0.00000000000E+00 0.  1.
         11    1    1    2    0    0  0.41951520660E+01 -0.13273121239E+02  0.33998840193E+01  0.14329489161E+02  0.00000000000E+00 0. -1.
</event>
<event>
 6    1  0.5317355E-006  0.1006433E+03  0.7561462E-02  0.1278949E+00
         -3   -1    0    0    0  501 -0.00000000000E+00  0.00000000000E+00  0.43479791709E+02  0.43479791709E+02  0.00000000000E+00 0.  1.
          3   -1    0    0  501    0  0.00000000000E+00 -0.00000000000E+00 -0.40115084044E+03  0.40115084044E+03  0.00000000000E+00 0. -1.
          5    1    1    2  502    0 -0.39376349901E+00  0.77013964637E+02 -0.21052097195E+02  0.79949790464E+02  0.41800000000E+01 0.  1.
         -5    1    1    2    0  502  0.88037626096E+01 -0.36705946189E+02 -0.71667315859E+02  0.81108009988E+02  0.41800000000E+01 0.  1.
        -11    1    1    2    0    0 -0.40897764425E+02 -0.33777493184E+02 -0.22733840607E+03  0.23344441963E+03  0.00000000000E+00 0. -1.
         11    1    1    2    0    0  0.32487765314E+02 -0.65305252639E+01 -0.37613229610E+02  0.50128412073E+02  0.00000000000E+00 0.  1.
</event>
<event>
 6    1  0.5317355E-006  0.1825441E+03  0.7561462E-02  0.1165363E+00
         -1   -1    0    0    0  501 -0.00000000000E+00  0.00000000000E+00  0.69621206008E+02  0.69621206008E+02  0.00000000000E+00 0.  1.
          1   -1    0    0  501    0  0.00000000000E+00 -0.00000000000E+00 -0.59137983500E+03  0.59137983500E+03  0.00000000000E+00 0. -1.
          5    1    1    2  502    0  0.13425653682E+03  0.55797866389E+02 -0.77417577806E+02  0.16477006199E+03  0.41800000000E+01 0.  1.
         -5    1    1    2    0  502 -0.14530706945E+02  0.39181259980E+02 -0.70163484660E+02  0.81772241975E+02  0.41800000000E+01 0.  1.
        -11    1    1    2    0    0 -0.10207113127E+03 -0.24481380047E+02 -0.23747974558E+03  0.25964299214E+03  0.00000000000E+00 0.  1.
         11    1    1    2    0    0 -0.17654698613E+02 -0.70497746322E+02 -0.13669782094E+03  0.15481574490E+03  0.00000000000E+00 0. -1.
</event>
<event>
 6    1  0.5317355E-006  0.1109131E+03  0.7561462E-02  0.1258888E+00
          1   -1    0    0  501    0  0.00000000000E+00  0.00000000000E+00  0.77225952065E+02  0.77225952065E+02  0.00000000000E+00 0. -1.
         -1   -1    0    0    0  501 -0.00000000000E+00 -0.00000000000E+00 -0.21428956764E+03  0.21428956764E+03  0.00000000000E+00 0.  1.
          5    1    1    2  502    0 -0.19438259093E+02  0.80920120137E+02 -0.12198114571E+03  0.14772536705E+03  0.41800000000E+01 0.  1.
         -5    1    1    2    0  502  0.12946576328E+02 -0.26356134274E+02  0.36978036857E+01  0.29889894690E+02  0.41800000000E+01 0. -1.
        -11    1    1    2    0    0 -0.42403713958E+02 -0.38769836743E+02 -0.23970838961E+02  0.62255733222E+02  0.00000000000E+00 0.  1.
         11    1    1    2    0    0  0.48895396723E+02 -0.15794149120E+02  0.51905654123E+01  0.51644524748E+02  0.00000000000E+00 0. -1.
</event>
<event>
 6    1  0.5317355E-006  0.2354857E+03  0.7561462E-02  0.1122837E+00
         -1   -1    0    0    0  501 -0.00000000000E+00  0.00000000000E+00  0.67423522192E+02  0.67423522192E+02  0.00000000000E+00 0.  1.
          1   -1    0    0  501    0  0.00000000000E+00 -0.00000000000E+00 -0.88658886683E+03  0.88658886683E+03  0.00000000000E+00 0. -1.
          5    1    1    2  502    0  0.12039567604E+03  0.17960870426E+03 -0.33579680653E+03  0.39941378686E+03  0.41800000000E+01 0. -1.
         -5    1    1    2    0  502  0.25501622907E+01 -0.14863730414E+02 -0.77181333717E+02  0.78751917335E+02  0.41800000000E+01 0.  1.
        -11    1    1    2    0    0 -0.11974610350E+03 -0.18400045466E+03 -0.39829847072E+03  0.45479332493E+03  0.00000000000E+00 0.  1.
         11    1    1    2    0    0 -0.31997348349E+01  0.19255480809E+02 -0.78887336693E+01  0.21053359901E+02  0.00000000000E+00 0. -1.
</event>
<event>
 6    1  0.5317355E-006  0.1214037E+03  0.7561462E-02  0.1240799E+00
          1   -1    0    0  501    0  0.00000000000E+00  0.00000000000E+00  0.22737363299E+03  0.22737363299E+03  0.00000000000E+00 0. -1.
         -1   -1    0    0    0  501 -0.00000000000E+00 -0.00000000000E+00 -0.91537097426E+02  0.91537097426E+02  0.00000000000E+00 0.  1.
          5    1    1    2  502    0 -0.72109695173E+02  0.59041389881E+02  0.12809233086E+02  0.94166037982E+02  0.41800000000E+01 0.  1.
         -5    1    1    2    0  502  0.50291319448E+02  0.11698533184E+02  0.67778337891E+00  0.51807376703E+02  0.41800000000E+01 0.  1.
        -11    1    1    2    0    0  0.66331758227E+01 -0.79770717208E+02  0.13080267068E+03  0.15335157320E+03  0.00000000000E+00 0. -1.
         11    1    1    2    0    0  0.15185199902E+02  0.90307941424E+01 -0.84531515815E+01  0.19585742533E+02  0.00000000000E+00 0.  1.
</event>
<event>
 6    1  0.5317355E-006  0.1145464E+03  0.7561462E-02  0.1252375E+00
         -1   -1    0    0    0  501 -0.00000000000E+00  0.00000000000E+00  0.34394450345E+02  0.34394450345E+02  0.00000000000E+00 0.  1.
          1   -1    0    0  501    0  0.00000000000E+00 -0.00000000000E+00 -0.10572600168E+04  0.10572600168E+04  0.00000000000E+00 0. -1.
          5    1    1    2  502    0 -0.75747848643E+02 -0.24861912577E+02 -0.55925403303E+03  0.56492335509E+03  0.41800000000E+01 0. -1.
         -5    1    1    2    0  502 -0.10456061099E+02  0.35827048658E+02  0.79422187112E+01  0.38385646631E+02  0.41800000000E+01 0.  1.
        -11    1    1    2    0    0  0.94770410390E+01  0.25169589875E+02 -0.37879297117E+02  0.46456040634E+02  0.00000000000E+00 0.  1.
         11    1    1    2    0    0  0.76726868703E+02 -0.36134725956E+02 -0.43367445506E+03  0.44188942482E+03  0.00000000000E+00 0. -1.
</event>
<event>
 6    1  0.5317355E-006  0.8655192E+02  0.7561462E-02  0.1311423E+00
          2   -1    0    0  501    0  0.00000000000E+00  0.00000000000E+00  0.86908277299E+02  0.86908277299E+02  0.00000000000E+00 0. -1.
         -2   -1    0    0    0  501 -0.00000000000E+00 -0.00000000000E+00 -0.15551770149E+03  0.15551770149E+03  0.00000000000E+00 0.  1.
          5    1    1    2  502    0  0.57858535102E+02 -0.25920831958E+02 -0.68321376390E+02  0.93299423821E+02  0.41800000000E+01 0. -1.
         -5    1    1    2    0  502 -0.47956259747E+01  0.34824515940E+02  0.31903534166E+02  0.47655564536E+02  0.41800000000E+01 0. -1.
        -11    1    1    2    0    0 -0.58053309387E+02  0.60820517805E+01  0.74064722022E+01  0.58839050937E+02  0.00000000000E+00 0. -1.
         11    1    1    2    0    0  0.49904002602E+01 -0.14985735763E+02 -0.39598054171E+02  0.42631939497E+02  0.00000000000E+00 0.  1.
</event>
<event>
 6    1  0.5317355E-006  0.1050232E+03  0.7561462E-02  0.1270074E+00
         -2   -1    0    0    0  501 -0.00000000000E+00  0.00000000000E+00  0.57776197982E+02  0.57776197982E+02  0.00000000000E+00 0.  1.
          2   -1    0    0  501    0  0.00000000000E+00 -0.00000000000E+00 -0.30323426837E+03  0.30323426837E+03  0.00000000000E+00 0. -1.
          5    1    1    2  502    0 -0.66054918568E+02  0.66147315141E+02 -0.10941921354E+03  0.14397484593E+03  0.41800000000E+01 0. -1.
         -5    1    1    2    0  502 -0.12920486495E+01 -0.37489872282E+02 -0.20260381737E+00  0.37744845499E+02  0.41800000000E+01 0. -1.
        -11    1    1    2    0    0  0.15355905822E+02 -0.21240665461E+02  0.69807844333E+01  0.27123809912E+02  0.00000000000E+00 0.  1.
         11    1    1    2    0    0  0.51991061396E+02 -0.74167773970E+01 -0.14281703746E+03  0.15216696501E+03  0.00000000000E+00 0. -1.
</event>
<event>
 6    1  0.5317355E-006  0.1027842E+03  0.7561462E-02  0.1274548E+00
         -2   -1    0    0    0  501 -0.00000000000E+00  0.00000000000E+00  0.52658240240E+02  0.52658240240E+02  0.00000000000E+00 0.  1.
          2   -1    0    0  501    0  0.00000000000E+00 -0.00000000000E+00 -0.22796040812E+03  0.22796040812E+03  0.00000000000E+00 0. -1.
          5    1    1    2  502    0 -0.51684097415E+02  0.43201146550E+02 -0.74831251019E+02  0.10077089618E+03  0.41800000000E+01 0. -1.
         -5    1    1    2    0  502  0.36761467782E+02 -0.25411616786E+02 -0.32863011006E+01  0.45004754816E+02  0.41800000000E+01 0.  1.
        -11    1    1    2    0    0 -0.28989792625E+02 -0.35508963788E+02 -0.42561722368E+02  0.62552336461E+02  0.00000000000E+00 0.  1.
         11    1    1    2    0    0  0.43912422258E+02  0.17719434024E+02 -0.54622893394E+02  0.72290660900E+02  0.00000000000E+00 0. -1.
</event>
<event>
 6    1  0.5317355E-006  0.9642188E+02  0.7561462E-02  0.1288005E+00
         -2   -1    0    0    0  501 -0.00000000000E+00  0.00000000000E+00  0.43890944681E+02  0.43890944681E+02  0.00000000000E+00 0.  1.
          2   -1    0    0  501    0  0.00000000000E+00 -0.00000000000E+00 -0.30507280658E+03  0.30507280658E+03  0.00000000000E+00 0. -1.
          5    1    1    2  502    0  0.84465599278E+02 -0.10412725177E+02 -0.10435907322E+03  0.13472620707E+03  0.41800000000E+01 0.  1.
         -5    1    1    2    0  502 -0.43291781610E+02  0.13356284724E+02 -0.38535508907E+02  0.59624043333E+02  0.41800000000E+01 0.  1.
        -11    1    1    2    0    0 -0.32414188854E+01  0.18352713443E+02  0.85640888331E+01  0.20510302403E+02  0.00000000000E+00 0.  1.
         11    1    1    2    0    0 -0.37932398783E+02 -0.21296272990E+02 -0.12685136860E+03  0.13410319846E+03  0.00000000000E+00 0. -1.
</event>
<event>
 6    1  0.5317355E-006  0.1711937E+03  0.7561462E-02  0.1176609E+00
         -1   -1    0    0    0  501 -0.00000000000E+00  0.00000000000E+00  0.14347945428E+03  0.14347945428E+03  0.00000000000E+00 0.  1.
          1   -1    0    0  501    0  0.00000000000E+00 -0.00000000000E+00 -0.21995400039E+03  0.21995400039E+03  0.00000000000E+00 0. -1.
          5    1    1    2  502    0  0.34061520011E+02 -0.13913881758E+03  0.12649962866E+02  0.14386553327E+03  0.41800000000E+01 0. -1.
         -5    1    1    2    0  502  0.29630398366E+02  0.17108340393E+02 -0.24916285241E+02  0.42531746832E+02  0.41800000000E+01 0. -1.
        -11    1    1    2    0    0  0.21627012849E+02  0.10098351702E+02 -0.13608139513E+02  0.27475186130E+02  0.00000000000E+00 0.  1.
         11    1    1    2    0    0 -0.85318931226E+02  0.11193212548E+03 -0.50600084226E+02  0.14956098844E+03  0.00000000000E+00 0. -1.
</event>
<event>
 6    1  0.5317355E-006  0.2788819E+03  0.7561462E-02  0.1096301E+00
         -1   -1    0    0    0  501 -0.00000000000E+00  0.00000000000E+00  0.15957792500E+03  0.15957792500E+03  0.00000000000E+00 0.  1.
          1   -1    0    0  501    0  0.00000000000E+00 -0.00000000000E+00 -0.57006014394E+03  0.57006014394E+03  0.00000000000E+00 0. -1.
          5    1    1    2  502    0 -0.15556146631E+02 -0.21993368739E+02 -0.50214408601E+02  0.57137213772E+02  0.41800000000E+01 0. -1.
         -5    1    1    2    0  502 -0.25714333982E+03  0.14812158846E+02 -0.77467814197E+02  0.26899968754E+03  0.41800000000E+01 0. -1.
        -11    1    1    2    0    0  0.17792476647E+03  0.10767545126E+01 -0.24142831886E+03  0.29991001162E+03  0.00000000000E+00 0.  1.
         11    1    1    2    0    0  0.94774719979E+02  0.61044553808E+01 -0.41371677281E+02  0.10359115601E+03  0.00000000000E+00 0. -1.
</event>
<event>
 6    1  0.5317355E-006  0.9652961E+02  0.7561462E-02  0.1287768E+00
          3   -1    0    0  501    0  0.00000000000E+00  0.00000000000E+00  0.81361070719E+02  0.81361070719E+02  0.00000000000E+00 0. -1.
         -3   -1    0    0    0  501 -0.00000000000E+00 -0.00000000000E+00 -0.24121637457E+03  0.24121637457E+03  0.00000000000E+00 0.  1.
          5    1    1    2  502    0 -0.81277592797E+01  0.15192729351E+02 -0.14191890969E+03  0.14302212705E+03  0.41800000000E+01 0.  1.
         -5    1    1    2    0  502 -0.44919181078E+02 -0.48847628674E+02 -0.16735272897E+02  0.68566503591E+02  0.41800000000E+01 0.  1.
        -11    1    1    2    0    0  0.48603003338E+01  0.55653803646E+02 -0.11472300775E+02  0.57031412964E+02  0.00000000000E+00 0.  1.
         11    1    1    2    0    0  0.48186640024E+02 -0.21998904323E+02  0.10271179516E+02  0.53957401687E+02  0.00000000000E+00 0. -1.
</event>
<event>
 6    1  0.5317355E-006  0.1261561E+03  0.7561462E-02  0.1233273E+00
         -2   -1    0    0    0  501 -0.00000000000E+00  0.00000000000E+00  0.12665795709E+03  0.12665795709E+03  0.00000000000E+00 0.  1.
          2   -1    0    0  501    0  0.00000000000E+00 -0.00000000000E+00 -0.28989635839E+03  0.28989635839E+03  0.00000000000E+00 0. -1.
          5    1    1    2  502    0 -0.75067098871E+01 -0.40245072470E+02 -0.31352847787E+02  0.51734804684E+02  0.41800000000E+01 0. -1.
         -5    1    1    2    0  502 -0.62035407164E+02  0.99337855959E+02  0.50113756241E+02  0.12745690383E+03  0.41800000000E+01 0.  1.
        -11    1    1    2    0    0  0.10399438058E+02 -0.21518048658E+02  0.15038307567E+02  0.28236951402E+02  0.00000000000E+00 0.  1.
         11    1    1    2    0    0  0.59142678993E+02 -0.37574734832E+02 -0.19703761733E+03  0.20912565557E+03  0.00000000000E+00 0. -1.
</event>
<event>
 6    1  0.5317355E-006  0.2389517E+03  0.7561462E-02  0.1120493E+00
         -1   -1    0    0    0  501 -0.00000000000E+00  0.00000000000E+00  0.19781350707E+03  0.19781350707E+03  0.00000000000E+00 0.  1.
          1   -1    0    0  501    0  0.00000000000E+00 -0.00000000000E+00 -0.33231266794E+03  0.33231266794E+03  0.00000000000E+00 0. -1.
          5    1    1    2  502    0  0.22648522243E+03 -0.42930854385E+02  0.37336129987E+01  0.23058626694E+03  0.41800000000E+01 0.  1.
         -5    1    1    2    0  502 -0.15501256766E+02 -0.15456488081E+01  0.10200965014E+02  0.19084288794E+02  0.41800000000E+01 0.  1.
        -11    1    1    2    0    0 -0.15080361633E+03  0.69493165733E+02 -0.74779922634E+02  0.18210729698E+03  0.00000000000E+00 0.  1.
         11    1    1    2    0    0 -0.60180349330E+02 -0.25016662540E+02 -0.73653816249E+02  0.98348322294E+02  0.00000000000E+00 0. -1.
</event>
<event>
 6    1  0.5317355E-006  0.8038671E+02  0.7561462E-02  0.1327958E+00
          2   -1    0    0  501    0  0.00000000000E+00  0.00000000000E+00  0.73400673200E+03  0.73400673200E+03  0.00000000000E+00 0. -1.
         -2   -1    0    0    0  501 -0.00000000000E+00 -0.00000000000E+00 -0.16875106418E+02  0.16875106418E+02  0.00000000000E+00 0.  1.
          5    1    1    2  502    0  0.44270387997E+02  0.15460381044E+02  0.37447585803E+03  0.37742354362E+03  0.41800000000E+01 0. -1.
         -5    1    1    2    0  502 -0.12525032864E+02 -0.27753540270E+02  0.17292892163E+02  0.35265450021E+02  0.41800000000E+01 0. -1.
        -11    1    1    2    0    0 -0.15883933041E+02 -0.32102217488E+02  0.71273341805E+02  0.79766791013E+02  0.00000000000E+00 0.  1.
         11    1    1    2    0    0 -0.15861422092E+02  0.44395376714E+02  0.25408953358E+03  0.25842605376E+03  0.00000000000E+00 0. -1.
</event>
<event>
 6    1  0.5317355E-006  0.1226310E+03  0.7561462E-02  0.1238819E+00
         -2   -1    0    0    0  501 -0.00000000000E+00  0.00000000000E+00  0.25401099137E+03  0.25401099137E+03  0.00000000000E+00 0.  1.
          2   -1    0    0  501    0  0.00000000000E+00 -0.00000000000E+00 -0.84083537369E+02  0.84083537369E+02  0.00000000000E+00 0. -1.
          5    1    1    2  502    0 -0.81084062085E+02 -0.81767273321E+02  0.81208201475E+02  0.14097076469E+03  0.41800000000E+01 0. -1.
         -5    1    1    2    0  502  0.26549013258E+02  0.16591753416E+02  0.60934498872E+02  0.68633970737E+02  0.41800000000E+01 0.  1.
        -11    1    1    2    0    0  0.63373692609E+02  0.49356884221E+02 -0.15281126178E+02  0.81766984487E+02  0.00000000000E+00 0. -1.
         11    1    1    2    0    0 -0.88386437818E+01  0.15818635683E+02  0.43065879833E+02  0.46722808826E+02  0.00000000000E+00 0.  1.
</event>
<event>
 6    1  0.5317355E-006  0.1173186E+03  0.7561462E-02  0.1247587E+00
         -3   -1    0    0    0  501 -0.00000000000E+00  0.00000000000E+00  0.41490922917E+03  0.41490922917E+03  0.00000000000E+00 0.  1.
          3   -1    0    0  501    0  0.00000000000E+00 -0.00000000000E+00 -0.37570150473E+02  0.37570150473E+02  0.00000000000E+00 0. -1.
          5    1    1    2  502    0 -0.39332798711E+02 -0.50071449971E+01  0.11630475870E+03  0.12294880989E+03  0.41800000000E+01 0.  1.
         -5    1    1    2    0  502  0.57217873137E+02  0.63482134308E+02  0.75853260968E+02  0.11434621105E+03  0.41800000000E+01 0.  1.
        -11    1    1    2    0    0 -0.23317082734E+02  0.19890827415E+02  0.60508617883E+02  0.67827901343E+02  0.00000000000E+00 0.  1.
         11    1    1    2    0    0  0.54320083089E+01 -0.78365816725E+02  0.12467244114E+03  0.14735645736E+03  0.00000000000E+00 0. -1.
</event>
<event>
 6    1  0.5317355E-006  0.1034370E+03  0.7561462E-02  0.1273230E+00
          2   -1    0    0  501    0  0.00000000000E+00  0.00000000000E+00  0.61500835179E+03  0.61500835179E+03  0.00000000000E+00 0. -1.
         -2   -1    0    0    0  501 -0.00000000000E+00 -0.00000000000E+00 -0.23790521396E+02  0.23790521396E+02  0.00000000000E+00 0.  1.
          5    1    1    2  502    0  0.42841779913E+02  0.48799065458E+02  0.15849163253E+03  0.17132961471E+03  0.41800000000E+01 0. -1.
         -5    1    1    2    0  502 -0.25858171686E+02 -0.42691783222E+02  0.40533147645E+02  0.64433235645E+02  0.41800000000E+01 0. -1.
        -11    1    1    2    0    0  0.24886573114E+01  0.40826893699E+02  0.20675636489E+03  0.21076342920E+03  0.00000000000E+00 0. -1.
         11    1    1    2    0    0 -0.19472265539E+02 -0.46934175935E+02  0.18543668533E+03  0.19227259364E+03  0.00000000000E+00 0.  1.
</event>
<event>
 6    1  0.5317355E-006  0.2888396E+03  0.7561462E-02  0.1090957E+00
          1   -1    0    0  501    0  0.00000000000E+00  0.00000000000E+00  0.54391684029E+03  0.54391684029E+03  0.00000000000E+00 0. -1.
         -1   -1    0    0    0  501 -0.00000000000E+00 -0.00000000000E+00 -0.16412319686E+03  0.16412319686E+03  0.00000000000E+00 0.  1.
          5    1    1    2  502    0 -0.25183975845E+03 -0.46555983873E+02  0.14100319267E+03  0.29238689490E+03  0.41800000000E+01 0. -1.
         -5    1    1    2    0  502 -0.23722018878E+02  0.23722363931E+02 -0.70788367719E+01  0.34540802831E+02  0.41800000000E+01 0.  1.
        -11    1    1    2    0    0  0.17811433779E+03  0.52807030553E+02  0.12983300001E+03  0.22664930552E+03  0.00000000000E+00 0. -1.
         11    1    1    2    0    0  0.97447439538E+02 -0.29973410611E+02  0.11603628753E+03  0.15446303390E+03  0.00000000000E+00 0.  1.
</event>
<event>
 6    1  0.5317355E-006  0.6697374E+02  0.7561462E-02  0.1370697E+00
          1   -1    0    0  501    0  0.00000000000E+00  0.00000000000E+00  0.12989104942E+02  0.12989104942E+02  0.00000000000E+00 0. -1.
         -1   -1    0    0    0  501 -0.00000000000E+00 -0.00000000000E+00 -0.10335587117E+04  0.10335587117E+04  0.00000000000E+00 0.  1.
          5    1    1    2  502    0  0.21284413001E+02  0.22298203980E+02 -0.37853515352E+02  0.48995889236E+02  0.41800000000E+01 0.  1.
         -5    1    1    2    0  502 -0.11476567547E+02 -0.71996533255E+01 -0.66349366816E+03  0.66364513612E+03  0.41800000000E+01 0.  1.
        -11    1    1    2    0    0  0.31856553619E+02 -0.30632911346E+02 -0.23011756102E+03  0.23432308285E+03  0.00000000000E+00 0.  1.
         11    1    1    2    0    0 -0.41664399073E+02  0.15534360692E+02 -0.89104862179E+02  0.99583708387E+02  0.00000000000E+00 0. -1.
</event>
<event>
 6    1  0.5317355E-006  0.9038959E+02  0.7561462E-02  0.1301911E+00
          1   -1    0    0  501    0  0.00000000000E+00  0.00000000000E+00  0.19710338499E+02  0.19710338499E+02  0.00000000000E+00 0. -1.
         -1   -1    0    0    0  501 -0.00000000000E+00 -0.00000000000E+00 -0.66256111410E+03  0.66256111410E+03  0.00000000000E+00 0.  1.
          5    1    1    2  502    0 -0.21179297740E+02 -0.32093650653E+02 -0.37291846223E+02  0.53728197994E+02  0.41800000000E+01 0. -1.
         -5    1    1    2    0  502  0.47124339879E+02  0.16242702587E+02 -0.37158615275E+03  0.37493768830E+03  0.41800000000E+01 0. -1.
        -11    1    1    2    0    0  0.31949292970E+02  0.11748850821E+02 -0.13153230065E+03  0.13586588583E+03  0.00000000000E+00 0.  1.
         11    1    1    2    0    0 -0.57894335109E+02  0.41020972448E+01 -0.10244047598E+03  0.11773968048E+03  0.00000000000E+00 0. -1.
</event>
<event>
 6    1  0.5317355E-006  0.9338960E+02  0.7561462E-02  0.1294845E+00
          2   -1    0    0  501    0  0.00000000000E+00  0.00000000000E+00  0.29481304451E+03  0.29481304451E+03  0.00000000000E+00 0. -1.
         -2   -1    0    0    0  501 -0.00000000000E+00 -0.00000000000E+00 -0.75212294005E+02  0.75212294005E+02  0.00000000000E+00 0.  1.
          5    1    1    2  502    0 -0.80712751890E+01  0.62111686263E+02  0.59476486127E+02  0.86475036026E+02  0.41800000000E+01 0.  1.
         -5    1    1    2    0  502  0.10906806124E+02 -0.24657961994E+02 -0.37084451880E+02  0.46040226768E+02  0.41800000000E+01 0.  1.
        -11    1    1    2    0    0  0.23571120504E+02 -0.58424879043E+02  0.35481801637E+02  0.72305065248E+02  0.00000000000E+00 0.  1.
         11    1    1    2    0    0 -0.26406651439E+02  0.20971154775E+02  0.16172691462E+03  0.16520501047E+03  0.00000000000E+00 0. -1.
</event>
<event>
 6    1  0.5317355E-006  0.1753587E+03  0.7561462E-02  0.1172372E+00
         -2   -1    0    0    0  501 -0.00000000000E+00  0.00000000000E+00  0.76548269729E+02  0.76548269729E+02  0.00000000000E+00 0.  1.
          2   -1    0    0  501    0  0.00000000000E+00 -0.00000000000E+00 -0.94719878661E+03  0.94719878661E+03  0.00000000000E+00 0. -1.
          5    1    1    2  502    0 -0.69114338494E+02 -0.24330827994E+02 -0.89393328529E+02  0.11566079959E+03  0.41800000000E+01 0. -1.
         -5    1    1    2    0  502 -0.27238997865E+02 -0.95026652233E+02  0.59971973019E+01  0.99123490731E+02  0.41800000000E+01 0. -1.
        -11    1    1    2    0    0  0.72346183222E+02  0.18451888118E+02 -0.22055811148E+03  0.23285257770E+03  0.00000000000E+00 0. -1.
         11    1    1    2    0    0  0.24007153136E+02  0.10090559211E+03 -0.56669627418E+03  0.57611018832E+03  0.00000000000E+00 0.  1.
</event>
<event>
 6    1  0.5317355E-006  0.9905746E+02  0.7561462E-02  0.1282291E+00
         -1   -1    0    0    0  501 -0.00000000000E+00  0.00000000000E+00  0.27198515672E+03  0.27198515672E+03  0.00000000000E+00 0.  1.
          1   -1    0    0  501    0  0.00000000000E+00 -0.00000000000E+00 -0.49452520836E+02  0.49452520836E+02  0.00000000000E+00 0. -1.
          5    1    1    2  502    0 -0.30663709510E+02 -0.46556746654E+02  0.30992208505E+02  0.63920130850E+02  0.41800000000E+01 0. -1.
         -5    1    1    2    0  502  0.44376297818E+01  0.54610679540E+02  0.13479272316E+03  0.14556293998E+03  0.41800000000E+01 0. -1.
        -11    1    1    2    0    0  0.20054394668E+02 -0.45282346955E+02  0.77777400260E+01  0.50131456504E+02  0.00000000000E+00 0. -1.
         11    1    1    2    0    0  0.61716850594E+01  0.37228414069E+02  0.48969964189E+02  0.61823150221E+02  0.00000000000E+00 0.  1.
</event>
<event>
 6    1  0.5317355E-006  0.1228300E+03  0.7561462E-02  0.1238500E+00
         -1   -1    0    0    0  501 -0.00000000000E+00  0.00000000000E+00  0.43925599096E+02  0.43925599096E+02  0.00000000000E+00 0.  1.
          1   -1    0    0  501    0  0.00000000000E+00 -0.00000000000E+00 -0.57280597813E+03  0.57280597813E+03  0.00000000000E+00 0. -1.
          5    1    1    2  502    0  0.75744093961E+01  0.86008381499E+02 -0.24864593376E+03  0.26324339715E+03  0.41800000000E+01 0. -1.
         -5    1    1    2    0  502  0.33717705945E+02  0.18545910557E+02 -0.22100826282E+01  0.38771011823E+02  0.41800000000E+01 0. -1.
        -11    1    1    2    0    0  0.85939790545E+01 -0.26652714720E+02 -0.77591496267E+01  0.29059044734E+02  0.00000000000E+00 0.  1.
         11    1    1    2    0    0 -0.49886094396E+02 -0.77901577336E+02 -0.27026521302E+03  0.28565812352E+03  0.00000000000E+00 0. -1.
</event>
<event>
 6    1  0.5317355E-006  0.1229652E+03  0.7561462E-02  0.1238284E+00
          1   -1    0    0  501    0  0.00000000000E+00  0.00000000000E+00  0.64204694569E+03  0.64204694569E+03  0.00000000000E+00 0. -1.
         -1   -1    0    0    0  501 -0.00000000000E+00 -0.00000000000E+00 -0.30185874689E+02  0.30185874689E+02  0.00000000000E+00 0.  1.
          5    1    1    2  502    0 -0.20592393570E+02 -0.89750986192E+02  0.12281183460E+03  0.15355619594E+03  0.41800000000E+01 0. -1.
         -5    1    1    2    0  502  0.41937700061E+02  0.26178076434E+02  0.74129414759E+02  0.89200363814E+02  0.41800000000E+01 0. -1.
        -11    1    1    2    0    0  0.30562858785E+02  0.24398835673E+02  0.23351823804E+03  0.23677026633E+03  0.00000000000E+00 0. -1.
         11    1    1    2    0    0 -0.51908165276E+02  0.39174074086E+02  0.18140158361E+03  0.19270599430E+03  0.00000000000E+00 0.  1.
</event>
<event>
 6    1  0.5317355E-006  0.1254343E+03  0.7561462E-02  0.1234392E+00
          1   -1    0    0  501    0  0.00000000000E+00  0.00000000000E+00  0.89030361603E+02  0.89030361603E+02  0.00000000000E+00 0. -1.
         -1   -1    0    0    0  501 -0.00000000000E+00 -0.00000000000E+00 -0.22464257398E+03  0.22464257398E+03  0.00000000000E+00 0.  1.
          5    1    1    2  502    0 -0.21488375002E+02  0.11044408387E+02 -0.70002288334E+02  0.74172245408E+02  0.41800000000E+01 0. -1.
         -5    1    1    2    0  502  0.51733292103E+02 -0.90590180611E+02 -0.35493636173E+02  0.11027322859E+03  0.41800000000E+01 0. -1.
        -11    1    1    2    0    0  0.22152988673E+02 -0.47819773739E+01 -0.18526979095E+02  0.29272361865E+02  0.00000000000E+00 0. -1.
         11    1    1    2    0    0 -0.52397905774E+02  0.84327749598E+02 -0.11589308774E+02  0.99955099718E+02  0.00000000000E+00 0.  1.
</event>
<event>
 6    1  0.5317355E-006  0.1322361E+03  0.7561462E-02  0.1224175E+00
         -2   -1    0    0    0  501 -0.00000000000E+00  0.00000000000E+00  0.20913653644E+03  0.20913653644E+03  0.00000000000E+00 0.  1.
          2   -1    0    0  501    0  0.00000000000E+00 -0.00000000000E+00 -0.10558813607E+03  0.10558813607E+03  0.00000000000E+00 0. -1.
          5    1    1    2  502    0 -0.25545439615E+02 -0.92628670091E+01  0.57208495480E+02  0.63471683021E+02  0.41800000000E+01 0. -1.
         -5    1    1    2    0  502 -0.84463340897E+01  0.10502107929E+03 -0.60332015724E+01  0.10561552715E+03  0.41800000000E+01 0. -1.
        -11    1    1    2    0    0 -0.20963171831E+02  0.19080764871E+00 -0.42799178847E+01  0.21396464144E+02  0.00000000000E+00 0.  1.
         11    1    1    2    0    0  0.54954945536E+02 -0.95949019927E+02  0.56653024352E+02  0.12424099819E+03  0.00000000000E+00 0. -1.
</event>
<event>
 6    1  0.5317355E-006  0.1929300E+03  0.7561462E-02  0.1155845E+00
         -1   -1    0    0    0  501 -0.00000000000E+00  0.00000000000E+00  0.18621051372E+03  0.18621051372E+03  0.00000000000E+00 0.  1.
          1   -1    0    0  501    0  0.00000000000E+00 -0.00000000000E+00 -0.22100873448E+03  0.22100873448E+03  0.00000000000E+00 0. -1.
          5    1    1    2  502    0 -0.47816175024E+02  0.21417381106E+02  0.38740301590E+02  0.65294518718E+02  0.41800000000E+01 0.  1.
         -5    1    1    2    0  502 -0.96749700369E+02 -0.10351985988E+03 -0.21935150193E+02  0.14344158785E+03  0.41800000000E+01 0.  1.
        -11    1    1    2    0    0  0.79930194030E+02  0.96521934016E+02 -0.36982838989E+02  0.13066388194E+03  0.00000000000E+00 0.  1.
         11    1    1    2    0    0  0.64635681363E+02 -0.14419455242E+02 -0.14620533170E+02  0.67819259690E+02  0.00000000000E+00 0. -1.
</event>
<event>
 6    1  0.5317355E-006  0.1465002E+03  0.7561462E-02  0.1204841E+00
         -2   -1    0    0    0  501 -0.00000000000E+00  0.00000000000E+00  0.41658359097E+02  0.41658359097E+02  0.00000000000E+00 0.  1.
          2   -1    0    0  501    0  0.00000000000E+00 -0.00000000000E+00 -0.57532642034E+03  0.57532642034E+03  0.00000000000E+00 0. -1.
          5    1    1    2  502    0 -0.53670946142E+02 -0.83534587913E+02 -0.10723233902E+03  0.14620138429E+03  0.41800000000E+01 0.  1.
         -5    1    1    2    0  502 -0.43197857900E+02  0.41651205835E+02 -0.11512789126E+03  0.12989527174E+03  0.41800000000E+01 0.  1.
        -11    1    1    2    0    0  0.75352350663E+02 -0.11210124177E+02 -0.12926048616E+03  0.15003971780E+03  0.00000000000E+00 0.  1.
         11    1    1    2    0    0  0.21516453378E+02  0.53093506255E+02 -0.18204734480E+03  0.19084840561E+03  0.00000000000E+00 0. -1.
</event>
<event>
 6    1  0.5317355E-006  0.9809471E+02  0.7561462E-02  0.1284354E+00
          2   -1    0    0  501    0  0.00000000000E+00  0.00000000000E+00  0.21780668408E+03  0.21780668408E+03  0.00000000000E+00 0. -1.
         -2   -1    0    0    0  501 -0.00000000000E+00 -0.00000000000E+00 -0.80328902579E+02  0.80328902579E+02  0.00000000000E+00 0.  1.
          5    1    1    2  502    0 -0.33435027066E+02 -0.13907249726E+02 -0.35321247693E+02  0.50758009895E+02  0.41800000000E+01 0. -1.
         -5    1    1    2    0  502  0.67078712766E+02  0.17355186897E+02  0.37387282459E+02  0.78841851248E+02  0.41800000000E+01 0. -1.
        -11    1    1    2    0    0 -0.81709372586E+01  0.39529012834E+02  0.25346477962E+02  0.47662889300E+02  0.00000000000E+00 0.  1.
         11    1    1    2    0    0 -0.25472748441E+02 -0.42976950005E+02  0.11006526877E+03  0.12087283622E+03  0.00000000000E+00 0. -1.
</event>
<event>
 6    1  0.5317355E-006  0.8685734E+02  0.7561462E-02  0.1310646E+00
          1   -1    0    0  501    0  0.00000000000E+00  0.00000000000E+00  0.79522666707E+03  0.79522666707E+03  0.00000000000E+00 0. -1.
         -1   -1    0    0    0  501 -0.00000000000E+00 -0.00000000000E+00 -0.16176324771E+02  0.16176324771E+02  0.00000000000E+00 0.  1.
          5    1    1    2  502    0  0.36690643126E+02 -0.44394514807E+01  0.35077175128E+03  0.35273815490E+03  0.41800000000E+01 0.  1.
         -5    1    1    2    0  502 -0.35400406799E+02 -0.25363929484E+02  0.42375915655E+02  0.60907375153E+02  0.41800000000E+01 0.  1.
        -11    1    1    2    0    0  0.24692890557E+02  0.52662590260E+02  0.18603110374E+03  0.19491192579E+03  0.00000000000E+00 0.  1.
         11    1    1    2    0    0 -0.25983126883E+02 -0.22859209296E+02  0.19987157162E+03  0.20284553600E+03  0.00000000000E+00 0. -1.
</event>
<event>
 6    1  0.5317355E-006  0.1231239E+03  0.7561462E-02  0.1238031E+00
         -4   -1    0    0    0  501 -0.00000000000E+00  0.00000000000E+00  0.23796808070E+03  0.23796808070E+03  0.00000000000E+00 0.  1.
          4   -1    0    0  501    0  0.00000000000E+00 -0.00000000000E+00 -0.10452112762E+03  0.10452112762E+03  0.00000000000E+00 0. -1.
          5    1    1    2  502    0 -0.13238157665E+02 -0.14307577260E+01 -0.17333165476E+02  0.22253244964E+02  0.41800000000E+01 0. -1.
         -5    1    1    2    0  502  0.10931159145E+03  0.47811328333E+02  0.13323976138E+03  0.17890012172E+03  0.41800000000E+01 0. -1.
        -11    1    1    2    0    0 -0.25614349246E+02  0.44893251133E+01 -0.32054563898E+02  0.41276433881E+02  0.00000000000E+00 0. -1.
         11    1    1    2    0    0 -0.70459084535E+02 -0.50869895720E+02  0.49594921074E+02  0.10005940776E+03  0.00000000000E+00 0.  1.
</event>
<event>
 6    1  0.5317355E-006  0.1545401E+03  0.7561462E-02  0.1195003E+00
          2   -1    0    0  501    0  0.00000000000E+00  0.00000000000E+00  0.61275665648E+03  0.61275665648E+03  0.00000000000E+00 0. -1.
         -2   -1    0    0    0  501 -0.00000000000E+00 -0.00000000000E+00 -0.53446579997E+02  0.53446579997E+02  0.00000000000E+00 0.  1.
          5    1    1    2  502    0  0.52686915542E+02 -0.10052497785E+03  0.11843462470E+03  0.16408965528E+03  0.41800000000E+01 0.  1.
         -5    1    1    2    0  502  0.48605375252E+02 -0.29266277769E+00  0.20738048567E+03  0.21304156024E+03  0.41800000000E+01 0.  1.
        -11    1    1    2    0    0 -0.64483893143E+02  0.40771141392E+02  0.19368532713E+03  0.20816931664E+03  0.00000000000E+00 0. -1.
         11    1    1    2    0    0 -0.36808397652E+02  0.60046499240E+02  0.39809638980E+02  0.80902704308E+02  0.00000000000E+00 0.  1.
</event>
<event>
 6    1  0.5317355E-006  0.1205119E+03  0.7561462E-02  0.1242255E+00
         -1   -1    0    0    0  501 -0.00000000000E+00  0.00000000000E+00  0.38732631799E+03  0.38732631799E+03  0.00000000000E+00 0.  1.
          1   -1    0    0  501    0  0.00000000000E+00 -0.00000000000E+00 -0.47965358060E+02  0.47965358060E+02  0.00000000000E+00 0. -1.
          5    1    1    2  502    0  0.66697967594E+02  0.40283718897E+02  0.13954275842E+03  0.15987823716E+03  0.41800000000E+01 0.  1.
         -5    1    1    2    0  502 -0.55996034809E+02  0.16299097059E+02  0.14093638331E+03  0.15258359355E+03  0.41800000000E+01 0.  1.
        -11    1    1    2    0    0  0.32051866490E+02 -0.52584154852E+02  0.19583837261E+02  0.64621530226E+02  0.00000000000E+00 0. -1.
         11    1    1    2    0    0 -0.42753799274E+02 -0.39986611044E+01  0.39297980936E+02  0.58208315116E+02  0.00000000000E+00 0.  1.
</event>
<event>
 6    1  0.5317355E-006  0.7474941E+02  0.7561462E-02  0.1344649E+00
         -1   -1    0    0    0  501 -0.00000000000E+00  0.00000000000E+00  0.14653238066E+03  0.14653238066E+03  0.00000000000E+00 0.  1.
          1   -1    0    0  501    0  0.00000000000E+00 -0.00000000000E+00 -0.75520195664E+02  0.75520195664E+02  0.00000000000E+00 0. -1.
          5    1    1    2  502    0 -0.30565831556E+02  0.71594502355E+01 -0.31003169660E+02  0.44319258967E+02  0.41800000000E+01 0.  1.
         -5    1    1    2    0  502  0.39010539095E+02 -0.31468327949E+02  0.75902159538E+02  0.91053215467E+02  0.41800000000E+01 0.  1.
        -11    1    1    2    0    0  0.25098190428E+02 -0.16014072108E+01 -0.13605495826E+02  0.28593586422E+02  0.00000000000E+00 0.  1.
         11    1    1    2    0    0 -0.33542897967E+02  0.25910284925E+02  0.39718690941E+02  0.58086515466E+02  0.00000000000E+00 0. -1.
</event>
<event>
 6    1  0.5317355E-006  0.1696335E+03  0.7561462E-02  0.1178231E+00
          2   -1    0    0  501    0  0.00000000000E+00  0.00000000000E+00  0.18355049584E+04  0.18355049584E+04  0.00000000000E+00 0. -1.
         -2   -1    0    0    0  501 -0.00000000000E+00 -0.00000000000E+00 -0.19973299681E+02  0.19973299681E+02  0.00000000000E+00 0.  1.
          5    1    1    2  502    0  0.11219099606E+02 -0.11873655557E+03  0.89550813586E+03  0.90342488986E+03  0.41800000000E+01 0.  1.
         -5    1    1    2    0  502  0.14144453314E+02 -0.35388198856E+02  0.49885873696E+02  0.62916317218E+02  0.41800000000E+01 0.  1.
        -11    1    1    2    0    0 -0.54590253590E+02  0.52103405274E+02  0.41347515694E+03  0.42030532477E+03  0.00000000000E+00 0. -1.
         11    1    1    2    0    0  0.29226700670E+02  0.10202134915E+03  0.45666249219E+03  0.46883172620E+03  0.00000000000E+00 0.  1.
</event>
<event>
 6    1  0.5317355E-006  0.1182376E+03  0.7561462E-02  0.1246033E+00
         -2   -1    0    0    0  501 -0.00000000000E+00  0.00000000000E+00  0.14661039124E+02  0.14661039124E+02  0.00000000000E+00 0.  1.
          2   -1    0    0  501    0  0.00000000000E+00 -0.00000000000E+00 -0.98148154890E+03  0.98148154890E+03  0.00000000000E+00 0. -1.
          5    1    1    2  502    0  0.53085801299E+02 -0.59065375886E+01 -0.18281399930E+03  0.19050307144E+03  0.41800000000E+01 0. -1.
         -5    1    1    2    0  502 -0.55698830456E+02  0.54869593407E+02 -0.40077976971E+03  0.40835637402E+03  0.41800000000E+01 0. -1.
        -11    1    1    2    0    0  0.16750496608E+02 -0.73987131589E+02 -0.28693549374E+03  0.29679395605E+03  0.00000000000E+00 0. -1.
         11    1    1    2    0    0 -0.14137467451E+02  0.25024075771E+02 -0.96291247014E+02  0.10048918651E+03  0.00000000000E+00 0.  1.
</event>
<event>
 6    1  0.5317355E-006  0.1637204E+03  0.7561462E-02  0.1184559E+00
          1   -1    0    0  501    0  0.00000000000E+00  0.00000000000E+00  0.77944997390E+02  0.77944997390E+02  0.00000000000E+00 0. -1.
         -1   -1    0    0    0  501 -0.00000000000E+00 -0.00000000000E+00 -0.41110039290E+03  0.41110039290E+03  0.00000000000E+00 0.  1.
          5    1    1    2  502    0 -0.77243516168E+02  0.80923773000E+02 -0.82387635864E+02  0.13899788764E+03  0.41800000000E+01 0. -1.
         -5    1    1    2    0  502 -0.58011897235E+02 -0.47732526884E+02 -0.57364361688E+02  0.94614569361E+02  0.41800000000E+01 0. -1.
        -11    1    1    2    0    0  0.48191709065E+02 -0.20067039543E+02 -0.14681488349E+03  0.15581956525E+03  0.00000000000E+00 0.  1.
         11    1    1    2    0    0  0.87063704337E+02 -0.13124206573E+02 -0.46588514462E+02  0.99613368033E+02  0.00000000000E+00 0. -1.
</event>
<event>
 6    1  0.5317355E-006  0.1277886E+03  0.7561462E-02  0.1230774E+00
          1   -1    0    0  501    0  0.00000000000E+00  0.00000000000E+00  0.61018814509E+03  0.61018814509E+03  0.00000000000E+00 0. -1.
         -1   -1    0    0    0  501 -0.00000000000E+00 -0.00000000000E+00 -0.44345632951E+02  0.44345632951E+02  0.00000000000E+00 0.  1.
          5    1    1    2  502    0  0.58793109487E+02 -0.10464761722E+03  0.22182071996E+03  0.25224919766E+03  0.41800000000E+01 0. -1.
         -5    1    1    2    0  502  0.46038531472E+01  0.97285431074E+01 -0.12485209394E+02  0.17005671654E+02  0.41800000000E+01 0. -1.
        -11    1    1    2    0    0 -0.27790511134E+01  0.45857484230E+02  0.24461616155E+03  0.24889294582E+03  0.00000000000E+00 0. -1.
         11    1    1    2    0    0 -0.60617911521E+02  0.49061589888E+02  0.11189084002E+03  0.13638596291E+03  0.00000000000E+00 0.  1.
</event>
<event>
 6    1  0.5317355E-006  0.1315378E+03  0.7561462E-02  0.1225192E+00
         -1   -1    0    0    0  501 -0.00000000000E+00  0.00000000000E+00  0.77843145839E+03  0.77843145839E+03  0.00000000000E+00 0.  1.
          1   -1    0    0  501    0  0.00000000000E+00 -0.00000000000E+00 -0.28801677130E+02  0.28801677130E+02  0.00000000000E+00 0. -1.
          5    1    1    2  502    0  0.36469663214E+02  0.15958544068E+02  0.29641079992E+03  0.29910123064E+03  0.41800000000E+01 0. -1.
         -5    1    1    2    0  502 -0.27494680590E+02  0.85340233557E+02  0.14181013889E+03  0.16782878423E+03  0.41800000000E+01 0. -1.
        -11    1    1    2    0    0  0.38193246652E+02 -0.34170312248E+02  0.16118330000E+03  0.16913423819E+03  0.00000000000E+00 0.  1.
         11    1    1    2    0    0 -0.47168229275E+02 -0.67128465377E+02  0.15022554246E+03  0.17116888246E+03  0.00000000000E+00 0. -1.
</event>
<event>
 6    1  0.5317355E-006  0.1664264E+03  0.7561462E-02  0.1181627E+00
          2   -1    0    0  501    0  0.00000000000E+00  0.00000000000E+00  0.92899708363E+03  0.92899708363E+03  0.00000000000E+00 0.  1.
         -2   -1    0    0    0  501 -0.00000000000E+00 -0.00000000000E+00 -0.31045208348E+02  0.31045208348E+02  0.00000000000E+00 0. -1.
          5    1    1    2  502    0  0.47048004182E+02  0.24175089040E+02  0.21358658915E+03  0.22007874293E+03  0.41800000000E+01 0.  1.
         -5    1    1    2    0  502 -0.64134686755E+02  0.10508812834E+03  0.29677017326E+03  0.32132037112E+03  0.41800000000E+01 0.  1.
        -11    1    1    2    0    0  0.50979837078E+02 -0.55093440494E+02  0.21566784048E+03  0.22835684442E+03  0.00000000000E+00 0.  1.
         11    1    1    2    0    0 -0.33893154506E+02 -0.74169776886E+02  0.17192727240E+03  0.19028633351E+03  0.00000000000E+00 0. -1.
</event>
<event>
 6    1  0.5317355E-006  0.2525828E+03  0.7561462E-02  0.1111683E+00
          1   -1    0    0  501    0  0.00000000000E+00  0.00000000000E+00  0.31000989096E+03  0.31000989096E+03  0.00000000000E+00 0. -1.
         -1   -1    0    0    0  501 -0.00000000000E+00 -0.00000000000E+00 -0.24573746669E+03  0.24573746669E+03  0.00000000000E+00 0.  1.
          5    1    1    2  502    0 -0.76096342385E+02 -0.22817009581E+03 -0.80266037706E+02  0.25359880748E+03  0.41800000000E+01 0.  1.
         -5    1    1    2    0  502  0.13850094057E+02  0.39930253791E+01  0.12019455775E+02  0.19227820318E+02  0.41800000000E+01 0.  1.
        -11    1    1    2    0    0  0.60178992473E+02  0.58568384208E+02  0.37383775130E+02  0.91920146903E+02  0.00000000000E+00 0. -1.
         11    1    1    2    0    0  0.20672558545E+01  0.16560868622E+03  0.95135231070E+02  0.19100058295E+03  0.00000000000E+00 0.  1.
</event>
<event>
 6    1  0.5317355E-006  0.1053988E+03  0.7561462E-02  0.1269336E+00
          1   -1    0    0  501    0  0.00000000000E+00  0.00000000000E+00  0.22685298466E+03  0.22685298466E+03  0.00000000000E+00 0. -1.
         -1   -1    0    0    0  501 -0.00000000000E+00 -0.00000000000E+00 -0.61437376037E+02  0.61437376037E+02  0.00000000000E+00 0.  1.
          5    1    1    2  502    0 -0.46697297452E+02 -0.34984110049E+02  0.52859129387E+02  0.78842155633E+02  0.41800000000E+01 0.  1.
         -5    1    1    2    0  502  0.22557557296E+02  0.55938768281E+02 -0.54905396388E+00  0.60462906382E+02  0.41800000000E+01 0.  1.
        -11    1    1    2    0    0  0.18451348392E+02 -0.54642981951E+02  0.46334306664E+02  0.73980914485E+02  0.00000000000E+00 0.  1.
         11    1    1    2    0    0  0.56883917640E+01  0.33688323719E+02  0.66771226536E+02  0.75004384198E+02  0.00000000000E+00 0. -1.
</event>
<event>
 6    1  0.5317355E-006  0.1061869E+03  0.7561462E-02  0.1267799E+00
         -2   -1    0    0    0  501 -0.00000000000E+00  0.00000000000E+00  0.38988100384E+02  0.38988100384E+02  0.00000000000E+00 0.  1.
          2   -1    0    0  501    0  0.00000000000E+00 -0.00000000000E+00 -0.45791486863E+03  0.45791486863E+03  0.00000000000E+00 0. -1.
          5    1    1    2  502    0  0.40155048803E+02 -0.10979845403E+02 -0.59703069395E+01  0.42262298972E+02  0.41800000000E+01 0.  1.
         -5    1    1    2    0  502 -0.72591077481E+01 -0.61700496656E+02 -0.21546271178E+03  0.22427950976E+03  0.41800000000E+01 0.  1.
        -11    1    1    2    0    0 -0.55969303680E+02  0.59538373575E+02 -0.18227942382E+03  0.19975777640E+03  0.00000000000E+00 0. -1.
         11    1    1    2    0    0  0.23073362625E+02  0.13141968484E+02 -0.15214325713E+02  0.30603383888E+02  0.00000000000E+00 0.  1.
</event>
<event>
 6    1  0.5317355E-006  0.1277159E+03  0.7561462E-02  0.1230885E+00
         -1   -1    0    0    0  501 -0.00000000000E+00  0.00000000000E+00  0.10363142270E+03  0.10363142270E+03  0.00000000000E+00 0.  1.
          1   -1    0    0  501    0  0.00000000000E+00 -0.00000000000E+00 -0.19744687257E+03  0.19744687257E+03  0.00000000000E+00 0. -1.
          5    1    1    2  502    0  0.30154537994E+02 -0.67105972878E+01 -0.20609942018E+02  0.37370715642E+02  0.41800000000E+01 0. -1.
         -5    1    1    2    0  502 -0.10539789305E+03  0.55509733043E+02 -0.10492531466E+02  0.11965622399E+03  0.41800000000E+01 0. -1.
        -11    1    1    2    0    0  0.18114890177E+02 -0.44177976581E+02  0.12626058043E+02  0.49388867193E+02  0.00000000000E+00 0.  1.
         11    1    1    2    0    0  0.57128464879E+02 -0.46211591743E+01 -0.75339034427E+02  0.94662488452E+02  0.00000000000E+00 0. -1.
</event>
<event>
 6    1  0.5317355E-006  0.1971218E+03  0.7561462E-02  0.1152190E+00
         -1   -1    0    0    0  501 -0.00000000000E+00  0.00000000000E+00  0.57878761740E+02  0.57878761740E+02  0.00000000000E+00 0. -1.
          1   -1    0    0  501    0  0.00000000000E+00 -0.00000000000E+00 -0.69970079320E+03  0.69970079320E+03  0.00000000000E+00 0.  1.
          5    1    1    2  502    0 -0.15409898960E+03 -0.19606552553E+02 -0.19097980888E+03  0.24621469351E+03  0.41800000000E+01 0. -1.
         -5    1    1    2    0  502 -0.11144173572E+02  0.48467721698E+02 -0.10491086007E+03  0.11617690654E+03  0.41800000000E+01 0. -1.
        -11    1    1    2    0    0  0.69687156068E+02  0.30903146158E+02 -0.16915781008E+03  0.18554155565E+03  0.00000000000E+00 0.  1.
         11    1    1    2    0    0  0.95556007105E+02 -0.59764315303E+02 -0.17677355242E+03  0.20964639924E+03  0.00000000000E+00 0. -1.
</event>
<event>
 6    1  0.5317355E-006  0.2173484E+03  0.7561462E-02  0.1135875E+00
         -1   -1    0    0    0  501 -0.00000000000E+00  0.00000000000E+00  0.72529292866E+02  0.72529292866E+02  0.00000000000E+00 0.  1.
          1   -1    0    0  501    0  0.00000000000E+00 -0.00000000000E+00 -0.83319621113E+03  0.83319621113E+03  0.00000000000E+00 0. -1.
          5    1    1    2  502    0 -0.79533632046E+02 -0.37981044512E+02 -0.17924590660E+03  0.19978670076E+03  0.41800000000E+01 0. -1.
         -5    1    1    2    0  502 -0.72602724534E+02 -0.99953113585E+02 -0.58630177912E+02  0.13680917618E+03  0.41800000000E+01 0.  1.
        -11    1    1    2    0    0  0.14320681822E+03  0.79609447861E+02 -0.34786361815E+03  0.38451912021E+03  0.00000000000E+00 0. -1.
         11    1    1    2    0    0  0.89295383616E+01  0.58324710236E+02 -0.17492721560E+03  0.18461050685E+03  0.00000000000E+00 0.  1.
</event>
<event>
 6    1  0.5317355E-006  0.1138196E+03  0.7561462E-02  0.1253656E+00
          1   -1    0    0  501    0  0.00000000000E+00  0.00000000000E+00  0.32185677562E+02  0.32185677562E+02  0.00000000000E+00 0. -1.
         -1   -1    0    0    0  501 -0.00000000000E+00 -0.00000000000E+00 -0.44910676348E+03  0.44910676348E+03  0.00000000000E+00 0.  1.
          5    1    1    2  502    0  0.62473365026E+02 -0.64415733373E+01 -0.15234320844E+03  0.16483428273E+03  0.41800000000E+01 0. -1.
         -5    1    1    2    0  502 -0.49024231406E+02 -0.41479583402E+02 -0.69956036932E+02  0.95053935255E+02  0.41800000000E+01 0. -1.
        -11    1    1    2    0    0  0.22850594160E+02  0.58274598776E+02 -0.85687038842E+02  0.10611478286E+03  0.00000000000E+00 0. -1.
         11    1    1    2    0    0 -0.36299727780E+02 -0.10353442037E+02 -0.10893480170E+03  0.11528944019E+03  0.00000000000E+00 0.  1.
</event>
<event>
 6    1  0.5317355E-006  0.9412304E+02  0.7561462E-02  0.1293164E+00
          2   -1    0    0  501    0  0.00000000000E+00  0.00000000000E+00  0.14270619351E+03  0.14270619351E+03  0.00000000000E+00 0. -1.
         -2   -1    0    0    0  501 -0.00000000000E+00 -0.00000000000E+00 -0.13443241946E+03  0.13443241946E+03  0.00000000000E+00 0.  1.
          5    1    1    2  502    0  0.16514466814E+02  0.32498560858E+02  0.40444068026E+02  0.54608416114E+02  0.41800000000E+01 0. -1.
         -5    1    1    2    0  502  0.58408435022E+02 -0.16281067356E+02 -0.74248332902E+02  0.95952622552E+02  0.41800000000E+01 0. -1.
        -11    1    1    2    0    0 -0.29809740684E+02  0.17396944545E+02  0.58541515093E+02  0.67958688249E+02  0.00000000000E+00 0. -1.
         11    1    1    2    0    0 -0.45113161151E+02 -0.33614438048E+02 -0.16463476173E+02  0.58618886052E+02  0.00000000000E+00 0.  1.
</event>
<event>
 6    1  0.5317355E-006  0.1425319E+03  0.7561462E-02  0.1209962E+00
          1   -1    0    0  501    0  0.00000000000E+00  0.00000000000E+00  0.31797517204E+03  0.31797517204E+03  0.00000000000E+00 0. -1.
         -1   -1    0    0    0  501 -0.00000000000E+00 -0.00000000000E+00 -0.88568130952E+02  0.88568130952E+02  0.00000000000E+00 0.  1.
          5    1    1    2  502    0  0.29940923389E+02  0.27561854172E+02  0.95916443458E+02  0.10427632149E+03  0.41800000000E+01 0. -1.
         -5    1    1    2    0  502 -0.55251424904E+02  0.85023245531E+02 -0.36417467256E+01  0.10155002193E+03  0.41800000000E+01 0.  1.
        -11    1    1    2    0    0  0.17502503712E+02  0.97841099647E+01  0.38283674974E+02  0.43216966732E+02  0.00000000000E+00 0.  1.
         11    1    1    2    0    0  0.78079978034E+01 -0.12236920967E+03  0.98848669377E+02  0.15749999283E+03  0.00000000000E+00 0. -1.
</event>
<event>
 6    1  0.5465161E-006  0.2415981E+03  0.7561462E-02  0.1118733E+00
         -1   -1    0    0    0  501 -0.00000000000E+00  0.00000000000E+00  0.12976539925E+03  0.12976539925E+03  0.00000000000E+00 0.  1.
          1   -1    0    0  501    0  0.00000000000E+00 -0.00000000000E+00 -0.51243004613E+03  0.51243004613E+03  0.00000000000E+00 0. -1.
          5    1    1    2  502    0 -0.25652495329E+02 -0.16488432193E+02 -0.72332138442E+02  0.78608711758E+02  0.41800000000E+01 0.  1.
         -5    1    1    2    0  502 -0.46484150087E+01 -0.21471977466E+03 -0.98151586955E+02  0.23617238580E+03  0.41800000000E+01 0.  1.
        -11    1    1    2    0    0  0.42285983653E+02  0.16572131331E+03 -0.10333976331E+03  0.19982683699E+03  0.00000000000E+00 0.  1.
         11    1    1    2    0    0 -0.11985073315E+02  0.65486893539E+02 -0.10884115818E+03  0.12758751083E+03  0.00000000000E+00 0. -1.
</event>
<event>
 6    1  0.5317355E-006  0.1319810E+03  0.7561462E-02  0.1224546E+00
         -2   -1    0    0    0  501 -0.00000000000E+00  0.00000000000E+00  0.10758434678E+03  0.10758434678E+03  0.00000000000E+00 0.  1.
          2   -1    0    0  501    0  0.00000000000E+00 -0.00000000000E+00 -0.31942954964E+03  0.31942954964E+03  0.00000000000E+00 0. -1.
          5    1    1    2  502    0  0.89349997040E+01 -0.48979811668E+02  0.48491211645E+02  0.69625614378E+02  0.41800000000E+01 0.  1.
         -5    1    1    2    0  502  0.80342075681E+02 -0.33602053925E+02 -0.58756718651E+02  0.10513691806E+03  0.41800000000E+01 0.  1.
        -11    1    1    2    0    0 -0.36835119826E+01  0.21117757212E+02  0.34643138890E+01  0.21714727742E+02  0.00000000000E+00 0.  1.
         11    1    1    2    0    0 -0.85593563402E+02  0.61464108382E+02 -0.20504400975E+03  0.23053663624E+03  0.00000000000E+00 0. -1.
</event>
<event>
 6    1  0.5317355E-006  0.1298300E+03  0.7561462E-02  0.1227708E+00
          1   -1    0    0  501    0  0.00000000000E+00  0.00000000000E+00  0.34875611931E+02  0.34875611931E+02  0.00000000000E+00 0. -1.
         -1   -1    0    0    0  501 -0.00000000000E+00 -0.00000000000E+00 -0.66447535013E+03  0.66447535013E+03  0.00000000000E+00 0.  1.
          5    1    1    2  502    0 -0.56976760886E+02  0.47931754248E+02 -0.22037851774E+03  0.23265418077E+03  0.41800000000E+01 0. -1.
         -5    1    1    2    0  502  0.67774205710E+02  0.42328594336E+02 -0.24838408977E+03  0.26095436633E+03  0.41800000000E+01 0. -1.
        -11    1    1    2    0    0 -0.29310117656E+02 -0.76737515187E+02 -0.58443199836E+02  0.10081337630E+03  0.00000000000E+00 0. -1.
         11    1    1    2    0    0  0.18512672832E+02 -0.13522833396E+02 -0.10239393086E+03  0.10492903866E+03  0.00000000000E+00 0.  1.
</event>
<event>
 6    1  0.5317355E-006  0.9387308E+02  0.7561462E-02  0.1293735E+00
         -2   -1    0    0    0  501 -0.00000000000E+00  0.00000000000E+00  0.30858191881E+02  0.30858191881E+02  0.00000000000E+00 0.  1.
          2   -1    0    0  501    0  0.00000000000E+00 -0.00000000000E+00 -0.36935496794E+03  0.36935496794E+03  0.00000000000E+00 0. -1.
          5    1    1    2  502    0 -0.11832600543E+02  0.72312350818E+02 -0.10765336517E+03  0.13029123512E+03  0.41800000000E+01 0.  1.
         -5    1    1    2    0  502  0.49541282508E+02 -0.33831428445E+02 -0.13947653946E+03  0.15188838561E+03  0.41800000000E+01 0.  1.
        -11    1    1    2    0    0 -0.96673213259E+01 -0.13871896913E+02 -0.75706400443E+02  0.77571552090E+02  0.00000000000E+00 0. -1.
         11    1    1    2    0    0 -0.28041360640E+02 -0.24609025460E+02 -0.15660470986E+02  0.40461987002E+02  0.00000000000E+00 0.  1.
</event>
<event>
 6    1  0.5317355E-006  0.3115269E+03  0.7561462E-02  0.1079616E+00
         -2   -1    0    0    0  501 -0.00000000000E+00  0.00000000000E+00  0.75808397702E+02  0.75808397702E+02  0.00000000000E+00 0.  1.
          2   -1    0    0  501    0  0.00000000000E+00 -0.00000000000E+00 -0.13518211092E+04  0.13518211092E+04  0.00000000000E+00 0. -1.
          5    1    1    2  502    0 -0.13976477436E+03  0.23128919472E+03 -0.57636957512E+03  0.63659111152E+03  0.41800000000E+01 0. -1.
         -5    1    1    2    0  502  0.18389040567E+03 -0.18368375347E+03 -0.47823339504E+03  0.54431613527E+03  0.41800000000E+01 0.  1.
        -11    1    1    2    0    0 -0.35949316643E+02  0.78363943076E+01 -0.15741462865E+03  0.16165743953E+03  0.00000000000E+00 0. -1.
         11    1    1    2    0    0 -0.81763146602E+01 -0.55441835552E+02 -0.63995112662E+02  0.85064820551E+02  0.00000000000E+00 0.  1.
</event>
<event>
 6    1  0.5317355E-006  0.1146957E+03  0.7561462E-02  0.1252113E+00
          1   -1    0    0  501    0  0.00000000000E+00  0.00000000000E+00  0.55479843479E+02  0.55479843479E+02  0.00000000000E+00 0. -1.
         -1   -1    0    0    0  501 -0.00000000000E+00 -0.00000000000E+00 -0.32636126314E+03  0.32636126314E+03  0.00000000000E+00 0.  1.
          5    1    1    2  502    0  0.73824460399E+02  0.40533558983E+02 -0.10314376608E+03  0.13322585799E+03  0.41800000000E+01 0.  1.
         -5    1    1    2    0  502 -0.43547412273E+02  0.42496665312E+01 -0.12920236784E+03  0.13647403063E+03  0.41800000000E+01 0.  1.
        -11    1    1    2    0    0  0.28396723576E+01  0.24320050333E+02 -0.23725456149E+02  0.34094366936E+02  0.00000000000E+00 0. -1.
         11    1    1    2    0    0 -0.33116720483E+02 -0.69103275847E+02 -0.14809829599E+02  0.78046851065E+02  0.00000000000E+00 0.  1.
</event>
<event>
 6    1  0.5317355E-006  0.1230558E+03  0.7561462E-02  0.1238139E+00
         -2   -1    0    0    0  501 -0.00000000000E+00  0.00000000000E+00  0.94846778286E+02  0.94846778286E+02  0.00000000000E+00 0.  1.
          2   -1    0    0  501    0  0.00000000000E+00 -0.00000000000E+00 -0.18517819197E+03  0.18517819197E+03  0.00000000000E+00 0. -1.
          5    1    1    2  502    0  0.12762966306E+01  0.62409041082E+02 -0.56000035932E+02  0.83964240998E+02  0.41800000000E+01 0. -1.
         -5    1    1    2    0  502  0.69374561027E+02 -0.32003185239E+02 -0.10478069648E+02  0.77228854236E+02  0.41800000000E+01 0. -1.
        -11    1    1    2    0    0  0.13867129098E+02  0.58732638843E+01  0.12856634313E+02  0.19801150066E+02  0.00000000000E+00 0.  1.
         11    1    1    2    0    0 -0.84517986756E+02 -0.36279119728E+02 -0.36709942419E+02  0.99030724959E+02  0.00000000000E+00 0. -1.
</event>
<event>
 6    1  0.5317355E-006  0.1155506E+03  0.7561462E-02  0.1250623E+00
          3   -1    0    0  501    0  0.00000000000E+00  0.00000000000E+00  0.25729118853E+02  0.25729118853E+02  0.00000000000E+00 0. -1.
         -3   -1    0    0    0  501 -0.00000000000E+00 -0.00000000000E+00 -0.81359733655E+03  0.81359733655E+03  0.00000000000E+00 0.  1.
          5    1    1    2  502    0  0.17675975087E+02 -0.55833831316E+01 -0.23574407941E+03  0.23650868406E+03  0.41800000000E+01 0. -1.
         -5    1    1    2    0  502 -0.10027449767E+03  0.47629610427E+02 -0.24991870981E+03  0.27349659703E+03  0.41800000000E+01 0. -1.
        -11    1    1    2    0    0  0.43707710786E+02 -0.44065379979E+02 -0.27474933896E+03  0.28167236455E+03  0.00000000000E+00 0.  1.
         11    1    1    2    0    0  0.38890811797E+02  0.20191526837E+01 -0.27456089524E+02  0.47648809762E+02  0.00000000000E+00 0. -1.
</event>
<event>
 6    1  0.5317355E-006  0.1130911E+03  0.7561462E-02  0.1254950E+00
          1   -1    0    0  501    0  0.00000000000E+00  0.00000000000E+00  0.10876265232E+04  0.10876265232E+04  0.00000000000E+00 0. -1.
         -1   -1    0    0    0  501 -0.00000000000E+00 -0.00000000000E+00 -0.15483477855E+02  0.15483477855E+02  0.00000000000E+00 0.  1.
          5    1    1    2  502    0  0.81989738046E+02 -0.35303644523E+02  0.43398450469E+03  0.44308993125E+03  0.41800000000E+01 0. -1.
         -5    1    1    2    0  502 -0.24174355071E+02  0.44649254408E+01  0.20551752553E+02  0.32313804098E+02  0.41800000000E+01 0.  1.
        -11    1    1    2    0    0 -0.46224277261E+02  0.62745644813E+02  0.44951719506E+03  0.45622298101E+03  0.00000000000E+00 0.  1.
         11    1    1    2    0    0 -0.11591105715E+02 -0.31906925730E+02  0.16808959306E+03  0.17148328472E+03  0.00000000000E+00 0. -1.
</event>
<event>
 6    1  0.5317355E-006  0.9583053E+02  0.7561462E-02  0.1289316E+00
          2   -1    0    0  501    0  0.00000000000E+00  0.00000000000E+00  0.39285850718E+03  0.39285850718E+03  0.00000000000E+00 0. -1.
         -2   -1    0    0    0  501 -0.00000000000E+00 -0.00000000000E+00 -0.34204148285E+02  0.34204148285E+02  0.00000000000E+00 0.  1.
          5    1    1    2  502    0 -0.63021897586E+02 -0.37804123473E+00  0.88766944062E+02  0.10894468894E+03  0.41800000000E+01 0. -1.
         -5    1    1    2    0  502  0.57434691879E+02  0.29998214256E+02  0.71358813894E+02  0.96478958380E+02  0.41800000000E+01 0. -1.
        -11    1    1    2    0    0 -0.76611959896E+01 -0.43623258740E+02  0.19742299582E+03  0.20233022983E+03  0.00000000000E+00 0. -1.
         11    1    1    2    0    0  0.13248401696E+02  0.14003085718E+02  0.11056051222E+01  0.19308778310E+02  0.00000000000E+00 0.  1.
</event>
<event>
 6    1  0.5317355E-006  0.1359261E+03  0.7561462E-02  0.1218918E+00
          2   -1    0    0  501    0  0.00000000000E+00  0.00000000000E+00  0.37461767314E+03  0.37461767314E+03  0.00000000000E+00 0. -1.
         -2   -1    0    0    0  501 -0.00000000000E+00 -0.00000000000E+00 -0.66958242909E+02  0.66958242909E+02  0.00000000000E+00 0.  1.
          5    1    1    2  502    0  0.76292477497E+02 -0.23403626751E+02  0.48554210158E+02  0.93505377342E+02  0.41800000000E+01 0. -1.
         -5    1    1    2    0  502  0.52050056355E+01  0.78160836358E+02  0.31562420229E+02  0.84556887328E+02  0.41800000000E+01 0. -1.
        -11    1    1    2    0    0 -0.19782358924E+02  0.11554018406E+02  0.52945222618E+01  0.23513167202E+02  0.00000000000E+00 0.  1.
         11    1    1    2    0    0 -0.61715124209E+02 -0.66311228013E+02  0.22224827758E+03  0.24000048418E+03  0.00000000000E+00 0. -1.
</event>
<event>
 6    1  0.5317355E-006  0.1957563E+03  0.7561462E-02  0.1153370E+00
         -1   -1    0    0    0  501 -0.00000000000E+00  0.00000000000E+00  0.65089633371E+02  0.65089633371E+02  0.00000000000E+00 0.  1.
          1   -1    0    0  501    0  0.00000000000E+00 -0.00000000000E+00 -0.64375959937E+03  0.64375959937E+03  0.00000000000E+00 0. -1.
          5    1    1    2  502    0 -0.16043196048E+03 -0.77483530000E+02 -0.29979821660E+03  0.34876719232E+03  0.41800000000E+01 0.  1.
         -5    1    1    2    0  502 -0.31327012166E+01  0.19673736881E+02 -0.10831920192E+01  0.20384195955E+02  0.41800000000E+01 0.  1.
        -11    1    1    2    0    0  0.80171378819E+02  0.72708825944E+02 -0.12810488024E+03  0.16770475156E+03  0.00000000000E+00 0. -1.
         11    1    1    2    0    0  0.83393282873E+02 -0.14899032826E+02 -0.14968367713E+03  0.17199309291E+03  0.00000000000E+00 0.  1.
</event>
<event>
 6    1  0.5317355E-006  0.1485694E+03  0.7561462E-02  0.1202242E+00
          1   -1    0    0  501    0  0.00000000000E+00  0.00000000000E+00  0.82339019966E+02  0.82339019966E+02  0.00000000000E+00 0. -1.
         -1   -1    0    0    0  501 -0.00000000000E+00 -0.00000000000E+00 -0.40691283426E+03  0.40691283426E+03  0.00000000000E+00 0.  1.
          5    1    1    2  502    0 -0.48156359414E+02 -0.61788480764E+02 -0.21482394140E+03  0.22869991147E+03  0.41800000000E+01 0.  1.
         -5    1    1    2    0  502 -0.74040489145E+02  0.76712670293E+01 -0.38694176157E+02  0.83997345429E+02  0.41800000000E+01 0.  1.
        -11    1    1    2    0    0  0.69385254606E+02  0.12320599367E+01 -0.74400130194E+02  0.10174090083E+03  0.00000000000E+00 0.  1.
         11    1    1    2    0    0  0.52811593953E+02  0.52885153798E+02  0.33444334614E+01  0.74813696495E+02  0.00000000000E+00 0. -1.
</event>
<event>
 6    1  0.5317355E-006  0.8631659E+02  0.7561462E-02  0.1312025E+00
          2   -1    0    0  501    0  0.00000000000E+00  0.00000000000E+00  0.13585489003E+03  0.13585489003E+03  0.00000000000E+00 0. -1.
         -2   -1    0    0    0  501 -0.00000000000E+00 -0.00000000000E+00 -0.10022639715E+03  0.10022639715E+03  0.00000000000E+00 0.  1.
          5    1    1    2  502    0 -0.44910273720E+02 -0.85315228643E+00  0.28664993455E+02  0.53449179641E+02  0.41800000000E+01 0.  1.
         -5    1    1    2    0  502  0.53816270142E+02  0.23772186904E+01 -0.50309465749E+02  0.73826532119E+02  0.41800000000E+01 0.  1.
        -11    1    1    2    0    0 -0.13188783785E+02  0.34643870435E+02  0.61840299587E+02  0.72099683976E+02  0.00000000000E+00 0. -1.
         11    1    1    2    0    0  0.42827873634E+01 -0.36167936839E+02 -0.45673344154E+01  0.36705891440E+02  0.00000000000E+00 0.  1.
</event>
<event>
 6    1  0.5317355E-006  0.9952185E+02  0.7561462E-02  0.1281305E+00
         -4   -1    0    0    0  501 -0.00000000000E+00  0.00000000000E+00  0.17435750808E+02  0.17435750808E+02  0.00000000000E+00 0.  1.
          4   -1    0    0  501    0  0.00000000000E+00 -0.00000000000E+00 -0.94430941706E+03  0.94430941706E+03  0.00000000000E+00 0. -1.
          5    1    1    2  502    0  0.23988064846E+02  0.56920781538E+02 -0.48601497010E+03  0.48994226821E+03  0.41800000000E+01 0.  1.
         -5    1    1    2    0  502 -0.28883793325E+02  0.10977488208E+02 -0.23313202001E+02  0.38932718268E+02  0.41800000000E+01 0.  1.
        -11    1    1    2    0    0  0.18057915945E+02 -0.83563157284E+02 -0.38537871319E+03  0.39474756765E+03  0.00000000000E+00 0.  1.
         11    1    1    2    0    0 -0.13162187466E+02  0.15664887538E+02 -0.32166780961E+02  0.38122613734E+02  0.00000000000E+00 0. -1.
</event>
<event>
 6    1  0.5317355E-006  0.1889981E+03  0.7561462E-02  0.1159368E+00
          1   -1    0    0  501    0  0.00000000000E+00  0.00000000000E+00  0.46795884228E+03  0.46795884228E+03  0.00000000000E+00 0. -1.
         -1   -1    0    0    0  501 -0.00000000000E+00 -0.00000000000E+00 -0.10731846211E+03  0.10731846211E+03  0.00000000000E+00 0.  1.
          5    1    1    2  502    0 -0.21662812735E+02 -0.10320107630E+03  0.32475430509E+02  0.11041678130E+03  0.41800000000E+01 0. -1.
         -5    1    1    2    0  502  0.62497014154E+01  0.18688550451E+03  0.11966830550E+03  0.22204329826E+03  0.41800000000E+01 0.  1.
        -11    1    1    2    0    0  0.58527985810E+01 -0.52077593527E+02  0.20260732153E+03  0.20927507672E+03  0.00000000000E+00 0. -1.
         11    1    1    2    0    0  0.95603127390E+01 -0.31606834683E+02  0.58893226308E+01  0.33542148104E+02  0.00000000000E+00 0.  1.
</event>
<event>
 6    1  0.5317355E-006  0.1712633E+03  0.7561462E-02  0.1176537E+00
          2   -1    0    0  501    0  0.00000000000E+00  0.00000000000E+00  0.56234540740E+03  0.56234540740E+03  0.00000000000E+00 0. -1.
         -2   -1    0    0    0  501 -0.00000000000E+00 -0.00000000000E+00 -0.60275327145E+02  0.60275327145E+02  0.00000000000E+00 0.  1.
          5    1    1    2  502    0 -0.15831008302E+02 -0.13674414675E+03  0.10252841912E+03  0.17169487942E+03  0.41800000000E+01 0.  1.
         -5    1    1    2    0  502 -0.38690515756E+02  0.44467888435E+01  0.93358819345E+02  0.10124263672E+03  0.41800000000E+01 0.  1.
        -11    1    1    2    0    0  0.68890226728E+02  0.58273293158E+02  0.13214904307E+03  0.16001565429E+03  0.00000000000E+00 0.  1.
         11    1    1    2    0    0 -0.14368702671E+02  0.74024064745E+02  0.17403379872E+03  0.18966756411E+03  0.00000000000E+00 0. -1.
</event>
<event>
 6    1  0.5317355E-006  0.1765832E+03  0.7561462E-02  0.1171151E+00
          2   -1    0    0  501    0  0.00000000000E+00  0.00000000000E+00  0.12375660152E+04  0.12375660152E+04  0.00000000000E+00 0. -1.
         -2   -1    0    0    0  501 -0.00000000000E+00 -0.00000000000E+00 -0.27837470647E+02  0.27837470647E+02  0.00000000000E+00 0.  1.
          5    1    1    2  502    0  0.14644830051E+03 -0.73997379092E+02  0.42775437977E+03  0.45816372472E+03  0.41800000000E+01 0. -1.
         -5    1    1    2    0  502 -0.20244416871E+02  0.10192344675E+02  0.37921020139E+02  0.44375629266E+02  0.41800000000E+01 0.  1.
        -11    1    1    2    0    0 -0.91553602196E+02 -0.20422537156E+01  0.34584675906E+03  0.35776558475E+03  0.00000000000E+00 0.  1.
         11    1    1    2    0    0 -0.34650281439E+02  0.65847288133E+02  0.39820638562E+03  0.40509854716E+03  0.00000000000E+00 0. -1.
</event>
<event>
 6    1  0.5317355E-006  0.1027132E+03  0.7561462E-02  0.1274692E+00
          1   -1    0    0  501    0  0.00000000000E+00  0.00000000000E+00  0.41545621376E+02  0.41545621376E+02  0.00000000000E+00 0. -1.
         -1   -1    0    0    0  501 -0.00000000000E+00 -0.00000000000E+00 -0.33615500909E+03  0.33615500909E+03  0.00000000000E+00 0.  1.
          5    1    1    2  502    0 -0.46710392826E+02 -0.66042017314E+01 -0.61457612352E+02  0.77588573866E+02  0.41800000000E+01 0.  1.
         -5    1    1    2    0  502  0.82660854753E+02  0.31858586826E+01 -0.10946454316E+03  0.13726953490E+03  0.41800000000E+01 0.  1.
        -11    1    1    2    0    0 -0.15992642662E+02  0.34657020316E+02 -0.11960608427E+03  0.12554875177E+03  0.00000000000E+00 0.  1.
         11    1    1    2    0    0 -0.19957819264E+02 -0.31238677267E+02 -0.40811479398E+01  0.37293769932E+02  0.00000000000E+00 0. -1.
</event>
<event>
 6    1  0.5317355E-006  0.1576280E+03  0.7561462E-02  0.1191401E+00
         -2   -1    0    0    0  501 -0.00000000000E+00  0.00000000000E+00  0.52269761609E+02  0.52269761609E+02  0.00000000000E+00 0.  1.
          2   -1    0    0  501    0  0.00000000000E+00 -0.00000000000E+00 -0.80820851550E+03  0.80820851550E+03  0.00000000000E+00 0. -1.
          5    1    1    2  502    0  0.13273515325E+03  0.72063312247E+02 -0.16502406085E+03  0.22374573726E+03  0.41800000000E+01 0. -1.
         -5    1    1    2    0  502 -0.41298887774E+01 -0.25832095840E+02 -0.35348861583E+01  0.26726783887E+02  0.41800000000E+01 0. -1.
        -11    1    1    2    0    0 -0.14404812489E+02  0.16390273228E+00 -0.58380423814E+01  0.15543751986E+02  0.00000000000E+00 0.  1.
         11    1    1    2    0    0 -0.11420045199E+03 -0.46395119139E+02 -0.58154176451E+03  0.59446200398E+03  0.00000000000E+00 0. -1.
</event>
<event>
 6    1  0.5317355E-006  0.9753277E+02  0.7561462E-02  0.1285571E+00
          1   -1    0    0  501    0  0.00000000000E+00  0.00000000000E+00  0.15948524896E+02  0.15948524896E+02  0.00000000000E+00 0. -1.
         -1   -1    0    0    0  501 -0.00000000000E+00 -0.00000000000E+00 -0.80493550106E+03  0.80493550106E+03  0.00000000000E+00 0.  1.
          5    1    1    2  502    0 -0.43904366952E+02 -0.47204799179E+01 -0.34014949126E+03  0.34302918997E+03  0.41800000000E+01 0.  1.
         -5    1    1    2    0  502  0.70330577192E+02 -0.19742429554E+01 -0.19901281051E+03  0.21112522083E+03  0.41800000000E+01 0.  1.
        -11    1    1    2    0    0  0.26430217527E+02 -0.26116372457E+01 -0.15923951431E+03  0.16143915251E+03  0.00000000000E+00 0.  1.
         11    1    1    2    0    0 -0.52856427767E+02  0.93063601191E+01 -0.90585160089E+02  0.10529046264E+03  0.00000000000E+00 0. -1.
</event>
<event>
 6    1  0.5317355E-006  0.1484260E+03  0.7561462E-02  0.1202421E+00
          4   -1    0    0  501    0  0.00000000000E+00  0.00000000000E+00  0.43749594919E+02  0.43749594919E+02  0.00000000000E+00 0.  1.
         -4   -1    0    0    0  501 -0.00000000000E+00 -0.00000000000E+00 -0.69137117701E+03  0.69137117701E+03  0.00000000000E+00 0. -1.
          5    1    1    2  502    0  0.30410348833E+02  0.34690701854E+02 -0.10203262109E+03  0.11205517515E+03  0.41800000000E+01 0. -1.
         -5    1    1    2    0  502  0.54178251566E+02 -0.10168869942E+03 -0.41588574997E+03  0.43157189895E+03  0.41800000000E+01 0. -1.
        -11    1    1    2    0    0 -0.27466588998E+01  0.51946440007E+02 -0.77233922523E+02  0.93118502742E+02  0.00000000000E+00 0.  1.
         11    1    1    2    0    0 -0.81841941499E+02  0.15051557561E+02 -0.52469288515E+02  0.98375195098E+02  0.00000000000E+00 0. -1.
</event>
<event>
 6    1  0.5317355E-006  0.1074438E+03  0.7561462E-02  0.1265378E+00
          1   -1    0    0  501    0  0.00000000000E+00  0.00000000000E+00  0.77045240541E+03  0.77045240541E+03  0.00000000000E+00 0. -1.
         -1   -1    0    0    0  501 -0.00000000000E+00 -0.00000000000E+00 -0.19349870650E+02  0.19349870650E+02  0.00000000000E+00 0.  1.
          5    1    1    2  502    0  0.71007781238E+02  0.35100545525E+01  0.35074032441E+03  0.35789757340E+03  0.41800000000E+01 0.  1.
         -5    1    1    2    0  502 -0.22107218295E+02 -0.30626449431E+02  0.35799677534E+02  0.52209173687E+02  0.41800000000E+01 0.  1.
        -11    1    1    2    0    0 -0.70683834279E+02  0.39129462040E+02  0.29289033732E+03  0.30382901264E+03  0.00000000000E+00 0.  1.
         11    1    1    2    0    0  0.21783271337E+02 -0.12013067161E+02  0.71672195500E+02  0.75866516333E+02  0.00000000000E+00 0. -1.
</event>
<event>
 6    1  0.5317355E-006  0.1100007E+03  0.7561462E-02  0.1260569E+00
          4   -1    0    0  501    0  0.00000000000E+00  0.00000000000E+00  0.52066577764E+02  0.52066577764E+02  0.00000000000E+00 0. -1.
         -4   -1    0    0    0  501 -0.00000000000E+00 -0.00000000000E+00 -0.23477564693E+03  0.23477564693E+03  0.00000000000E+00 0.  1.
          5    1    1    2  502    0 -0.55280078623E+02  0.13014188769E+02 -0.47344470129E+02  0.74055570038E+02  0.41800000000E+01 0. -1.
         -5    1    1    2    0  502  0.69708760103E+02  0.37207926742E+01 -0.67282510030E+02  0.97044134749E+02  0.41800000000E+01 0. -1.
        -11    1    1    2    0    0  0.35641580439E+02 -0.23362972560E+02 -0.37004516364E+02  0.56440100765E+02  0.00000000000E+00 0.  1.
         11    1    1    2    0    0 -0.50070261919E+02  0.66279911163E+01 -0.31077572647E+02  0.59302419145E+02  0.00000000000E+00 0. -1.
</event>
<event>
 6    1  0.5317355E-006  0.1340255E+03  0.7561462E-02  0.1221602E+00
         -1   -1    0    0    0  501 -0.00000000000E+00  0.00000000000E+00  0.84076997462E+02  0.84076997462E+02  0.00000000000E+00 0.  1.
          1   -1    0    0  501    0  0.00000000000E+00 -0.00000000000E+00 -0.35813819972E+03  0.35813819972E+03  0.00000000000E+00 0. -1.
          5    1    1    2  502    0 -0.44015166453E+02 -0.99628503599E+01 -0.19751509445E+02  0.49438727639E+02  0.41800000000E+01 0. -1.
         -5    1    1    2    0  502  0.65001558719E+02 -0.75204378908E+02  0.94002289658E+01  0.99933667738E+02  0.41800000000E+01 0.  1.
        -11    1    1    2    0    0  0.52931535950E+01 -0.16969159347E+02 -0.70685200540E+02  0.72885989184E+02  0.00000000000E+00 0.  1.
         11    1    1    2    0    0 -0.26279545861E+02  0.10213638862E+03 -0.19302472124E+03  0.21995681263E+03  0.00000000000E+00 0. -1.
</event>
<event>
 6    1  0.5317355E-006  0.1159781E+03  0.7561462E-02  0.1249883E+00
         -2   -1    0    0    0  501 -0.00000000000E+00  0.00000000000E+00  0.90401773867E+03  0.90401773867E+03  0.00000000000E+00 0.  1.
          2   -1    0    0  501    0  0.00000000000E+00 -0.00000000000E+00 -0.34306874641E+02  0.34306874641E+02  0.00000000000E+00 0. -1.
          5    1    1    2  502    0 -0.14167558075E+02  0.40772750874E+02  0.43247746140E+03  0.43464625149E+03  0.41800000000E+01 0. -1.
         -5    1    1    2    0  502  0.76900362807E+02 -0.39404199760E+02  0.37318219902E+03  0.38307803751E+03  0.41800000000E+01 0. -1.
        -11    1    1    2    0    0 -0.23711279480E+02 -0.40428660124E+02  0.26696424072E+02  0.53938857907E+02  0.00000000000E+00 0.  1.
         11    1    1    2    0    0 -0.39021525251E+02  0.39060109011E+02  0.37354779543E+02  0.66661466407E+02  0.00000000000E+00 0. -1.
</event>
<event>
 6    1  0.5317355E-006  0.1070188E+03  0.7561462E-02  0.1266192E+00
          1   -1    0    0  501    0  0.00000000000E+00  0.00000000000E+00  0.30726664439E+02  0.30726664439E+02  0.00000000000E+00 0. -1.
         -1   -1    0    0    0  501 -0.00000000000E+00 -0.00000000000E+00 -0.50570687489E+03  0.50570687489E+03  0.00000000000E+00 0.  1.
          5    1    1    2  502    0 -0.86408765548E+01  0.59258751739E+02 -0.14593356858E+03  0.15779842599E+03  0.41800000000E+01 0. -1.
         -5    1    1    2    0  502 -0.24571644408E+02 -0.63112667933E+02 -0.23055379237E+03  0.24033205807E+03  0.41800000000E+01 0. -1.
        -11    1    1    2    0    0 -0.23410940200E+02  0.15847814855E+02 -0.55483213330E+01  0.28809880707E+02  0.00000000000E+00 0.  1.
         11    1    1    2    0    0  0.56623461163E+02 -0.11993898661E+02 -0.92944528178E+02  0.10949317457E+03  0.00000000000E+00 0. -1.
</event>
<event>
 6    1  0.5317355E-006  0.9416432E+02  0.7561462E-02  0.1293069E+00
         -1   -1    0    0    0  501 -0.00000000000E+00  0.00000000000E+00  0.52988732248E+02  0.52988732248E+02  0.00000000000E+00 0.  1.
          1   -1    0    0  501    0  0.00000000000E+00 -0.00000000000E+00 -0.25089739688E+03  0.25089739688E+03  0.00000000000E+00 0. -1.
          5    1    1    2  502    0 -0.84231341129E+02  0.86219585529E+01 -0.81618097021E+02  0.11767855862E+03  0.41800000000E+01 0. -1.
         -5    1    1    2    0  502  0.44997566528E+02 -0.10531273150E+00 -0.25911697942E+02  0.52092999285E+02  0.41800000000E+01 0. -1.
        -11    1    1    2    0    0  0.47100331138E+02 -0.46019114174E+00 -0.10533896455E+03  0.11539042604E+03  0.00000000000E+00 0. -1.
         11    1    1    2    0    0 -0.78665565376E+01 -0.80564546797E+01  0.14960094884E+02  0.18724145179E+02  0.00000000000E+00 0.  1.
</event>
<event>
 6    1  0.5317355E-006  0.2151518E+03  0.7561462E-02  0.1137550E+00
          4   -1    0    0  501    0  0.00000000000E+00  0.00000000000E+00  0.19677150768E+03  0.19677150768E+03  0.00000000000E+00 0. -1.
         -4   -1    0    0    0  501 -0.00000000000E+00 -0.00000000000E+00 -0.27231641596E+03  0.27231641596E+03  0.00000000000E+00 0.  1.
          5    1    1    2  502    0  0.15164014101E+03 -0.13880103519E+03 -0.78725295696E+02  0.22017176095E+03  0.41800000000E+01 0.  1.
         -5    1    1    2    0  502 -0.16798922574E+02 -0.12761054058E+02  0.15373722882E+02  0.26436188370E+02  0.41800000000E+01 0.  1.
        -11    1    1    2    0    0 -0.10546230928E+03  0.11117591330E+03 -0.48504823639E+02  0.16073300934E+03  0.00000000000E+00 0.  1.
         11    1    1    2    0    0 -0.29378909159E+02  0.40386175944E+02  0.36311488170E+02  0.61746964977E+02  0.00000000000E+00 0. -1.
</event>
<event>
 6    1  0.5317355E-006  0.1065164E+03  0.7561462E-02  0.1267160E+00
          2   -1    0    0  501    0  0.00000000000E+00  0.00000000000E+00  0.14251190519E+03  0.14251190519E+03  0.00000000000E+00 0. -1.
         -2   -1    0    0    0  501 -0.00000000000E+00 -0.00000000000E+00 -0.98007479883E+02  0.98007479883E+02  0.00000000000E+00 0.  1.
          5    1    1    2  502    0  0.76986052276E+01  0.42659564060E+02 -0.16508914362E+02  0.46573850835E+02  0.41800000000E+01 0.  1.
         -5    1    1    2    0  502 -0.42856064497E+00 -0.84462554426E+02  0.13019177031E+02  0.85563298996E+02  0.41800000000E+01 0.  1.
        -11    1    1    2    0    0 -0.96807512726E+01  0.62920745209E+02  0.94398730741E+01  0.64357193277E+02  0.00000000000E+00 0.  1.
         11    1    1    2    0    0  0.24107066900E+01 -0.21117754842E+02  0.38554289564E+02  0.44025041966E+02  0.00000000000E+00 0. -1.
</event>
<event>
 6    1  0.5317355E-006  0.8045462E+02  0.7561462E-02  0.1327766E+00
          1   -1    0    0  501    0  0.00000000000E+00  0.00000000000E+00  0.42264562510E+02  0.42264562510E+02  0.00000000000E+00 0. -1.
         -1   -1    0    0    0  501 -0.00000000000E+00 -0.00000000000E+00 -0.35353776021E+03  0.35353776021E+03  0.00000000000E+00 0.  1.
          5    1    1    2  502    0 -0.36383345966E+01 -0.16525812244E+02  0.92121432849E+01  0.19714865784E+02  0.41800000000E+01 0.  1.
         -5    1    1    2    0  502 -0.26149729688E+02  0.36497458356E+02 -0.24954951591E+03  0.25359082420E+03  0.41800000000E+01 0.  1.
        -11    1    1    2    0    0 -0.23935563479E+02  0.20187379857E+02 -0.13142698890E+02  0.33958386867E+02  0.00000000000E+00 0. -1.
         11    1    1    2    0    0  0.53723627763E+02 -0.40159025969E+02 -0.57793126187E+02  0.88538245868E+02  0.00000000000E+00 0.  1.
</event>
<event>
 6    1  0.6124876E-006  0.1354119E+03  0.7561462E-02  0.1219639E+00
         -2   -1    0    0    0  501 -0.00000000000E+00  0.00000000000E+00  0.22595800809E+02  0.22595800809E+02  0.00000000000E+00 0. -1.
          2   -1    0    0  501    0  0.00000000000E+00 -0.00000000000E+00 -0.10244756095E+04  0.10244756095E+04  0.00000000000E+00 0.  1.
          5    1    1    2  502    0  0.34395594623E+02 -0.54266716100E+02 -0.90709346897E+02  0.11123664603E+03  0.41800000000E+01 0. -1.
         -5    1    1    2    0  502 -0.66581859938E+02 -0.40215563389E+02 -0.32519861230E+03  0.33439803446E+03  0.41800000000E+01 0. -1.
        -11    1    1    2    0    0  0.54435279585E+02  0.34205173771E+02 -0.19787104245E+03  0.20805322159E+03  0.00000000000E+00 0.  1.
         11    1    1    2    0    0 -0.22249014270E+02  0.60277105717E+02 -0.38810080703E+03  0.39338350821E+03  0.00000000000E+00 0. -1.
</event>
<event>
 6    1  0.5317355E-006  0.9882571E+02  0.7561462E-02  0.1282785E+00
         -1   -1    0    0    0  501 -0.00000000000E+00  0.00000000000E+00  0.10821060843E+03  0.10821060843E+03  0.00000000000E+00 0.  1.
          1   -1    0    0  501    0  0.00000000000E+00 -0.00000000000E+00 -0.11667722479E+03  0.11667722479E+03  0.00000000000E+00 0. -1.
          5    1    1    2  502    0 -0.49697348408E+02 -0.32526061737E+00  0.13829823204E+02  0.51755856124E+02  0.41800000000E+01 0.  1.
         -5    1    1    2    0  502  0.75256109590E+02  0.23772076588E+02  0.24547717007E+01  0.79070171114E+02  0.41800000000E+01 0.  1.
        -11    1    1    2    0    0 -0.14743332913E+02  0.19506541427E+02 -0.40283329840E+02  0.47123430338E+02  0.00000000000E+00 0. -1.
         11    1    1    2    0    0 -0.10815428269E+02 -0.42953357398E+02  0.15532118574E+02  0.46938375641E+02  0.00000000000E+00 0.  1.
</event>
<event>
 6    1  0.5317355E-006  0.2051392E+03  0.7561462E-02  0.1145474E+00
         -1   -1    0    0    0  501 -0.00000000000E+00  0.00000000000E+00  0.20353687769E+03  0.20353687769E+03  0.00000000000E+00 0.  1.
          1   -1    0    0  501    0  0.00000000000E+00 -0.00000000000E+00 -0.27357423601E+03  0.27357423601E+03  0.00000000000E+00 0. -1.
          5    1    1    2  502    0 -0.51753113525E+02  0.84976952949E+02  0.33810032113E+02  0.10516681018E+03  0.41800000000E+01 0.  1.
         -5    1    1    2    0  502 -0.12275358001E+03 -0.19802690770E+02  0.26959471960E+02  0.12729836407E+03  0.41800000000E+01 0.  1.
        -11    1    1    2    0    0  0.57554185545E+02 -0.20917165796E+02  0.32475165978E+01  0.61323392459E+02  0.00000000000E+00 0.  1.
         11    1    1    2    0    0  0.11695250799E+03 -0.44257096383E+02 -0.13405437899E+03  0.18332254699E+03  0.00000000000E+00 0. -1.
</event>
<event>
 6    1  0.5317355E-006  0.2366244E+03  0.7561462E-02  0.1122062E+00
         -1   -1    0    0    0  501 -0.00000000000E+00  0.00000000000E+00  0.75773682254E+02  0.75773682254E+02  0.00000000000E+00 0.  1.
          1   -1    0    0  501    0  0.00000000000E+00 -0.00000000000E+00 -0.14977780680E+04  0.14977780680E+04  0.00000000000E+00 0. -1.
          5    1    1    2  502    0 -0.24463367101E+02  0.21143332646E+02  0.96483727467E+01  0.34000887370E+02  0.41800000000E+01 0. -1.
         -5    1    1    2    0  502  0.22905854594E+02  0.20020360833E+03 -0.19686402280E+03  0.28174293040E+03  0.41800000000E+01 0. -1.
        -11    1    1    2    0    0  0.43682141909E+02 -0.74896740369E+02 -0.41161915343E+03  0.42065184977E+03  0.00000000000E+00 0.  1.
         11    1    1    2    0    0 -0.42124629402E+02 -0.14645020060E+03 -0.82316958224E+03  0.83715608269E+03  0.00000000000E+00 0. -1.
</event>
<event>
 6    1  0.5317355E-006  0.1266426E+03  0.7561462E-02  0.1232524E+00
         -1   -1    0    0    0  501 -0.00000000000E+00  0.00000000000E+00  0.39300892402E+02  0.39300892402E+02  0.00000000000E+00 0.  1.
          1   -1    0    0  501    0  0.00000000000E+00 -0.00000000000E+00 -0.50320780979E+03  0.50320780979E+03  0.00000000000E+00 0. -1.
          5    1    1    2  502    0 -0.72034539100E+01  0.34647878109E+02 -0.88420946107E+02  0.95331533693E+02  0.41800000000E+01 0. -1.
         -5    1    1    2    0  502 -0.47700730012E+02 -0.66484331036E+02 -0.54791054985E+02  0.98564993904E+02  0.41800000000E+01 0.  1.
        -11    1    1    2    0    0  0.30421973606E+02  0.77857331317E+02 -0.21722755664E+03  0.23275539066E+03  0.00000000000E+00 0. -1.
         11    1    1    2    0    0  0.24482210316E+02 -0.46020878390E+02 -0.10346735966E+03  0.11585678394E+03  0.00000000000E+00 0.  1.
</event>
<event>
 6    1  0.5317355E-006  0.1150439E+03  0.7561462E-02  0.1251505E+00
          1   -1    0    0  501    0  0.00000000000E+00  0.00000000000E+00  0.20112064070E+03  0.20112064070E+03  0.00000000000E+00 0. -1.
         -1   -1    0    0    0  501 -0.00000000000E+00 -0.00000000000E+00 -0.11127282737E+03  0.11127282737E+03  0.00000000000E+00 0.  1.
          5    1    1    2  502    0 -0.32424619293E+02  0.28609061659E+02 -0.49919332211E+02  0.66175875315E+02  0.41800000000E+01 0.  1.
         -5    1    1    2    0  502 -0.17016930804E+02  0.62595240633E+02  0.73359029618E+02  0.98014079144E+02  0.41800000000E+01 0.  1.
        -11    1    1    2    0    0  0.26380314127E+02  0.11968847622E+01 -0.77268544723E+01  0.27514683110E+02  0.00000000000E+00 0.  1.
         11    1    1    2    0    0  0.23061235970E+02 -0.92401187054E+02  0.74134970396E+02  0.12068883051E+03  0.00000000000E+00 0. -1.
</event>
<event>
 6    1  0.5317355E-006  0.1097362E+03  0.7561462E-02  0.1261059E+00
          4   -1    0    0  501    0  0.00000000000E+00  0.00000000000E+00  0.40716474036E+02  0.40716474036E+02  0.00000000000E+00 0. -1.
         -4   -1    0    0    0  501 -0.00000000000E+00 -0.00000000000E+00 -0.68535852073E+03  0.68535852073E+03  0.00000000000E+00 0.  1.
          5    1    1    2  502    0 -0.85211445579E+02  0.35014491096E+02 -0.50247212800E+03  0.51086467568E+03  0.41800000000E+01 0.  1.
         -5    1    1    2    0  502  0.40318779616E+01 -0.35750479773E+02 -0.52409317234E+02  0.63706842465E+02  0.41800000000E+01 0.  1.
        -11    1    1    2    0    0  0.52731249785E+02 -0.19392725747E+02 -0.10041278909E+03  0.11506255137E+03  0.00000000000E+00 0.  1.
         11    1    1    2    0    0  0.28448317832E+02  0.20128714424E+02  0.10652187625E+02  0.36440925250E+02  0.00000000000E+00 0. -1.
</event>
<event>
 6    1  0.5317355E-006  0.1571532E+03  0.7561462E-02  0.1191949E+00
          1   -1    0    0  501    0  0.00000000000E+00  0.00000000000E+00  0.93302293750E+02  0.93302293750E+02  0.00000000000E+00 0. -1.
         -1   -1    0    0    0  501 -0.00000000000E+00 -0.00000000000E+00 -0.38030390006E+03  0.38030390006E+03  0.00000000000E+00 0.  1.
          5    1    1    2  502    0 -0.36368819583E+02  0.39943841437E+00  0.22532204479E+02  0.42988640681E+02  0.41800000000E+01 0.  1.
         -5    1    1    2    0  502 -0.10417946313E+03 -0.57532514026E+02 -0.14928833965E+03  0.19096552428E+03  0.41800000000E+01 0.  1.
        -11    1    1    2    0    0  0.63796539112E+02  0.14916998033E+01 -0.13940060291E+02  0.65318824636E+02  0.00000000000E+00 0. -1.
         11    1    1    2    0    0  0.76751743602E+02  0.55641375808E+02 -0.14630541085E+03  0.17433320421E+03  0.00000000000E+00 0.  1.
</event>
<event>
 6    1  0.5317355E-006  0.1655684E+03  0.7561462E-02  0.1182550E+00
         -1   -1    0    0    0  501 -0.00000000000E+00  0.00000000000E+00  0.15364907134E+03  0.15364907134E+03  0.00000000000E+00 0.  1.
          1   -1    0    0  501    0  0.00000000000E+00 -0.00000000000E+00 -0.23602506543E+03  0.23602506543E+03  0.00000000000E+00 0. -1.
          5    1    1    2  502    0  0.86231787204E+02 -0.94354300734E+02  0.24160580022E+02  0.13015322208E+03  0.41800000000E+01 0. -1.
         -5    1    1    2    0  502  0.43633146703E+02  0.40892659596E+02  0.48321938587E+01  0.60140532069E+02  0.41800000000E+01 0. -1.
        -11    1    1    2    0    0 -0.43263907426E+02  0.37045797051E+01 -0.85986057206E+02  0.96328041766E+02  0.00000000000E+00 0. -1.
         11    1    1    2    0    0 -0.86601026481E+02  0.49757061433E+02 -0.25382710757E+02  0.10305234085E+03  0.00000000000E+00 0.  1.
</event>
<event>
 6    1  0.5317355E-006  0.8783149E+02  0.7561462E-02  0.1308190E+00
          1   -1    0    0  501    0  0.00000000000E+00  0.00000000000E+00  0.29156497097E+03  0.29156497097E+03  0.00000000000E+00 0. -1.
         -1   -1    0    0    0  501 -0.00000000000E+00 -0.00000000000E+00 -0.47098055246E+02  0.47098055246E+02  0.00000000000E+00 0.  1.
          5    1    1    2  502    0 -0.44690476339E+02 -0.53810933616E+01  0.13587696347E+03  0.14319991775E+03  0.41800000000E+01 0. -1.
         -5    1    1    2    0  502  0.18651633179E+02 -0.30781977816E+02 -0.12226911883E+02  0.38241121227E+02  0.41800000000E+01 0. -1.
        -11    1    1    2    0    0  0.35426088938E+01 -0.26969602632E+02  0.12706651221E+02  0.30022800155E+02  0.00000000000E+00 0.  1.
         11    1    1    2    0    0  0.22496234267E+02  0.63132673810E+02  0.10811021292E+03  0.12719918709E+03  0.00000000000E+00 0. -1.
</event>
<event>
 6    1  0.5317355E-006  0.9813441E+02  0.7561462E-02  0.1284269E+00
         -1   -1    0    0    0  501 -0.00000000000E+00  0.00000000000E+00  0.97314181171E+02  0.97314181171E+02  0.00000000000E+00 0.  1.
          1   -1    0    0  501    0  0.00000000000E+00 -0.00000000000E+00 -0.13984301869E+03  0.13984301869E+03  0.00000000000E+00 0. -1.
          5    1    1    2  502    0  0.23471961632E+02 -0.38647795566E+02 -0.31055336736E+02  0.55013556736E+02  0.41800000000E+01 0.  1.
         -5    1    1    2    0  502 -0.67294571310E+02  0.17655343569E+02  0.37952472868E+02  0.79360777977E+02  0.41800000000E+01 0.  1.
        -11    1    1    2    0    0  0.55184820654E+02  0.33266046292E+02 -0.55445616995E+02  0.85007121528E+02  0.00000000000E+00 0. -1.
         11    1    1    2    0    0 -0.11362210976E+02 -0.12273594295E+02  0.60196433447E+01  0.17775743618E+02  0.00000000000E+00 0.  1.
</event>
<event>
 6    1  0.5317355E-006  0.8594630E+02  0.7561462E-02  0.1312976E+00
          4   -1    0    0  501    0  0.00000000000E+00  0.00000000000E+00  0.27086181732E+02  0.27086181732E+02  0.00000000000E+00 0. -1.
         -4   -1    0    0    0  501 -0.00000000000E+00 -0.00000000000E+00 -0.44207298890E+03  0.44207298890E+03  0.00000000000E+00 0.  1.
          5    1    1    2  502    0 -0.43790295151E+02  0.25175658749E+02 -0.22621789887E+03  0.23182625803E+03  0.41800000000E+01 0. -1.
         -5    1    1    2    0  502  0.38868169844E+02 -0.25662706778E+02 -0.36946702147E+02  0.59597318277E+02  0.41800000000E+01 0. -1.
        -11    1    1    2    0    0  0.32507718543E+02  0.22178701489E+02 -0.26133617059E+02  0.47239946075E+02  0.00000000000E+00 0. -1.
         11    1    1    2    0    0 -0.27585593237E+02 -0.21691653460E+02 -0.12568858909E+03  0.13049564825E+03  0.00000000000E+00 0.  1.
</event>
<event>
 6    1  0.5317355E-006  0.1791895E+03  0.7561462E-02  0.1168590E+00
          2   -1    0    0  501    0  0.00000000000E+00  0.00000000000E+00  0.87654101302E+03  0.87654101302E+03  0.00000000000E+00 0.  1.
         -2   -1    0    0    0  501 -0.00000000000E+00 -0.00000000000E+00 -0.39348598057E+02  0.39348598057E+02  0.00000000000E+00 0. -1.
          5    1    1    2  502    0 -0.26813972757E+02 -0.24468013171E+02  0.18379990912E+03  0.18739677637E+03  0.41800000000E+01 0.  1.
         -5    1    1    2    0  502 -0.96771351788E+02  0.11168609790E+03  0.29172362831E+03  0.32704529763E+03  0.41800000000E+01 0.  1.
        -11    1    1    2    0    0  0.12517549351E+03 -0.10056013064E+03  0.32785411807E+03  0.36506104529E+03  0.00000000000E+00 0. -1.
         11    1    1    2    0    0 -0.15901689685E+01  0.13342045908E+02  0.33814759464E+02  0.36386491779E+02  0.00000000000E+00 0.  1.
</event>
<event>
 6    1  0.5317355E-006  0.2916170E+03  0.7561462E-02  0.1089508E+00
          2   -1    0    0  501    0  0.00000000000E+00  0.00000000000E+00  0.21901724887E+03  0.21901724887E+03  0.00000000000E+00 0. -1.
         -2   -1    0    0    0  501 -0.00000000000E+00 -0.00000000000E+00 -0.41945353220E+03  0.41945353220E+03  0.00000000000E+00 0.  1.
          5    1    1    2  502    0  0.69773405365E+02 -0.25826039087E+03 -0.47504015488E+02  0.27173675032E+03  0.41800000000E+01 0. -1.
         -5    1    1    2    0  502  0.38044655137E+02  0.17577785928E+03 -0.14292223874E+03  0.22975963598E+03  0.41800000000E+01 0.  1.
        -11    1    1    2    0    0 -0.99286383272E+02  0.76978885532E+02 -0.13220113517E+02  0.12632618938E+03  0.00000000000E+00 0.  1.
         11    1    1    2    0    0 -0.85316772291E+01  0.55036460535E+01  0.32100844134E+01  0.10648205396E+02  0.00000000000E+00 0. -1.
</event>
<event>
 6    1  0.5317355E-006  0.1276235E+03  0.7561462E-02  0.1231025E+00
         -1   -1    0    0    0  501 -0.00000000000E+00  0.00000000000E+00  0.84447057523E+02  0.84447057523E+02  0.00000000000E+00 0.  1.
          1   -1    0    0  501    0  0.00000000000E+00 -0.00000000000E+00 -0.36798326749E+03  0.36798326749E+03  0.00000000000E+00 0. -1.
          5    1    1    2  502    0 -0.73375120649E+02 -0.45134886671E+02  0.30760321429E+02  0.91568204631E+02  0.41800000000E+01 0. -1.
         -5    1    1    2    0  502 -0.30639309761E+02  0.27406512227E+01 -0.76587776611E+02  0.82640416250E+02  0.41800000000E+01 0. -1.
        -11    1    1    2    0    0 -0.26598433278E+01 -0.16085146150E+02 -0.64709826989E+02  0.66732064273E+02  0.00000000000E+00 0. -1.
         11    1    1    2    0    0  0.10667427374E+03  0.58479381598E+02 -0.17299892780E+03  0.21148963986E+03  0.00000000000E+00 0.  1.
</event>
<event>
 6    1  0.5317355E-006  0.1722367E+03  0.7561462E-02  0.1175535E+00
          2   -1    0    0  501    0  0.00000000000E+00  0.00000000000E+00  0.15741668076E+04  0.15741668076E+04  0.00000000000E+00 0. -1.
         -2   -1    0    0    0  501 -0.00000000000E+00 -0.00000000000E+00 -0.19025784704E+02  0.19025784704E+02  0.00000000000E+00 0.  1.
          5    1    1    2  502    0 -0.32457512862E+02 -0.15517665891E+03  0.64321224031E+03  0.66247471204E+03  0.41800000000E+01 0. -1.
         -5    1    1    2    0  502  0.88528063973E+01  0.28957303272E+02  0.13525159962E+03  0.13866277509E+03  0.41800000000E+01 0.  1.
        -11    1    1    2    0    0 -0.18582865734E+02 -0.34993543334E+01  0.93088597954E+02  0.94989764967E+02  0.00000000000E+00 0. -1.
         11    1    1    2    0    0  0.42187572198E+02  0.12971870997E+03  0.68358858497E+03  0.69706534017E+03  0.00000000000E+00 0.  1.
</event>
<event>
 6    1  0.5317355E-006  0.1535147E+03  0.7561462E-02  0.1196219E+00
          2   -1    0    0  501    0  0.00000000000E+00  0.00000000000E+00  0.28964187863E+03  0.28964187863E+03  0.00000000000E+00 0. -1.
         -2   -1    0    0    0  501 -0.00000000000E+00 -0.00000000000E+00 -0.12262907993E+03  0.12262907993E+03  0.00000000000E+00 0.  1.
          5    1    1    2  502    0 -0.78236084212E+01 -0.10850514136E+02 -0.27093726662E+02  0.30503851071E+02  0.41800000000E+01 0. -1.
         -5    1    1    2    0  502  0.61641454382E+02  0.13729392012E+03  0.39940139012E+02  0.15576256452E+03  0.41800000000E+01 0. -1.
        -11    1    1    2    0    0 -0.17778619704E+01 -0.49723911767E+02  0.11512131595E+03  0.12541349840E+03  0.00000000000E+00 0. -1.
         11    1    1    2    0    0 -0.52039983990E+02 -0.76719494218E+02  0.39045070404E+02  0.10059104458E+03  0.00000000000E+00 0.  1.
</event>
<event>
 6    1  0.5317355E-006  0.1047518E+03  0.7561462E-02  0.1270609E+00
          1   -1    0    0  501    0  0.00000000000E+00  0.00000000000E+00  0.21867361026E+03  0.21867361026E+03  0.00000000000E+00 0. -1.
         -1   -1    0    0    0  501 -0.00000000000E+00 -0.00000000000E+00 -0.78377663190E+02  0.78377663190E+02  0.00000000000E+00 0.  1.
          5    1    1    2  502    0 -0.55539622989E+02  0.52790142532E+01 -0.29255605436E+02  0.63133830572E+02  0.41800000000E+01 0. -1.
         -5    1    1    2    0  502  0.22138070110E+01 -0.43915483743E+02  0.72150115742E+02  0.84596585365E+02  0.41800000000E+01 0. -1.
        -11    1    1    2    0    0  0.52185389506E+02 -0.16120853300E+02  0.29474094619E+02  0.62063830390E+02  0.00000000000E+00 0. -1.
         11    1    1    2    0    0  0.11404264713E+01  0.54757322789E+02  0.67927342144E+02  0.87257027123E+02  0.00000000000E+00 0.  1.
</event>
<event>
 6    1  0.5317355E-006  0.2324956E+03  0.7561462E-02  0.1124895E+00
         -1   -1    0    0    0  501 -0.00000000000E+00  0.00000000000E+00  0.12662043041E+03  0.12662043041E+03  0.00000000000E+00 0.  1.
          1   -1    0    0  501    0  0.00000000000E+00 -0.00000000000E+00 -0.51475946711E+03  0.51475946711E+03  0.00000000000E+00 0. -1.
          5    1    1    2  502    0  0.15595509140E+03 -0.16956679356E+03 -0.18750859918E+03  0.29707210434E+03  0.41800000000E+01 0. -1.
         -5    1    1    2    0  502  0.16336530181E+01  0.51139049634E+01 -0.64691801499E+02  0.65048615876E+02  0.41800000000E+01 0. -1.
        -11    1    1    2    0    0 -0.24376230601E+02  0.25477823884E+02  0.11158379388E+02  0.36984179844E+02  0.00000000000E+00 0.  1.
         11    1    1    2    0    0 -0.13321251382E+03  0.13897506471E+03 -0.14709701541E+03  0.24227499745E+03  0.00000000000E+00 0. -1.
</event>
<event>
 6    1  0.5317355E-006  0.1789312E+03  0.7561462E-02  0.1168841E+00
          1   -1    0    0  501    0  0.00000000000E+00  0.00000000000E+00  0.10130957243E+03  0.10130957243E+03  0.00000000000E+00 0. -1.
         -1   -1    0    0    0  501 -0.00000000000E+00 -0.00000000000E+00 -0.45247854953E+03  0.45247854953E+03  0.00000000000E+00 0.  1.
          5    1    1    2  502    0  0.70733529581E+02 -0.33565784939E+02 -0.22191583764E+03  0.23535931153E+03  0.41800000000E+01 0. -1.
         -5    1    1    2    0  502  0.84377021732E+02 -0.38788403565E+02 -0.38965626132E+02  0.10079590501E+03  0.41800000000E+01 0. -1.
        -11    1    1    2    0    0 -0.69959901071E+02  0.73319288506E+02 -0.12162586845E+02  0.10206877262E+03  0.00000000000E+00 0. -1.
         11    1    1    2    0    0 -0.85150650242E+02 -0.96510000221E+00 -0.78124926477E+02  0.11556413281E+03  0.00000000000E+00 0.  1.
</event>
<event>
 6    1  0.5317355E-006  0.1106371E+03  0.7561462E-02  0.1259395E+00
          1   -1    0    0  501    0  0.00000000000E+00  0.00000000000E+00  0.37908928855E+03  0.37908928855E+03  0.00000000000E+00 0. -1.
         -1   -1    0    0    0  501 -0.00000000000E+00 -0.00000000000E+00 -0.46802468214E+02  0.46802468214E+02  0.00000000000E+00 0.  1.
          5    1    1    2  502    0  0.34336135350E+02 -0.72492379163E+02  0.43157460810E+02  0.91181983150E+02  0.41800000000E+01 0.  1.
         -5    1    1    2    0  502  0.27489035377E+02  0.46065804309E+02  0.82199960561E+02  0.98244650281E+02  0.41800000000E+01 0.  1.
        -11    1    1    2    0    0 -0.52995107807E+02 -0.61896016142E+01  0.41430846678E+02  0.67552258853E+02  0.00000000000E+00 0.  1.
         11    1    1    2    0    0 -0.88300629199E+01  0.32616176468E+02  0.16549855229E+03  0.16891286448E+03  0.00000000000E+00 0. -1.
</event>
<event>
 6    1  0.5317355E-006  0.1043412E+03  0.7561462E-02  0.1271423E+00
         -1   -1    0    0    0  501 -0.00000000000E+00  0.00000000000E+00  0.22058295398E+02  0.22058295398E+02  0.00000000000E+00 0.  1.
          1   -1    0    0  501    0  0.00000000000E+00 -0.00000000000E+00 -0.55136703771E+03  0.55136703771E+03  0.00000000000E+00 0. -1.
          5    1    1    2  502    0  0.27825884379E+02  0.37943618980E+02 -0.68310094718E+02  0.83052630923E+02  0.41800000000E+01 0.  1.
         -5    1    1    2    0  502 -0.47320178526E+02 -0.54369344778E+02 -0.24050175129E+03  0.25110513678E+03  0.41800000000E+01 0.  1.
        -11    1    1    2    0    0  0.38491343291E+02  0.42270311270E+02 -0.10687360174E+03  0.12120366938E+03  0.00000000000E+00 0.  1.
         11    1    1    2    0    0 -0.18997049144E+02 -0.25844585472E+02 -0.11362329458E+03  0.11806389602E+03  0.00000000000E+00 0. -1.
</event>
<event>
 6    1  0.5317355E-006  0.1210440E+03  0.7561462E-02  0.1241385E+00
         -4   -1    0    0    0  501 -0.00000000000E+00  0.00000000000E+00  0.33651258947E+03  0.33651258947E+03  0.00000000000E+00 0.  1.
          4   -1    0    0  501    0  0.00000000000E+00 -0.00000000000E+00 -0.46755212452E+02  0.46755212452E+02  0.00000000000E+00 0. -1.
          5    1    1    2  502    0 -0.72550169998E+02  0.60296354258E+01  0.62081517709E+02  0.95767796838E+02  0.41800000000E+01 0. -1.
         -5    1    1    2    0  502  0.53921222073E+02 -0.43886336719E+02  0.12723285357E+03  0.14504888889E+03  0.41800000000E+01 0.  1.
        -11    1    1    2    0    0  0.55333090951E+02  0.22667078375E+02  0.48094146958E+02  0.76737177222E+02  0.00000000000E+00 0.  1.
         11    1    1    2    0    0 -0.36704143026E+02  0.15189622918E+02  0.52348858774E+02  0.65713938968E+02  0.00000000000E+00 0. -1.
</event>
<event>
 6    1  0.5317355E-006  0.8062087E+02  0.7561462E-02  0.1327299E+00
          1   -1    0    0  501    0  0.00000000000E+00  0.00000000000E+00  0.26709761906E+03  0.26709761906E+03  0.00000000000E+00 0. -1.
         -1   -1    0    0    0  501 -0.00000000000E+00 -0.00000000000E+00 -0.55895842217E+02  0.55895842217E+02  0.00000000000E+00 0.  1.
          5    1    1    2  502    0  0.26400693165E+02  0.50557911196E+02  0.43187524789E+01  0.57351748073E+02  0.41800000000E+01 0.  1.
         -5    1    1    2    0  502  0.26916860420E+02 -0.31563509110E+02  0.12307605132E+03  0.12994598605E+03  0.41800000000E+01 0.  1.
        -11    1    1    2    0    0 -0.90156617794E+01 -0.15486956778E+02  0.89151770597E+02  0.90934955810E+02  0.00000000000E+00 0. -1.
         11    1    1    2    0    0 -0.44301891806E+02 -0.35074453075E+01 -0.53447975548E+01  0.44760771341E+02  0.00000000000E+00 0.  1.
</event>
<event>
 6    1  0.5317355E-006  0.1355534E+03  0.7561462E-02  0.1219441E+00
          2   -1    0    0  501    0  0.00000000000E+00  0.00000000000E+00  0.41922433669E+03  0.41922433669E+03  0.00000000000E+00 0. -1.
         -2   -1    0    0    0  501 -0.00000000000E+00 -0.00000000000E+00 -0.69067619429E+02  0.69067619429E+02  0.00000000000E+00 0.  1.
          5    1    1    2  502    0 -0.16617186564E+02  0.66017820773E+02  0.55085448668E+02  0.87671903161E+02  0.41800000000E+01 0. -1.
         -5    1    1    2    0  502  0.44653226573E+02 -0.90413075158E+02  0.14432065490E+02  0.10195190885E+03  0.41800000000E+01 0.  1.
        -11    1    1    2    0    0 -0.63471242145E+02  0.13355340858E+02  0.18778220369E+03  0.19866836621E+03  0.00000000000E+00 0.  1.
         11    1    1    2    0    0  0.35435202136E+02  0.11039913527E+02  0.92856999411E+02  0.99999777904E+02  0.00000000000E+00 0. -1.
</event>
<event>
 6    1  0.5317355E-006  0.1273161E+03  0.7561462E-02  0.1231493E+00
         -2   -1    0    0    0  501 -0.00000000000E+00  0.00000000000E+00  0.72561691061E+02  0.72561691061E+02  0.00000000000E+00 0.  1.
          2   -1    0    0  501    0  0.00000000000E+00 -0.00000000000E+00 -0.26220059080E+03  0.26220059080E+03  0.00000000000E+00 0. -1.
          5    1    1    2  502    0  0.63472689653E+02 -0.45145393212E+02 -0.66319681585E+02  0.10238486912E+03  0.41800000000E+01 0. -1.
         -5    1    1    2    0  502  0.13954987013E+02  0.56345610332E+02  0.27613794991E+01  0.58263771616E+02  0.41800000000E+01 0. -1.
        -11    1    1    2    0    0  0.12837591663E+02 -0.24044644390E+02 -0.42115301777E+02  0.50166197058E+02  0.00000000000E+00 0.  1.
         11    1    1    2    0    0 -0.90265268328E+02  0.12844427270E+02 -0.83965295880E+02  0.12394744407E+03  0.00000000000E+00 0. -1.
</event>
<event>
 6    1  0.5317355E-006  0.1575536E+03  0.7561462E-02  0.1191487E+00
         -3   -1    0    0    0  501 -0.00000000000E+00  0.00000000000E+00  0.27634305254E+03  0.27634305254E+03  0.00000000000E+00 0.  1.
          3   -1    0    0  501    0  0.00000000000E+00 -0.00000000000E+00 -0.11098386541E+03  0.11098386541E+03  0.00000000000E+00 0. -1.
          5    1    1    2  502    0  0.56593250260E+02 -0.12075728411E+03  0.12167043810E+03  0.18057210623E+03  0.41800000000E+01 0.  1.
         -5    1    1    2    0  502  0.29060816610E+02  0.28988308522E+02  0.17737594523E+02  0.44910441464E+02  0.41800000000E+01 0.  1.
        -11    1    1    2    0    0 -0.16559552108E+02 -0.85297015322E+01 -0.23849517640E+02  0.30261759134E+02  0.00000000000E+00 0. -1.
         11    1    1    2    0    0 -0.69094514762E+02  0.10029867712E+03  0.49800672151E+02  0.13158261112E+03  0.00000000000E+00 0.  1.
</event>
<event>
 6    1  0.5317355E-006  0.4904139E+02  0.7561462E-02  0.1450582E+00
          1   -1    0    0  501    0  0.00000000000E+00  0.00000000000E+00  0.10875813556E+03  0.10875813556E+03  0.00000000000E+00 0. -1.
         -1   -1    0    0    0  501 -0.00000000000E+00 -0.00000000000E+00 -0.12134356831E+03  0.12134356831E+03  0.00000000000E+00 0.  1.
          5    1    1    2  502    0  0.10883786031E+02 -0.48095661297E+01 -0.72159487668E+02  0.73253346581E+02  0.41800000000E+01 0.  1.
         -5    1    1    2    0  502  0.49365179224E+00  0.32052053699E+02  0.47658261981E+02  0.57587847446E+02  0.41800000000E+01 0.  1.
        -11    1    1    2    0    0 -0.12936608460E+02 -0.39099729498E+02  0.46824967237E+02  0.62359620284E+02  0.00000000000E+00 0. -1.
         11    1    1    2    0    0  0.15591706364E+01  0.11857241929E+02 -0.34909174307E+02  0.36900889556E+02  0.00000000000E+00 0.  1.
</event>
<event>
 6    1  0.5317355E-006  0.1247115E+03  0.7561462E-02  0.1235521E+00
         -1   -1    0    0    0  501 -0.00000000000E+00  0.00000000000E+00  0.78651296231E+02  0.78651296231E+02  0.00000000000E+00 0.  1.
          1   -1    0    0  501    0  0.00000000000E+00 -0.00000000000E+00 -0.27829105896E+03  0.27829105896E+03  0.00000000000E+00 0. -1.
          5    1    1    2  502    0  0.12086356575E+02 -0.96204641674E+02 -0.96779706881E+01  0.97532295224E+02  0.41800000000E+01 0. -1.
         -5    1    1    2    0  502 -0.24142002823E+02 -0.48535435428E+01 -0.86942787773E+02  0.90459460152E+02  0.41800000000E+01 0. -1.
        -11    1    1    2    0    0 -0.31726549745E+02  0.57284017584E+02 -0.78832618756E+02  0.10248226388E+03  0.00000000000E+00 0. -1.
         11    1    1    2    0    0  0.43782195994E+02  0.43774167633E+02 -0.24186385509E+02  0.66468335936E+02  0.00000000000E+00 0.  1.
</event>
<event>
 6    1  0.5317355E-006  0.1146151E+03  0.7561462E-02  0.1252254E+00
         -2   -1    0    0    0  501 -0.00000000000E+00  0.00000000000E+00  0.68399027362E+03  0.68399027362E+03  0.00000000000E+00 0.  1.
          2   -1    0    0  501    0  0.00000000000E+00 -0.00000000000E+00 -0.21684437069E+02  0.21684437069E+02  0.00000000000E+00 0. -1.
          5    1    1    2  502    0  0.53355947742E+02 -0.32432023036E+02  0.12555249445E+03  0.14028397821E+03  0.41800000000E+01 0. -1.
         -5    1    1    2    0  502 -0.10175612546E+02  0.60475909508E+02  0.30071343958E+03  0.30693146444E+03  0.41800000000E+01 0. -1.
        -11    1    1    2    0    0 -0.71518869609E+02 -0.11702208227E+02  0.16798331344E+03  0.18294885620E+03  0.00000000000E+00 0. -1.
         11    1    1    2    0    0  0.28338534413E+02 -0.16341678246E+02  0.68056589071E+02  0.75510411841E+02  0.00000000000E+00 0.  1.
</event>
<event>
 6    1  0.5317355E-006  0.1277579E+03  0.7561462E-02  0.1230821E+00
          2   -1    0    0  501    0  0.00000000000E+00  0.00000000000E+00  0.13794262366E+03  0.13794262366E+03  0.00000000000E+00 0. -1.
         -2   -1    0    0    0  501 -0.00000000000E+00 -0.00000000000E+00 -0.14469822471E+03  0.14469822471E+03  0.00000000000E+00 0.  1.
          5    1    1    2  502    0  0.69458014028E+01 -0.77967280087E+02 -0.20888132289E+02  0.81122915331E+02  0.41800000000E+01 0.  1.
         -5    1    1    2    0  502  0.45129879710E+02  0.40106654540E+02 -0.37507659970E+02  0.71200749557E+02  0.41800000000E+01 0.  1.
        -11    1    1    2    0    0  0.69169176051E+01  0.54797243241E+02  0.39106061774E+02  0.67674704901E+02  0.00000000000E+00 0. -1.
         11    1    1    2    0    0 -0.58992598718E+02 -0.16936617694E+02  0.12534129437E+02  0.62642478585E+02  0.00000000000E+00 0.  1.
</event>
<event>
 6    1  0.5317355E-006  0.1646192E+03  0.7561462E-02  0.1183578E+00
          1   -1    0    0  501    0  0.00000000000E+00  0.00000000000E+00  0.86725821600E+03  0.86725821600E+03  0.00000000000E+00 0. -1.
         -1   -1    0    0    0  501 -0.00000000000E+00 -0.00000000000E+00 -0.34388366400E+02  0.34388366400E+02  0.00000000000E+00 0.  1.
          5    1    1    2  502    0 -0.21412920649E+02  0.22638996586E+02  0.36831255143E+02  0.48425727589E+02  0.41800000000E+01 0. -1.
         -5    1    1    2    0  502 -0.57272906866E+02 -0.13088449136E+03  0.42605618768E+03  0.44939101393E+03  0.41800000000E+01 0. -1.
        -11    1    1    2    0    0  0.40029855720E+02  0.10909232616E+03  0.21836202681E+03  0.24735702886E+03  0.00000000000E+00 0. -1.
         11    1    1    2    0    0  0.38655971795E+02 -0.84683138491E+00  0.15162037997E+03  0.15647281202E+03  0.00000000000E+00 0.  1.
</event>
<event>
 6    1  0.5317355E-006  0.1019242E+03  0.7561462E-02  0.1276301E+00
          2   -1    0    0  501    0  0.00000000000E+00  0.00000000000E+00  0.78775916048E+03  0.78775916048E+03  0.00000000000E+00 0. -1.
         -2   -1    0    0    0  501 -0.00000000000E+00 -0.00000000000E+00 -0.17265435696E+02  0.17265435696E+02  0.00000000000E+00 0.  1.
          5    1    1    2  502    0  0.54205440804E+02  0.26235239900E+02  0.84259821326E+02  0.10365185727E+03  0.41800000000E+01 0.  1.
         -5    1    1    2    0  502 -0.44903782052E+02 -0.15662961343E+02  0.22942337233E+03  0.23433786329E+03  0.41800000000E+01 0.  1.
        -11    1    1    2    0    0 -0.52052732595E+02 -0.17003184125E+01  0.28788467483E+03  0.29255762519E+03  0.00000000000E+00 0.  1.
         11    1    1    2    0    0  0.42751073842E+02 -0.88719601445E+01  0.16892585630E+03  0.17447725044E+03  0.00000000000E+00 0. -1.
</event>
<event>
 6    1  0.5317355E-006  0.1020334E+03  0.7561462E-02  0.1276077E+00
         -3   -1    0    0    0  501 -0.00000000000E+00  0.00000000000E+00  0.30976163521E+02  0.30976163521E+02  0.00000000000E+00 0.  1.
          3   -1    0    0  501    0  0.00000000000E+00 -0.00000000000E+00 -0.55033893951E+03  0.55033893951E+03  0.00000000000E+00 0. -1.
          5    1    1    2  502    0  0.10532084882E+02  0.24305944295E+02 -0.12596859122E+03  0.12879154520E+03  0.41800000000E+01 0.  1.
         -5    1    1    2    0  502 -0.38694761693E+02 -0.77854962870E+02 -0.71366623746E+02  0.11255819477E+03  0.41800000000E+01 0.  1.
        -11    1    1    2    0    0  0.45817386507E+02  0.15680125403E+02 -0.26432285694E+03  0.26872229520E+03  0.00000000000E+00 0. -1.
         11    1    1    2    0    0 -0.17654709696E+02  0.37868893172E+02 -0.57704704088E+02  0.71243067862E+02  0.00000000000E+00 0.  1.
</event>
<event>
 6    1  0.5317355E-006  0.1248723E+03  0.7561462E-02  0.1235269E+00
          1   -1    0    0  501    0  0.00000000000E+00  0.00000000000E+00  0.35976896587E+02  0.35976896587E+02  0.00000000000E+00 0. -1.
         -1   -1    0    0    0  501 -0.00000000000E+00 -0.00000000000E+00 -0.55674281948E+03  0.55674281948E+03  0.00000000000E+00 0.  1.
          5    1    1    2  502    0  0.45530805230E+02 -0.57713157693E+02 -0.21743901156E+03  0.22956711207E+03  0.41800000000E+01 0. -1.
         -5    1    1    2    0  502 -0.70004408876E+02 -0.11478135923E+02 -0.18149069579E+03  0.19490692631E+03  0.41800000000E+01 0. -1.
        -11    1    1    2    0    0  0.46715062067E+02  0.68357998301E+02 -0.59228538043E+02  0.10179947286E+03  0.00000000000E+00 0.  1.
         11    1    1    2    0    0 -0.22241458422E+02  0.83329531511E+00 -0.62607677502E+02  0.66446204828E+02  0.00000000000E+00 0. -1.
</event>
<event>
 6    1  0.5317355E-006  0.1935134E+03  0.7561462E-02  0.1155330E+00
         -3   -1    0    0    0  501 -0.00000000000E+00  0.00000000000E+00  0.71298450661E+03  0.71298450661E+03  0.00000000000E+00 0.  1.
          3   -1    0    0  501    0  0.00000000000E+00 -0.00000000000E+00 -0.56832603484E+02  0.56832603484E+02  0.00000000000E+00 0. -1.
          5    1    1    2  502    0 -0.96967488490E+02  0.16439852552E+02  0.14691338563E+03  0.17684450190E+03  0.41800000000E+01 0.  1.
         -5    1    1    2    0  502 -0.49359724822E+02 -0.99644413809E+02  0.16678723849E+03  0.20050148868E+03  0.41800000000E+01 0.  1.
        -11    1    1    2    0    0  0.63786460548E+02  0.56283943080E+01  0.20272416472E+03  0.21259698571E+03  0.00000000000E+00 0.  1.
         11    1    1    2    0    0  0.82540752764E+02  0.77576166948E+02  0.13972711429E+03  0.17987413380E+03  0.00000000000E+00 0. -1.
</event>
<event>
 6    1  0.5317355E-006  0.9441826E+02  0.7561462E-02  0.1292492E+00
         -1   -1    0    0    0  501 -0.00000000000E+00  0.00000000000E+00  0.83687126870E+02  0.83687126870E+02  0.00000000000E+00 0.  1.
          1   -1    0    0  501    0  0.00000000000E+00 -0.00000000000E+00 -0.25965991636E+03  0.25965991636E+03  0.00000000000E+00 0. -1.
          5    1    1    2  502    0  0.84465962157E+01 -0.40900978786E+02  0.38830436503E+02  0.57179631446E+02  0.41800000000E+01 0. -1.
         -5    1    1    2    0  502  0.56651668309E+02 -0.11061568378E+02 -0.79822140882E+02  0.98594200601E+02  0.41800000000E+01 0. -1.
        -11    1    1    2    0    0 -0.58798314060E+02  0.29737563028E+02 -0.17960819977E+02  0.68294622376E+02  0.00000000000E+00 0.  1.
         11    1    1    2    0    0 -0.62999504644E+01  0.22224984136E+02 -0.11702026513E+03  0.11927858881E+03  0.00000000000E+00 0. -1.
</event>
<event>
 6    1  0.5317355E-006  0.1783707E+03  0.7561462E-02  0.1169389E+00
         -2   -1    0    0    0  501 -0.00000000000E+00  0.00000000000E+00  0.26830828754E+03  0.26830828754E+03  0.00000000000E+00 0.  1.
          2   -1    0    0  501    0  0.00000000000E+00 -0.00000000000E+00 -0.16079955093E+03  0.16079955093E+03  0.00000000000E+00 0. -1.
          5    1    1    2  502    0 -0.29603070062E+02  0.80209138658E+01  0.18247546819E+02  0.35932188651E+02  0.41800000000E+01 0. -1.
         -5    1    1    2    0  502  0.70495092068E+02 -0.68429634999E+02  0.12389025125E+03  0.15817218373E+03  0.41800000000E+01 0.  1.
        -11    1    1    2    0    0  0.77433712922E+02  0.75523929323E+02  0.76729845524E+01  0.10843762488E+03  0.00000000000E+00 0.  1.
         11    1    1    2    0    0 -0.11832573493E+03 -0.15115208190E+02 -0.42302046005E+02  0.12656584121E+03  0.00000000000E+00 0. -1.
</event>
<event>
 6    1  0.5317355E-006  0.1534967E+03  0.7561462E-02  0.1196241E+00
         -2   -1    0    0    0  501 -0.00000000000E+00  0.00000000000E+00  0.71068146369E+02  0.71068146369E+02  0.00000000000E+00 0.  1.
          2   -1    0    0  501    0  0.00000000000E+00 -0.00000000000E+00 -0.36423282079E+03  0.36423282079E+03  0.00000000000E+00 0. -1.
          5    1    1    2  502    0 -0.10805006125E+03 -0.93649792157E+02 -0.12744062199E+03  0.19158205511E+03  0.41800000000E+01 0. -1.
         -5    1    1    2    0  502  0.33840165297E+02 -0.10069734463E+02 -0.34237449748E+02  0.49358197948E+02  0.41800000000E+01 0. -1.
        -11    1    1    2    0    0  0.47600184065E+02  0.53881373501E+02 -0.29382207035E+02  0.77667844206E+02  0.00000000000E+00 0.  1.
         11    1    1    2    0    0  0.26609711890E+02  0.49838153119E+02 -0.10210439565E+03  0.11669286990E+03  0.00000000000E+00 0. -1.
</event>
<event>
 6    1  0.5317355E-006  0.2932162E+03  0.7561462E-02  0.1088682E+00
         -1   -1    0    0    0  501 -0.00000000000E+00  0.00000000000E+00  0.30968071290E+03  0.30968071290E+03  0.00000000000E+00 0.  1.
          1   -1    0    0  501    0  0.00000000000E+00 -0.00000000000E+00 -0.28189027068E+03  0.28189027068E+03  0.00000000000E+00 0. -1.
          5    1    1    2  502    0  0.14628396850E+03  0.74965476343E+02 -0.20310924651E+02  0.16567687872E+03  0.41800000000E+01 0.  1.
         -5    1    1    2    0  502  0.32942161666E+02  0.13072776314E+03  0.35204905964E+01  0.13492516564E+03  0.41800000000E+01 0.  1.
        -11    1    1    2    0    0 -0.86168852058E+02 -0.16378136004E+03  0.36128240856E+02  0.18855941967E+03  0.00000000000E+00 0.  1.
         11    1    1    2    0    0 -0.93057278107E+02 -0.41911879443E+02  0.84526354221E+01  0.10240951954E+03  0.00000000000E+00 0. -1.
</event>
<event>
 6    1  0.5317355E-006  0.1240042E+03  0.7561462E-02  0.1236634E+00
         -3   -1    0    0    0  501 -0.00000000000E+00  0.00000000000E+00  0.29444027684E+02  0.29444027684E+02  0.00000000000E+00 0.  1.
          3   -1    0    0  501    0  0.00000000000E+00 -0.00000000000E+00 -0.57472254817E+03  0.57472254817E+03  0.00000000000E+00 0. -1.
          5    1    1    2  502    0  0.27320409439E+02  0.56963625616E+02 -0.12448146222E+03  0.13965803325E+03  0.41800000000E+01 0. -1.
         -5    1    1    2    0  502  0.36618724265E+02 -0.74696646326E+02 -0.21119122619E+03  0.22702362511E+03  0.41800000000E+01 0.  1.
        -11    1    1    2    0    0 -0.70672938165E+02 -0.11322053899E+02 -0.18648146277E+03  0.19974531046E+03  0.00000000000E+00 0.  1.
         11    1    1    2    0    0  0.67338044619E+01  0.29055074609E+02 -0.23124369302E+02  0.37739607028E+02  0.00000000000E+00 0. -1.
</event>
<event>
 6    1  0.5317355E-006  0.1452666E+03  0.7561462E-02  0.1206413E+00
          1   -1    0    0  501    0  0.00000000000E+00  0.00000000000E+00  0.54083958073E+02  0.54083958073E+02  0.00000000000E+00 0. -1.
         -1   -1    0    0    0  501 -0.00000000000E+00 -0.00000000000E+00 -0.45165995341E+03  0.45165995341E+03  0.00000000000E+00 0.  1.
          5    1    1    2  502    0 -0.21244902253E+02 -0.91594811517E+02 -0.13092102605E+03  0.16124125660E+03  0.41800000000E+01 0.  1.
         -5    1    1    2    0  502 -0.66615468574E+02  0.25788962260E+02 -0.12501513777E+03  0.14404495236E+03  0.41800000000E+01 0.  1.
        -11    1    1    2    0    0  0.77951812111E+02  0.77233272492E+02 -0.14783726821E+03  0.18411225180E+03  0.00000000000E+00 0.  1.
         11    1    1    2    0    0  0.99085587162E+01 -0.11427423235E+02  0.61974366966E+01  0.16345450720E+02  0.00000000000E+00 0. -1.
</event>
<event>
 6    1  0.5317355E-006  0.1154813E+03  0.7561462E-02  0.1250743E+00
         -2   -1    0    0    0  501 -0.00000000000E+00  0.00000000000E+00  0.10015885365E+03  0.10015885365E+03  0.00000000000E+00 0. -1.
          2   -1    0    0  501    0  0.00000000000E+00 -0.00000000000E+00 -0.20476575649E+03  0.20476575649E+03  0.00000000000E+00 0.  1.
          5    1    1    2  502    0 -0.17154716696E+02  0.29007259498E+02 -0.23504234053E+02  0.41299235186E+02  0.41800000000E+01 0.  1.
         -5    1    1    2    0  502  0.32404574207E+02 -0.78315047294E+02  0.43921125888E+02  0.95550200216E+02  0.41800000000E+01 0.  1.
        -11    1    1    2    0    0  0.31268730443E+02  0.56983728478E+02 -0.67675464091E+02  0.93834147594E+02  0.00000000000E+00 0.  1.
         11    1    1    2    0    0 -0.46518587953E+02 -0.76759406821E+01 -0.57348330579E+02  0.74241027140E+02  0.00000000000E+00 0. -1.
</event>
<event>
 6    1  0.5317355E-006  0.1181382E+03  0.7561462E-02  0.1246200E+00
         -4   -1    0    0    0  501 -0.00000000000E+00  0.00000000000E+00  0.37570856487E+03  0.37570856487E+03  0.00000000000E+00 0.  1.
          4   -1    0    0  501    0  0.00000000000E+00 -0.00000000000E+00 -0.60287154237E+02  0.60287154237E+02  0.00000000000E+00 0. -1.
          5    1    1    2  502    0  0.25394019405E+02 -0.27662213239E+02  0.54825575921E+02  0.66583559817E+02  0.41800000000E+01 0. -1.
         -5    1    1    2    0  502 -0.91431484384E+02  0.47570066590E+02  0.22908481038E+03  0.25123684108E+03  0.41800000000E+01 0. -1.
        -11    1    1    2    0    0  0.10154511560E+01 -0.29586999207E+02  0.42225387785E+02  0.51569419589E+02  0.00000000000E+00 0.  1.
         11    1    1    2    0    0  0.65022013823E+02  0.96791458569E+01 -0.10714363453E+02  0.66605898615E+02  0.00000000000E+00 0. -1.
</event>
<event>
 6    1  0.5317355E-006  0.1527703E+03  0.7561462E-02  0.1197110E+00
         -1   -1    0    0    0  501 -0.00000000000E+00  0.00000000000E+00  0.42071576566E+02  0.42071576566E+02  0.00000000000E+00 0.  1.
          1   -1    0    0  501    0  0.00000000000E+00 -0.00000000000E+00 -0.99912835118E+03  0.99912835118E+03  0.00000000000E+00 0. -1.
          5    1    1    2  502    0 -0.51029337539E+02 -0.24427535823E+02 -0.18764895263E+03  0.19603647522E+03  0.41800000000E+01 0. -1.
         -5    1    1    2    0  502 -0.36977530543E+02 -0.79158774740E+02 -0.37434247305E+02  0.95143284864E+02  0.41800000000E+01 0. -1.
        -11    1    1    2    0    0  0.12006965018E+02  0.81243640372E+02 -0.31116308178E+03  0.32181851993E+03  0.00000000000E+00 0.  1.
         11    1    1    2    0    0  0.75999903063E+02  0.22342670191E+02 -0.42081049291E+03  0.42820164773E+03  0.00000000000E+00 0. -1.
</event>
<event>
 6    1  0.5317355E-006  0.1103241E+03  0.7561462E-02  0.1259971E+00
          1   -1    0    0  501    0  0.00000000000E+00  0.00000000000E+00  0.11963848460E+03  0.11963848460E+03  0.00000000000E+00 0. -1.
         -1   -1    0    0    0  501 -0.00000000000E+00 -0.00000000000E+00 -0.16679679177E+03  0.16679679177E+03  0.00000000000E+00 0.  1.
          5    1    1    2  502    0  0.24317135376E+02  0.83822530262E+02  0.23930327434E+02  0.90596206452E+02  0.41800000000E+01 0.  1.
         -5    1    1    2    0  502 -0.89798489188E+01  0.21890348861E+01 -0.67255254711E+02  0.68015963175E+02  0.41800000000E+01 0.  1.
        -11    1    1    2    0    0 -0.50103767198E+02 -0.66486188915E+02  0.13509902617E+02  0.84340490113E+02  0.00000000000E+00 0. -1.
         11    1    1    2    0    0  0.34766480741E+02 -0.19525376233E+02 -0.17343282509E+02  0.43482616622E+02  0.00000000000E+00 0.  1.
</event>
<event>
 6    1  0.5317355E-006  0.1458439E+03  0.7561462E-02  0.1205675E+00
         -2   -1    0    0    0  501 -0.00000000000E+00  0.00000000000E+00  0.18477788051E+02  0.18477788051E+02  0.00000000000E+00 0.  1.
          2   -1    0    0  501    0  0.00000000000E+00 -0.00000000000E+00 -0.11791663372E+04  0.11791663372E+04  0.00000000000E+00 0. -1.
          5    1    1    2  502    0 -0.30612097710E+02 -0.12233369248E+03 -0.48645154809E+03  0.50254871791E+03  0.41800000000E+01 0.  1.
         -5    1    1    2    0  502  0.22936560257E+02  0.23336017321E+02 -0.15690174555E+03  0.16033179864E+03  0.41800000000E+01 0.  1.
        -11    1    1    2    0    0  0.35107627868E+02  0.99056526509E+02 -0.44883606577E+03  0.46097565544E+03  0.00000000000E+00 0. -1.
         11    1    1    2    0    0 -0.27432090416E+02 -0.58851354233E-01 -0.68499189713E+02  0.73787953214E+02  0.00000000000E+00 0.  1.
</event>
<event>
 6    1  0.5317355E-006  0.1211767E+03  0.7561462E-02  0.1241168E+00
          2   -1    0    0  501    0  0.00000000000E+00  0.00000000000E+00  0.40262535977E+03  0.40262535977E+03  0.00000000000E+00 0.  1.
         -2   -1    0    0    0  501 -0.00000000000E+00 -0.00000000000E+00 -0.57334894520E+02  0.57334894520E+02  0.00000000000E+00 0. -1.
          5    1    1    2  502    0 -0.82129598347E+02  0.22509302742E+02  0.18092726366E+03  0.20001021667E+03  0.41800000000E+01 0.  1.
         -5    1    1    2    0  502 -0.10983829057E+02  0.20809403975E+02 -0.17789195330E+02  0.29792678044E+02  0.41800000000E+01 0.  1.
        -11    1    1    2    0    0  0.38142095678E+02  0.24924810193E+02  0.10065531064E+03  0.11048781465E+03  0.00000000000E+00 0.  1.
         11    1    1    2    0    0  0.54971331726E+02 -0.68243516909E+02  0.81497086270E+02  0.11966954492E+03  0.00000000000E+00 0. -1.
</event>
<event>
 6    1  0.5317355E-006  0.1169157E+03  0.7561462E-02  0.1248274E+00
          2   -1    0    0  501    0  0.00000000000E+00  0.00000000000E+00  0.51756355699E+03  0.51756355699E+03  0.00000000000E+00 0. -1.
         -2   -1    0    0    0  501 -0.00000000000E+00 -0.00000000000E+00 -0.87946574628E+02  0.87946574628E+02  0.00000000000E+00 0.  1.
          5    1    1    2  502    0 -0.65673448653E+02  0.64118269627E+02 -0.49901544407E+02  0.10455520500E+03  0.41800000000E+01 0. -1.
         -5    1    1    2    0  502  0.18985394206E+02  0.13525264745E+01  0.39981732403E+02  0.44477925389E+02  0.41800000000E+01 0. -1.
        -11    1    1    2    0    0  0.47389082007E+02  0.87937811354E+01  0.14920048998E+03  0.15679235278E+03  0.00000000000E+00 0.  1.
         11    1    1    2    0    0 -0.70102755978E+00 -0.74264577237E+02  0.29033630439E+03  0.29968464845E+03  0.00000000000E+00 0. -1.
</event>
<event>
 6    1  0.5317355E-006  0.1631338E+03  0.7561462E-02  0.1185203E+00
         -1   -1    0    0    0  501 -0.00000000000E+00  0.00000000000E+00  0.31596890591E+03  0.31596890591E+03  0.00000000000E+00 0.  1.
          1   -1    0    0  501    0  0.00000000000E+00 -0.00000000000E+00 -0.10382888656E+03  0.10382888656E+03  0.00000000000E+00 0. -1.
          5    1    1    2  502    0 -0.24728897663E+02 -0.87841447545E+01  0.49152428090E+02  0.55875872842E+02  0.41800000000E+01 0.  1.
         -5    1    1    2    0  502  0.23809788095E+02  0.15208697825E+03  0.75203603694E+02  0.17137797224E+03  0.41800000000E+01 0.  1.
        -11    1    1    2    0    0 -0.83588002509E+01 -0.15950491725E+02 -0.18934283101E+02  0.26130342602E+02  0.00000000000E+00 0. -1.
         11    1    1    2    0    0  0.92779098190E+01 -0.12735234177E+03  0.10671827066E+03  0.16641360479E+03  0.00000000000E+00 0.  1.
</event>
<event>
 6    1  0.5317355E-006  0.1206497E+03  0.7561462E-02  0.1242029E+00
         -1   -1    0    0    0  501 -0.00000000000E+00  0.00000000000E+00  0.28958885729E+02  0.28958885729E+02  0.00000000000E+00 0.  1.
          1   -1    0    0  501    0  0.00000000000E+00 -0.00000000000E+00 -0.76308475405E+03  0.76308475405E+03  0.00000000000E+00 0. -1.
          5    1    1    2  502    0  0.36992156877E+02  0.23111448619E+02 -0.34335532791E+02  0.55668302828E+02  0.41800000000E+01 0.  1.
         -5    1    1    2    0  502 -0.80662761657E+02  0.54318277807E+02 -0.23412878275E+03  0.25355613922E+03  0.41800000000E+01 0.  1.
        -11    1    1    2    0    0 -0.85895118321E+01 -0.23622537059E+02 -0.23731149929E+02  0.34568359052E+02  0.00000000000E+00 0.  1.
         11    1    1    2    0    0  0.52260116612E+02 -0.53807189367E+02 -0.44193040285E+03  0.44825083869E+03  0.00000000000E+00 0. -1.
</event>
<event>
 6    1  0.5317355E-006  0.7069058E+02  0.7561462E-02  0.1357760E+00
         -2   -1    0    0    0  501 -0.00000000000E+00  0.00000000000E+00  0.86617043482E+02  0.86617043482E+02  0.00000000000E+00 0.  1.
          2   -1    0    0  501    0  0.00000000000E+00 -0.00000000000E+00 -0.15423454384E+03  0.15423454384E+03  0.00000000000E+00 0. -1.
          5    1    1    2  502    0  0.31788042946E+02  0.48298053458E+02 -0.50448702984E+02  0.76848719410E+02  0.41800000000E+01 0.  1.
         -5    1    1    2    0  502 -0.12473629798E+02 -0.27033975091E+02  0.42140908582E+02  0.51766358049E+02  0.41800000000E+01 0.  1.
        -11    1    1    2    0    0 -0.26234995871E+02  0.45436584470E+01 -0.76137978647E+02  0.80659231541E+02  0.00000000000E+00 0. -1.
         11    1    1    2    0    0  0.69205827224E+01 -0.25807736814E+02  0.16828272688E+02  0.31577278324E+02  0.00000000000E+00 0.  1.
</event>
<event>
 6    1  0.5317355E-006  0.9964810E+02  0.7561462E-02  0.1281038E+00
         -1   -1    0    0    0  501 -0.00000000000E+00  0.00000000000E+00  0.39441453358E+03  0.39441453358E+03  0.00000000000E+00 0.  1.
          1   -1    0    0  501    0  0.00000000000E+00 -0.00000000000E+00 -0.40033614559E+02  0.40033614559E+02  0.00000000000E+00 0. -1.
          5    1    1    2  502    0 -0.19617155711E+02  0.36127107316E+02  0.37356176160E+02  0.55704191750E+02  0.41800000000E+01 0. -1.
         -5    1    1    2    0  502  0.81489877386E+02 -0.47823482248E+02  0.16932970444E+03  0.19395284678E+03  0.41800000000E+01 0. -1.
        -11    1    1    2    0    0 -0.39426421154E+02  0.38343927821E+01  0.15494411313E+03  0.15992755687E+03  0.00000000000E+00 0.  1.
         11    1    1    2    0    0 -0.22446300521E+02  0.78619821495E+01 -0.72490747073E+01  0.24863552733E+02  0.00000000000E+00 0. -1.
</event>
<event>
 6    1  0.5317355E-006  0.9517167E+02  0.7561462E-02  0.1290790E+00
          2   -1    0    0  501    0  0.00000000000E+00  0.00000000000E+00  0.86434572148E+02  0.86434572148E+02  0.00000000000E+00 0. -1.
         -2   -1    0    0    0  501 -0.00000000000E+00 -0.00000000000E+00 -0.19834364983E+03  0.19834364983E+03  0.00000000000E+00 0.  1.
          5    1    1    2  502    0 -0.65672479592E+02 -0.35872864098E+02 -0.79064633510E+02  0.10894230412E+03  0.41800000000E+01 0. -1.
         -5    1    1    2    0  502  0.42408410685E+02  0.30471210891E+02 -0.57622653159E+02  0.77876893538E+02  0.41800000000E+01 0. -1.
        -11    1    1    2    0    0  0.35721736386E+02 -0.15289215118E+02  0.49811577517E+02  0.63174328679E+02  0.00000000000E+00 0. -1.
         11    1    1    2    0    0 -0.12457667479E+02  0.20690868325E+02 -0.25033368526E+02  0.34784695641E+02  0.00000000000E+00 0.  1.
</event>
<event>
 6    1  0.5317355E-006  0.1050703E+03  0.7561462E-02  0.1269981E+00
         -1   -1    0    0    0  501 -0.00000000000E+00  0.00000000000E+00  0.41624320031E+03  0.41624320031E+03  0.00000000000E+00 0.  1.
          1   -1    0    0  501    0  0.00000000000E+00 -0.00000000000E+00 -0.42391837137E+02  0.42391837137E+02  0.00000000000E+00 0. -1.
          5    1    1    2  502    0 -0.33537891592E+02  0.26392991408E+02  0.39233554008E+02  0.58121633907E+02  0.41800000000E+01 0. -1.
         -5    1    1    2    0  502  0.12464137877E+02 -0.65310061951E+02  0.27545530335E+03  0.28339699269E+03  0.41800000000E+01 0. -1.
        -11    1    1    2    0    0 -0.34509082932E+02  0.26941566304E+02  0.20384066592E+02  0.48293218681E+02  0.00000000000E+00 0.  1.
         11    1    1    2    0    0  0.55582836647E+02  0.11975504239E+02  0.38778439228E+02  0.68823192170E+02  0.00000000000E+00 0. -1.
</event>
<event>
 6    1  0.7236366E-006  0.1945497E+03  0.7561462E-02  0.1154421E+00
          1   -1    0    0  501    0  0.00000000000E+00  0.00000000000E+00  0.57653240132E+03  0.57653240132E+03  0.00000000000E+00 0. -1.
         -1   -1    0    0    0  501 -0.00000000000E+00 -0.00000000000E+00 -0.83117567062E+02  0.83117567062E+02  0.00000000000E+00 0.  1.
          5    1    1    2  502    0 -0.20646702676E+02  0.38442118851E+01  0.13534305995E+02  0.25332077198E+02  0.41800000000E+01 0.  1.
         -5    1    1    2    0  502  0.18710727106E+03  0.37620915002E+02  0.12050975439E+03  0.22575326671E+03  0.41800000000E+01 0.  1.
        -11    1    1    2    0    0 -0.97213307292E+02 -0.45684097274E+02  0.29491831289E+03  0.31386983789E+03  0.00000000000E+00 0.  1.
         11    1    1    2    0    0 -0.69247261088E+02  0.42189703870E+01  0.64452460989E+02  0.94694786588E+02  0.00000000000E+00 0. -1.
</event>
<event>
 6    1  0.5317355E-006  0.5737508E+02  0.7561462E-02  0.1409189E+00
          2   -1    0    0  501    0  0.00000000000E+00  0.00000000000E+00  0.34704248536E+03  0.34704248536E+03  0.00000000000E+00 0. -1.
         -2   -1    0    0    0  501 -0.00000000000E+00 -0.00000000000E+00 -0.37630796334E+02  0.37630796334E+02  0.00000000000E+00 0.  1.
          5    1    1    2  502    0  0.10011762739E+02  0.32769116032E+02  0.19984070414E+03  0.20279997482E+03  0.41800000000E+01 0.  1.
         -5    1    1    2    0  502  0.24177418137E+02 -0.20210591361E+02 -0.44158479776E+01  0.32093420888E+02  0.41800000000E+01 0.  1.
        -11    1    1    2    0    0 -0.54745406045E+01 -0.18351260104E+02 -0.10536365354E+02  0.21857592207E+02  0.00000000000E+00 0.  1.
         11    1    1    2    0    0 -0.28714640272E+02  0.57927354321E+01  0.12452319822E+03  0.12792229378E+03  0.00000000000E+00 0. -1.
</event>
<event>
 6    1  0.5317355E-006  0.2011035E+03  0.7561462E-02  0.1148811E+00
          1   -1    0    0  501    0  0.00000000000E+00  0.00000000000E+00  0.34662880603E+03  0.34662880603E+03  0.00000000000E+00 0. -1.
         -1   -1    0    0    0  501 -0.00000000000E+00 -0.00000000000E+00 -0.17936974922E+03  0.17936974922E+03  0.00000000000E+00 0.  1.
          5    1    1    2  502    0 -0.69983109299E+01 -0.25454791375E+02 -0.95406110160E+01  0.28379894615E+02  0.41800000000E+01 0. -1.
         -5    1    1    2    0  502  0.17066880223E+03  0.67032586407E+02 -0.58029536248E+02  0.19236971480E+03  0.41800000000E+01 0. -1.
        -11    1    1    2    0    0 -0.77273092692E+02 -0.66717210245E+02  0.15098155831E+03  0.18225736733E+03  0.00000000000E+00 0. -1.
         11    1    1    2    0    0 -0.86397398608E+02  0.25139415213E+02  0.83847645766E+02  0.12299157851E+03  0.00000000000E+00 0.  1.
</event>
<event>
 6    1  0.5317355E-006  0.7986769E+02  0.7561462E-02  0.1329427E+00
         -4   -1    0    0    0  501 -0.00000000000E+00  0.00000000000E+00  0.27942102857E+03  0.27942102857E+03  0.00000000000E+00 0.  1.
          4   -1    0    0  501    0  0.00000000000E+00 -0.00000000000E+00 -0.73731808560E+02  0.73731808560E+02  0.00000000000E+00 0. -1.
          5    1    1    2  502    0  0.43274555148E+02  0.23339036601E+02  0.22517977987E+03  0.23052289130E+03  0.41800000000E+01 0. -1.
         -5    1    1    2    0  502 -0.57442535169E+00  0.75203350366E+01 -0.16385006806E+02  0.18515567817E+02  0.41800000000E+01 0. -1.
        -11    1    1    2    0    0 -0.70451895129E+01  0.30227046365E+02 -0.11035181470E+02  0.32940617136E+02  0.00000000000E+00 0.  1.
         11    1    1    2    0    0 -0.35654940284E+02 -0.61086418002E+02  0.79296284245E+01  0.71173760881E+02  0.00000000000E+00 0. -1.
</event>
<event>
 6    1  0.5317355E-006  0.1028270E+03  0.7561462E-02  0.1274461E+00
         -1   -1    0    0    0  501 -0.00000000000E+00  0.00000000000E+00  0.45864405300E+02  0.45864405300E+02  0.00000000000E+00 0.  1.
          1   -1    0    0  501    0  0.00000000000E+00 -0.00000000000E+00 -0.36731274576E+03  0.36731274576E+03  0.00000000000E+00 0. -1.
          5    1    1    2  502    0  0.10244373301E+02 -0.95332089573E+02 -0.60281539362E+02  0.11333353817E+03  0.41800000000E+01 0.  1.
         -5    1    1    2    0  502  0.30462914132E+01  0.36305712133E+02 -0.60636772075E+02  0.70863778847E+02  0.41800000000E+01 0.  1.
        -11    1    1    2    0    0  0.11661059779E+02  0.39904432116E+02 -0.19194055063E+03  0.19639123961E+03  0.00000000000E+00 0. -1.
         11    1    1    2    0    0 -0.24951724493E+02  0.19121945324E+02 -0.85894783921E+01  0.32588594435E+02  0.00000000000E+00 0.  1.
</event>
<event>
 6    1  0.5317355E-006  0.1472947E+03  0.7561462E-02  0.1203837E+00
          2   -1    0    0  501    0  0.00000000000E+00  0.00000000000E+00  0.55137700881E+03  0.55137700881E+03  0.00000000000E+00 0. -1.
         -2   -1    0    0    0  501 -0.00000000000E+00 -0.00000000000E+00 -0.42892641847E+02  0.42892641847E+02  0.00000000000E+00 0.  1.
          5    1    1    2  502    0 -0.79174410945E+02  0.63137992802E+02  0.15923939441E+03  0.18875818026E+03  0.41800000000E+01 0.  1.
         -5    1    1    2    0  502  0.44573991432E+02  0.30552461722E+02  0.43147772519E+02  0.69278397086E+02  0.41800000000E+01 0.  1.
        -11    1    1    2    0    0  0.14520515858E+02 -0.11135098564E+03  0.25199501661E+03  0.27588290230E+03  0.00000000000E+00 0.  1.
         11    1    1    2    0    0  0.20079903655E+02  0.17660531113E+02  0.54102183421E+02  0.60350171010E+02  0.00000000000E+00 0. -1.
</event>
<event>
 6    1  0.5317355E-006  0.1131183E+03  0.7561462E-02  0.1254902E+00
         -2   -1    0    0    0  501 -0.00000000000E+00  0.00000000000E+00  0.63234595226E+02  0.63234595226E+02  0.00000000000E+00 0.  1.
          2   -1    0    0  501    0  0.00000000000E+00 -0.00000000000E+00 -0.32920645240E+03  0.32920645240E+03  0.00000000000E+00 0. -1.
          5    1    1    2  502    0 -0.30235358237E+02  0.17216664850E+02 -0.10913447398E+03  0.11462284348E+03  0.41800000000E+01 0.  1.
         -5    1    1    2    0  502  0.63990545324E+00  0.65625503137E+02  0.11574597137E+02  0.66772448209E+02  0.41800000000E+01 0.  1.
        -11    1    1    2    0    0  0.45235803586E+02 -0.44046891462E+01 -0.44822898760E+02  0.63833936631E+02  0.00000000000E+00 0.  1.
         11    1    1    2    0    0 -0.15640350802E+02 -0.78437478841E+02 -0.12358908157E+03  0.14721181931E+03  0.00000000000E+00 0. -1.
</event>
<event>
 6    1  0.5317355E-006  0.1020898E+03  0.7561462E-02  0.1275962E+00
         -1   -1    0    0    0  501 -0.00000000000E+00  0.00000000000E+00  0.21732729438E+03  0.21732729438E+03  0.00000000000E+00 0.  1.
          1   -1    0    0  501    0  0.00000000000E+00 -0.00000000000E+00 -0.97290391062E+02  0.97290391062E+02  0.00000000000E+00 0. -1.
          5    1    1    2  502    0 -0.61294291190E+02 -0.39257996549E+02  0.62587127625E+02  0.96087467288E+02  0.41800000000E+01 0. -1.
         -5    1    1    2    0  502  0.44829289622E+02  0.15470454529E+02  0.10272426463E+03  0.11321990600E+03  0.41800000000E+01 0. -1.
        -11    1    1    2    0    0  0.43303779307E+02  0.33887706540E+02 -0.41079788373E+01  0.55140452002E+02  0.00000000000E+00 0.  1.
         11    1    1    2    0    0 -0.26838777739E+02 -0.10100164520E+02 -0.41166510098E+02  0.50169860151E+02  0.00000000000E+00 0. -1.
</event>
<event>
 6    1  0.5317355E-006  0.1649355E+03  0.7561462E-02  0.1183235E+00
         -1   -1    0    0    0  501 -0.00000000000E+00  0.00000000000E+00  0.41876830033E+02  0.41876830033E+02  0.00000000000E+00 0.  1.
          1   -1    0    0  501    0  0.00000000000E+00 -0.00000000000E+00 -0.83997838293E+03  0.83997838293E+03  0.00000000000E+00 0. -1.
          5    1    1    2  502    0  0.14914499652E+02 -0.33571572723E+01 -0.11595439572E+03  0.11703250442E+03  0.41800000000E+01 0.  1.
         -5    1    1    2    0  502 -0.57230583039E+02  0.14182978883E+03 -0.19168387364E+03  0.24525743301E+03  0.41800000000E+01 0.  1.
        -11    1    1    2    0    0 -0.15186392699E+02 -0.69907447609E+02 -0.30982589375E+03  0.31797761273E+03  0.00000000000E+00 0. -1.
         11    1    1    2    0    0  0.57502476086E+02 -0.68565183949E+02 -0.18063738978E+03  0.20158766280E+03  0.00000000000E+00 0.  1.
</event>
<event>
 6    1  0.5317355E-006  0.9600501E+02  0.7561462E-02  0.1288928E+00
         -1   -1    0    0    0  501 -0.00000000000E+00  0.00000000000E+00  0.25419073938E+02  0.25419073938E+02  0.00000000000E+00 0.  1.
          1   -1    0    0  501    0  0.00000000000E+00 -0.00000000000E+00 -0.57046751933E+03  0.57046751933E+03  0.00000000000E+00 0. -1.
          5    1    1    2  502    0  0.45740252008E+02 -0.30483349810E+02 -0.15487325822E+03  0.16439161713E+03  0.41800000000E+01 0. -1.
         -5    1    1    2    0  502 -0.34358034121E+02  0.37786371837E+02 -0.30452606221E+02  0.59608036630E+02  0.41800000000E+01 0. -1.
        -11    1    1    2    0    0 -0.44087021200E+02 -0.22593502091E+02 -0.28029819538E+03  0.28464224934E+03  0.00000000000E+00 0. -1.
         11    1    1    2    0    0  0.32704803313E+02  0.15290480064E+02 -0.79424385564E+02  0.87244690168E+02  0.00000000000E+00 0.  1.
</event>
<event>
 6    1  0.5317355E-006  0.1218078E+03  0.7561462E-02  0.1240144E+00
          3   -1    0    0  501    0  0.00000000000E+00  0.00000000000E+00  0.71277517071E+02  0.71277517071E+02  0.00000000000E+00 0. -1.
         -3   -1    0    0    0  501 -0.00000000000E+00 -0.00000000000E+00 -0.28343493538E+03  0.28343493538E+03  0.00000000000E+00 0.  1.
          5    1    1    2  502    0 -0.43765983027E+00 -0.11340223317E+03 -0.12565210395E+03  0.16931090237E+03  0.41800000000E+01 0.  1.
         -5    1    1    2    0  502 -0.29295072525E+01  0.33977500679E+02 -0.47255898399E+02  0.58426405834E+02  0.41800000000E+01 0.  1.
        -11    1    1    2    0    0  0.20268566029E+02  0.70576570350E+01 -0.47578601001E+02  0.52195292555E+02  0.00000000000E+00 0.  1.
         11    1    1    2    0    0 -0.16901398946E+02  0.72367075454E+02  0.83291850394E+01  0.74779851695E+02  0.00000000000E+00 0. -1.
</event>
<event>
 6    1  0.5317355E-006  0.1520725E+03  0.7561462E-02  0.1197949E+00
          1   -1    0    0  501    0  0.00000000000E+00  0.00000000000E+00  0.88955679028E+02  0.88955679028E+02  0.00000000000E+00 0. -1.
         -1   -1    0    0    0  501 -0.00000000000E+00 -0.00000000000E+00 -0.39315636940E+03  0.39315636940E+03  0.00000000000E+00 0.  1.
          5    1    1    2  502    0  0.65534564569E+02 -0.10190434083E+03 -0.43947261896E+02  0.12895002156E+03  0.41800000000E+01 0. -1.
         -5    1    1    2    0  502 -0.80196765974E+02  0.51912334630E+02 -0.22444652574E+03  0.24396747135E+03  0.41800000000E+01 0.  1.
        -11    1    1    2    0    0  0.41918860418E+02  0.40878685431E+02  0.55700677737E+01  0.58815673390E+02  0.00000000000E+00 0.  1.
         11    1    1    2    0    0 -0.27256659013E+02  0.91133207652E+01 -0.41376970503E+02  0.50378882122E+02  0.00000000000E+00 0. -1.
</event>
<event>
 6    1  0.5317355E-006  0.1215594E+03  0.7561462E-02  0.1240546E+00
          1   -1    0    0  501    0  0.00000000000E+00  0.00000000000E+00  0.57750990897E+02  0.57750990897E+02  0.00000000000E+00 0. -1.
         -1   -1    0    0    0  501 -0.00000000000E+00 -0.00000000000E+00 -0.28645980573E+03  0.28645980573E+03  0.00000000000E+00 0.  1.
          5    1    1    2  502    0  0.47623620620E+02 -0.56009623911E+02 -0.87475263059E+02  0.11434369794E+03  0.41800000000E+01 0.  1.
         -5    1    1    2    0  502 -0.64917534090E+02 -0.15556302232E+01 -0.84063689819E+02  0.10630560928E+03  0.41800000000E+01 0.  1.
        -11    1    1    2    0    0  0.50806096841E+02  0.21469735819E+02 -0.48710918656E+02  0.73586429650E+02  0.00000000000E+00 0.  1.
         11    1    1    2    0    0 -0.33512183370E+02  0.36095518315E+02 -0.84589433031E+01  0.49975059764E+02  0.00000000000E+00 0. -1.
</event>
<event>
 6    1  0.5317355E-006  0.1904751E+03  0.7561462E-02  0.1158034E+00
          1   -1    0    0  501    0  0.00000000000E+00  0.00000000000E+00  0.82797666177E+03  0.82797666177E+03  0.00000000000E+00 0. -1.
         -1   -1    0    0    0  501 -0.00000000000E+00 -0.00000000000E+00 -0.48929785336E+02  0.48929785336E+02  0.00000000000E+00 0.  1.
          5    1    1    2  502    0  0.12936779032E+02  0.18563324842E+02  0.42089490546E+02  0.47968269673E+02  0.41800000000E+01 0. -1.
         -5    1    1    2    0  502  0.17064505884E+01 -0.18746168886E+03  0.39461128625E+03  0.43689854245E+03  0.41800000000E+01 0. -1.
        -11    1    1    2    0    0 -0.17907585451E+02  0.15892648599E+03  0.34579985631E+03  0.38099324166E+03  0.00000000000E+00 0. -1.
         11    1    1    2    0    0  0.32643558309E+01  0.99718780260E+01 -0.34537566653E+01  0.11046393324E+02  0.00000000000E+00 0.  1.
</event>
<event>
 6    1  0.5317355E-006  0.1079005E+03  0.7561462E-02  0.1264508E+00
         -2   -1    0    0    0  501 -0.00000000000E+00  0.00000000000E+00  0.63251427957E+02  0.63251427957E+02  0.00000000000E+00 0.  1.
          2   -1    0    0  501    0  0.00000000000E+00 -0.00000000000E+00 -0.21196899638E+03  0.21196899638E+03  0.00000000000E+00 0. -1.
          5    1    1    2  502    0 -0.21329140985E+02  0.43465217781E+02 -0.30415233631E+02  0.57329889663E+02  0.41800000000E+01 0.  1.
         -5    1    1    2    0  502  0.14699522547E+02 -0.79773308375E+02 -0.32668803764E+02  0.87547586098E+02  0.41800000000E+01 0.  1.
        -11    1    1    2    0    0  0.40612772541E+02  0.32041123158E+02 -0.80531607642E+02  0.95715049475E+02  0.00000000000E+00 0. -1.
         11    1    1    2    0    0 -0.33983154103E+02  0.42669674365E+01 -0.51019233872E+01  0.34627899101E+02  0.00000000000E+00 0.  1.
</event>
<event>
 6    1  0.5317355E-006  0.1599085E+03  0.7561462E-02  0.1188800E+00
         -3   -1    0    0    0  501 -0.00000000000E+00  0.00000000000E+00  0.12730622488E+04  0.12730622488E+04  0.00000000000E+00 0.  1.
          3   -1    0    0  501    0  0.00000000000E+00 -0.00000000000E+00 -0.29592462940E+02  0.29592462940E+02  0.00000000000E+00 0. -1.
          5    1    1    2  502    0  0.40947731126E+01  0.15556256959E+02  0.32587186323E+03  0.32629543047E+03  0.41800000000E+01 0.  1.
         -5    1    1    2    0  502  0.73251532799E+02 -0.12889677937E+03  0.60518646816E+03  0.62309573938E+03  0.41800000000E+01 0.  1.
        -11    1    1    2    0    0  0.61884891939E+01  0.49132287032E+02  0.16359467528E+03  0.17092541300E+03  0.00000000000E+00 0.  1.
         11    1    1    2    0    0 -0.83534795105E+02  0.64208235382E+02  0.14881677922E+03  0.18233812893E+03  0.00000000000E+00 0. -1.
</event>
<event>
 6    1  0.5317355E-006  0.8621515E+02  0.7561462E-02  0.1312285E+00
         -4   -1    0    0    0  501 -0.00000000000E+00  0.00000000000E+00  0.71639334367E+03  0.71639334367E+03  0.00000000000E+00 0.  1.
          4   -1    0    0  501    0  0.00000000000E+00 -0.00000000000E+00 -0.20686655740E+02  0.20686655740E+02  0.00000000000E+00 0. -1.
          5    1    1    2  502    0  0.45703472107E+02  0.49862529454E+02  0.13600260883E+03  0.15195150942E+03  0.41800000000E+01 0.  1.
         -5    1    1    2    0  502  0.18330611234E+01 -0.43368965339E+02  0.33191830954E+03  0.33477076318E+03  0.41800000000E+01 0.  1.
        -11    1    1    2    0    0 -0.18380521008E+01  0.11716937227E+02 -0.46753572551E+01  0.12748490851E+02  0.00000000000E+00 0. -1.
         11    1    1    2    0    0 -0.45698481129E+02 -0.18210501343E+02  0.23246112681E+03  0.23760923596E+03  0.00000000000E+00 0.  1.
</event>
<event>
 6    1  0.5317355E-006  0.1360321E+03  0.7561462E-02  0.1218770E+00
         -1   -1    0    0    0  501 -0.00000000000E+00  0.00000000000E+00  0.47158237660E+03  0.47158237660E+03  0.00000000000E+00 0.  1.
          1   -1    0    0  501    0  0.00000000000E+00 -0.00000000000E+00 -0.52845556977E+02  0.52845556977E+02  0.00000000000E+00 0. -1.
          5    1    1    2  502    0 -0.44034260995E+02  0.24991967977E+02  0.75664104027E+02  0.91138047175E+02  0.41800000000E+01 0. -1.
         -5    1    1    2    0  502 -0.63088477982E+01 -0.95969013650E+02  0.26759338857E+03  0.28438274763E+03  0.41800000000E+01 0. -1.
        -11    1    1    2    0    0  0.68645078352E+02  0.79302933579E+02  0.74731878426E+02  0.12878647332E+03  0.00000000000E+00 0.  1.
         11    1    1    2    0    0 -0.18301969559E+02 -0.83258879062E+01  0.74744860288E+00  0.20120665460E+02  0.00000000000E+00 0. -1.
</event>
<event>
 6    1  0.5317355E-006  0.1764119E+03  0.7561462E-02  0.1171322E+00
          1   -1    0    0  501    0  0.00000000000E+00  0.00000000000E+00  0.20382177222E+03  0.20382177222E+03  0.00000000000E+00 0. -1.
         -1   -1    0    0    0  501 -0.00000000000E+00 -0.00000000000E+00 -0.15681442063E+03  0.15681442063E+03  0.00000000000E+00 0.  1.
          5    1    1    2  502    0  0.11511464349E+03  0.77284377390E+02  0.33831808982E+02  0.14278067037E+03  0.41800000000E+01 0. -1.
         -5    1    1    2    0  502 -0.87519136104E+02  0.59959229926E+01 -0.79325023776E+01  0.88181331759E+02  0.41800000000E+01 0.  1.
        -11    1    1    2    0    0 -0.18355191975E+02  0.17334765990E+02 -0.40023498292E+01  0.25562198429E+02  0.00000000000E+00 0.  1.
         11    1    1    2    0    0 -0.92403154074E+01 -0.10061506637E+03  0.25110394811E+02  0.10411199229E+03  0.00000000000E+00 0. -1.
</event>
<event>
 6    1  0.5317355E-006  0.1708080E+03  0.7561462E-02  0.1177008E+00
          1   -1    0    0  501    0  0.00000000000E+00  0.00000000000E+00  0.22780746206E+03  0.22780746206E+03  0.00000000000E+00 0. -1.
         -1   -1    0    0    0  501 -0.00000000000E+00 -0.00000000000E+00 -0.13318204110E+03  0.13318204110E+03  0.00000000000E+00 0.  1.
          5    1    1    2  502    0  0.10424046081E+03 -0.68629640970E+02  0.25508808176E+01  0.12490028296E+03  0.41800000000E+01 0. -1.
         -5    1    1    2    0  502  0.27161081026E+02  0.49096010399E+02  0.16090276604E+02  0.58519329805E+02  0.41800000000E+01 0. -1.
        -11    1    1    2    0    0 -0.14237363176E+03  0.29792142811E+02  0.68202770942E+02  0.16065316915E+03  0.00000000000E+00 0.  1.
         11    1    1    2    0    0  0.10972089923E+02 -0.10258512241E+02  0.77814925932E+01  0.16916721245E+02  0.00000000000E+00 0. -1.
</event>
<event>
 6    1  0.5317355E-006  0.1167324E+03  0.7561462E-02  0.1248587E+00
          2   -1    0    0  501    0  0.00000000000E+00  0.00000000000E+00  0.34557850015E+03  0.34557850015E+03  0.00000000000E+00 0. -1.
         -2   -1    0    0    0  501 -0.00000000000E+00 -0.00000000000E+00 -0.46642853056E+02  0.46642853056E+02  0.00000000000E+00 0.  1.
          5    1    1    2  502    0  0.73050293477E+02 -0.39341487161E+02  0.45078570620E+02  0.94517976694E+02  0.41800000000E+01 0.  1.
         -5    1    1    2    0  502 -0.16415585246E+02  0.45316726695E+02  0.68151813815E+02  0.83577624300E+02  0.41800000000E+01 0.  1.
        -11    1    1    2    0    0 -0.68619516780E+02  0.21603202789E+02  0.15633168810E+03  0.17208989848E+03  0.00000000000E+00 0. -1.
         11    1    1    2    0    0  0.11984808550E+02 -0.27578442323E+02  0.29373574561E+02  0.42035853738E+02  0.00000000000E+00 0.  1.
</event>
<event>
 6    1  0.5317355E-006  0.1205833E+03  0.7561462E-02  0.1242138E+00
          2   -1    0    0  501    0  0.00000000000E+00  0.00000000000E+00  0.70143847541E+03  0.70143847541E+03  0.00000000000E+00 0. -1.
         -2   -1    0    0    0  501 -0.00000000000E+00 -0.00000000000E+00 -0.27345245390E+02  0.27345245390E+02  0.00000000000E+00 0.  1.
          5    1    1    2  502    0 -0.29787178432E+02  0.28816204180E+02  0.26884623618E+02  0.49577263028E+02  0.41800000000E+01 0.  1.
         -5    1    1    2    0  502 -0.14682224957E+02 -0.86192314885E+02  0.21663633176E+03  0.23365242458E+03  0.41800000000E+01 0.  1.
        -11    1    1    2    0    0  0.15003386304E+02  0.75770740613E+02  0.33709465516E+03  0.34583104729E+03  0.00000000000E+00 0. -1.
         11    1    1    2    0    0  0.29466017084E+02 -0.18394629908E+02  0.93477619476E+02  0.99722985892E+02  0.00000000000E+00 0.  1.
</event>
<event>
 6    1  0.5317355E-006  0.1760565E+03  0.7561462E-02  0.1171675E+00
         -1   -1    0    0    0  501 -0.00000000000E+00  0.00000000000E+00  0.36476862061E+03  0.36476862061E+03  0.00000000000E+00 0.  1.
          1   -1    0    0  501    0  0.00000000000E+00 -0.00000000000E+00 -0.11238049771E+03  0.11238049771E+03  0.00000000000E+00 0. -1.
          5    1    1    2  502    0  0.34365197111E+02 -0.67374332037E+02  0.15280922845E+03  0.17055321776E+03  0.41800000000E+01 0. -1.
         -5    1    1    2    0  502  0.84049744261E+02 -0.50376702870E+02  0.19386949925E+02  0.99977487115E+02  0.41800000000E+01 0. -1.
        -11    1    1    2    0    0 -0.36902374916E+02  0.80720554946E+02  0.76234682503E+02  0.11700136786E+03  0.00000000000E+00 0.  1.
         11    1    1    2    0    0 -0.81512566456E+02  0.37030479960E+02  0.39572620197E+01  0.89617045583E+02  0.00000000000E+00 0. -1.
</event>
<event>
 6    1  0.5317355E-006  0.9047813E+02  0.7561462E-02  0.1301698E+00
          1   -1    0    0  501    0  0.00000000000E+00  0.00000000000E+00  0.40170417644E+03  0.40170417644E+03  0.00000000000E+00 0. -1.
         -1   -1    0    0    0  501 -0.00000000000E+00 -0.00000000000E+00 -0.40786382037E+02  0.40786382037E+02  0.00000000000E+00 0.  1.
          5    1    1    2  502    0  0.67171750466E+01  0.59031572813E+01  0.18141109438E+03  0.18167945748E+03  0.41800000000E+01 0.  1.
         -5    1    1    2    0  502 -0.62862758310E+02 -0.67067216316E+00  0.28623001621E+02  0.69202057811E+02  0.41800000000E+01 0.  1.
        -11    1    1    2    0    0  0.80762641646E+02 -0.13962586185E+02  0.14211795924E+03  0.16405813737E+03  0.00000000000E+00 0. -1.
         11    1    1    2    0    0 -0.24617058383E+02  0.87301010668E+01  0.87657391579E+01  0.27550905812E+02  0.00000000000E+00 0.  1.
</event>
<event>
 6    1  0.5317355E-006  0.1659394E+03  0.7561462E-02  0.1182150E+00
         -2   -1    0    0    0  501 -0.00000000000E+00  0.00000000000E+00  0.27474401695E+03  0.27474401695E+03  0.00000000000E+00 0.  1.
          2   -1    0    0  501    0  0.00000000000E+00 -0.00000000000E+00 -0.12839510465E+03  0.12839510465E+03  0.00000000000E+00 0. -1.
          5    1    1    2  502    0  0.79946645150E+02 -0.39400191449E+02 -0.21044368350E+02  0.91674309358E+02  0.41800000000E+01 0.  1.
         -5    1    1    2    0  502  0.51904960285E+02 -0.39383956722E+02  0.10461910464E+03  0.12332011354E+03  0.41800000000E+01 0.  1.
        -11    1    1    2    0    0 -0.53559884388E+02  0.83197983471E+02  0.34871244251E+02  0.10491219827E+03  0.00000000000E+00 0.  1.
         11    1    1    2    0    0 -0.78291721047E+02 -0.44138352997E+01  0.27902931764E+02  0.83232500428E+02  0.00000000000E+00 0. -1.
</event>
<event>
 6    1  0.5317355E-006  0.1100333E+03  0.7561462E-02  0.1260508E+00
         -1   -1    0    0    0  501 -0.00000000000E+00  0.00000000000E+00  0.47153261977E+02  0.47153261977E+02  0.00000000000E+00 0.  1.
          1   -1    0    0  501    0  0.00000000000E+00 -0.00000000000E+00 -0.41857975862E+03  0.41857975862E+03  0.00000000000E+00 0. -1.
          5    1    1    2  502    0  0.39549924591E+02 -0.35167394599E+02  0.45683072492E+01  0.53284932290E+02  0.41800000000E+01 0.  1.
         -5    1    1    2    0  502  0.34634530244E+02  0.34240538851E+02 -0.12958434286E+03  0.13849743499E+03  0.41800000000E+01 0.  1.
        -11    1    1    2    0    0 -0.34234450235E+02  0.46338326219E+02 -0.97869840147E+02  0.11356823354E+03  0.00000000000E+00 0.  1.
         11    1    1    2    0    0 -0.39950004600E+02 -0.45411470471E+02 -0.14854062089E+03  0.16038241977E+03  0.00000000000E+00 0. -1.
</event>
<event>
 6    1  0.5317355E-006  0.9992064E+02  0.7561462E-02  0.1280463E+00
          1   -1    0    0  501    0  0.00000000000E+00  0.00000000000E+00  0.15571194122E+03  0.15571194122E+03  0.00000000000E+00 0. -1.
         -1   -1    0    0    0  501 -0.00000000000E+00 -0.00000000000E+00 -0.10269944517E+03  0.10269944517E+03  0.00000000000E+00 0.  1.
          5    1    1    2  502    0  0.43632375631E+02  0.21479666280E+01 -0.41769983110E+02  0.60585492099E+02  0.41800000000E+01 0. -1.
         -5    1    1    2    0  502 -0.40858085394E+02  0.53416301193E+02  0.36091366065E+02  0.76437840627E+02  0.41800000000E+01 0. -1.
        -11    1    1    2    0    0 -0.31714790945E+02 -0.49839506959E+02  0.68354365795E+02  0.90344472669E+02  0.00000000000E+00 0. -1.
         11    1    1    2    0    0  0.28940500708E+02 -0.57247608617E+01 -0.96632526956E+01  0.31043580992E+02  0.00000000000E+00 0.  1.
</event>
<event>
 6    1  0.5317355E-006  0.1839473E+03  0.7561462E-02  0.1164037E+00
          1   -1    0    0  501    0  0.00000000000E+00  0.00000000000E+00  0.72147229616E+03  0.72147229616E+03  0.00000000000E+00 0. -1.
         -1   -1    0    0    0  501 -0.00000000000E+00 -0.00000000000E+00 -0.55001437868E+02  0.55001437868E+02  0.00000000000E+00 0.  1.
          5    1    1    2  502    0  0.85245985823E+02 -0.29006583102E+02  0.11086184238E+03  0.14288485035E+03  0.41800000000E+01 0.  1.
         -5    1    1    2    0  502  0.20093456828E+02 -0.93103565983E+02  0.31947557420E+03  0.33339786429E+03  0.41800000000E+01 0.  1.
        -11    1    1    2    0    0 -0.11770086890E+03  0.90498806676E+02  0.21079767559E+03  0.25783558441E+03  0.00000000000E+00 0. -1.
         11    1    1    2    0    0  0.12361426251E+02  0.31611342409E+02  0.25335766120E+02  0.42355434985E+02  0.00000000000E+00 0.  1.
</event>
<event>
 6    1  0.5317355E-006  0.9516149E+02  0.7561462E-02  0.1290813E+00
          1   -1    0    0  501    0  0.00000000000E+00  0.00000000000E+00  0.20701035753E+02  0.20701035753E+02  0.00000000000E+00 0. -1.
         -1   -1    0    0    0  501 -0.00000000000E+00 -0.00000000000E+00 -0.65254169004E+03  0.65254169004E+03  0.00000000000E+00 0.  1.
          5    1    1    2  502    0  0.28702478520E+02 -0.38156788014E+02 -0.25955081419E+03  0.26393914127E+03  0.41800000000E+01 0. -1.
         -5    1    1    2    0  502 -0.32154709283E+02  0.54665377350E+02 -0.24171030641E+03  0.24992713625E+03  0.41800000000E+01 0.  1.
        -11    1    1    2    0    0  0.38052706241E+02 -0.21764724543E+02 -0.30633458255E+02  0.53480093973E+02  0.00000000000E+00 0. -1.
         11    1    1    2    0    0 -0.34600475478E+02  0.52561352075E+01 -0.99946075428E+02  0.10589635430E+03  0.00000000000E+00 0.  1.
</event>
<event>
 6    1  0.5317355E-006  0.7885223E+02  0.7561462E-02  0.1332341E+00
         -1   -1    0    0    0  501 -0.00000000000E+00  0.00000000000E+00  0.69806331564E+03  0.69806331564E+03  0.00000000000E+00 0.  1.
          1   -1    0    0  501    0  0.00000000000E+00 -0.00000000000E+00 -0.19055724639E+02  0.19055724639E+02  0.00000000000E+00 0. -1.
          5    1    1    2  502    0 -0.26409151849E+02  0.10393220094E+02  0.35581913554E+03  0.35697365721E+03  0.41800000000E+01 0. -1.
         -5    1    1    2    0  502 -0.58995808011E+00 -0.33304605600E+02  0.16533030581E+02  0.37421361612E+02  0.41800000000E+01 0. -1.
        -11    1    1    2    0    0 -0.29732528171E+02 -0.80677578121E+01  0.15223107596E+03  0.15531713504E+03  0.00000000000E+00 0.  1.
         11    1    1    2    0    0  0.56731638101E+02  0.30979143318E+02  0.15442434892E+03  0.16740688642E+03  0.00000000000E+00 0. -1.
</event>
<event>
 6    1  0.5317355E-006  0.1594126E+03  0.7561462E-02  0.1189361E+00
          1   -1    0    0  501    0  0.00000000000E+00  0.00000000000E+00  0.33085667956E+03  0.33085667956E+03  0.00000000000E+00 0. -1.
         -1   -1    0    0    0  501 -0.00000000000E+00 -0.00000000000E+00 -0.12496724602E+03  0.12496724602E+03  0.00000000000E+00 0.  1.
          5    1    1    2  502    0  0.26721899032E+02  0.61124976479E+01  0.23490463214E+02  0.36341392067E+02  0.41800000000E+01 0.  1.
         -5    1    1    2    0  502 -0.27852017848E+02 -0.14224112291E+03 -0.33358363311E+02  0.14879020380E+03  0.41800000000E+01 0.  1.
        -11    1    1    2    0    0 -0.25610945982E+02  0.78288274786E+02  0.17920747225E+03  0.19723157109E+03  0.00000000000E+00 0. -1.
         11    1    1    2    0    0  0.26741064798E+02  0.57840350478E+02  0.36549861389E+02  0.73460758623E+02  0.00000000000E+00 0.  1.
</event>
<event>
 6    1  0.5317355E-006  0.1594888E+03  0.7561462E-02  0.1189275E+00
          1   -1    0    0  501    0  0.00000000000E+00  0.00000000000E+00  0.27319599610E+03  0.27319599610E+03  0.00000000000E+00 0. -1.
         -1   -1    0    0    0  501 -0.00000000000E+00 -0.00000000000E+00 -0.12979521014E+03  0.12979521014E+03  0.00000000000E+00 0.  1.
          5    1    1    2  502    0 -0.27646773620E+02 -0.15502905305E+02  0.24713424621E+02  0.40409280134E+02  0.41800000000E+01 0. -1.
         -5    1    1    2    0  502 -0.27660098910E+02  0.13100890589E+03 -0.37268138585E+02  0.13904963520E+03  0.41800000000E+01 0. -1.
        -11    1    1    2    0    0  0.64912679692E+02 -0.12416650955E+03  0.11716811594E+03  0.18264540912E+03  0.00000000000E+00 0.  1.
         11    1    1    2    0    0 -0.96058071613E+01  0.86605089620E+01  0.38787383978E+02  0.40886881790E+02  0.00000000000E+00 0. -1.
</event>
<event>
 6    1  0.5317355E-006  0.1122402E+03  0.7561462E-02  0.1256477E+00
          2   -1    0    0  501    0  0.00000000000E+00  0.00000000000E+00  0.27455228688E+03  0.27455228688E+03  0.00000000000E+00 0. -1.
         -2   -1    0    0    0  501 -0.00000000000E+00 -0.00000000000E+00 -0.57616730997E+02  0.57616730997E+02  0.00000000000E+00 0.  1.
          5    1    1    2  502    0 -0.27010190012E+01 -0.40186377148E+02  0.71260614331E+02  0.81962112996E+02  0.41800000000E+01 0.  1.
         -5    1    1    2    0  502 -0.51429128570E+02  0.57495282718E+02  0.10614882871E+02  0.77979554619E+02  0.41800000000E+01 0.  1.
        -11    1    1    2    0    0  0.65210620443E+02  0.19683898236E+02  0.81973469665E+02  0.10658109869E+03  0.00000000000E+00 0. -1.
         11    1    1    2    0    0 -0.11080472872E+02 -0.36992803805E+02  0.53086589014E+02  0.65646251573E+02  0.00000000000E+00 0.  1.
</event>
<event>
 6    1  0.5317355E-006  0.8801379E+02  0.7561462E-02  0.1307734E+00
          4   -1    0    0  501    0  0.00000000000E+00  0.00000000000E+00  0.21214292805E+02  0.21214292805E+02  0.00000000000E+00 0. -1.
         -4   -1    0    0    0  501 -0.00000000000E+00 -0.00000000000E+00 -0.60988920338E+03  0.60988920338E+03  0.00000000000E+00 0.  1.
          5    1    1    2  502    0  0.25195122746E+02 -0.52202146249E+02 -0.32459397732E+03  0.32975533475E+03  0.41800000000E+01 0. -1.
         -5    1    1    2    0  502 -0.35633663161E+02  0.38052512541E+02 -0.95034963450E+02  0.10847519688E+03  0.41800000000E+01 0. -1.
        -11    1    1    2    0    0  0.51453417403E+01 -0.25296107940E+02 -0.80641910528E+01  0.27044385662E+02  0.00000000000E+00 0. -1.
         11    1    1    2    0    0  0.52931986740E+01  0.39445741648E+02 -0.16098177874E+03  0.16582857888E+03  0.00000000000E+00 0.  1.
</event>
<event>
 6    1  0.5317355E-006  0.1351676E+03  0.7561462E-02  0.1219983E+00
          2   -1    0    0  501    0  0.00000000000E+00  0.00000000000E+00  0.15057983398E+03  0.15057983398E+03  0.00000000000E+00 0. -1.
         -2   -1    0    0    0  501 -0.00000000000E+00 -0.00000000000E+00 -0.13933890263E+03  0.13933890263E+03  0.00000000000E+00 0.  1.
          5    1    1    2  502    0 -0.69108406875E+02  0.93343133884E+02  0.77112836816E+01  0.11647252397E+03  0.41800000000E+01 0.  1.
         -5    1    1    2    0  502  0.82985983242E+01 -0.28277492971E+02 -0.23239726556E+02  0.37762953185E+02  0.41800000000E+01 0.  1.
        -11    1    1    2    0    0  0.50160977341E+02  0.77559718872E+01  0.34961449362E+02  0.61632634936E+02  0.00000000000E+00 0. -1.
         11    1    1    2    0    0  0.10648831210E+02 -0.72821612800E+02 -0.81920751389E+01  0.74050624521E+02  0.00000000000E+00 0.  1.
</event>
<event>
 6    1  0.5317355E-006  0.9340348E+02  0.7561462E-02  0.1294813E+00
         -1   -1    0    0    0  501 -0.00000000000E+00  0.00000000000E+00  0.15996336722E+03  0.15996336722E+03  0.00000000000E+00 0.  1.
          1   -1    0    0  501    0  0.00000000000E+00 -0.00000000000E+00 -0.88442408678E+02  0.88442408678E+02  0.00000000000E+00 0. -1.
          5    1    1    2  502    0  0.14602772617E+01 -0.26081896641E+02  0.70465147584E+02  0.75267570481E+02  0.41800000000E+01 0. -1.
         -5    1    1    2    0  502  0.42336317389E+02  0.44151086945E+02 -0.24686547990E+02  0.66095236592E+02  0.41800000000E+01 0. -1.
        -11    1    1    2    0    0 -0.56777922795E+02 -0.42804464913E+02  0.32515464021E+01  0.71179542619E+02  0.00000000000E+00 0.  1.
         11    1    1    2    0    0  0.12981328145E+02  0.24735274609E+02  0.22490812551E+02  0.35863426211E+02  0.00000000000E+00 0. -1.
</event>
<event>
 6    1  0.5317355E-006  0.1357783E+03  0.7561462E-02  0.1219125E+00
          1   -1    0    0  501    0  0.00000000000E+00  0.00000000000E+00  0.65414653988E+02  0.65414653988E+02  0.00000000000E+00 0. -1.
         -1   -1    0    0    0  501 -0.00000000000E+00 -0.00000000000E+00 -0.52094892228E+03  0.52094892228E+03  0.00000000000E+00 0.  1.
          5    1    1    2  502    0 -0.50856960802E+02  0.14048615955E+02 -0.51471045568E+02  0.73827738717E+02  0.41800000000E+01 0.  1.
         -5    1    1    2    0  502  0.69905372283E+01  0.83842622932E+02 -0.35327838313E+03  0.36318251805E+03  0.41800000000E+01 0.  1.
        -11    1    1    2    0    0  0.67901283489E+02 -0.75520871611E+02 -0.56206862359E+02  0.11607410445E+03  0.00000000000E+00 0. -1.
         11    1    1    2    0    0 -0.24034859916E+02 -0.22370367277E+02  0.54220227645E+01  0.33279215047E+02  0.00000000000E+00 0.  1.
</event>
<event>
 6    1  0.5317355E-006  0.8979413E+02  0.7561462E-02  0.1303351E+00
          2   -1    0    0  501    0  0.00000000000E+00  0.00000000000E+00  0.57446711005E+03  0.57446711005E+03  0.00000000000E+00 0. -1.
         -2   -1    0    0    0  501 -0.00000000000E+00 -0.00000000000E+00 -0.30655165113E+02  0.30655165113E+02  0.00000000000E+00 0.  1.
          5    1    1    2  502    0 -0.18200765662E+02  0.76162614823E+01 -0.87676247443E+01  0.21991338143E+02  0.41800000000E+01 0. -1.
         -5    1    1    2    0  502 -0.19904234692E+02  0.57415954291E+02  0.27500067889E+03  0.28166578805E+03  0.41800000000E+01 0. -1.
        -11    1    1    2    0    0  0.27117016042E+01 -0.62998497511E+02  0.86037601272E+02  0.10667067473E+03  0.00000000000E+00 0.  1.
         11    1    1    2    0    0  0.35393298750E+02 -0.20337182629E+01  0.19154128952E+03  0.19479447424E+03  0.00000000000E+00 0. -1.
</event>
<event>
 6    1  0.5317355E-006  0.1332025E+03  0.7561462E-02  0.1222780E+00
          2   -1    0    0  501    0  0.00000000000E+00  0.00000000000E+00  0.67088764726E+03  0.67088764726E+03  0.00000000000E+00 0. -1.
         -2   -1    0    0    0  501 -0.00000000000E+00 -0.00000000000E+00 -0.29612164436E+02  0.29612164436E+02  0.00000000000E+00 0.  1.
          5    1    1    2  502    0 -0.13573254598E+02  0.83554776006E+02  0.13174434024E+03  0.15665145202E+03  0.41800000000E+01 0. -1.
         -5    1    1    2    0  502  0.59349081899E+02 -0.19085235844E+02  0.12288795957E+03  0.13786037414E+03  0.41800000000E+01 0. -1.
        -11    1    1    2    0    0 -0.15645599912E+02 -0.82557438623E+02  0.31744344265E+03  0.32837608736E+03  0.00000000000E+00 0.  1.
         11    1    1    2    0    0 -0.30130227388E+02  0.18087898462E+02  0.69199740364E+02  0.77611898184E+02  0.00000000000E+00 0. -1.
</event>
<event>
 6    1  0.5317355E-006  0.1028594E+03  0.7561462E-02  0.1274395E+00
          1   -1    0    0  501    0  0.00000000000E+00  0.00000000000E+00  0.42875782060E+03  0.42875782060E+03  0.00000000000E+00 0. -1.
         -1   -1    0    0    0  501 -0.00000000000E+00 -0.00000000000E+00 -0.28905760645E+02  0.28905760645E+02  0.00000000000E+00 0.  1.
          5    1    1    2  502    0 -0.44514062491E+02  0.44311902633E+02  0.20552340284E+03  0.21494740750E+03  0.41800000000E+01 0. -1.
         -5    1    1    2    0  502  0.36802562856E+02 -0.33087811927E+02  0.48700874182E+02  0.69559179674E+02  0.41800000000E+01 0.  1.
        -11    1    1    2    0    0 -0.25965826852E+02  0.30128222366E+02  0.52860804201E+02  0.66152842477E+02  0.00000000000E+00 0. -1.
         11    1    1    2    0    0  0.33677326487E+02 -0.41352313072E+02  0.92766978725E+02  0.10700415159E+03  0.00000000000E+00 0.  1.
</event>
<event>
 6    1  0.5317355E-006  0.1707997E+03  0.7561462E-02  0.1177016E+00
          1   -1    0    0  501    0  0.00000000000E+00  0.00000000000E+00  0.92496521450E+02  0.92496521450E+02  0.00000000000E+00 0. -1.
         -1   -1    0    0    0  501 -0.00000000000E+00 -0.00000000000E+00 -0.33997572345E+03  0.33997572345E+03  0.00000000000E+00 0.  1.
          5    1    1    2  502    0 -0.79766821943E+02  0.13278234827E+03 -0.10688758432E+03  0.18824538766E+03  0.41800000000E+01 0.  1.
         -5    1    1    2    0  502  0.19389456203E+02 -0.85291688693E+01 -0.53188848854E+02  0.57404039718E+02  0.41800000000E+01 0.  1.
        -11    1    1    2    0    0  0.87278310860E+01 -0.11151408451E+03 -0.56785193310E+02  0.12544370952E+03  0.00000000000E+00 0. -1.
         11    1    1    2    0    0  0.51649534655E+02 -0.12739094892E+02 -0.30617575515E+02  0.61379108002E+02  0.00000000000E+00 0.  1.
</event>
<event>
 6    1  0.5317355E-006  0.1177348E+03  0.7561462E-02  0.1246881E+00
          3   -1    0    0  501    0  0.00000000000E+00  0.00000000000E+00  0.31307793440E+03  0.31307793440E+03  0.00000000000E+00 0. -1.
         -3   -1    0    0    0  501 -0.00000000000E+00 -0.00000000000E+00 -0.46102118541E+02  0.46102118541E+02  0.00000000000E+00 0.  1.
          5    1    1    2  502    0 -0.29192398559E+01  0.57686442005E+02  0.70141187602E+02  0.90958815685E+02  0.41800000000E+01 0.  1.
         -5    1    1    2    0  502  0.50422517243E+02 -0.54225517645E+02  0.55623332827E+02  0.92705256398E+02  0.41800000000E+01 0.  1.
        -11    1    1    2    0    0 -0.19189624620E+02  0.44071444064E+02  0.76835105985E+02  0.90632043929E+02  0.00000000000E+00 0. -1.
         11    1    1    2    0    0 -0.28313652767E+02 -0.47532368425E+02  0.64376189441E+02  0.84883936926E+02  0.00000000000E+00 0.  1.
</event>
<event>
 6    1  0.5317355E-006  0.1023428E+03  0.7561462E-02  0.1275445E+00
          1   -1    0    0  501    0  0.00000000000E+00  0.00000000000E+00  0.14640406429E+03  0.14640406429E+03  0.00000000000E+00 0. -1.
         -1   -1    0    0    0  501 -0.00000000000E+00 -0.00000000000E+00 -0.11508065518E+03  0.11508065518E+03  0.00000000000E+00 0.  1.
          5    1    1    2  502    0 -0.18013902482E+02  0.11377588429E+02  0.34261342870E+02  0.40561832014E+02  0.41800000000E+01 0. -1.
         -5    1    1    2    0  502  0.57835635613E+02 -0.51683281687E+02 -0.62348599088E+02  0.99603928442E+02  0.41800000000E+01 0. -1.
        -11    1    1    2    0    0  0.12986977122E+02  0.49953640019E+02  0.34894952649E+02  0.62303173646E+02  0.00000000000E+00 0. -1.
         11    1    1    2    0    0 -0.52808710254E+02 -0.96479467605E+01  0.24515712675E+02  0.59015785374E+02  0.00000000000E+00 0.  1.
</event>
<event>
 6    1  0.5317355E-006  0.1936837E+03  0.7561462E-02  0.1155180E+00
          3   -1    0    0  501    0  0.00000000000E+00  0.00000000000E+00  0.73216552090E+02  0.73216552090E+02  0.00000000000E+00 0. -1.
         -3   -1    0    0    0  501 -0.00000000000E+00 -0.00000000000E+00 -0.65995616608E+03  0.65995616608E+03  0.00000000000E+00 0.  1.
          5    1    1    2  502    0 -0.46978773113E+02 -0.76894983709E+02 -0.29284187756E+02  0.94841339591E+02  0.41800000000E+01 0. -1.
         -5    1    1    2    0  502 -0.71761589141E+02 -0.67676976523E+02 -0.21919787138E+03  0.24040606907E+03  0.41800000000E+01 0. -1.
        -11    1    1    2    0    0  0.12340172720E+02  0.63437176625E+02 -0.55820489858E+02  0.85396032278E+02  0.00000000000E+00 0. -1.
         11    1    1    2    0    0  0.10640018953E+03  0.81134783608E+02 -0.28243706499E+03  0.31252927723E+03  0.00000000000E+00 0.  1.
</event>
<event>
 6    1  0.5317355E-006  0.8661835E+02  0.7561462E-02  0.1311254E+00
          1   -1    0    0  501    0  0.00000000000E+00  0.00000000000E+00  0.43729029653E+02  0.43729029653E+02  0.00000000000E+00 0. -1.
         -1   -1    0    0    0  501 -0.00000000000E+00 -0.00000000000E+00 -0.48662109586E+03  0.48662109586E+03  0.00000000000E+00 0.  1.
          5    1    1    2  502    0 -0.14239654527E+02  0.36557018992E+01  0.18750421634E+01  0.15398704508E+02  0.41800000000E+01 0.  1.
         -5    1    1    2    0  502  0.58143858290E+02  0.59850188072E+01 -0.40145945212E+03  0.40571380653E+03  0.41800000000E+01 0.  1.
        -11    1    1    2    0    0 -0.71255262873E+02 -0.10284294499E+02 -0.37860998124E+02  0.81342082463E+02  0.00000000000E+00 0. -1.
         11    1    1    2    0    0  0.27351059110E+02  0.64357379276E+00 -0.54466581221E+01  0.27895532014E+02  0.00000000000E+00 0.  1.
</event>
<event>
 6    1  0.5317355E-006  0.1551044E+03  0.7561462E-02  0.1194337E+00
         -1   -1    0    0    0  501 -0.00000000000E+00  0.00000000000E+00  0.23350858583E+03  0.23350858583E+03  0.00000000000E+00 0.  1.
          1   -1    0    0  501    0  0.00000000000E+00 -0.00000000000E+00 -0.11284427502E+03  0.11284427502E+03  0.00000000000E+00 0. -1.
          5    1    1    2  502    0 -0.50631106376E+01 -0.23605461309E+02 -0.16978620701E+01  0.24560293739E+02  0.41800000000E+01 0. -1.
         -5    1    1    2    0  502  0.10565902785E+02  0.14058045085E+03  0.10109667934E+03  0.17352957223E+03  0.41800000000E+01 0. -1.
        -11    1    1    2    0    0 -0.35041335834E+02 -0.14330759572E+02 -0.52241846418E+01  0.38217247312E+02  0.00000000000E+00 0. -1.
         11    1    1    2    0    0  0.29538543687E+02 -0.10264422997E+03  0.26489678178E+02  0.11004574758E+03  0.00000000000E+00 0.  1.
</event>
<event>
 6    1  0.5317355E-006  0.1321437E+03  0.7561462E-02  0.1224309E+00
         -3   -1    0    0    0  501 -0.00000000000E+00  0.00000000000E+00  0.69376035016E+03  0.69376035016E+03  0.00000000000E+00 0.  1.
          3   -1    0    0  501    0  0.00000000000E+00 -0.00000000000E+00 -0.36802191704E+02  0.36802191704E+02  0.00000000000E+00 0. -1.
          5    1    1    2  502    0 -0.78193569630E+02  0.88707402048E+02  0.48565552203E+03  0.49986197694E+03  0.41800000000E+01 0. -1.
         -5    1    1    2    0  502  0.13677871154E+02 -0.12618364783E+02  0.11196433202E+02  0.22116505275E+02  0.41800000000E+01 0. -1.
        -11    1    1    2    0    0  0.13369672306E+01 -0.62184692739E+02  0.11147249167E+03  0.12765124320E+03  0.00000000000E+00 0.  1.
         11    1    1    2    0    0  0.63178731245E+02 -0.13904344526E+02  0.48633711550E+02  0.80932816444E+02  0.00000000000E+00 0. -1.
</event>
<event>
 6    1  0.5317355E-006  0.1045028E+03  0.7561462E-02  0.1271102E+00
          1   -1    0    0  501    0  0.00000000000E+00  0.00000000000E+00  0.48663217272E+03  0.48663217272E+03  0.00000000000E+00 0. -1.
         -1   -1    0    0    0  501 -0.00000000000E+00 -0.00000000000E+00 -0.28070886038E+02  0.28070886038E+02  0.00000000000E+00 0.  1.
          5    1    1    2  502    0 -0.22413935414E+02 -0.36261517578E+02  0.28553855314E+02  0.51478900640E+02  0.41800000000E+01 0. -1.
         -5    1    1    2    0  502  0.66329825496E+02  0.25830148263E+02  0.20815373037E+03  0.22002793045E+03  0.41800000000E+01 0. -1.
        -11    1    1    2    0    0 -0.40245926757E+02  0.44846286695E+02  0.10223804212E+03  0.11867409704E+03  0.00000000000E+00 0.  1.
         11    1    1    2    0    0 -0.36699633256E+01 -0.34414917379E+02  0.11961565888E+03  0.12452213063E+03  0.00000000000E+00 0. -1.
</event>
<event>
 6    1  0.5317355E-006  0.1237660E+03  0.7561462E-02  0.1237011E+00
         -2   -1    0    0    0  501 -0.00000000000E+00  0.00000000000E+00  0.36491927357E+02  0.36491927357E+02  0.00000000000E+00 0. -1.
          2   -1    0    0  501    0  0.00000000000E+00 -0.00000000000E+00 -0.61599642790E+03  0.61599642790E+03  0.00000000000E+00 0.  1.
          5    1    1    2  502    0  0.53629129628E+02 -0.33367319710E+02 -0.43353429031E+02  0.76723228413E+02  0.41800000000E+01 0. -1.
         -5    1    1    2    0  502 -0.68405230527E+02 -0.28005531166E+02 -0.91861437953E+02  0.11798127615E+03  0.41800000000E+01 0. -1.
        -11    1    1    2    0    0  0.45453529255E+02  0.46247871678E+01 -0.19535829187E+03  0.20062969417E+03  0.00000000000E+00 0.  1.
         11    1    1    2    0    0 -0.30677428356E+02  0.56748063708E+02 -0.24893134169E+03  0.25715415653E+03  0.00000000000E+00 0. -1.
</event>
<event>
 6    1  0.5317355E-006  0.2814964E+03  0.7561462E-02  0.1094874E+00
         -1   -1    0    0    0  501 -0.00000000000E+00  0.00000000000E+00  0.13030111494E+03  0.13030111494E+03  0.00000000000E+00 0.  1.
          1   -1    0    0  501    0  0.00000000000E+00 -0.00000000000E+00 -0.61763685591E+03  0.61763685591E+03  0.00000000000E+00 0. -1.
          5    1    1    2  502    0  0.56405208193E+02  0.19982795950E+03 -0.18725105850E+03  0.27963045653E+03  0.41800000000E+01 0.  1.
         -5    1    1    2    0  502 -0.52644956108E+02  0.60950657827E+02 -0.93395074718E+02  0.12339605535E+03  0.41800000000E+01 0.  1.
        -11    1    1    2    0    0 -0.42903085019E+02 -0.17805128181E+03 -0.15413245727E+03  0.23937365779E+03  0.00000000000E+00 0.  1.
         11    1    1    2    0    0  0.39142832934E+02 -0.82727335516E+02 -0.52557150478E+02  0.10553780118E+03  0.00000000000E+00 0. -1.
</event>
<event>
 6    1  0.7056019E-006  0.4298797E+03  0.7561462E-02  0.1033898E+00
         -2   -1    0    0    0  501 -0.00000000000E+00  0.00000000000E+00  0.79124722177E+03  0.79124722177E+03  0.00000000000E+00 0.  1.
          2   -1    0    0  501    0  0.00000000000E+00 -0.00000000000E+00 -0.25490671621E+03  0.25490671621E+03  0.00000000000E+00 0. -1.
          5    1    1    2  502    0  0.28862036565E+02 -0.37175732352E+02  0.14021462910E+02  0.49286164922E+02  0.41800000000E+01 0. -1.
         -5    1    1    2    0  502 -0.25013900095E+02 -0.38513320730E+03  0.38168775942E+03  0.54282253145E+03  0.41800000000E+01 0. -1.
        -11    1    1    2    0    0  0.27552771310E+02  0.15924106344E+03  0.19661019056E+02  0.16279873206E+03  0.00000000000E+00 0.  1.
         11    1    1    2    0    0 -0.31400907779E+02  0.26306787621E+03  0.12097026418E+03  0.29124650954E+03  0.00000000000E+00 0. -1.
</event>
<event>
 6    1  0.5317355E-006  0.1555695E+03  0.7561462E-02  0.1193792E+00
         -1   -1    0    0    0  501 -0.00000000000E+00  0.00000000000E+00  0.91702896652E+02  0.91702896652E+02  0.00000000000E+00 0.  1.
          1   -1    0    0  501    0  0.00000000000E+00 -0.00000000000E+00 -0.53221247961E+03  0.53221247961E+03  0.00000000000E+00 0. -1.
          5    1    1    2  502    0  0.39465519893E+02 -0.22240896404E+02 -0.83414324207E+02  0.95013718042E+02  0.41800000000E+01 0. -1.
         -5    1    1    2    0  502  0.10940184280E+03 -0.93438887681E+01  0.20517021934E+02  0.11177876388E+03  0.41800000000E+01 0. -1.
        -11    1    1    2    0    0 -0.68939661107E+02 -0.22388788661E+01 -0.73190746128E+02  0.10057124227E+03  0.00000000000E+00 0.  1.
         11    1    1    2    0    0 -0.79927701585E+02  0.33823664038E+02 -0.30442153456E+03  0.31655165207E+03  0.00000000000E+00 0. -1.
</event>
<event>
 6    1  0.5317355E-006  0.4464749E+03  0.7561462E-02  0.1028778E+00
         -2   -1    0    0    0  501 -0.00000000000E+00  0.00000000000E+00  0.38286409906E+03  0.38286409906E+03  0.00000000000E+00 0.  1.
          2   -1    0    0  501    0  0.00000000000E+00 -0.00000000000E+00 -0.54684924772E+03  0.54684924772E+03  0.00000000000E+00 0. -1.
          5    1    1    2  502    0  0.88388449302E+01  0.18047744188E+03 -0.85826406151E+02  0.20008467357E+03  0.41800000000E+01 0. -1.
         -5    1    1    2    0  502  0.26958674178E+02  0.26228716923E+03  0.27227390953E+02  0.26510400312E+03  0.41800000000E+01 0. -1.
        -11    1    1    2    0    0 -0.30450758239E+02 -0.78461054221E+02  0.35717464756E+01  0.84238608012E+02  0.00000000000E+00 0. -1.
         11    1    1    2    0    0 -0.53467608695E+01 -0.36430355688E+03 -0.10895787993E+03  0.38028606207E+03  0.00000000000E+00 0.  1.
</event>
<event>
 6    1  0.5317355E-006  0.1885085E+03  0.7561462E-02  0.1159814E+00
         -1   -1    0    0    0  501 -0.00000000000E+00  0.00000000000E+00  0.10021204658E+03  0.10021204658E+03  0.00000000000E+00 0.  1.
          1   -1    0    0  501    0  0.00000000000E+00 -0.00000000000E+00 -0.36884814615E+03  0.36884814615E+03  0.00000000000E+00 0. -1.
          5    1    1    2  502    0  0.68430234189E+01  0.41234991648E+02 -0.23467264814E+02  0.48117942845E+02  0.41800000000E+01 0. -1.
         -5    1    1    2    0  502 -0.15927834276E+03  0.27517359394E+01 -0.12773670619E+03  0.20423344739E+03  0.41800000000E+01 0. -1.
        -11    1    1    2    0    0  0.14197885676E+02 -0.34245869733E+02 -0.33714441399E+01  0.37225343344E+02  0.00000000000E+00 0.  1.
         11    1    1    2    0    0  0.13823743367E+03 -0.97408578543E+01 -0.11406068443E+03  0.17948345916E+03  0.00000000000E+00 0. -1.
</event>
<event>
 6    1  0.5317355E-006  0.1063367E+03  0.7561462E-02  0.1267508E+00
          2   -1    0    0  501    0  0.00000000000E+00  0.00000000000E+00  0.73015418963E+03  0.73015418963E+03  0.00000000000E+00 0. -1.
         -2   -1    0    0    0  501 -0.00000000000E+00 -0.00000000000E+00 -0.19716191805E+02  0.19716191805E+02  0.00000000000E+00 0.  1.
          5    1    1    2  502    0  0.47989352496E+02 -0.28432576241E+02  0.26985678340E+03  0.27559307918E+03  0.41800000000E+01 0. -1.
         -5    1    1    2    0  502 -0.64018839873E+02 -0.22580571852E+02  0.12910704788E+03  0.14592599596E+03  0.41800000000E+01 0. -1.
        -11    1    1    2    0    0 -0.28244603401E+02  0.17933430161E+02  0.44265192747E+02  0.55486690544E+02  0.00000000000E+00 0.  1.
         11    1    1    2    0    0  0.44274090779E+02  0.33079717932E+02  0.26720897379E+03  0.27286461575E+03  0.00000000000E+00 0. -1.
</event>
<event>
 6    1  0.5317355E-006  0.8787931E+02  0.7561462E-02  0.1308070E+00
          2   -1    0    0  501    0  0.00000000000E+00  0.00000000000E+00  0.26126103409E+03  0.26126103409E+03  0.00000000000E+00 0. -1.
         -2   -1    0    0    0  501 -0.00000000000E+00 -0.00000000000E+00 -0.52803682786E+02  0.52803682786E+02  0.00000000000E+00 0.  1.
          5    1    1    2  502    0 -0.25282578092E+02 -0.24052097459E+02  0.33104024227E+01  0.35300755110E+02  0.41800000000E+01 0.  1.
         -5    1    1    2    0  502  0.63112730496E+02  0.49651817786E+02  0.13189793833E+03  0.15447672413E+03  0.41800000000E+01 0.  1.
        -11    1    1    2    0    0 -0.20503637358E+02 -0.34944901830E+02 -0.74730223020E+01  0.41199409839E+02  0.00000000000E+00 0.  1.
         11    1    1    2    0    0 -0.17326515046E+02  0.93451815024E+01  0.80722032850E+02  0.83087827800E+02  0.00000000000E+00 0. -1.
</event>
<event>
 6    1  0.5317355E-006  0.1387228E+03  0.7561462E-02  0.1215058E+00
          1   -1    0    0  501    0  0.00000000000E+00  0.00000000000E+00  0.33467541240E+03  0.33467541240E+03  0.00000000000E+00 0. -1.
         -1   -1    0    0    0  501 -0.00000000000E+00 -0.00000000000E+00 -0.10129188405E+03  0.10129188405E+03  0.00000000000E+00 0.  1.
          5    1    1    2  502    0  0.72025099875E+02 -0.27979523002E+02 -0.47173560524E+02  0.90627180978E+02  0.41800000000E+01 0. -1.
         -5    1    1    2    0  502  0.29685465634E+02 -0.40766614280E+02  0.69627646217E+02  0.86073371187E+02  0.41800000000E+01 0. -1.
        -11    1    1    2    0    0 -0.26973173428E+02  0.69679602492E+02  0.88480950662E+02  0.11580879810E+03  0.00000000000E+00 0.  1.
         11    1    1    2    0    0 -0.74737392082E+02 -0.93346520965E+00  0.12244849199E+03  0.14345794618E+03  0.00000000000E+00 0. -1.
</event>
<event>
 6    1  0.5317355E-006  0.9117888E+02  0.7561462E-02  0.1300022E+00
         -4   -1    0    0    0  501 -0.00000000000E+00  0.00000000000E+00  0.55613711240E+02  0.55613711240E+02  0.00000000000E+00 0.  1.
          4   -1    0    0  501    0  0.00000000000E+00 -0.00000000000E+00 -0.24401418782E+03  0.24401418782E+03  0.00000000000E+00 0. -1.
          5    1    1    2  502    0 -0.85411199788E+01 -0.47336369258E+02 -0.43349879629E+02  0.64887341206E+02  0.41800000000E+01 0. -1.
         -5    1    1    2    0  502  0.12769483261E+02  0.75303500126E+02 -0.25186624280E+02  0.80532696941E+02  0.41800000000E+01 0. -1.
        -11    1    1    2    0    0 -0.20851310975E+02 -0.34012173280E+02 -0.12848108802E+03  0.13453250566E+03  0.00000000000E+00 0. -1.
         11    1    1    2    0    0  0.16622947693E+02  0.60450424117E+01  0.86171153416E+01  0.19675355259E+02  0.00000000000E+00 0.  1.
</event>
<event>
 6    1  0.5317355E-006  0.9928405E+02  0.7561462E-02  0.1281809E+00
         -1   -1    0    0    0  501 -0.00000000000E+00  0.00000000000E+00  0.38033386480E+03  0.38033386480E+03  0.00000000000E+00 0.  1.
          1   -1    0    0  501    0  0.00000000000E+00 -0.00000000000E+00 -0.41412711366E+02  0.41412711366E+02  0.00000000000E+00 0. -1.
          5    1    1    2  502    0  0.49340152908E+02  0.36038489212E+02  0.19671792967E+03  0.20603067648E+03  0.41800000000E+01 0. -1.
         -5    1    1    2    0  502 -0.59310636150E+02 -0.92236062961E+01  0.92129598297E+02  0.11003709264E+03  0.41800000000E+01 0. -1.
        -11    1    1    2    0    0 -0.12523028894E+02  0.20923033889E+02  0.46841132515E+02  0.52808060891E+02  0.00000000000E+00 0.  1.
         11    1    1    2    0    0  0.22493512136E+02 -0.47737916805E+02  0.32324929477E+01  0.52870746162E+02  0.00000000000E+00 0. -1.
</event>
<event>
 6    1  0.5317355E-006  0.3144374E+03  0.7561462E-02  0.1078238E+00
          1   -1    0    0  501    0  0.00000000000E+00  0.00000000000E+00  0.21577792109E+04  0.21577792109E+04  0.00000000000E+00 0. -1.
         -1   -1    0    0    0  501 -0.00000000000E+00 -0.00000000000E+00 -0.50642658197E+02  0.50642658197E+02  0.00000000000E+00 0.  1.
          5    1    1    2  502    0  0.54379633907E+02  0.16645882186E+03  0.83090574043E+03  0.84916871458E+03  0.41800000000E+01 0. -1.
         -5    1    1    2    0  502  0.62494680000E+02  0.12265131207E+03  0.29051134496E+03  0.32150154483E+03  0.41800000000E+01 0. -1.
        -11    1    1    2    0    0 -0.51462001656E+02 -0.19292031045E+03  0.50219621006E+03  0.54043280544E+03  0.00000000000E+00 0.  1.
         11    1    1    2    0    0 -0.65412312250E+02 -0.96189823479E+02  0.48352325726E+03  0.49731880424E+03  0.00000000000E+00 0. -1.
</event>
<event>
 6    1  0.5317355E-006  0.1155510E+03  0.7561462E-02  0.1250622E+00
          2   -1    0    0  501    0  0.00000000000E+00  0.00000000000E+00  0.13559710066E+02  0.13559710066E+02  0.00000000000E+00 0. -1.
         -2   -1    0    0    0  501 -0.00000000000E+00 -0.00000000000E+00 -0.13837289501E+04  0.13837289501E+04  0.00000000000E+00 0.  1.
          5    1    1    2  502    0  0.22898197550E+02 -0.46714949707E+02 -0.68135184223E+03  0.68334794892E+03  0.41800000000E+01 0. -1.
         -5    1    1    2    0  502 -0.47245199075E+02 -0.31481385806E+02 -0.13386326516E+03  0.14546488458E+03  0.41800000000E+01 0. -1.
        -11    1    1    2    0    0  0.55334424537E+02  0.25674240675E+02 -0.23685098069E+03  0.24458015501E+03  0.00000000000E+00 0. -1.
         11    1    1    2    0    0 -0.30987423012E+02  0.52522094839E+02 -0.31810315198E+03  0.32389567168E+03  0.00000000000E+00 0.  1.
</event>
<event>
 6    1  0.5317355E-006  0.1428435E+03  0.7561462E-02  0.1209553E+00
          2   -1    0    0  501    0  0.00000000000E+00  0.00000000000E+00  0.63374863101E+03  0.63374863101E+03  0.00000000000E+00 0. -1.
         -2   -1    0    0    0  501 -0.00000000000E+00 -0.00000000000E+00 -0.42547099208E+02  0.42547099208E+02  0.00000000000E+00 0.  1.
          5    1    1    2  502    0 -0.52061693704E+02  0.29926922042E+02  0.69606859085E+02  0.92025147900E+02  0.41800000000E+01 0. -1.
         -5    1    1    2    0  502  0.72749490339E+02  0.64825961201E+02  0.88610125347E+02  0.13177298776E+03  0.41800000000E+01 0. -1.
        -11    1    1    2    0    0 -0.42721785703E+02 -0.15093787628E+02  0.20626239174E+03  0.21118036757E+03  0.00000000000E+00 0.  1.
         11    1    1    2    0    0  0.22033989068E+02 -0.79659095616E+02  0.22672215562E+03  0.24131722698E+03  0.00000000000E+00 0. -1.
</event>
<event>
 6    1  0.5317355E-006  0.1295433E+03  0.7561462E-02  0.1228135E+00
         -2   -1    0    0    0  501 -0.00000000000E+00  0.00000000000E+00  0.73216121924E+02  0.73216121924E+02  0.00000000000E+00 0.  1.
          2   -1    0    0  501    0  0.00000000000E+00 -0.00000000000E+00 -0.29336237794E+03  0.29336237794E+03  0.00000000000E+00 0. -1.
          5    1    1    2  502    0  0.57561282529E+02 -0.32595738320E+02 -0.27782748469E+02  0.71868886978E+02  0.41800000000E+01 0. -1.
         -5    1    1    2    0  502 -0.66145890374E+02 -0.41175092390E+02 -0.11967049784E+02  0.78938898695E+02  0.41800000000E+01 0. -1.
        -11    1    1    2    0    0  0.48227866914E+02  0.42602743611E+02 -0.12671254244E+03  0.14211611211E+03  0.00000000000E+00 0. -1.
         11    1    1    2    0    0 -0.39643259070E+02  0.31168087099E+02 -0.53683915326E+02  0.73654602082E+02  0.00000000000E+00 0.  1.
</event>
<event>
 6    1  0.5317355E-006  0.1095940E+03  0.7561462E-02  0.1261324E+00
         -1   -1    0    0    0  501 -0.00000000000E+00  0.00000000000E+00  0.31684611396E+02  0.31684611396E+02  0.00000000000E+00 0.  1.
          1   -1    0    0  501    0  0.00000000000E+00 -0.00000000000E+00 -0.54607101140E+03  0.54607101140E+03  0.00000000000E+00 0. -1.
          5    1    1    2  502    0 -0.26300634276E+02  0.28140226407E+02 -0.11614068625E+03  0.12243254105E+03  0.41800000000E+01 0.  1.
         -5    1    1    2    0  502  0.21126852325E+02 -0.70020269880E+02 -0.45378476416E+02  0.86173433290E+02  0.41800000000E+01 0.  1.
        -11    1    1    2    0    0  0.39733721466E+02  0.56985322701E+02 -0.20090969091E+03  0.21258127746E+03  0.00000000000E+00 0.  1.
         11    1    1    2    0    0 -0.34559939514E+02 -0.15105279228E+02 -0.15195754643E+03  0.15656837100E+03  0.00000000000E+00 0. -1.
</event>
<event>
 6    1  0.5317355E-006  0.1012953E+03  0.7561462E-02  0.1277595E+00
          1   -1    0    0  501    0  0.00000000000E+00  0.00000000000E+00  0.76938361378E+03  0.76938361378E+03  0.00000000000E+00 0. -1.
         -1   -1    0    0    0  501 -0.00000000000E+00 -0.00000000000E+00 -0.17880505681E+02  0.17880505681E+02  0.00000000000E+00 0.  1.
          5    1    1    2  502    0  0.44456983242E+02  0.43801635930E+02  0.27461161354E+03  0.28164519766E+03  0.41800000000E+01 0.  1.
         -5    1    1    2    0  502 -0.42192306807E+02 -0.11427908942E+02  0.43930835220E+02  0.62114237817E+02  0.41800000000E+01 0.  1.
        -11    1    1    2    0    0 -0.10033472516E+02  0.30844331311E+02  0.14424283244E+03  0.14784464162E+03  0.00000000000E+00 0. -1.
         11    1    1    2    0    0  0.77687960813E+01 -0.63218058300E+02  0.28871782689E+03  0.29566004237E+03  0.00000000000E+00 0.  1.
</event>
<event>
 6    1  0.5317355E-006  0.1118977E+03  0.7561462E-02  0.1257095E+00
          2   -1    0    0  501    0  0.00000000000E+00  0.00000000000E+00  0.59264618469E+03  0.59264618469E+03  0.00000000000E+00 0.  1.
         -2   -1    0    0    0  501 -0.00000000000E+00 -0.00000000000E+00 -0.23684487006E+02  0.23684487006E+02  0.00000000000E+00 0. -1.
          5    1    1    2  502    0 -0.78804688304E+02  0.24853320243E+02  0.14277676022E+03  0.16501679334E+03  0.41800000000E+01 0.  1.
         -5    1    1    2    0  502  0.37113535847E+02 -0.52022386517E+01  0.18553102598E+03  0.18932435615E+03  0.41800000000E+01 0.  1.
        -11    1    1    2    0    0 -0.13259660527E+02  0.27765803469E+02  0.79427778013E+02  0.85179401029E+02  0.00000000000E+00 0.  1.
         11    1    1    2    0    0  0.54950812984E+02 -0.47416885060E+02  0.16122613347E+03  0.17681012118E+03  0.00000000000E+00 0. -1.
</event>
<event>
 6    1  0.5317355E-006  0.8134363E+02  0.7561462E-02  0.1325281E+00
         -1   -1    0    0    0  501 -0.00000000000E+00  0.00000000000E+00  0.31787630399E+02  0.31787630399E+02  0.00000000000E+00 0.  1.
          1   -1    0    0  501    0  0.00000000000E+00 -0.00000000000E+00 -0.52775972447E+03  0.52775972447E+03  0.00000000000E+00 0. -1.
          5    1    1    2  502    0 -0.29389051493E+02  0.29238706507E+02 -0.25849740639E+03  0.26183391647E+03  0.41800000000E+01 0. -1.
         -5    1    1    2    0  502 -0.17369880451E+02 -0.20185988845E+02  0.10805445815E+02  0.29041641686E+02  0.41800000000E+01 0.  1.
        -11    1    1    2    0    0  0.30179931919E+02 -0.45169415069E+02 -0.86998603443E+02  0.10256637534E+03  0.00000000000E+00 0.  1.
         11    1    1    2    0    0  0.16579000025E+02  0.36116697407E+02 -0.16128153005E+03  0.16610542137E+03  0.00000000000E+00 0. -1.
</event>
<event>
 6    1  0.5317355E-006  0.1308021E+03  0.7561462E-02  0.1226270E+00
         -2   -1    0    0    0  501 -0.00000000000E+00  0.00000000000E+00  0.99980150766E+02  0.99980150766E+02  0.00000000000E+00 0.  1.
          2   -1    0    0  501    0  0.00000000000E+00 -0.00000000000E+00 -0.21501571707E+03  0.21501571707E+03  0.00000000000E+00 0. -1.
          5    1    1    2  502    0 -0.17978054231E+02 -0.88226344805E+01 -0.62208622975E+02  0.65486139644E+02  0.41800000000E+01 0. -1.
         -5    1    1    2    0  502  0.28987526419E+02 -0.96922725708E+02 -0.40254738245E+01  0.10133098384E+03  0.41800000000E+01 0.  1.
        -11    1    1    2    0    0 -0.49769521931E+02  0.41216094658E+02 -0.23676208516E+02  0.68821033280E+02  0.00000000000E+00 0.  1.
         11    1    1    2    0    0  0.38760049744E+02  0.64529265531E+02 -0.25125260985E+02  0.79357711066E+02  0.00000000000E+00 0. -1.
</event>
<event>
 6    1  0.5317355E-006  0.1366320E+03  0.7561462E-02  0.1217934E+00
          2   -1    0    0  501    0  0.00000000000E+00  0.00000000000E+00  0.46229280775E+03  0.46229280775E+03  0.00000000000E+00 0. -1.
         -2   -1    0    0    0  501 -0.00000000000E+00 -0.00000000000E+00 -0.82044126673E+02  0.82044126673E+02  0.00000000000E+00 0.  1.
          5    1    1    2  502    0 -0.68488178681E+02  0.19768595082E+02  0.16038763409E+03  0.17556506925E+03  0.41800000000E+01 0. -1.
         -5    1    1    2    0  502  0.10159715831E+03 -0.11625600823E+02 -0.23905778973E+02  0.10510040837E+03  0.41800000000E+01 0.  1.
        -11    1    1    2    0    0  0.22492903797E+02 -0.31912220467E+02  0.11417606262E+03  0.12066687123E+03  0.00000000000E+00 0.  1.
         11    1    1    2    0    0 -0.55601883425E+02  0.23769226208E+02  0.12959076334E+03  0.14300458558E+03  0.00000000000E+00 0. -1.
</event>
<event>
 6    1  0.5317355E-006  0.1633322E+03  0.7561462E-02  0.1184985E+00
          2   -1    0    0  501    0  0.00000000000E+00  0.00000000000E+00  0.97671093815E+03  0.97671093815E+03  0.00000000000E+00 0. -1.
         -2   -1    0    0    0  501 -0.00000000000E+00 -0.00000000000E+00 -0.51547203194E+02  0.51547203194E+02  0.00000000000E+00 0.  1.
          5    1    1    2  502    0  0.26681655237E+02 -0.29690592013E+02  0.76410637064E+02  0.86310485092E+02  0.41800000000E+01 0. -1.
         -5    1    1    2    0  502  0.89123389598E+02  0.95573619634E+02  0.72999096810E+02  0.14974523658E+03  0.41800000000E+01 0. -1.
        -11    1    1    2    0    0 -0.12235608329E+03 -0.39465236297E+02  0.69997659509E+03  0.71168514785E+03  0.00000000000E+00 0. -1.
         11    1    1    2    0    0  0.65510384501E+01 -0.26417791325E+02  0.75777405988E+02  0.80517271821E+02  0.00000000000E+00 0.  1.
</event>
<event>
 6    1  0.5317355E-006  0.1666110E+03  0.7561462E-02  0.1181429E+00
         -1   -1    0    0    0  501 -0.00000000000E+00  0.00000000000E+00  0.45153691381E+03  0.45153691381E+03  0.00000000000E+00 0.  1.
          1   -1    0    0  501    0  0.00000000000E+00 -0.00000000000E+00 -0.70790459164E+02  0.70790459164E+02  0.00000000000E+00 0. -1.
          5    1    1    2  502    0 -0.44988804455E+02 -0.86238162893E+02  0.97077238159E+02  0.13748627507E+03  0.41800000000E+01 0.  1.
         -5    1    1    2    0  502  0.60325876088E+02 -0.47015326060E+02  0.17051536007E+03  0.18692943222E+03  0.41800000000E+01 0.  1.
        -11    1    1    2    0    0 -0.68509927003E+01  0.14478658251E+03  0.11266412198E+03  0.18358457168E+03  0.00000000000E+00 0.  1.
         11    1    1    2    0    0 -0.84860789331E+01 -0.11533093561E+02  0.48973444003E+00  0.14327094003E+02  0.00000000000E+00 0. -1.
</event>
<event>
 6    1  0.5317355E-006  0.1049707E+03  0.7561462E-02  0.1270177E+00
          1   -1    0    0  501    0  0.00000000000E+00  0.00000000000E+00  0.58222065683E+02  0.58222065683E+02  0.00000000000E+00 0. -1.
         -1   -1    0    0    0  501 -0.00000000000E+00 -0.00000000000E+00 -0.40495512194E+03  0.40495512194E+03  0.00000000000E+00 0.  1.
          5    1    1    2  502    0  0.96665963798E+02  0.31705064146E+02 -0.13863967676E+03  0.17201148805E+03  0.41800000000E+01 0.  1.
         -5    1    1    2    0  502 -0.24789077307E+02  0.57759755595E+01 -0.15673248025E+03  0.15884081028E+03  0.41800000000E+01 0.  1.
        -11    1    1    2    0    0 -0.41155161542E+02 -0.13359939005E+02  0.22501701359E+02  0.48770501902E+02  0.00000000000E+00 0. -1.
         11    1    1    2    0    0 -0.30721724949E+02 -0.24121100700E+02 -0.73862600617E+02  0.83554387394E+02  0.00000000000E+00 0.  1.
</event>
<event>
 6    1  0.5317355E-006  0.1228692E+03  0.7561462E-02  0.1238437E+00
         -2   -1    0    0    0  501 -0.00000000000E+00  0.00000000000E+00  0.68953094784E+02  0.68953094784E+02  0.00000000000E+00 0.  1.
          2   -1    0    0  501    0  0.00000000000E+00 -0.00000000000E+00 -0.31784127715E+03  0.31784127715E+03  0.00000000000E+00 0. -1.
          5    1    1    2  502    0 -0.36063126736E+02  0.75306550864E+01 -0.10580724152E+03  0.11211558605E+03  0.41800000000E+01 0.  1.
         -5    1    1    2    0  502 -0.10802838073E+02 -0.95773033009E+02 -0.40040689526E+02  0.10445048770E+03  0.41800000000E+01 0.  1.
        -11    1    1    2    0    0 -0.29976668520E+01  0.48053402643E+02 -0.93916100685E+02  0.10553837918E+03  0.00000000000E+00 0. -1.
         11    1    1    2    0    0  0.49863631661E+02  0.40188975280E+02 -0.91241506277E+01  0.64689919007E+02  0.00000000000E+00 0.  1.
</event>
<event>
 6    1  0.5317355E-006  0.2559575E+03  0.7561462E-02  0.1109597E+00
          2   -1    0    0  501    0  0.00000000000E+00  0.00000000000E+00  0.17836162132E+03  0.17836162132E+03  0.00000000000E+00 0. -1.
         -2   -1    0    0    0  501 -0.00000000000E+00 -0.00000000000E+00 -0.42900739779E+03  0.42900739779E+03  0.00000000000E+00 0.  1.
          5    1    1    2  502    0  0.23509524145E+02  0.72976599196E+01 -0.16482592038E+02  0.29918252056E+02  0.41800000000E+01 0. -1.
         -5    1    1    2    0  502  0.60993094951E+00 -0.23881970996E+03 -0.21683458694E+03  0.32259872345E+03  0.41800000000E+01 0. -1.
        -11    1    1    2    0    0  0.18537608948E+02  0.18109001404E+03 -0.37355421172E+02  0.18582966292E+03  0.00000000000E+00 0.  1.
         11    1    1    2    0    0 -0.42657064042E+02  0.50432035997E+02  0.20026823686E+02  0.69022380678E+02  0.00000000000E+00 0. -1.
</event>
<event>
 6    1  0.5317355E-006  0.8184347E+02  0.7561462E-02  0.1323900E+00
         -1   -1    0    0    0  501 -0.00000000000E+00  0.00000000000E+00  0.61187623216E+02  0.61187623216E+02  0.00000000000E+00 0.  1.
          1   -1    0    0  501    0  0.00000000000E+00 -0.00000000000E+00 -0.25407013140E+03  0.25407013140E+03  0.00000000000E+00 0. -1.
          5    1    1    2  502    0 -0.90965739330E+01 -0.54769116610E+02  0.19612448043E+02  0.59029859476E+02  0.41800000000E+01 0. -1.
         -5    1    1    2    0  502  0.29101584394E+02  0.33655601696E+02 -0.61568515614E+02  0.76077304465E+02  0.41800000000E+01 0. -1.
        -11    1    1    2    0    0  0.15273049732E+02  0.23429267729E+02 -0.30811459631E+01  0.28136988020E+02  0.00000000000E+00 0.  1.
         11    1    1    2    0    0 -0.35278060192E+02 -0.23157528145E+01 -0.14784529465E+03  0.15201360265E+03  0.00000000000E+00 0. -1.
</event>
<event>
 6    1  0.5317355E-006  0.1576256E+03  0.7561462E-02  0.1191404E+00
         -1   -1    0    0    0  501 -0.00000000000E+00  0.00000000000E+00  0.52721608152E+02  0.52721608152E+02  0.00000000000E+00 0.  1.
          1   -1    0    0  501    0  0.00000000000E+00 -0.00000000000E+00 -0.57502884681E+03  0.57502884681E+03  0.00000000000E+00 0. -1.
          5    1    1    2  502    0  0.26030985552E+02  0.30174274189E+02 -0.29346660267E+02  0.49666869243E+02  0.41800000000E+01 0. -1.
         -5    1    1    2    0  502  0.69366837679E+02 -0.11877570554E+03 -0.18551188314E+03  0.23097956096E+03  0.41800000000E+01 0. -1.
        -11    1    1    2    0    0 -0.11450422679E+02  0.37690357701E+02 -0.21729408648E+02  0.44987136421E+02  0.00000000000E+00 0. -1.
         11    1    1    2    0    0 -0.83947400551E+02  0.50911073652E+02 -0.28571928660E+03  0.30211688833E+03  0.00000000000E+00 0.  1.
</event>
<event>
 6    1  0.5317355E-006  0.1076788E+03  0.7561462E-02  0.1264930E+00
         -2   -1    0    0    0  501 -0.00000000000E+00  0.00000000000E+00  0.31163093102E+02  0.31163093102E+02  0.00000000000E+00 0.  1.
          2   -1    0    0  501    0  0.00000000000E+00 -0.00000000000E+00 -0.54962587150E+03  0.54962587150E+03  0.00000000000E+00 0. -1.
          5    1    1    2  502    0  0.30039146187E+02 -0.31942555952E+02 -0.19753187442E+02  0.48273574536E+02  0.41800000000E+01 0. -1.
         -5    1    1    2    0  502 -0.56020352269E+02  0.62774799887E+02 -0.14039138863E+03  0.16372589829E+03  0.41800000000E+01 0.  1.
        -11    1    1    2    0    0  0.21959747385E+02  0.23746294313E+02 -0.14495004450E+03  0.14851475482E+03  0.00000000000E+00 0. -1.
         11    1    1    2    0    0  0.40214586969E+01 -0.54578538248E+02 -0.21336815783E+03  0.22027473696E+03  0.00000000000E+00 0.  1.
</event>
<event>
 6    1  0.5317355E-006  0.1176783E+03  0.7561462E-02  0.1246977E+00
          2   -1    0    0  501    0  0.00000000000E+00  0.00000000000E+00  0.65465012641E+03  0.65465012641E+03  0.00000000000E+00 0.  1.
         -2   -1    0    0    0  501 -0.00000000000E+00 -0.00000000000E+00 -0.26462961970E+02  0.26462961970E+02  0.00000000000E+00 0. -1.
          5    1    1    2  502    0  0.85935749817E+01 -0.39479352096E+02  0.44134146955E+02  0.59981364608E+02  0.41800000000E+01 0.  1.
         -5    1    1    2    0  502 -0.36421933745E+02  0.85273164334E+02  0.17140375433E+03  0.19492252105E+03  0.41800000000E+01 0.  1.
        -11    1    1    2    0    0  0.40083513241E+02 -0.66622231068E+02  0.35967927298E+03  0.36798694151E+03  0.00000000000E+00 0. -1.
         11    1    1    2    0    0 -0.12255154478E+02  0.20828418830E+02  0.52969990168E+02  0.58222261212E+02  0.00000000000E+00 0.  1.
</event>
<event>
 6    1  0.5317355E-006  0.1353625E+03  0.7561462E-02  0.1219709E+00
          1   -1    0    0  501    0  0.00000000000E+00  0.00000000000E+00  0.12344295436E+03  0.12344295436E+03  0.00000000000E+00 0. -1.
         -1   -1    0    0    0  501 -0.00000000000E+00 -0.00000000000E+00 -0.26846654071E+03  0.26846654071E+03  0.00000000000E+00 0.  1.
          5    1    1    2  502    0  0.49370162054E+02 -0.25508318745E+02 -0.55442824243E+02  0.78609582027E+02  0.41800000000E+01 0. -1.
         -5    1    1    2    0  502  0.22366188509E+02  0.83290124792E+02 -0.14574522560E+03  0.16940081010E+03  0.41800000000E+01 0.  1.
        -11    1    1    2    0    0 -0.22486775832E+02  0.24189299058E+02  0.30334491732E+02  0.44843713772E+02  0.00000000000E+00 0.  1.
         11    1    1    2    0    0 -0.49249574731E+02 -0.81971105105E+02  0.25829971762E+02  0.99055389175E+02  0.00000000000E+00 0. -1.
</event>
<event>
 6    1  0.5317355E-006  0.5589032E+02  0.7561462E-02  0.1415935E+00
          2   -1    0    0  501    0  0.00000000000E+00  0.00000000000E+00  0.36301674968E+03  0.36301674968E+03  0.00000000000E+00 0. -1.
         -2   -1    0    0    0  501 -0.00000000000E+00 -0.00000000000E+00 -0.35562845132E+02  0.35562845132E+02  0.00000000000E+00 0.  1.
          5    1    1    2  502    0  0.20600518263E+01  0.11711077434E+02  0.19275481064E+03  0.19316646338E+03  0.41800000000E+01 0.  1.
         -5    1    1    2    0  502  0.30475017508E+02 -0.24137384923E+02 -0.17403178401E+00  0.39100418541E+02  0.41800000000E+01 0.  1.
        -11    1    1    2    0    0 -0.37617156753E+01 -0.17888982655E+02 -0.61023573092E+01  0.19271869914E+02  0.00000000000E+00 0.  1.
         11    1    1    2    0    0 -0.28773353659E+02  0.30315290144E+02  0.14097548300E+03  0.14704084298E+03  0.00000000000E+00 0. -1.
</event>
<event>
 6    1  0.5317355E-006  0.1139876E+03  0.7561462E-02  0.1253359E+00
          2   -1    0    0  501    0  0.00000000000E+00  0.00000000000E+00  0.20774833095E+03  0.20774833095E+03  0.00000000000E+00 0.  1.
         -2   -1    0    0    0  501 -0.00000000000E+00 -0.00000000000E+00 -0.66932969690E+02  0.66932969690E+02  0.00000000000E+00 0. -1.
          5    1    1    2  502    0 -0.52835252642E+02  0.61853963093E+02  0.42018468743E+02  0.91654245878E+02  0.41800000000E+01 0. -1.
         -5    1    1    2    0  502  0.44712468711E+02 -0.21682008272E+02  0.17995023167E+02  0.53015163866E+02  0.41800000000E+01 0. -1.
        -11    1    1    2    0    0  0.47820254309E+02 -0.26465368829E+02  0.24816781657E+02  0.60025537243E+02  0.00000000000E+00 0. -1.
         11    1    1    2    0    0 -0.39697470378E+02 -0.13706585992E+02  0.55985087695E+02  0.69986353657E+02  0.00000000000E+00 0.  1.
</event>
<event>
 6    1  0.5317355E-006  0.1332719E+03  0.7561462E-02  0.1222680E+00
         -2   -1    0    0    0  501 -0.00000000000E+00  0.00000000000E+00  0.24908186813E+03  0.24908186813E+03  0.00000000000E+00 0.  1.
          2   -1    0    0  501    0  0.00000000000E+00 -0.00000000000E+00 -0.14376456636E+03  0.14376456636E+03  0.00000000000E+00 0. -1.
          5    1    1    2  502    0  0.76828564442E+02  0.77209778831E+02 -0.33417407012E+02  0.11400953360E+03  0.41800000000E+01 0. -1.
         -5    1    1    2    0  502 -0.49225665792E+02 -0.36159701453E+02  0.16394495272E+03  0.17500317170E+03  0.41800000000E+01 0.  1.
        -11    1    1    2    0    0  0.11293432628E+02  0.20560560036E+02 -0.19929925475E+02  0.30781165977E+02  0.00000000000E+00 0.  1.
         11    1    1    2    0    0 -0.38896331278E+02 -0.61610637413E+02 -0.52803184581E+01  0.73052563215E+02  0.00000000000E+00 0. -1.
</event>
<event>
 6    1  0.5317355E-006  0.8820290E+02  0.7561462E-02  0.1307263E+00
          2   -1    0    0  501    0  0.00000000000E+00  0.00000000000E+00  0.13046506634E+03  0.13046506634E+03  0.00000000000E+00 0. -1.
         -2   -1    0    0    0  501 -0.00000000000E+00 -0.00000000000E+00 -0.14446919390E+03  0.14446919390E+03  0.00000000000E+00 0.  1.
          5    1    1    2  502    0  0.69867887480E+02 -0.13749897621E+02 -0.57702565839E+02  0.91747696919E+02  0.41800000000E+01 0. -1.
         -5    1    1    2    0  502 -0.53771649217E+02  0.73285573520E+01 -0.31829796157E+02  0.63053202423E+02  0.41800000000E+01 0. -1.
        -11    1    1    2    0    0  0.17065322401E+02  0.26628559620E+01  0.83954046289E+02  0.85712297360E+02  0.00000000000E+00 0. -1.
         11    1    1    2    0    0 -0.33161560664E+02  0.37584843074E+01 -0.84258118529E+01  0.34421063541E+02  0.00000000000E+00 0.  1.
</event>
<event>
 6    1  0.5317355E-006  0.1371396E+03  0.7561462E-02  0.1217230E+00
          1   -1    0    0  501    0  0.00000000000E+00  0.00000000000E+00  0.38434025699E+03  0.38434025699E+03  0.00000000000E+00 0. -1.
         -1   -1    0    0    0  501 -0.00000000000E+00 -0.00000000000E+00 -0.61724673959E+02  0.61724673959E+02  0.00000000000E+00 0.  1.
          5    1    1    2  502    0 -0.23036924439E+02  0.16262637760E+02  0.98910520674E+01  0.30174137693E+02  0.41800000000E+01 0.  1.
         -5    1    1    2    0  502  0.13120679288E+03 -0.18812066337E+02  0.14349199048E+03  0.19538817791E+03  0.41800000000E+01 0.  1.
        -11    1    1    2    0    0 -0.16980101011E+02  0.12980715914E+02  0.10817117742E+03  0.11026253416E+03  0.00000000000E+00 0.  1.
         11    1    1    2    0    0 -0.91189767427E+02 -0.10431287337E+02  0.61061363067E+02  0.11024008118E+03  0.00000000000E+00 0. -1.
</event>
<event>
 6    1  0.5317355E-006  0.1152227E+03  0.7561462E-02  0.1251193E+00
         -2   -1    0    0    0  501 -0.00000000000E+00  0.00000000000E+00  0.17828374775E+03  0.17828374775E+03  0.00000000000E+00 0. -1.
          2   -1    0    0  501    0  0.00000000000E+00 -0.00000000000E+00 -0.12474110502E+03  0.12474110502E+03  0.00000000000E+00 0.  1.
          5    1    1    2  502    0  0.16530317201E+02  0.41620840933E+02  0.87407407082E+01  0.45819414388E+02  0.41800000000E+01 0.  1.
         -5    1    1    2    0  502  0.55291175410E+02 -0.83764978735E+02  0.82434300587E+02  0.12994834379E+03  0.41800000000E+01 0.  1.
        -11    1    1    2    0    0 -0.17480986598E+02  0.23037925652E+01 -0.54930934872E+02  0.57691420147E+02  0.00000000000E+00 0.  1.
         11    1    1    2    0    0 -0.54340506013E+02  0.39840345237E+02  0.17298536301E+02  0.69565674441E+02  0.00000000000E+00 0. -1.
</event>
<event>
 6    1  0.5317355E-006  0.8592490E+02  0.7561462E-02  0.1313031E+00
          1   -1    0    0  501    0  0.00000000000E+00  0.00000000000E+00  0.32478751594E+03  0.32478751594E+03  0.00000000000E+00 0. -1.
         -1   -1    0    0    0  501 -0.00000000000E+00 -0.00000000000E+00 -0.43416767280E+02  0.43416767280E+02  0.00000000000E+00 0.  1.
          5    1    1    2  502    0  0.27794584946E+02  0.28678553998E+02  0.85275553910E+02  0.94257046985E+02  0.41800000000E+01 0. -1.
         -5    1    1    2    0  502 -0.40487205619E+02 -0.42327006086E+02  0.79613833769E+00  0.58727297736E+02  0.41800000000E+01 0. -1.
        -11    1    1    2    0    0  0.32845466643E+02 -0.16462103943E+02  0.16164998455E+03  0.16577256423E+03  0.00000000000E+00 0.  1.
         11    1    1    2    0    0 -0.20152845969E+02  0.30110556031E+02  0.33649071861E+02  0.49447374271E+02  0.00000000000E+00 0. -1.
</event>
<event>
 6    1  0.5317355E-006  0.9582296E+02  0.7561462E-02  0.1289333E+00
         -2   -1    0    0    0  501 -0.00000000000E+00  0.00000000000E+00  0.56567868207E+02  0.56567868207E+02  0.00000000000E+00 0. -1.
          2   -1    0    0  501    0  0.00000000000E+00 -0.00000000000E+00 -0.22369027772E+03  0.22369027772E+03  0.00000000000E+00 0.  1.
          5    1    1    2  502    0 -0.79434030954E+00  0.56470852163E+02  0.44560420410E+01  0.56805957709E+02  0.41800000000E+01 0. -1.
         -5    1    1    2    0  502  0.17307495260E+02 -0.50033258292E+02 -0.63121842299E+02  0.82490700704E+02  0.41800000000E+01 0. -1.
        -11    1    1    2    0    0  0.31404877487E+02  0.69299486252E+01 -0.73300451330E+02  0.80045278956E+02  0.00000000000E+00 0.  1.
         11    1    1    2    0    0 -0.47918032438E+02 -0.13367542496E+02 -0.35156157925E+02  0.60916208558E+02  0.00000000000E+00 0. -1.
</event>
<event>
 6    1  0.5317355E-006  0.8983651E+02  0.7561462E-02  0.1303248E+00
          2   -1    0    0  501    0  0.00000000000E+00  0.00000000000E+00  0.56589903568E+03  0.56589903568E+03  0.00000000000E+00 0. -1.
         -2   -1    0    0    0  501 -0.00000000000E+00 -0.00000000000E+00 -0.28745123765E+02  0.28745123765E+02  0.00000000000E+00 0.  1.
          5    1    1    2  502    0 -0.71475116609E+01 -0.90592877557E+01 -0.94296511890E+01  0.15477349228E+02  0.41800000000E+01 0. -1.
         -5    1    1    2    0  502 -0.19850264080E+02  0.70801568389E+02  0.28757356050E+03  0.29685504908E+03  0.41800000000E+01 0. -1.
        -11    1    1    2    0    0 -0.79129562199E+01 -0.58114615186E+02  0.76174482527E+02  0.96137792583E+02  0.00000000000E+00 0.  1.
         11    1    1    2    0    0  0.34910731961E+02 -0.36276654475E+01  0.18283552008E+03  0.18617396855E+03  0.00000000000E+00 0. -1.
</event>
<event>
 6    1  0.5317355E-006  0.1533934E+03  0.7561462E-02  0.1196364E+00
         -1   -1    0    0    0  501 -0.00000000000E+00  0.00000000000E+00  0.54285224248E+02  0.54285224248E+02  0.00000000000E+00 0.  1.
          1   -1    0    0  501    0  0.00000000000E+00 -0.00000000000E+00 -0.55617644118E+03  0.55617644118E+03  0.00000000000E+00 0. -1.
          5    1    1    2  502    0 -0.54934434799E+02  0.54456323638E+02 -0.31413648073E+02  0.83591704110E+02  0.41800000000E+01 0. -1.
         -5    1    1    2    0  502 -0.68536573206E+02 -0.44332912307E+02 -0.14008464672E+03  0.16218461588E+03  0.41800000000E+01 0. -1.
        -11    1    1    2    0    0  0.14863098977E+02 -0.33362649789E+02 -0.42083815273E+02  0.55722756753E+02  0.00000000000E+00 0.  1.
         11    1    1    2    0    0  0.10860790903E+03  0.23239238459E+02 -0.28830910686E+03  0.30896258868E+03  0.00000000000E+00 0. -1.
</event>
<event>
 6    1  0.5317355E-006  0.1086699E+03  0.7561462E-02  0.1263053E+00
          2   -1    0    0  501    0  0.00000000000E+00  0.00000000000E+00  0.20711600189E+02  0.20711600189E+02  0.00000000000E+00 0. -1.
         -2   -1    0    0    0  501 -0.00000000000E+00 -0.00000000000E+00 -0.68430152611E+03  0.68430152611E+03  0.00000000000E+00 0.  1.
          5    1    1    2  502    0 -0.37426786896E+02 -0.36087769214E+02 -0.19443884674E+03  0.20131326083E+03  0.41800000000E+01 0.  1.
         -5    1    1    2    0  502  0.15792147840E+02  0.77133314283E+02 -0.19551469623E+03  0.21081368302E+03  0.41800000000E+01 0.  1.
        -11    1    1    2    0    0  0.22596039572E+02 -0.61675335826E+02 -0.25992700913E+03  0.26809788908E+03  0.00000000000E+00 0.  1.
         11    1    1    2    0    0 -0.96140051559E+00  0.20629790757E+02 -0.13709373813E+02  0.24788293366E+02  0.00000000000E+00 0. -1.
</event>
<event>
 6    1  0.5317355E-006  0.1872130E+03  0.7561462E-02  0.1160999E+00
          2   -1    0    0  501    0  0.00000000000E+00  0.00000000000E+00  0.28024187783E+03  0.28024187783E+03  0.00000000000E+00 0.  1.
         -2   -1    0    0    0  501 -0.00000000000E+00 -0.00000000000E+00 -0.12770365207E+03  0.12770365207E+03  0.00000000000E+00 0. -1.
          5    1    1    2  502    0 -0.46447956573E+02 -0.71853809701E+02  0.18451409471E+02  0.87625963902E+02  0.41800000000E+01 0.  1.
         -5    1    1    2    0  502 -0.10430930837E+03  0.41633922482E+02  0.33708905155E+02  0.11733532291E+03  0.41800000000E+01 0.  1.
        -11    1    1    2    0    0  0.13435049281E+03  0.56214049304E+02  0.80986784572E+02  0.16664013182E+03  0.00000000000E+00 0. -1.
         11    1    1    2    0    0  0.16406772131E+02 -0.25994162086E+02  0.19391126560E+02  0.36344111265E+02  0.00000000000E+00 0.  1.
</event>
<event>
 6    1  0.5317355E-006  0.9570119E+02  0.7561462E-02  0.1289605E+00
         -2   -1    0    0    0  501 -0.00000000000E+00  0.00000000000E+00  0.91202702250E+02  0.91202702250E+02  0.00000000000E+00 0.  1.
          2   -1    0    0  501    0  0.00000000000E+00 -0.00000000000E+00 -0.20206848098E+03  0.20206848098E+03  0.00000000000E+00 0. -1.
          5    1    1    2  502    0  0.48581377655E+02 -0.68855670006E+02 -0.83926292419E+02  0.11900566586E+03  0.41800000000E+01 0.  1.
         -5    1    1    2    0  502 -0.12233858032E+02 -0.26022414823E+01  0.35015537943E+02  0.37416563718E+02  0.41800000000E+01 0.  1.
        -11    1    1    2    0    0  0.26843183633E+01  0.48469591118E+02 -0.75330642082E+02  0.89617032224E+02  0.00000000000E+00 0. -1.
         11    1    1    2    0    0 -0.39031837986E+02  0.22988320370E+02  0.13375617826E+02  0.47231921432E+02  0.00000000000E+00 0.  1.
</event>
<event>
 6    1  0.5317355E-006  0.1411875E+03  0.7561462E-02  0.1211740E+00
          2   -1    0    0  501    0  0.00000000000E+00  0.00000000000E+00  0.11071557599E+04  0.11071557599E+04  0.00000000000E+00 0. -1.
         -2   -1    0    0    0  501 -0.00000000000E+00 -0.00000000000E+00 -0.21690516511E+02  0.21690516511E+02  0.00000000000E+00 0.  1.
          5    1    1    2  502    0 -0.61798641192E+02  0.68629779307E+01  0.19971840921E+03  0.20921541028E+03  0.41800000000E+01 0.  1.
         -5    1    1    2    0  502  0.35004442519E+02  0.81967201745E+02  0.17054915102E+03  0.19247965729E+03  0.41800000000E+01 0.  1.
        -11    1    1    2    0    0  0.59021790893E+02 -0.75796467903E+02  0.55130202086E+03  0.55960932315E+03  0.00000000000E+00 0.  1.
         11    1    1    2    0    0 -0.32227592220E+02 -0.13033711773E+02  0.16389566232E+03  0.16754188572E+03  0.00000000000E+00 0. -1.
</event>
<event>
 6    1  0.5317355E-006  0.1205450E+03  0.7561462E-02  0.1242201E+00
          2   -1    0    0  501    0  0.00000000000E+00  0.00000000000E+00  0.17134731651E+03  0.17134731651E+03  0.00000000000E+00 0. -1.
         -2   -1    0    0    0  501 -0.00000000000E+00 -0.00000000000E+00 -0.10368726803E+03  0.10368726803E+03  0.00000000000E+00 0.  1.
          5    1    1    2  502    0 -0.76936171846E+02 -0.42343689513E+02  0.51259373135E+01  0.88067645667E+02  0.41800000000E+01 0.  1.
         -5    1    1    2    0  502  0.47854902423E+02 -0.28906906935E+02  0.27210675104E+02  0.62318489985E+02  0.41800000000E+01 0.  1.
        -11    1    1    2    0    0  0.31136633161E+02  0.58581036929E+01 -0.21255464054E+02  0.38152353212E+02  0.00000000000E+00 0.  1.
         11    1    1    2    0    0 -0.20553637376E+01  0.65392492756E+02  0.56578900114E+02  0.86496095675E+02  0.00000000000E+00 0. -1.
</event>
<event>
 6    1  0.5317355E-006  0.1108630E+03  0.7561462E-02  0.1258980E+00
          2   -1    0    0  501    0  0.00000000000E+00  0.00000000000E+00  0.40716525783E+03  0.40716525783E+03  0.00000000000E+00 0. -1.
         -2   -1    0    0    0  501 -0.00000000000E+00 -0.00000000000E+00 -0.12310199192E+03  0.12310199192E+03  0.00000000000E+00 0.  1.
          5    1    1    2  502    0  0.25614901825E+02  0.35328046690E+01 -0.78113288890E+02  0.82387876569E+02  0.41800000000E+01 0. -1.
         -5    1    1    2    0  502  0.78184615846E+02 -0.26228079113E+02  0.31063077136E+02  0.88222068952E+02  0.41800000000E+01 0. -1.
        -11    1    1    2    0    0 -0.85863335095E+02  0.24299397893E+01  0.31835155929E+03  0.32973645874E+03  0.00000000000E+00 0.  1.
         11    1    1    2    0    0 -0.17936182577E+02  0.20265334654E+02  0.12761918376E+02  0.29920845488E+02  0.00000000000E+00 0. -1.
</event>
<event>
 6    1  0.5317355E-006  0.9955138E+02  0.7561462E-02  0.1281242E+00
          2   -1    0    0  501    0  0.00000000000E+00  0.00000000000E+00  0.37170188973E+02  0.37170188973E+02  0.00000000000E+00 0. -1.
         -2   -1    0    0    0  501 -0.00000000000E+00 -0.00000000000E+00 -0.48207222151E+03  0.48207222151E+03  0.00000000000E+00 0.  1.
          5    1    1    2  502    0  0.36330774185E+02 -0.50910746431E+02 -0.28946012228E+03  0.29616965416E+03  0.41800000000E+01 0. -1.
         -5    1    1    2    0  502 -0.52031927049E+02  0.14824833977E+02 -0.87621564853E+02  0.10306361221E+03  0.41800000000E+01 0. -1.
        -11    1    1    2    0    0  0.44739468237E+02  0.22973534034E+02 -0.62456630997E+01  0.50679498732E+02  0.00000000000E+00 0. -1.
         11    1    1    2    0    0 -0.29038315372E+02  0.13112378419E+02 -0.61574682307E+02  0.69329645382E+02  0.00000000000E+00 0.  1.
</event>
<event>
 6    1  0.5317355E-006  0.1682820E+03  0.7561462E-02  0.1179651E+00
          2   -1    0    0  501    0  0.00000000000E+00  0.00000000000E+00  0.18348342092E+04  0.18348342092E+04  0.00000000000E+00 0.  1.
         -2   -1    0    0    0  501 -0.00000000000E+00 -0.00000000000E+00 -0.16849325029E+02  0.16849325029E+02  0.00000000000E+00 0. -1.
          5    1    1    2  502    0 -0.79901688000E+02  0.25362324596E+02  0.65548264158E+03  0.66083469420E+03  0.41800000000E+01 0.  1.
         -5    1    1    2    0  502  0.38657943620E+00  0.87064092772E+02  0.29171126829E+03  0.30445564889E+03  0.41800000000E+01 0.  1.
        -11    1    1    2    0    0  0.10535982790E+02  0.16307231196E+02  0.92065879967E+02  0.94090695485E+02  0.00000000000E+00 0. -1.
         11    1    1    2    0    0  0.68979125774E+02 -0.12873364856E+03  0.77872509432E+03  0.79230249564E+03  0.00000000000E+00 0.  1.
</event>
<event>
 6    1  0.5317355E-006  0.1277610E+03  0.7561462E-02  0.1230816E+00
          1   -1    0    0  501    0  0.00000000000E+00  0.00000000000E+00  0.76161972979E+03  0.76161972979E+03  0.00000000000E+00 0. -1.
         -1   -1    0    0    0  501 -0.00000000000E+00 -0.00000000000E+00 -0.24874435910E+02  0.24874435910E+02  0.00000000000E+00 0.  1.
          5    1    1    2  502    0  0.22080341533E+02  0.58077676003E+02  0.29158162569E+03  0.29815746640E+03  0.41800000000E+01 0.  1.
         -5    1    1    2    0  502  0.47357016139E+02 -0.62267578263E+02  0.24755893205E+03  0.25965907556E+03  0.41800000000E+01 0.  1.
        -11    1    1    2    0    0 -0.12032233810E+02 -0.40441020487E+02  0.66413539979E+02  0.78682965635E+02  0.00000000000E+00 0.  1.
         11    1    1    2    0    0 -0.57405123862E+02  0.44630922747E+02  0.13119119617E+03  0.14999465811E+03  0.00000000000E+00 0. -1.
</event>
<event>
 6    1  0.5317355E-006  0.1162413E+03  0.7561462E-02  0.1249430E+00
          1   -1    0    0  501    0  0.00000000000E+00  0.00000000000E+00  0.73363634053E+03  0.73363634053E+03  0.00000000000E+00 0. -1.
         -1   -1    0    0    0  501 -0.00000000000E+00 -0.00000000000E+00 -0.23486175835E+02  0.23486175835E+02  0.00000000000E+00 0.  1.
          5    1    1    2  502    0  0.34445730236E+02  0.25696196832E+02  0.59335506940E+02  0.73382406931E+02  0.41800000000E+01 0. -1.
         -5    1    1    2    0  502 -0.67849079596E+02  0.33175699679E+02  0.41424686168E+03  0.42109625914E+03  0.41800000000E+01 0. -1.
        -11    1    1    2    0    0  0.51754550860E+02  0.25464215722E+00  0.96451177753E+02  0.10945970979E+03  0.00000000000E+00 0.  1.
         11    1    1    2    0    0 -0.18351201500E+02 -0.59126538668E+02  0.14011661832E+03  0.15318414050E+03  0.00000000000E+00 0. -1.
</event>
<event>
 6    1  0.5317355E-006  0.1442201E+03  0.7561462E-02  0.1207761E+00
         -2   -1    0    0    0  501 -0.00000000000E+00  0.00000000000E+00  0.62003215457E+02  0.62003215457E+02  0.00000000000E+00 0.  1.
          2   -1    0    0  501    0  0.00000000000E+00 -0.00000000000E+00 -0.45438404477E+03  0.45438404477E+03  0.00000000000E+00 0. -1.
          5    1    1    2  502    0 -0.79971713181E+02 -0.27996125575E+01 -0.33741993315E+02  0.86944276709E+02  0.41800000000E+01 0. -1.
         -5    1    1    2    0  502 -0.65215204085E+01 -0.84826593183E+02 -0.11507485906E+03  0.14317044642E+03  0.41800000000E+01 0. -1.
        -11    1    1    2    0    0  0.63450156088E+02  0.63433813746E+02 -0.82849873704E+02  0.12212236735E+03  0.00000000000E+00 0.  1.
         11    1    1    2    0    0  0.23043077502E+02  0.24192391995E+02 -0.16071410323E+03  0.16415016975E+03  0.00000000000E+00 0. -1.
</event>
<event>
 6    1  0.5317355E-006  0.1071991E+03  0.7561462E-02  0.1265846E+00
         -1   -1    0    0    0  501 -0.00000000000E+00  0.00000000000E+00  0.28188564168E+02  0.28188564168E+02  0.00000000000E+00 0.  1.
          1   -1    0    0  501    0  0.00000000000E+00 -0.00000000000E+00 -0.59033146796E+03  0.59033146796E+03  0.00000000000E+00 0. -1.
          5    1    1    2  502    0  0.22960508806E+02 -0.18041311651E+02 -0.16453703311E+03  0.16716034684E+03  0.41800000000E+01 0.  1.
         -5    1    1    2    0  502 -0.49372266078E+02  0.72642785319E+02 -0.11236841341E+03  0.14268401329E+03  0.41800000000E+01 0.  1.
        -11    1    1    2    0    0  0.51883731406E+02 -0.24038590353E+02 -0.24686256240E+03  0.25339869795E+03  0.00000000000E+00 0. -1.
         11    1    1    2    0    0 -0.25471974134E+02 -0.30562883315E+02 -0.38374894873E+02  0.55276974043E+02  0.00000000000E+00 0.  1.
</event>
<event>
 6    1  0.5317355E-006  0.1179859E+03  0.7561462E-02  0.1246457E+00
         -2   -1    0    0    0  501 -0.00000000000E+00  0.00000000000E+00  0.95731084324E+02  0.95731084324E+02  0.00000000000E+00 0.  1.
          2   -1    0    0  501    0  0.00000000000E+00 -0.00000000000E+00 -0.17311977893E+03  0.17311977893E+03  0.00000000000E+00 0. -1.
          5    1    1    2  502    0 -0.39239048873E+02 -0.58649847398E+01  0.42207536643E+01  0.40117180408E+02  0.41800000000E+01 0. -1.
         -5    1    1    2    0  502  0.96998031729E+02 -0.24233948303E+02 -0.16870496311E+02  0.10147900500E+03  0.41800000000E+01 0. -1.
        -11    1    1    2    0    0 -0.64825105049E+02 -0.27473004858E+00 -0.11913613531E+02  0.65911333688E+02  0.00000000000E+00 0.  1.
         11    1    1    2    0    0  0.70661221923E+01  0.30373663091E+02 -0.52825338428E+02  0.61343344157E+02  0.00000000000E+00 0. -1.
</event>
<event>
 6    1  0.5317355E-006  0.1276327E+03  0.7561462E-02  0.1231011E+00
         -2   -1    0    0    0  501 -0.00000000000E+00  0.00000000000E+00  0.45261607693E+02  0.45261607693E+02  0.00000000000E+00 0.  1.
          2   -1    0    0  501    0  0.00000000000E+00 -0.00000000000E+00 -0.36490984103E+03  0.36490984103E+03  0.00000000000E+00 0. -1.
          5    1    1    2  502    0 -0.45700279484E+02 -0.85828627411E+02 -0.14510073120E+03  0.17471909862E+03  0.41800000000E+01 0.  1.
         -5    1    1    2    0  502  0.39471155962E+02  0.18835595094E+02 -0.49229768158E+02  0.65983287797E+02  0.41800000000E+01 0.  1.
        -11    1    1    2    0    0 -0.40023817755E+02  0.51503022731E+02 -0.74830330323E+02  0.99267545927E+02  0.00000000000E+00 0. -1.
         11    1    1    2    0    0  0.46252941277E+02  0.15490009586E+02 -0.50487403654E+02  0.70201516376E+02  0.00000000000E+00 0.  1.
</event>
<event>
 6    1  0.5317355E-006  0.1486612E+03  0.7561462E-02  0.1202128E+00
          2   -1    0    0  501    0  0.00000000000E+00  0.00000000000E+00  0.52406774446E+02  0.52406774446E+02  0.00000000000E+00 0. -1.
         -2   -1    0    0    0  501 -0.00000000000E+00 -0.00000000000E+00 -0.56510808370E+03  0.56510808370E+03  0.00000000000E+00 0.  1.
          5    1    1    2  502    0 -0.26349024396E+02  0.12206028149E+02 -0.17395100378E+03  0.17640771618E+03  0.41800000000E+01 0. -1.
         -5    1    1    2    0  502  0.12563695013E+03 -0.43097189224E+02 -0.22708979096E+03  0.26311453117E+03  0.41800000000E+01 0.  1.
        -11    1    1    2    0    0  0.14207779761E+02  0.14711411616E+02 -0.33468661809E+02  0.39222926469E+02  0.00000000000E+00 0.  1.
         11    1    1    2    0    0 -0.11349570550E+03  0.16179749458E+02 -0.78191852712E+02  0.13876968433E+03  0.00000000000E+00 0. -1.
</event>
<event>
 6    1  0.5317355E-006  0.1369270E+03  0.7561462E-02  0.1217525E+00
          2   -1    0    0  501    0  0.00000000000E+00  0.00000000000E+00  0.15882104592E+03  0.15882104592E+03  0.00000000000E+00 0.  1.
         -2   -1    0    0    0  501 -0.00000000000E+00 -0.00000000000E+00 -0.13228053866E+03  0.13228053866E+03  0.00000000000E+00 0. -1.
          5    1    1    2  502    0 -0.84985142924E+02  0.12748230776E+02  0.35506363588E+02  0.93076130995E+02  0.41800000000E+01 0. -1.
         -5    1    1    2    0  502  0.21673643369E+02  0.53232384892E+02 -0.23733675472E+02  0.62323297165E+02  0.41800000000E+01 0. -1.
        -11    1    1    2    0    0  0.17114394872E+02 -0.80079990289E+02 -0.80495903090E+01  0.82283067885E+02  0.00000000000E+00 0. -1.
         11    1    1    2    0    0  0.46197104683E+02  0.14099374621E+02  0.22817409449E+02  0.53419088534E+02  0.00000000000E+00 0.  1.
</event>
<event>
 6    1  0.5317355E-006  0.7539911E+02  0.7561462E-02  0.1342640E+00
          1   -1    0    0  501    0  0.00000000000E+00  0.00000000000E+00  0.22628166802E+03  0.22628166802E+03  0.00000000000E+00 0. -1.
         -1   -1    0    0    0  501 -0.00000000000E+00 -0.00000000000E+00 -0.90109218938E+02  0.90109218938E+02  0.00000000000E+00 0.  1.
          5    1    1    2  502    0 -0.25409311153E+02  0.25868863944E+02  0.69474500210E+02  0.78479359034E+02  0.41800000000E+01 0.  1.
         -5    1    1    2    0  502 -0.31875521796E+02  0.22523662004E+02 -0.55560125660E+02  0.68027672334E+02  0.41800000000E+01 0.  1.
        -11    1    1    2    0    0  0.46543014793E+02 -0.37815661844E+02  0.13653302055E+03  0.14912257444E+03  0.00000000000E+00 0. -1.
         11    1    1    2    0    0  0.10741818156E+02 -0.10576864103E+02 -0.14274946012E+02  0.20761281155E+02  0.00000000000E+00 0.  1.
</event>
<event>
 6    1  0.5317355E-006  0.8444890E+02  0.7561462E-02  0.1316880E+00
         -1   -1    0    0    0  501 -0.00000000000E+00  0.00000000000E+00  0.79287002728E+03  0.79287002728E+03  0.00000000000E+00 0.  1.
          1   -1    0    0  501    0  0.00000000000E+00 -0.00000000000E+00 -0.16950197353E+02  0.16950197353E+02  0.00000000000E+00 0. -1.
          5    1    1    2  502    0  0.45851518853E+01 -0.33563128815E+02  0.49244751071E+03  0.49362894003E+03  0.41800000000E+01 0. -1.
         -5    1    1    2    0  502 -0.42815545613E+02  0.75544396019E+01  0.57206082366E+02  0.71973945032E+02  0.41800000000E+01 0. -1.
        -11    1    1    2    0    0  0.57506883557E+02 -0.14666705399E+01  0.15800605282E+03  0.16815203093E+03  0.00000000000E+00 0.  1.
         11    1    1    2    0    0 -0.19276489830E+02  0.27475359753E+02  0.68260184032E+02  0.76065308636E+02  0.00000000000E+00 0. -1.
</event>
<event>
 6    1  0.5317355E-006  0.9346226E+02  0.7561462E-02  0.1294677E+00
         -3   -1    0    0    0  501 -0.00000000000E+00  0.00000000000E+00  0.51699929926E+03  0.51699929926E+03  0.00000000000E+00 0.  1.
          3   -1    0    0  501    0  0.00000000000E+00 -0.00000000000E+00 -0.25728413675E+02  0.25728413675E+02  0.00000000000E+00 0. -1.
          5    1    1    2  502    0 -0.35414101364E+02 -0.51971627778E+02  0.22112378478E+03  0.22993131423E+03  0.41800000000E+01 0.  1.
         -5    1    1    2    0  502  0.36000269400E+02  0.49355823194E+02  0.16797268314E+03  0.17878565759E+03  0.41800000000E+01 0.  1.
        -11    1    1    2    0    0 -0.13791958247E+02 -0.26953960026E+02  0.96492706877E+02  0.10113148152E+03  0.00000000000E+00 0.  1.
         11    1    1    2    0    0  0.13205790211E+02  0.29569764610E+02  0.56817107971E+01  0.32879259599E+02  0.00000000000E+00 0. -1.
</event>
<event>
 6    1  0.5317355E-006  0.9597933E+02  0.7561462E-02  0.1288985E+00
         -1   -1    0    0    0  501 -0.00000000000E+00  0.00000000000E+00  0.76104114302E+03  0.76104114302E+03  0.00000000000E+00 0.  1.
          1   -1    0    0  501    0  0.00000000000E+00 -0.00000000000E+00 -0.21313298930E+02  0.21313298930E+02  0.00000000000E+00 0. -1.
          5    1    1    2  502    0  0.20804610187E+01 -0.18502755490E+02  0.40529055362E+03  0.40573955382E+03  0.41800000000E+01 0. -1.
         -5    1    1    2    0  502  0.35181387324E+02  0.53428035861E+02  0.11347543819E+03  0.13033200874E+03  0.41800000000E+01 0. -1.
        -11    1    1    2    0    0  0.32825200828E+02 -0.89572284607E+01  0.69889676904E+02  0.77732185668E+02  0.00000000000E+00 0.  1.
         11    1    1    2    0    0 -0.70087049170E+02 -0.25968051910E+02  0.15107217538E+03  0.16855069372E+03  0.00000000000E+00 0. -1.
</event>
<event>
 6    1  0.5317355E-006  0.1360971E+03  0.7561462E-02  0.1218679E+00
         -1   -1    0    0    0  501 -0.00000000000E+00  0.00000000000E+00  0.39953921537E+03  0.39953921537E+03  0.00000000000E+00 0.  1.
          1   -1    0    0  501    0  0.00000000000E+00 -0.00000000000E+00 -0.56349229382E+02  0.56349229382E+02  0.00000000000E+00 0. -1.
          5    1    1    2  502    0 -0.98475061533E+02  0.63686550849E+02  0.18322807046E+03  0.21758518494E+03  0.41800000000E+01 0. -1.
         -5    1    1    2    0  502  0.37412433917E+02  0.65515099455E+01  0.71527046952E+02  0.81093793474E+02  0.41800000000E+01 0. -1.
        -11    1    1    2    0    0 -0.15955760941E+02 -0.97137296310E+01  0.47508932713E+02  0.51049402915E+02  0.00000000000E+00 0. -1.
         11    1    1    2    0    0  0.77018388556E+02 -0.60524331164E+02  0.40925935863E+02  0.10616006342E+03  0.00000000000E+00 0.  1.
</event>
<event>
 6    1  0.5317355E-006  0.1686961E+03  0.7561462E-02  0.1179214E+00
         -2   -1    0    0    0  501 -0.00000000000E+00  0.00000000000E+00  0.28359793660E+03  0.28359793660E+03  0.00000000000E+00 0.  1.
          2   -1    0    0  501    0  0.00000000000E+00 -0.00000000000E+00 -0.11746927384E+03  0.11746927384E+03  0.00000000000E+00 0. -1.
          5    1    1    2  502    0  0.62333478618E+02  0.13432366898E+03  0.10247451405E+02  0.14849509509E+03  0.41800000000E+01 0.  1.
         -5    1    1    2    0  502 -0.22380126695E+02  0.33400704417E+01  0.43483985993E+02  0.49197109460E+02  0.41800000000E+01 0.  1.
        -11    1    1    2    0    0  0.14501083170E+02 -0.97509932567E+02  0.85751533853E+02  0.13065907516E+03  0.00000000000E+00 0.  1.
         11    1    1    2    0    0 -0.54454435093E+02 -0.40153806852E+02  0.26645691510E+02  0.72715930731E+02  0.00000000000E+00 0. -1.
</event>
<event>
 6    1  0.5317355E-006  0.1419402E+03  0.7561462E-02  0.1210742E+00
         -1   -1    0    0    0  501 -0.00000000000E+00  0.00000000000E+00  0.19549096678E+03  0.19549096678E+03  0.00000000000E+00 0.  1.
          1   -1    0    0  501    0  0.00000000000E+00 -0.00000000000E+00 -0.14532130527E+03  0.14532130527E+03  0.00000000000E+00 0. -1.
          5    1    1    2  502    0 -0.41022992813E+02 -0.10796744737E+03  0.10848935256E+03  0.15851582776E+03  0.41800000000E+01 0.  1.
         -5    1    1    2    0  502  0.33885126993E+02  0.37418161151E+01 -0.47684797192E+01  0.34675839110E+02  0.41800000000E+01 0.  1.
        -11    1    1    2    0    0 -0.59819854083E+01  0.11610632981E+03 -0.33746142601E+02  0.12105893652E+03  0.00000000000E+00 0.  1.
         11    1    1    2    0    0  0.13119851229E+02 -0.11880698559E+02 -0.19805068734E+02  0.26561668661E+02  0.00000000000E+00 0. -1.
</event>
<event>
 6    1  0.5317355E-006  0.1835957E+03  0.7561462E-02  0.1164368E+00
          2   -1    0    0  501    0  0.00000000000E+00  0.00000000000E+00  0.19595981838E+03  0.19595981838E+03  0.00000000000E+00 0. -1.
         -2   -1    0    0    0  501 -0.00000000000E+00 -0.00000000000E+00 -0.20811017671E+03  0.20811017671E+03  0.00000000000E+00 0.  1.
          5    1    1    2  502    0 -0.12321135789E+01  0.26193428534E+02  0.76459198777E+01  0.27632341432E+02  0.41800000000E+01 0. -1.
         -5    1    1    2    0  502 -0.14543105231E+03 -0.85779763657E+02 -0.78104914529E+02  0.18608118900E+03  0.41800000000E+01 0. -1.
        -11    1    1    2    0    0  0.87115249179E+01  0.29215680337E+02 -0.11761462465E+02  0.32676882398E+02  0.00000000000E+00 0.  1.
         11    1    1    2    0    0  0.13795164097E+03  0.30370654786E+02  0.70070098788E+02  0.15767958226E+03  0.00000000000E+00 0. -1.
</event>
<event>
 6    1  0.5317355E-006  0.1447220E+03  0.7561462E-02  0.1207113E+00
          2   -1    0    0  501    0  0.00000000000E+00  0.00000000000E+00  0.50419531615E+03  0.50419531615E+03  0.00000000000E+00 0. -1.
         -2   -1    0    0    0  501 -0.00000000000E+00 -0.00000000000E+00 -0.60313280473E+02  0.60313280473E+02  0.00000000000E+00 0.  1.
          5    1    1    2  502    0  0.85869461481E+02  0.43324932498E+02  0.59044559608E+02  0.11293514338E+03  0.41800000000E+01 0. -1.
         -5    1    1    2    0  502 -0.39485377114E+02  0.60783529308E+02  0.56082473526E+02  0.91741204907E+02  0.41800000000E+01 0. -1.
        -11    1    1    2    0    0 -0.11225265193E+02 -0.72273218968E+02  0.87890748533E+02  0.11434250494E+03  0.00000000000E+00 0.  1.
         11    1    1    2    0    0 -0.35158819174E+02 -0.31835242839E+02  0.24086425401E+03  0.24548974339E+03  0.00000000000E+00 0. -1.
</event>
<event>
 6    1  0.5317355E-006  0.1052242E+03  0.7561462E-02  0.1269678E+00
          1   -1    0    0  501    0  0.00000000000E+00  0.00000000000E+00  0.32078856675E+03  0.32078856675E+03  0.00000000000E+00 0. -1.
         -1   -1    0    0    0  501 -0.00000000000E+00 -0.00000000000E+00 -0.74719926284E+02  0.74719926284E+02  0.00000000000E+00 0.  1.
          5    1    1    2  502    0  0.10856137430E+02 -0.43001777900E+01  0.79741307497E+02  0.80700035752E+02  0.41800000000E+01 0.  1.
         -5    1    1    2    0  502  0.68935077424E+02 -0.38953877826E+02 -0.25135756624E+02  0.83178892504E+02  0.41800000000E+01 0.  1.
        -11    1    1    2    0    0 -0.64590875195E+02 -0.81948064227E+01  0.55814425033E+02  0.85757717160E+02  0.00000000000E+00 0. -1.
         11    1    1    2    0    0 -0.15200339659E+02  0.51448862039E+02  0.13564866456E+03  0.14587184762E+03  0.00000000000E+00 0.  1.
</event>
<event>
 6    1  0.5317355E-006  0.1137354E+03  0.7561462E-02  0.1253805E+00
          2   -1    0    0  501    0  0.00000000000E+00  0.00000000000E+00  0.22160761033E+03  0.22160761033E+03  0.00000000000E+00 0. -1.
         -2   -1    0    0    0  501 -0.00000000000E+00 -0.00000000000E+00 -0.81502515827E+02  0.81502515827E+02  0.00000000000E+00 0.  1.
          5    1    1    2  502    0  0.21633283856E+02 -0.63464443585E+02  0.25495303166E+02  0.71855531822E+02  0.41800000000E+01 0. -1.
         -5    1    1    2    0  502 -0.79022821432E+02  0.84189331029E+01  0.55879321926E+02  0.97239167832E+02  0.41800000000E+01 0. -1.
        -11    1    1    2    0    0  0.96742256749E+01  0.17494578595E+02 -0.24100677855E+02  0.31312834360E+02  0.00000000000E+00 0.  1.
         11    1    1    2    0    0  0.47715311901E+02  0.37550931887E+02  0.82831147270E+02  0.10270259215E+03  0.00000000000E+00 0. -1.
</event>
<event>
 6    1  0.5317355E-006  0.1062955E+03  0.7561462E-02  0.1267588E+00
         -2   -1    0    0    0  501 -0.00000000000E+00  0.00000000000E+00  0.31683001326E+03  0.31683001326E+03  0.00000000000E+00 0.  1.
          2   -1    0    0  501    0  0.00000000000E+00 -0.00000000000E+00 -0.46378223615E+02  0.46378223615E+02  0.00000000000E+00 0. -1.
          5    1    1    2  502    0  0.22614503205E+02 -0.45876573162E+02  0.30009474497E+02  0.59448437152E+02  0.41800000000E+01 0.  1.
         -5    1    1    2    0  502 -0.63100400809E+02  0.20026197651E+02  0.15862745840E+03  0.17193851266E+03  0.41800000000E+01 0.  1.
        -11    1    1    2    0    0 -0.20875331436E+02  0.26297872643E+02  0.55904222691E+02  0.65212266352E+02  0.00000000000E+00 0.  1.
         11    1    1    2    0    0  0.61361229041E+02 -0.44749713249E+00  0.25910634050E+02  0.66609020710E+02  0.00000000000E+00 0. -1.
</event>
<event>
 6    1  0.5317355E-006  0.7312814E+02  0.7561462E-02  0.1349768E+00
         -2   -1    0    0    0  501 -0.00000000000E+00  0.00000000000E+00  0.40174333325E+02  0.40174333325E+02  0.00000000000E+00 0.  1.
          2   -1    0    0  501    0  0.00000000000E+00 -0.00000000000E+00 -0.42105789964E+03  0.42105789964E+03  0.00000000000E+00 0. -1.
          5    1    1    2  502    0 -0.14254570912E+01 -0.58214017520E+01 -0.13255139865E+03  0.13275265094E+03  0.41800000000E+01 0.  1.
         -5    1    1    2    0  502 -0.41360933229E+01 -0.42690803790E+02  0.15084230198E+02  0.45657621454E+02  0.41800000000E+01 0.  1.
        -11    1    1    2    0    0 -0.29597892671E+01  0.71385217139E+02 -0.14182411532E+03  0.15880393341E+03  0.00000000000E+00 0.  1.
         11    1    1    2    0    0  0.85213396813E+01 -0.22873011597E+02 -0.12159228253E+03  0.12401802716E+03  0.00000000000E+00 0. -1.
</event>
<event>
 6    1  0.5317355E-006  0.2975632E+03  0.7561462E-02  0.1086465E+00
          1   -1    0    0  501    0  0.00000000000E+00  0.00000000000E+00  0.62415328077E+02  0.62415328077E+02  0.00000000000E+00 0. -1.
         -1   -1    0    0    0  501 -0.00000000000E+00 -0.00000000000E+00 -0.14946582033E+04  0.14946582033E+04  0.00000000000E+00 0.  1.
          5    1    1    2  502    0  0.19840106555E+02 -0.69518737524E+01 -0.17530875453E+02  0.27690474372E+02  0.41800000000E+01 0.  1.
         -5    1    1    2    0  502 -0.30838335622E+02 -0.27711164808E+03 -0.76341426909E+03  0.81274884626E+03  0.41800000000E+01 0.  1.
        -11    1    1    2    0    0 -0.64530344305E+01  0.27518087397E+03 -0.56958996919E+03  0.63261274731E+03  0.00000000000E+00 0.  1.
         11    1    1    2    0    0  0.17451263497E+02  0.88826478685E+01 -0.81707761455E+02  0.84021463406E+02  0.00000000000E+00 0. -1.
</event>
<event>
 6    1  0.5317355E-006  0.1175191E+03  0.7561462E-02  0.1247247E+00
          2   -1    0    0  501    0  0.00000000000E+00  0.00000000000E+00  0.79628262810E+03  0.79628262810E+03  0.00000000000E+00 0. -1.
         -2   -1    0    0    0  501 -0.00000000000E+00 -0.00000000000E+00 -0.19258702916E+02  0.19258702916E+02  0.00000000000E+00 0.  1.
          5    1    1    2  502    0  0.32736833197E+02  0.31955129731E+02  0.11615610201E+03  0.12491013969E+03  0.41800000000E+01 0.  1.
         -5    1    1    2    0  502 -0.84759199942E+02 -0.28638018706E+02  0.21860067592E+03  0.23623713934E+03  0.41800000000E+01 0.  1.
        -11    1    1    2    0    0  0.28306148107E+02 -0.44074206749E+02  0.16406940968E+03  0.17222817689E+03  0.00000000000E+00 0.  1.
         11    1    1    2    0    0  0.23716218638E+02  0.40757095724E+02  0.27819773757E+03  0.28216587510E+03  0.00000000000E+00 0. -1.
</event>
<event>
 6    1  0.5317355E-006  0.9861603E+02  0.7561462E-02  0.1283233E+00
          1   -1    0    0  501    0  0.00000000000E+00  0.00000000000E+00  0.36666092563E+03  0.36666092563E+03  0.00000000000E+00 0. -1.
         -1   -1    0    0    0  501 -0.00000000000E+00 -0.00000000000E+00 -0.90502771282E+02  0.90502771282E+02  0.00000000000E+00 0.  1.
          5    1    1    2  502    0  0.47635684721E+02 -0.45793106793E+02 -0.51212693195E+02  0.83704118374E+02  0.41800000000E+01 0.  1.
         -5    1    1    2    0  502 -0.10114597102E+02  0.38602404835E+02  0.10369477275E+02  0.41442118582E+02  0.41800000000E+01 0. -1.
        -11    1    1    2    0    0 -0.58498191011E+02 -0.14971404842E+02  0.26438067621E+03  0.27118872260E+03  0.00000000000E+00 0. -1.
         11    1    1    2    0    0  0.20977103393E+02  0.22162106800E+02  0.52620694055E+02  0.60828737348E+02  0.00000000000E+00 0.  1.
</event>
<event>
 6    1  0.5317355E-006  0.1195709E+03  0.7561462E-02  0.1243807E+00
          2   -1    0    0  501    0  0.00000000000E+00  0.00000000000E+00  0.41120700072E+03  0.41120700072E+03  0.00000000000E+00 0. -1.
         -2   -1    0    0    0  501 -0.00000000000E+00 -0.00000000000E+00 -0.49584384842E+02  0.49584384842E+02  0.00000000000E+00 0.  1.
          5    1    1    2  502    0  0.37032736980E+01  0.19585398900E+02 -0.89313331981E+01  0.22238327249E+02  0.41800000000E+01 0. -1.
         -5    1    1    2    0  502 -0.50201546683E+02 -0.95112311476E+02  0.16146642914E+03  0.19405006370E+03  0.41800000000E+01 0. -1.
        -11    1    1    2    0    0  0.40451472743E+02  0.88239287209E+02  0.20898171845E+03  0.23042537209E+03  0.00000000000E+00 0. -1.
         11    1    1    2    0    0  0.60468002422E+01 -0.12712374633E+02  0.10580148402E+00  0.14077622524E+02  0.00000000000E+00 0.  1.
</event>
<event>
 6    1  0.5317355E-006  0.8625379E+02  0.7561462E-02  0.1312186E+00
          1   -1    0    0  501    0  0.00000000000E+00  0.00000000000E+00  0.67929693663E+02  0.67929693663E+02  0.00000000000E+00 0. -1.
         -1   -1    0    0    0  501 -0.00000000000E+00 -0.00000000000E+00 -0.31006450867E+03  0.31006450867E+03  0.00000000000E+00 0.  1.
          5    1    1    2  502    0 -0.70759191470E+01 -0.56199816061E+02 -0.71503284773E+02  0.91316373616E+02  0.41800000000E+01 0. -1.
         -5    1    1    2    0  502 -0.36643134911E+02  0.60554318889E+02 -0.16988746883E+03  0.18408902557E+03  0.41800000000E+01 0. -1.
        -11    1    1    2    0    0  0.12777669045E+02 -0.53469097078E+01  0.45151621435E+02  0.47228457394E+02  0.00000000000E+00 0. -1.
         11    1    1    2    0    0  0.30941385012E+02  0.99240687962E+00 -0.45895682841E+02  0.55360345748E+02  0.00000000000E+00 0.  1.
</event>
<event>
 6    1  0.5317355E-006  0.1102235E+03  0.7561462E-02  0.1260156E+00
          1   -1    0    0  501    0  0.00000000000E+00  0.00000000000E+00  0.13539795192E+03  0.13539795192E+03  0.00000000000E+00 0. -1.
         -1   -1    0    0    0  501 -0.00000000000E+00 -0.00000000000E+00 -0.15224482536E+03  0.15224482536E+03  0.00000000000E+00 0.  1.
          5    1    1    2  502    0  0.91125488526E+01 -0.78057469004E+02 -0.56203194807E+01  0.78899096351E+02  0.41800000000E+01 0. -1.
         -5    1    1    2    0  502 -0.86970350142E+01  0.89463457631E+02 -0.58828346160E+02  0.10750625741E+03  0.41800000000E+01 0.  1.
        -11    1    1    2    0    0 -0.99543917248E+01  0.18154582219E+02 -0.18776777310E+02  0.27950780603E+02  0.00000000000E+00 0.  1.
         11    1    1    2    0    0  0.95388778864E+01 -0.29560570846E+02  0.66378569513E+02  0.73286642921E+02  0.00000000000E+00 0. -1.
</event>
<event>
 6    1  0.5317355E-006  0.1229003E+03  0.7561462E-02  0.1238388E+00
         -2   -1    0    0    0  501 -0.00000000000E+00  0.00000000000E+00  0.62793340476E+03  0.62793340476E+03  0.00000000000E+00 0.  1.
          2   -1    0    0  501    0  0.00000000000E+00 -0.00000000000E+00 -0.92596825295E+02  0.92596825295E+02  0.00000000000E+00 0. -1.
          5    1    1    2  502    0  0.33820681035E+02  0.78525594896E+02 -0.25808071096E+02  0.89407138715E+02  0.41800000000E+01 0. -1.
         -5    1    1    2    0  502  0.17696227899E+02 -0.51512682195E+02  0.50734541997E+03  0.51027792473E+03  0.41800000000E+01 0.  1.
        -11    1    1    2    0    0 -0.47243151266E+02 -0.57708461694E+02  0.49606684758E+02  0.89571229005E+02  0.00000000000E+00 0.  1.
         11    1    1    2    0    0 -0.42737576669E+01  0.30695548994E+02  0.41925458370E+01  0.31273937603E+02  0.00000000000E+00 0. -1.
</event>
<event>
 6    1  0.5317355E-006  0.7766678E+02  0.7561462E-02  0.1335806E+00
         -2   -1    0    0    0  501 -0.00000000000E+00  0.00000000000E+00  0.21530702314E+03  0.21530702314E+03  0.00000000000E+00 0. -1.
          2   -1    0    0  501    0  0.00000000000E+00 -0.00000000000E+00 -0.83225361904E+02  0.83225361904E+02  0.00000000000E+00 0.  1.
          5    1    1    2  502    0 -0.53429619676E+02 -0.81498088307E+01  0.39171754159E+02  0.66880807162E+02  0.41800000000E+01 0. -1.
         -5    1    1    2    0  502  0.60287607741E+02  0.24912370936E+02  0.11707947747E+03  0.13409063471E+03  0.41800000000E+01 0. -1.
        -11    1    1    2    0    0 -0.16816208178E+02 -0.66424961006E+00 -0.57126909198E+02  0.59554259625E+02  0.00000000000E+00 0.  1.
         11    1    1    2    0    0  0.99582201132E+01 -0.16098312495E+02  0.32957338806E+02  0.38006683546E+02  0.00000000000E+00 0. -1.
</event>
<event>
 6    1  0.5317355E-006  0.8870339E+02  0.7561462E-02  0.1306022E+00
         -1   -1    0    0    0  501 -0.00000000000E+00  0.00000000000E+00  0.16777265054E+04  0.16777265054E+04  0.00000000000E+00 0.  1.
          1   -1    0    0  501    0  0.00000000000E+00 -0.00000000000E+00 -0.99112296884E+01  0.99112296884E+01  0.00000000000E+00 0. -1.
          5    1    1    2  502    0  0.28198738772E+02 -0.37957344852E+02  0.10786936264E+04  0.10797376260E+04  0.41800000000E+01 0.  1.
         -5    1    1    2    0  502 -0.26985179315E+02  0.45781873845E+02  0.30518927411E+03  0.30980985347E+03  0.41800000000E+01 0.  1.
        -11    1    1    2    0    0  0.35308262473E+02  0.89722833088E+01  0.21682217799E+03  0.21986139301E+03  0.00000000000E+00 0.  1.
         11    1    1    2    0    0 -0.36521821930E+02 -0.16796812302E+02  0.67110197211E+02  0.78228862642E+02  0.00000000000E+00 0. -1.
</event>
<event>
 6    1  0.5317355E-006  0.1194135E+03  0.7561462E-02  0.1244068E+00
         -2   -1    0    0    0  501 -0.00000000000E+00  0.00000000000E+00  0.37625777152E+03  0.37625777152E+03  0.00000000000E+00 0.  1.
          2   -1    0    0  501    0  0.00000000000E+00 -0.00000000000E+00 -0.45262195788E+02  0.45262195788E+02  0.00000000000E+00 0. -1.
          5    1    1    2  502    0  0.29013170587E+02  0.97092897981E+00  0.11883137254E+03  0.12239719878E+03  0.41800000000E+01 0.  1.
         -5    1    1    2    0  502 -0.95363147367E+02 -0.61408793209E+00  0.99810589324E+02  0.13810913482E+03  0.41800000000E+01 0.  1.
        -11    1    1    2    0    0  0.23518899081E+02  0.45545734913E+02  0.38665944954E+02  0.64207537579E+02  0.00000000000E+00 0. -1.
         11    1    1    2    0    0  0.42831077700E+02 -0.45902575961E+02  0.73687668917E+02  0.96806096127E+02  0.00000000000E+00 0.  1.
</event>
<event>
 6    1  0.5317355E-006  0.1353228E+03  0.7561462E-02  0.1219765E+00
          2   -1    0    0  501    0  0.00000000000E+00  0.00000000000E+00  0.12204836729E+03  0.12204836729E+03  0.00000000000E+00 0. -1.
         -2   -1    0    0    0  501 -0.00000000000E+00 -0.00000000000E+00 -0.18984301098E+03  0.18984301098E+03  0.00000000000E+00 0.  1.
          5    1    1    2  502    0  0.12848084806E+01  0.33170180007E+02  0.35774152656E+02  0.48981363525E+02  0.41800000000E+01 0.  1.
         -5    1    1    2    0  502 -0.10014894336E+03  0.81992513443E+01 -0.61100766045E+02  0.11767673768E+03  0.41800000000E+01 0.  1.
        -11    1    1    2    0    0 -0.14028941968E+02 -0.15290791431E+02 -0.16453338405E+02  0.26482670938E+02  0.00000000000E+00 0.  1.
         11    1    1    2    0    0  0.11289307685E+03 -0.26078639921E+02 -0.26014691890E+02  0.11875060613E+03  0.00000000000E+00 0. -1.
</event>
<event>
 6    1  0.5317355E-006  0.1566909E+03  0.7561462E-02  0.1192484E+00
         -2   -1    0    0    0  501 -0.00000000000E+00  0.00000000000E+00  0.70969693314E+03  0.70969693314E+03  0.00000000000E+00 0.  1.
          2   -1    0    0  501    0  0.00000000000E+00 -0.00000000000E+00 -0.47276461086E+02  0.47276461086E+02  0.00000000000E+00 0. -1.
          5    1    1    2  502    0 -0.10643197514E+03 -0.64653939920E+02  0.19221345688E+03  0.22906632814E+03  0.41800000000E+01 0. -1.
         -5    1    1    2    0  502 -0.22972819726E+02 -0.15510800249E+02  0.26446891773E+03  0.26595040180E+03  0.41800000000E+01 0.  1.
        -11    1    1    2    0    0  0.62870291438E+02  0.68889886256E+02  0.13605681062E+03  0.16495437457E+03  0.00000000000E+00 0. -1.
         11    1    1    2    0    0  0.66534503433E+02  0.11274853913E+02  0.69681286819E+02  0.97002289718E+02  0.00000000000E+00 0.  1.
</event>
<event>
 6    1  0.5317355E-006  0.9187657E+02  0.7561462E-02  0.1298370E+00
         -2   -1    0    0    0  501 -0.00000000000E+00  0.00000000000E+00  0.10181355114E+03  0.10181355114E+03  0.00000000000E+00 0.  1.
          2   -1    0    0  501    0  0.00000000000E+00 -0.00000000000E+00 -0.13029459196E+03  0.13029459196E+03  0.00000000000E+00 0. -1.
          5    1    1    2  502    0  0.34390425116E+01 -0.39985608886E+02 -0.52436697725E+02  0.66164609874E+02  0.41800000000E+01 0.  1.
         -5    1    1    2    0  502  0.33556627795E+02  0.31288654054E+02  0.45514548248E+02  0.64761668012E+02  0.41800000000E+01 0.  1.
        -11    1    1    2    0    0  0.60070755720E+01 -0.35301568374E+02 -0.16569293410E+02  0.39456649258E+02  0.00000000000E+00 0.  1.
         11    1    1    2    0    0 -0.43002745878E+02  0.43998523206E+02 -0.49895979287E+01  0.61725215957E+02  0.00000000000E+00 0. -1.
</event>
<event>
 6    1  0.5317355E-006  0.9614108E+02  0.7561462E-02  0.1288627E+00
         -1   -1    0    0    0  501 -0.00000000000E+00  0.00000000000E+00  0.14492141239E+03  0.14492141239E+03  0.00000000000E+00 0.  1.
          1   -1    0    0  501    0  0.00000000000E+00 -0.00000000000E+00 -0.12699143730E+03  0.12699143730E+03  0.00000000000E+00 0. -1.
          5    1    1    2  502    0  0.16608888915E+02  0.15542999263E+01 -0.50421148327E+02  0.53273216890E+02  0.41800000000E+01 0.  1.
         -5    1    1    2    0  502  0.59777170187E+02  0.13482617401E+02  0.73631663055E+02  0.95886314205E+02  0.41800000000E+01 0.  1.
        -11    1    1    2    0    0 -0.39522718000E+02 -0.49402390406E+02  0.20024418898E+02  0.66359767692E+02  0.00000000000E+00 0.  1.
         11    1    1    2    0    0 -0.36863341102E+02  0.34365473079E+02 -0.25304958534E+02  0.56393550904E+02  0.00000000000E+00 0. -1.
</event>
<event>
 6    1  0.5317355E-006  0.9525121E+02  0.7561462E-02  0.1290611E+00
         -2   -1    0    0    0  501 -0.00000000000E+00  0.00000000000E+00  0.19067141201E+03  0.19067141201E+03  0.00000000000E+00 0.  1.
          2   -1    0    0  501    0  0.00000000000E+00 -0.00000000000E+00 -0.13734100369E+03  0.13734100369E+03  0.00000000000E+00 0. -1.
          5    1    1    2  502    0 -0.50320354195E+02 -0.56160637744E+02  0.68266019650E+02  0.10180312921E+03  0.41800000000E+01 0.  1.
         -5    1    1    2    0  502  0.49539118967E+02  0.18829977722E+02  0.76124539550E+02  0.92849934253E+02  0.41800000000E+01 0.  1.
        -11    1    1    2    0    0  0.84386751896E+01  0.47971840764E+02 -0.10406074032E+03  0.11489624198E+03  0.00000000000E+00 0. -1.
         11    1    1    2    0    0 -0.76574399618E+01 -0.10641180742E+02  0.13000589448E+02  0.18463110257E+02  0.00000000000E+00 0.  1.
</event>
<event>
 6    1  0.5317355E-006  0.7792811E+02  0.7561462E-02  0.1335036E+00
          2   -1    0    0  501    0  0.00000000000E+00  0.00000000000E+00  0.26726292216E+03  0.26726292216E+03  0.00000000000E+00 0.  1.
         -2   -1    0    0    0  501 -0.00000000000E+00 -0.00000000000E+00 -0.48037751191E+02  0.48037751191E+02  0.00000000000E+00 0. -1.
          5    1    1    2  502    0  0.41640727794E+02  0.13344236979E+02  0.95019215234E+02  0.10468114699E+03  0.41800000000E+01 0. -1.
         -5    1    1    2    0  502 -0.57386307854E+02  0.58470678549E+00  0.67262108918E+01  0.57933103871E+02  0.41800000000E+01 0. -1.
        -11    1    1    2    0    0  0.33691971880E+02 -0.13889096920E+02  0.12717165379E+03  0.13229015651E+03  0.00000000000E+00 0.  1.
         11    1    1    2    0    0 -0.17946391820E+02 -0.39846844591E-01 -0.96919089402E+01  0.20396265982E+02  0.00000000000E+00 0. -1.
</event>
<event>
 6    1  0.5317355E-006  0.1050450E+03  0.7561462E-02  0.1270031E+00
          2   -1    0    0  501    0  0.00000000000E+00  0.00000000000E+00  0.11365585764E+03  0.11365585764E+03  0.00000000000E+00 0. -1.
         -2   -1    0    0    0  501 -0.00000000000E+00 -0.00000000000E+00 -0.11331742582E+03  0.11331742582E+03  0.00000000000E+00 0.  1.
          5    1    1    2  502    0 -0.13819794493E+02 -0.61860802747E+02  0.10995643563E+02  0.64467993715E+02  0.41800000000E+01 0.  1.
         -5    1    1    2    0  502  0.35819004909E+01  0.55996469457E+02 -0.26289545993E+02  0.62105130475E+02  0.41800000000E+01 0.  1.
        -11    1    1    2    0    0  0.38977612023E+02  0.32776734529E+02 -0.11970698399E+02  0.52315066525E+02  0.00000000000E+00 0.  1.
         11    1    1    2    0    0 -0.28739718021E+02 -0.26912401239E+02  0.27603032649E+02  0.48085092740E+02  0.00000000000E+00 0. -1.
</event>
<event>
 6    1  0.5317355E-006  0.5939760E+02  0.7561462E-02  0.1400377E+00
          3   -1    0    0  501    0  0.00000000000E+00  0.00000000000E+00  0.83328217934E+02  0.83328217934E+02  0.00000000000E+00 0. -1.
         -3   -1    0    0    0  501 -0.00000000000E+00 -0.00000000000E+00 -0.16311376344E+03  0.16311376344E+03  0.00000000000E+00 0.  1.
          5    1    1    2  502    0 -0.33142479748E+01  0.18593774080E+02  0.42815216404E+02  0.46982207588E+02  0.41800000000E+01 0. -1.
         -5    1    1    2    0  502 -0.11075443250E+02  0.20989834315E+02 -0.90005665531E+02  0.93175805955E+02  0.41800000000E+01 0. -1.
        -11    1    1    2    0    0  0.33553375339E+02 -0.25437002485E+01 -0.50675035737E+02  0.60829751393E+02  0.00000000000E+00 0.  1.
         11    1    1    2    0    0 -0.19163684114E+02 -0.37039908146E+02  0.18079939362E+02  0.45454216434E+02  0.00000000000E+00 0. -1.
</event>
<event>
 6    1  0.5317355E-006  0.9496295E+02  0.7561462E-02  0.1291260E+00
         -3   -1    0    0    0  501 -0.00000000000E+00  0.00000000000E+00  0.44305745903E+03  0.44305745903E+03  0.00000000000E+00 0.  1.
          3   -1    0    0  501    0  0.00000000000E+00 -0.00000000000E+00 -0.48774899809E+02  0.48774899809E+02  0.00000000000E+00 0. -1.
          5    1    1    2  502    0 -0.31278994973E+01  0.49900024333E+02  0.72369360391E+02  0.88060166404E+02  0.41800000000E+01 0. -1.
         -5    1    1    2    0  502 -0.57149443207E+02 -0.54457710977E+02  0.27277259915E+03  0.28399659221E+03  0.41800000000E+01 0. -1.
        -11    1    1    2    0    0  0.15483060734E+02 -0.12459156101E+01 -0.27055640675E+02  0.31197518615E+02  0.00000000000E+00 0. -1.
         11    1    1    2    0    0  0.44794281970E+02  0.58036022532E+01  0.76196240359E+02  0.88578081607E+02  0.00000000000E+00 0.  1.
</event>
<event>
 6    1  0.5317355E-006  0.2999785E+03  0.7561462E-02  0.1085251E+00
         -2   -1    0    0    0  501 -0.00000000000E+00  0.00000000000E+00  0.22795107591E+03  0.22795107591E+03  0.00000000000E+00 0. -1.
          2   -1    0    0  501    0  0.00000000000E+00 -0.00000000000E+00 -0.64548847934E+03  0.64548847934E+03  0.00000000000E+00 0.  1.
          5    1    1    2  502    0 -0.22783501152E+02  0.88302027571E+02 -0.43939883610E+02  0.10131397618E+03  0.41800000000E+01 0. -1.
         -5    1    1    2    0  502 -0.19304528792E+02  0.20140464283E+03  0.85689058301E+02  0.21976483363E+03  0.41800000000E+01 0. -1.
        -11    1    1    2    0    0 -0.84798157573E+01 -0.22008484361E+03 -0.31495367630E+03  0.38432416510E+03  0.00000000000E+00 0.  1.
         11    1    1    2    0    0  0.50567845701E+02 -0.69621826794E+02 -0.14433290182E+03  0.16803658034E+03  0.00000000000E+00 0. -1.
</event>
<event>
 6    1  0.5317355E-006  0.1066996E+03  0.7561462E-02  0.1266807E+00
          2   -1    0    0  501    0  0.00000000000E+00  0.00000000000E+00  0.35092339903E+03  0.35092339903E+03  0.00000000000E+00 0. -1.
         -2   -1    0    0    0  501 -0.00000000000E+00 -0.00000000000E+00 -0.36072274272E+02  0.36072274272E+02  0.00000000000E+00 0.  1.
          5    1    1    2  502    0  0.15227871477E+02 -0.47747498598E+02  0.32184670945E+02  0.59707931935E+02  0.41800000000E+01 0.  1.
         -5    1    1    2    0  502 -0.64129277229E+01  0.72355814156E+02  0.10531194323E+03  0.12800221588E+03  0.41800000000E+01 0.  1.
        -11    1    1    2    0    0  0.13891650408E+02  0.28985804511E+02  0.53040454864E+02  0.62019711918E+02  0.00000000000E+00 0.  1.
         11    1    1    2    0    0 -0.22706594163E+02 -0.53594120070E+02  0.12431405572E+03  0.13726581357E+03  0.00000000000E+00 0. -1.
</event>
<event>
 6    1  0.5317355E-006  0.8141954E+02  0.7561462E-02  0.1325071E+00
         -2   -1    0    0    0  501 -0.00000000000E+00  0.00000000000E+00  0.19302834275E+02  0.19302834275E+02  0.00000000000E+00 0.  1.
          2   -1    0    0  501    0  0.00000000000E+00 -0.00000000000E+00 -0.67358147677E+03  0.67358147677E+03  0.00000000000E+00 0. -1.
          5    1    1    2  502    0  0.18469568882E+02  0.10403570850E+02 -0.29504917835E+03  0.29583922881E+03  0.41800000000E+01 0.  1.
         -5    1    1    2    0  502 -0.50444054502E+02 -0.25657816637E+00 -0.43870379813E+02  0.66983215001E+02  0.41800000000E+01 0.  1.
        -11    1    1    2    0    0  0.21437151072E+02  0.36751919269E+02 -0.20984130614E+03  0.21411125328E+03  0.00000000000E+00 0.  1.
         11    1    1    2    0    0  0.10537334548E+02 -0.46898911953E+02 -0.10551777819E+03  0.11595061395E+03  0.00000000000E+00 0. -1.
</event>
<event>
 6    1  0.5317355E-006  0.1037246E+03  0.7561462E-02  0.1272653E+00
         -1   -1    0    0    0  501 -0.00000000000E+00  0.00000000000E+00  0.58622100502E+02  0.58622100502E+02  0.00000000000E+00 0.  1.
          1   -1    0    0  501    0  0.00000000000E+00 -0.00000000000E+00 -0.39420964057E+03  0.39420964057E+03  0.00000000000E+00 0. -1.
          5    1    1    2  502    0 -0.74295737259E+00  0.71433045561E+02 -0.35993567379E+02  0.80101443660E+02  0.41800000000E+01 0. -1.
         -5    1    1    2    0  502 -0.72279138130E+01 -0.48378702931E+02  0.96659220798E+01  0.50036427581E+02  0.41800000000E+01 0. -1.
        -11    1    1    2    0    0  0.31509572165E+02 -0.44785874648E+02 -0.13807993904E+03  0.14854190409E+03  0.00000000000E+00 0.  1.
         11    1    1    2    0    0 -0.23538700980E+02  0.21731532019E+02 -0.17117995573E+03  0.17415196575E+03  0.00000000000E+00 0. -1.
</event>
<event>
 6    1  0.5317355E-006  0.1195347E+03  0.7561462E-02  0.1243867E+00
         -2   -1    0    0    0  501 -0.00000000000E+00  0.00000000000E+00  0.51411010385E+02  0.51411010385E+02  0.00000000000E+00 0.  1.
          2   -1    0    0  501    0  0.00000000000E+00 -0.00000000000E+00 -0.30358139734E+03  0.30358139734E+03  0.00000000000E+00 0. -1.
          5    1    1    2  502    0  0.44973923814E+02  0.58595992705E+02 -0.85944530711E+02  0.11340228809E+03  0.41800000000E+01 0. -1.
         -5    1    1    2    0  502 -0.57409162947E+02 -0.35835111629E+01 -0.24229327572E+02  0.62555465445E+02  0.41800000000E+01 0. -1.
        -11    1    1    2    0    0 -0.38968962301E+02 -0.34571048556E+02 -0.53515590751E+02  0.74683705549E+02  0.00000000000E+00 0.  1.
         11    1    1    2    0    0  0.51404201434E+02 -0.20441432986E+02 -0.88480937921E+02  0.10435094864E+03  0.00000000000E+00 0. -1.
</event>
<event>
 6    1  0.5317355E-006  0.8877073E+02  0.7561462E-02  0.1305856E+00
          2   -1    0    0  501    0  0.00000000000E+00  0.00000000000E+00  0.30174585363E+02  0.30174585363E+02  0.00000000000E+00 0. -1.
         -2   -1    0    0    0  501 -0.00000000000E+00 -0.00000000000E+00 -0.44756415571E+03  0.44756415571E+03  0.00000000000E+00 0.  1.
          5    1    1    2  502    0  0.44397171553E+02  0.56696140625E+02 -0.24161157397E+03  0.25214913500E+03  0.41800000000E+01 0. -1.
         -5    1    1    2    0  502 -0.25330842381E+02 -0.35583161486E+02 -0.50562657005E+02  0.66946752277E+02  0.41800000000E+01 0. -1.
        -11    1    1    2    0    0  0.18295103989E+02 -0.15031472622E+02 -0.11769079441E+03  0.12004906950E+03  0.00000000000E+00 0.  1.
         11    1    1    2    0    0 -0.37361433161E+02 -0.60815065160E+01 -0.75245449605E+01  0.38593784295E+02  0.00000000000E+00 0. -1.
</event>
<event>
 6    1  0.5317355E-006  0.1094775E+03  0.7561462E-02  0.1261541E+00
         -2   -1    0    0    0  501 -0.00000000000E+00  0.00000000000E+00  0.14058656527E+03  0.14058656527E+03  0.00000000000E+00 0.  1.
          2   -1    0    0  501    0  0.00000000000E+00 -0.00000000000E+00 -0.97712398552E+02  0.97712398552E+02  0.00000000000E+00 0. -1.
          5    1    1    2  502    0  0.46752949617E+02 -0.53866336006E+02 -0.86565480722E+01  0.71971026650E+02  0.41800000000E+01 0. -1.
         -5    1    1    2    0  502 -0.49816422359E+02  0.20056494311E+01  0.31071300279E+02  0.58894793210E+02  0.41800000000E+01 0.  1.
        -11    1    1    2    0    0 -0.27258222114E+02 -0.96342637531E+01  0.25682141061E+02  0.38670429017E+02  0.00000000000E+00 0.  1.
         11    1    1    2    0    0  0.30321694856E+02  0.61494950328E+02 -0.52227265446E+01  0.68762714950E+02  0.00000000000E+00 0. -1.
</event>
<event>
 6    1  0.5317355E-006  0.1370758E+03  0.7561462E-02  0.1217319E+00
          2   -1    0    0  501    0  0.00000000000E+00  0.00000000000E+00  0.89547419427E+03  0.89547419427E+03  0.00000000000E+00 0. -1.
         -2   -1    0    0    0  501 -0.00000000000E+00 -0.00000000000E+00 -0.28450573460E+02  0.28450573460E+02  0.00000000000E+00 0.  1.
          5    1    1    2  502    0  0.91418723341E+02 -0.48802439018E+02  0.34564812589E+03  0.36087277587E+03  0.41800000000E+01 0. -1.
         -5    1    1    2    0  502  0.13615727142E+02  0.26910328817E+02  0.88345192152E+01  0.31702917096E+02  0.41800000000E+01 0.  1.
        -11    1    1    2    0    0 -0.51282227218E+02 -0.34716160666E+02  0.23811475243E+03  0.24603600136E+03  0.00000000000E+00 0. -1.
         11    1    1    2    0    0 -0.53752223264E+02  0.56608270868E+02  0.27442622327E+03  0.28531307341E+03  0.00000000000E+00 0.  1.
</event>
<event>
 6    1  0.5317355E-006  0.9992661E+02  0.7561462E-02  0.1280450E+00
          2   -1    0    0  501    0  0.00000000000E+00  0.00000000000E+00  0.73501885565E+03  0.73501885565E+03  0.00000000000E+00 0. -1.
         -2   -1    0    0    0  501 -0.00000000000E+00 -0.00000000000E+00 -0.24982412248E+02  0.24982412248E+02  0.00000000000E+00 0.  1.
          5    1    1    2  502    0  0.22936366630E+01 -0.32006839481E+02  0.25656559202E+03  0.25859828683E+03  0.41800000000E+01 0.  1.
         -5    1    1    2    0  502 -0.46285511692E+02 -0.23651590318E+02  0.25579154453E+02  0.58081940909E+02  0.41800000000E+01 0.  1.
        -11    1    1    2    0    0  0.57742896000E+02 -0.27968897436E+00  0.19180161125E+03  0.20030521297E+03  0.00000000000E+00 0.  1.
         11    1    1    2    0    0 -0.13751020971E+02  0.55938118773E+02  0.23609008568E+03  0.24301582720E+03  0.00000000000E+00 0. -1.
</event>
<event>
 6    1  0.5317355E-006  0.1385900E+03  0.7561462E-02  0.1215239E+00
         -2   -1    0    0    0  501 -0.00000000000E+00  0.00000000000E+00  0.32482892943E+02  0.32482892943E+02  0.00000000000E+00 0.  1.
          2   -1    0    0  501    0  0.00000000000E+00 -0.00000000000E+00 -0.68666412201E+03  0.68666412201E+03  0.00000000000E+00 0. -1.
          5    1    1    2  502    0 -0.67497895800E+01  0.42121223459E+02 -0.37008647457E+02  0.56629228422E+02  0.41800000000E+01 0. -1.
         -5    1    1    2    0  502  0.96429452326E+02 -0.41028594604E+02 -0.20305331004E+03  0.22853906443E+03  0.41800000000E+01 0. -1.
        -11    1    1    2    0    0 -0.97801401923E+02  0.25964346529E+02 -0.33612477825E+03  0.35102582250E+03  0.00000000000E+00 0. -1.
         11    1    1    2    0    0  0.81217391775E+01 -0.27056975384E+02 -0.77994493322E+02  0.82952899604E+02  0.00000000000E+00 0.  1.
</event>
<event>
 6    1  0.5317355E-006  0.7809461E+02  0.7561462E-02  0.1334547E+00
          1   -1    0    0  501    0  0.00000000000E+00  0.00000000000E+00  0.49316887700E+02  0.49316887700E+02  0.00000000000E+00 0. -1.
         -1   -1    0    0    0  501 -0.00000000000E+00 -0.00000000000E+00 -0.38842447014E+03  0.38842447014E+03  0.00000000000E+00 0.  1.
          5    1    1    2  502    0  0.64612740306E+02  0.80065854509E+01 -0.18181506689E+03  0.19316599745E+03  0.41800000000E+01 0. -1.
         -5    1    1    2    0  502 -0.59022091125E+02  0.17176034125E+02 -0.13324596250E+03  0.14680116591E+03  0.41800000000E+01 0. -1.
        -11    1    1    2    0    0  0.24208995505E+01 -0.19161634047E+02 -0.58650217823E+02  0.61748498157E+02  0.00000000000E+00 0.  1.
         11    1    1    2    0    0 -0.80115487321E+01 -0.60209855288E+01  0.34603664778E+02  0.36025696327E+02  0.00000000000E+00 0. -1.
</event>
<event>
 6    1  0.5317355E-006  0.1388094E+03  0.7561462E-02  0.1214940E+00
         -1   -1    0    0    0  501 -0.00000000000E+00  0.00000000000E+00  0.23561510780E+03  0.23561510780E+03  0.00000000000E+00 0.  1.
          1   -1    0    0  501    0  0.00000000000E+00 -0.00000000000E+00 -0.89602354259E+02  0.89602354259E+02  0.00000000000E+00 0. -1.
          5    1    1    2  502    0 -0.89657116009E+01  0.10513328197E+03  0.43249274609E+02  0.11411118752E+03  0.41800000000E+01 0.  1.
         -5    1    1    2    0  502 -0.34942231119E+02 -0.22997675257E+02  0.58719351575E+02  0.72216945603E+02  0.41800000000E+01 0.  1.
        -11    1    1    2    0    0 -0.28372221293E+02 -0.20716606878E+02  0.22194394926E+02  0.41554204454E+02  0.00000000000E+00 0.  1.
         11    1    1    2    0    0  0.72280164012E+02 -0.61418999837E+02  0.21849732429E+02  0.97335124482E+02  0.00000000000E+00 0. -1.
</event>
<event>
 6    1  0.5317355E-006  0.9169419E+02  0.7561462E-02  0.1298800E+00
         -2   -1    0    0    0  501 -0.00000000000E+00  0.00000000000E+00  0.69590636263E+02  0.69590636263E+02  0.00000000000E+00 0.  1.
          2   -1    0    0  501    0  0.00000000000E+00 -0.00000000000E+00 -0.19145880559E+03  0.19145880559E+03  0.00000000000E+00 0. -1.
          5    1    1    2  502    0  0.90136263948E+01  0.37484985799E+02 -0.79131246005E+02  0.88122619772E+02  0.41800000000E+01 0. -1.
         -5    1    1    2    0  502 -0.39664710972E+02 -0.23826371713E+02  0.24406785388E+02  0.52479985313E+02  0.41800000000E+01 0. -1.
        -11    1    1    2    0    0  0.13766206632E+02  0.39786555368E+02 -0.40381387400E+02  0.58336394141E+02  0.00000000000E+00 0. -1.
         11    1    1    2    0    0  0.16884877946E+02 -0.53445169454E+02 -0.26762321308E+02  0.62110442624E+02  0.00000000000E+00 0.  1.
</event>
<event>
 6    1  0.5317355E-006  0.7017697E+02  0.7561462E-02  0.1359492E+00
         -2   -1    0    0    0  501 -0.00000000000E+00  0.00000000000E+00  0.22421063868E+03  0.22421063868E+03  0.00000000000E+00 0.  1.
          2   -1    0    0  501    0  0.00000000000E+00 -0.00000000000E+00 -0.62495240934E+02  0.62495240934E+02  0.00000000000E+00 0. -1.
          5    1    1    2  502    0  0.42031271820E+02  0.20437403191E+02 -0.91450280308E+01  0.47806058169E+02  0.41800000000E+01 0. -1.
         -5    1    1    2    0  502  0.20953514220E+01 -0.20893154762E+02  0.12963997481E+03  0.13139600406E+03  0.41800000000E+01 0. -1.
        -11    1    1    2    0    0  0.83425072228E+01 -0.15137023825E+02  0.49237359357E+02  0.52182798636E+02  0.00000000000E+00 0.  1.
         11    1    1    2    0    0 -0.52469130465E+02  0.15592775396E+02 -0.80169083836E+01  0.55321018757E+02  0.00000000000E+00 0. -1.
</event>
<event>
 6    1  0.5317355E-006  0.1474942E+03  0.7561462E-02  0.1203586E+00
         -2   -1    0    0    0  501 -0.00000000000E+00  0.00000000000E+00  0.26670405803E+02  0.26670405803E+02  0.00000000000E+00 0.  1.
          2   -1    0    0  501    0  0.00000000000E+00 -0.00000000000E+00 -0.12323906230E+04  0.12323906230E+04  0.00000000000E+00 0. -1.
          5    1    1    2  502    0 -0.61235372878E+02 -0.76831881138E+02 -0.42450667781E+03  0.43574797848E+03  0.41800000000E+01 0. -1.
         -5    1    1    2    0  502 -0.28021169662E+02 -0.23019791839E+02 -0.13274670747E+02  0.38843095255E+02  0.41800000000E+01 0. -1.
        -11    1    1    2    0    0  0.15208856519E+02  0.82767209364E+02 -0.41338511521E+03  0.42186369095E+03  0.00000000000E+00 0. -1.
         11    1    1    2    0    0  0.74047686021E+02  0.17084463613E+02 -0.35455375343E+03  0.36260626411E+03  0.00000000000E+00 0.  1.
</event>
<event>
 6    1  0.5317355E-006  0.1370567E+03  0.7561462E-02  0.1217345E+00
          2   -1    0    0  501    0  0.00000000000E+00  0.00000000000E+00  0.25100156516E+03  0.25100156516E+03  0.00000000000E+00 0. -1.
         -2   -1    0    0    0  501 -0.00000000000E+00 -0.00000000000E+00 -0.22604894217E+03  0.22604894217E+03  0.00000000000E+00 0.  1.
          5    1    1    2  502    0 -0.39278231598E+02  0.53732395812E+02 -0.13079009464E+01  0.66701820380E+02  0.41800000000E+01 0. -1.
         -5    1    1    2    0  502 -0.61041682336E+02  0.17695021175E+02 -0.15797052434E+03  0.17032721367E+03  0.41800000000E+01 0. -1.
        -11    1    1    2    0    0 -0.31217822291E+01 -0.33364331319E+02  0.12106196242E+02  0.35629820601E+02  0.00000000000E+00 0.  1.
         11    1    1    2    0    0  0.10344169616E+03 -0.38063085668E+02  0.17212485203E+03  0.20439165267E+03  0.00000000000E+00 0. -1.
</event>
<event>
 6    1  0.5317355E-006  0.1074163E+03  0.7561462E-02  0.1265431E+00
         -2   -1    0    0    0  501 -0.00000000000E+00  0.00000000000E+00  0.37550510127E+02  0.37550510127E+02  0.00000000000E+00 0.  1.
          2   -1    0    0  501    0  0.00000000000E+00 -0.00000000000E+00 -0.46898326669E+03  0.46898326669E+03  0.00000000000E+00 0. -1.
          5    1    1    2  502    0 -0.31454802105E+01  0.29097858042E+02 -0.85289871103E+01  0.30770040778E+02  0.41800000000E+01 0. -1.
         -5    1    1    2    0  502 -0.39334166360E+02 -0.91681775510E+02 -0.20467788111E+03  0.22773500394E+03  0.41800000000E+01 0. -1.
        -11    1    1    2    0    0  0.44755742969E+02  0.32656167744E+02 -0.20960139623E+03  0.21680001642E+03  0.00000000000E+00 0. -1.
         11    1    1    2    0    0 -0.22760963981E+01  0.29927749725E+02 -0.86244921134E+01  0.31228715673E+02  0.00000000000E+00 0.  1.
</event>
<event>
 6    1  0.5317355E-006  0.8700687E+02  0.7561462E-02  0.1310266E+00
          1   -1    0    0  501    0  0.00000000000E+00  0.00000000000E+00  0.34315100548E+03  0.34315100548E+03  0.00000000000E+00 0. -1.
         -1   -1    0    0    0  501 -0.00000000000E+00 -0.00000000000E+00 -0.63200812832E+02  0.63200812832E+02  0.00000000000E+00 0.  1.
          5    1    1    2  502    0 -0.18409229785E+02  0.18136155241E+02  0.82090465426E+02  0.86163430654E+02  0.41800000000E+01 0.  1.
         -5    1    1    2    0  502 -0.39360088567E+02 -0.10213461954E+02 -0.40939493654E+02  0.57853659502E+02  0.41800000000E+01 0.  1.
        -11    1    1    2    0    0 -0.24038107332E+02  0.37258960201E+01  0.75450280327E+02  0.79274571627E+02  0.00000000000E+00 0. -1.
         11    1    1    2    0    0  0.81807425684E+02 -0.11648589308E+02  0.16334894055E+03  0.18306015653E+03  0.00000000000E+00 0.  1.
</event>
<event>
 6    1  0.5317355E-006  0.7871900E+02  0.7561462E-02  0.1332727E+00
          2   -1    0    0  501    0  0.00000000000E+00  0.00000000000E+00  0.60875093909E+02  0.60875093909E+02  0.00000000000E+00 0. -1.
         -2   -1    0    0    0  501 -0.00000000000E+00 -0.00000000000E+00 -0.25168482966E+03  0.25168482966E+03  0.00000000000E+00 0.  1.
          5    1    1    2  502    0  0.53818004823E+01  0.88125086026E+01  0.19619985046E+02  0.22561921405E+02  0.41800000000E+01 0. -1.
         -5    1    1    2    0  502 -0.45084291946E+02  0.88107692064E+01 -0.17816037885E+03  0.18403482286E+03  0.41800000000E+01 0. -1.
        -11    1    1    2    0    0  0.15138843925E+02 -0.54109229582E+02 -0.11633393972E+02  0.57378821674E+02  0.00000000000E+00 0.  1.
         11    1    1    2    0    0  0.24563647539E+02  0.36485951773E+02 -0.20635947976E+02  0.48584357627E+02  0.00000000000E+00 0. -1.
</event>
<event>
 6    1  0.5317355E-006  0.8348579E+02  0.7561462E-02  0.1319441E+00
          4   -1    0    0  501    0  0.00000000000E+00  0.00000000000E+00  0.14043124349E+03  0.14043124349E+03  0.00000000000E+00 0. -1.
         -4   -1    0    0    0  501 -0.00000000000E+00 -0.00000000000E+00 -0.97739738186E+02  0.97739738186E+02  0.00000000000E+00 0.  1.
          5    1    1    2  502    0  0.55711625046E+02  0.55962421022E+02  0.34143206030E+02  0.86132506349E+02  0.41800000000E+01 0.  1.
         -5    1    1    2    0  502 -0.39594543630E+02 -0.16285100163E+02 -0.18705899461E+02  0.46907520156E+02  0.41800000000E+01 0.  1.
        -11    1    1    2    0    0 -0.21141570177E+00 -0.17953720738E+02 -0.33872714662E+02  0.38337208865E+02  0.00000000000E+00 0.  1.
         11    1    1    2    0    0 -0.15905665715E+02 -0.21723600121E+02  0.61126913395E+02  0.66793746304E+02  0.00000000000E+00 0. -1.
</event>
<event>
 6    1  0.5317355E-006  0.9745607E+02  0.7561462E-02  0.1285738E+00
         -1   -1    0    0    0  501 -0.00000000000E+00  0.00000000000E+00  0.11195057042E+04  0.11195057042E+04  0.00000000000E+00 0.  1.
          1   -1    0    0  501    0  0.00000000000E+00 -0.00000000000E+00 -0.34200309697E+02  0.34200309697E+02  0.00000000000E+00 0. -1.
          5    1    1    2  502    0  0.54605109197E+01  0.29213280598E+01 -0.18739747039E+00  0.74738781733E+01  0.41800000000E+01 0.  1.
         -5    1    1    2    0  502  0.15458930308E+02 -0.71169872876E+02  0.10002124241E+04  0.10028691315E+04  0.41800000000E+01 0.  1.
        -11    1    1    2    0    0  0.31460234641E+02  0.49902710283E+02  0.35771127886E+02  0.68989857570E+02  0.00000000000E+00 0.  1.
         11    1    1    2    0    0 -0.52379675869E+02  0.18345834533E+02  0.49509239991E+02  0.74373146587E+02  0.00000000000E+00 0. -1.
</event>
<event>
 6    1  0.5317355E-006  0.1845904E+03  0.7561462E-02  0.1163433E+00
          1   -1    0    0  501    0  0.00000000000E+00  0.00000000000E+00  0.56329859077E+03  0.56329859077E+03  0.00000000000E+00 0.  1.
         -1   -1    0    0    0  501 -0.00000000000E+00 -0.00000000000E+00 -0.80796711385E+02  0.80796711385E+02  0.00000000000E+00 0. -1.
          5    1    1    2  502    0  0.23748170175E+01 -0.98592314145E+02  0.16424806971E+02  0.10006663204E+03  0.41800000000E+01 0. -1.
         -5    1    1    2    0  502 -0.80658537850E+02 -0.35878039864E+02  0.90149126601E+02  0.12624330041E+03  0.41800000000E+01 0. -1.
        -11    1    1    2    0    0 -0.20224645138E+02  0.43652086186E+02  0.91374860723E+02  0.10326619036E+03  0.00000000000E+00 0. -1.
         11    1    1    2    0    0  0.98508365970E+02  0.90818267823E+02  0.28455308509E+03  0.31451917934E+03  0.00000000000E+00 0.  1.
</event>
<event>
 6    1  0.5317355E-006  0.1017725E+03  0.7561462E-02  0.1276612E+00
          4   -1    0    0  501    0  0.00000000000E+00  0.00000000000E+00  0.24534046851E+02  0.24534046851E+02  0.00000000000E+00 0. -1.
         -4   -1    0    0    0  501 -0.00000000000E+00 -0.00000000000E+00 -0.62492706002E+03  0.62492706002E+03  0.00000000000E+00 0.  1.
          5    1    1    2  502    0 -0.38898346338E+02 -0.37571925512E+02 -0.21734789273E+03  0.22401408396E+03  0.41800000000E+01 0. -1.
         -5    1    1    2    0  502  0.75713444072E+02  0.12687557737E+02 -0.22089172142E+03  0.23388912913E+03  0.41800000000E+01 0. -1.
        -11    1    1    2    0    0 -0.24161949866E+02  0.43588990152E+02 -0.31479552367E+02  0.58947112746E+02  0.00000000000E+00 0. -1.
         11    1    1    2    0    0 -0.12653147868E+02 -0.18704622377E+02 -0.13067384665E+03  0.13261078104E+03  0.00000000000E+00 0.  1.
</event>
<event>
 6    1  0.5317355E-006  0.1076708E+03  0.7561462E-02  0.1264945E+00
         -1   -1    0    0    0  501 -0.00000000000E+00  0.00000000000E+00  0.46427892628E+03  0.46427892628E+03  0.00000000000E+00 0.  1.
          1   -1    0    0  501    0  0.00000000000E+00 -0.00000000000E+00 -0.80600357115E+02  0.80600357115E+02  0.00000000000E+00 0. -1.
          5    1    1    2  502    0  0.20689484068E+02  0.30092334260E+01 -0.22138373779E+02  0.30735813482E+02  0.41800000000E+01 0. -1.
         -5    1    1    2    0  502  0.50015066437E+02 -0.53105961821E+02  0.37717590910E+03  0.38418861105E+03  0.41800000000E+01 0.  1.
        -11    1    1    2    0    0 -0.29200943291E+02 -0.22812900931E+02  0.27339745609E+02  0.46049812464E+02  0.00000000000E+00 0.  1.
         11    1    1    2    0    0 -0.41503607214E+02  0.72909629327E+02  0.13012882305E+01  0.83905046400E+02  0.00000000000E+00 0. -1.
</event>
<event>
 6    1  0.5317355E-006  0.7988276E+02  0.7561462E-02  0.1329384E+00
         -1   -1    0    0    0  501 -0.00000000000E+00  0.00000000000E+00  0.25672374045E+03  0.25672374045E+03  0.00000000000E+00 0.  1.
          1   -1    0    0  501    0  0.00000000000E+00 -0.00000000000E+00 -0.55703639832E+02  0.55703639832E+02  0.00000000000E+00 0. -1.
          5    1    1    2  502    0 -0.47768869165E+02 -0.29577137108E+02  0.14948469627E+03  0.15974923699E+03  0.41800000000E+01 0. -1.
         -5    1    1    2    0  502  0.34684588281E+02  0.35567233965E+02  0.25975222811E+02  0.56215953218E+02  0.41800000000E+01 0. -1.
        -11    1    1    2    0    0  0.32994822161E+02 -0.84158308992E+00  0.52838683979E+02  0.62300024688E+02  0.00000000000E+00 0.  1.
         11    1    1    2    0    0 -0.19910541276E+02 -0.51485137668E+01 -0.27278502444E+02  0.34162165381E+02  0.00000000000E+00 0. -1.
</event>
<event>
 6    1  0.5317355E-006  0.1191493E+03  0.7561462E-02  0.1244507E+00
         -2   -1    0    0    0  501 -0.00000000000E+00  0.00000000000E+00  0.22890595306E+03  0.22890595306E+03  0.00000000000E+00 0.  1.
          2   -1    0    0  501    0  0.00000000000E+00 -0.00000000000E+00 -0.80852188708E+02  0.80852188708E+02  0.00000000000E+00 0. -1.
          5    1    1    2  502    0 -0.74830209043E+01  0.37525038107E+02  0.78733007280E+02  0.87638364442E+02  0.41800000000E+01 0. -1.
         -5    1    1    2    0  502 -0.72806614402E+02 -0.25925109875E+02 -0.71876200952E+01  0.77730616267E+02  0.41800000000E+01 0. -1.
        -11    1    1    2    0    0  0.94467461876E+02 -0.30058528879E+02  0.60435518814E+02  0.11610369695E+03  0.00000000000E+00 0.  1.
         11    1    1    2    0    0 -0.14177826569E+02  0.18458600647E+02  0.16072858355E+02  0.28285464108E+02  0.00000000000E+00 0. -1.
</event>
<event>
 6    1  0.5317355E-006  0.8838987E+02  0.7561462E-02  0.1306798E+00
         -2   -1    0    0    0  501 -0.00000000000E+00  0.00000000000E+00  0.54013637676E+03  0.54013637676E+03  0.00000000000E+00 0.  1.
          2   -1    0    0  501    0  0.00000000000E+00 -0.00000000000E+00 -0.27585288519E+02  0.27585288519E+02  0.00000000000E+00 0. -1.
          5    1    1    2  502    0 -0.26718829969E+02 -0.24776906712E+02  0.34706500350E+03  0.34899767913E+03  0.41800000000E+01 0. -1.
         -5    1    1    2    0  502  0.45167904483E+02 -0.99225958991E+00  0.45598197518E+02  0.64325672879E+02  0.41800000000E+01 0. -1.
        -11    1    1    2    0    0  0.21608594099E+02  0.45281310500E+02  0.45743203351E+02  0.67895280192E+02  0.00000000000E+00 0. -1.
         11    1    1    2    0    0 -0.40057668613E+02 -0.19512144198E+02  0.74144683870E+02  0.86503033081E+02  0.00000000000E+00 0.  1.
</event>
<event>
 6    1  0.5317355E-006  0.2528657E+03  0.7561462E-02  0.1111507E+00
          2   -1    0    0  501    0  0.00000000000E+00  0.00000000000E+00  0.72449153575E+03  0.72449153575E+03  0.00000000000E+00 0.  1.
         -2   -1    0    0    0  501 -0.00000000000E+00 -0.00000000000E+00 -0.11002491588E+03  0.11002491588E+03  0.00000000000E+00 0. -1.
          5    1    1    2  502    0 -0.27344269449E+01 -0.52333238354E+02  0.11567156123E+03  0.12705757516E+03  0.41800000000E+01 0. -1.
         -5    1    1    2    0  502 -0.39527156829E+02 -0.19030089220E+03  0.73950407310E+02  0.20799750201E+03  0.41800000000E+01 0. -1.
        -11    1    1    2    0    0  0.35179484649E+02  0.30673690412E+02  0.47441409949E+02  0.66551925604E+02  0.00000000000E+00 0. -1.
         11    1    1    2    0    0  0.70820991243E+01  0.21196044014E+03  0.37740324138E+03  0.43290944887E+03  0.00000000000E+00 0.  1.
</event>
<event>
 6    1  0.5317355E-006  0.1343965E+03  0.7561462E-02  0.1221074E+00
          2   -1    0    0  501    0  0.00000000000E+00  0.00000000000E+00  0.13588346273E+03  0.13588346273E+03  0.00000000000E+00 0. -1.
         -2   -1    0    0    0  501 -0.00000000000E+00 -0.00000000000E+00 -0.14763362405E+03  0.14763362405E+03  0.00000000000E+00 0.  1.
          5    1    1    2  502    0 -0.75445622501E+02  0.82247915873E+02 -0.48272491811E+02  0.12167361047E+03  0.41800000000E+01 0. -1.
         -5    1    1    2    0  502  0.71315125847E+01 -0.30454912038E+02  0.12833272192E+02  0.34066485204E+02  0.41800000000E+01 0. -1.
        -11    1    1    2    0    0  0.14861651403E+02  0.26715155933E+02  0.49555209584E+01  0.30969750191E+02  0.00000000000E+00 0.  1.
         11    1    1    2    0    0  0.53452458514E+02 -0.78508159768E+02  0.18733537339E+02  0.96807240910E+02  0.00000000000E+00 0. -1.
</event>
<event>
 6    1  0.5317355E-006  0.9612812E+02  0.7561462E-02  0.1288655E+00
          2   -1    0    0  501    0  0.00000000000E+00  0.00000000000E+00  0.36401606388E+02  0.36401606388E+02  0.00000000000E+00 0. -1.
         -2   -1    0    0    0  501 -0.00000000000E+00 -0.00000000000E+00 -0.32303521829E+03  0.32303521829E+03  0.00000000000E+00 0.  1.
          5    1    1    2  502    0 -0.77244585901E+02  0.41071067532E+02 -0.19179791272E+03  0.21084940209E+03  0.41800000000E+01 0.  1.
         -5    1    1    2    0  502  0.32762970800E+02 -0.18439430021E+02 -0.28535092095E+02  0.47383000285E+02  0.41800000000E+01 0.  1.
        -11    1    1    2    0    0 -0.47125980552E+01 -0.16630981744E+02 -0.43192392920E+02  0.46522907694E+02  0.00000000000E+00 0.  1.
         11    1    1    2    0    0  0.49194213155E+02 -0.60006557680E+01 -0.23108214168E+02  0.54681514606E+02  0.00000000000E+00 0. -1.
</event>
<event>
 6    1  0.5317355E-006  0.1059283E+03  0.7561462E-02  0.1268301E+00
          1   -1    0    0  501    0  0.00000000000E+00  0.00000000000E+00  0.23937330671E+03  0.23937330671E+03  0.00000000000E+00 0. -1.
         -1   -1    0    0    0  501 -0.00000000000E+00 -0.00000000000E+00 -0.85410586901E+02  0.85410586901E+02  0.00000000000E+00 0.  1.
          5    1    1    2  502    0  0.56763451820E+02 -0.61635145680E+02  0.15444091354E+03  0.17575678883E+03  0.41800000000E+01 0.  1.
         -5    1    1    2    0  502 -0.11606050022E+02  0.37154570430E+02  0.17226208554E+02  0.42771218852E+02  0.41800000000E+01 0.  1.
        -11    1    1    2    0    0 -0.94545779975E+01 -0.25610264564E+02 -0.33041304899E+02  0.42860267447E+02  0.00000000000E+00 0.  1.
         11    1    1    2    0    0 -0.35702823800E+02  0.50090839815E+02  0.15336902613E+02  0.63395618480E+02  0.00000000000E+00 0. -1.
</event>
<event>
 6    1  0.5317355E-006  0.1194096E+03  0.7561462E-02  0.1244074E+00
         -1   -1    0    0    0  501 -0.00000000000E+00  0.00000000000E+00  0.11522031191E+03  0.11522031191E+03  0.00000000000E+00 0.  1.
          1   -1    0    0  501    0  0.00000000000E+00 -0.00000000000E+00 -0.28954714724E+03  0.28954714724E+03  0.00000000000E+00 0. -1.
          5    1    1    2  502    0 -0.81805377127E+02  0.36204740101E+02  0.71425990250E+02  0.11455150552E+03  0.41800000000E+01 0. -1.
         -5    1    1    2    0  502 -0.80454323440E+01 -0.19905893569E+02 -0.38038661249E+02  0.43879217518E+02  0.41800000000E+01 0. -1.
        -11    1    1    2    0    0  0.97723215150E+02  0.11592258800E+02 -0.12758474951E+03  0.16112751332E+03  0.00000000000E+00 0. -1.
         11    1    1    2    0    0 -0.78724056790E+01 -0.27891105332E+02 -0.80129414832E+02  0.85209222794E+02  0.00000000000E+00 0.  1.
</event>
<event>
 6    1  0.5317355E-006  0.1426839E+03  0.7561462E-02  0.1209763E+00
          2   -1    0    0  501    0  0.00000000000E+00  0.00000000000E+00  0.48289765000E+03  0.48289765000E+03  0.00000000000E+00 0.  1.
         -2   -1    0    0    0  501 -0.00000000000E+00 -0.00000000000E+00 -0.46659348818E+02  0.46659348818E+02  0.00000000000E+00 0. -1.
          5    1    1    2  502    0  0.52377865197E+02  0.30486575026E+02  0.95129182001E+02  0.11287119069E+03  0.41800000000E+01 0.  1.
         -5    1    1    2    0  502  0.24060700434E+02 -0.89673495900E+02  0.75461552168E+02  0.11971704736E+03  0.41800000000E+01 0.  1.
        -11    1    1    2    0    0 -0.16311850207E+02  0.68873069067E+02  0.12389091881E+03  0.14268334122E+03  0.00000000000E+00 0. -1.
         11    1    1    2    0    0 -0.60126715424E+02 -0.96861481935E+01  0.14175664821E+03  0.15428541955E+03  0.00000000000E+00 0.  1.
</event>
<event>
 6    1  0.5317355E-006  0.1228472E+03  0.7561462E-02  0.1238473E+00
          2   -1    0    0  501    0  0.00000000000E+00  0.00000000000E+00  0.83496114574E+03  0.83496114574E+03  0.00000000000E+00 0. -1.
         -2   -1    0    0    0  501 -0.00000000000E+00 -0.00000000000E+00 -0.19168308917E+02  0.19168308917E+02  0.00000000000E+00 0.  1.
          5    1    1    2  502    0  0.27897883105E+02  0.39533063156E+02  0.21471761733E+03  0.22014150576E+03  0.41800000000E+01 0. -1.
         -5    1    1    2    0  502 -0.87592072733E+02 -0.55933110564E+01  0.22974385791E+03  0.24597432586E+03  0.41800000000E+01 0.  1.
        -11    1    1    2    0    0  0.18014871009E+02 -0.58274422106E+02  0.25233253612E+03  0.25959998582E+03  0.00000000000E+00 0.  1.
         11    1    1    2    0    0  0.41679318619E+02  0.24334670006E+02  0.11899882546E+03  0.12841363722E+03  0.00000000000E+00 0. -1.
</event>
<event>
 6    1  0.5317355E-006  0.1098953E+03  0.7561462E-02  0.1260764E+00
          2   -1    0    0  501    0  0.00000000000E+00  0.00000000000E+00  0.43287903365E+03  0.43287903365E+03  0.00000000000E+00 0.  1.
         -2   -1    0    0    0  501 -0.00000000000E+00 -0.00000000000E+00 -0.32279015667E+02  0.32279015667E+02  0.00000000000E+00 0. -1.
          5    1    1    2  502    0  0.51840321522E+02  0.45451002949E+02  0.71313303843E+02  0.99278760617E+02  0.41800000000E+01 0.  1.
         -5    1    1    2    0  502 -0.57376812987E+02 -0.14924093935E+02  0.74941154178E+02  0.95647667184E+02  0.41800000000E+01 0.  1.
        -11    1    1    2    0    0  0.40667982257E+02  0.54156896532E+01  0.11478764089E+03  0.12189920826E+03  0.00000000000E+00 0.  1.
         11    1    1    2    0    0 -0.35131490792E+02 -0.35942598667E+02  0.13955791908E+03  0.14833241325E+03  0.00000000000E+00 0. -1.
</event>
<event>
 6    1  0.5317355E-006  0.1102227E+03  0.7561462E-02  0.1260158E+00
         -1   -1    0    0    0  501 -0.00000000000E+00  0.00000000000E+00  0.36824575025E+02  0.36824575025E+02  0.00000000000E+00 0.  1.
          1   -1    0    0  501    0  0.00000000000E+00 -0.00000000000E+00 -0.49641715386E+03  0.49641715386E+03  0.00000000000E+00 0. -1.
          5    1    1    2  502    0 -0.22024399706E+02  0.26403385801E+02 -0.26439505641E+00  0.34637483582E+02  0.41800000000E+01 0.  1.
         -5    1    1    2    0  502  0.47623006880E+02 -0.61923204110E+02 -0.12664480794E+03  0.14885836815E+03  0.41800000000E+01 0.  1.
        -11    1    1    2    0    0  0.37959847693E+02  0.12066856203E+02 -0.13660097061E+03  0.14228978961E+03  0.00000000000E+00 0.  1.
         11    1    1    2    0    0 -0.63558454867E+02  0.23452962107E+02 -0.19608240523E+03  0.20745608754E+03  0.00000000000E+00 0. -1.
</event>
<event>
 6    1  0.5317355E-006  0.8937300E+02  0.7561462E-02  0.1304377E+00
         -1   -1    0    0    0  501 -0.00000000000E+00  0.00000000000E+00  0.39052603140E+03  0.39052603140E+03  0.00000000000E+00 0.  1.
          1   -1    0    0  501    0  0.00000000000E+00 -0.00000000000E+00 -0.35034507827E+02  0.35034507827E+02  0.00000000000E+00 0. -1.
          5    1    1    2  502    0 -0.22162929301E+02 -0.38806719918E+02  0.14459270702E+03  0.15139907618E+03  0.41800000000E+01 0.  1.
         -5    1    1    2    0  502  0.49513236363E+02  0.54882186929E+02  0.91880395664E+02  0.11799616318E+03  0.41800000000E+01 0.  1.
        -11    1    1    2    0    0  0.12323513525E+02  0.67547514594E+01 -0.11305617669E+02  0.18036425471E+02  0.00000000000E+00 0. -1.
         11    1    1    2    0    0 -0.39673820587E+02 -0.22830218471E+02  0.13032403856E+03  0.13812887440E+03  0.00000000000E+00 0.  1.
</event>
<event>
 6    1  0.5317355E-006  0.1043761E+03  0.7561462E-02  0.1271354E+00
          1   -1    0    0  501    0  0.00000000000E+00  0.00000000000E+00  0.85229407946E+02  0.85229407946E+02  0.00000000000E+00 0. -1.
         -1   -1    0    0    0  501 -0.00000000000E+00 -0.00000000000E+00 -0.16338531419E+03  0.16338531419E+03  0.00000000000E+00 0.  1.
          5    1    1    2  502    0 -0.14267087869E+02 -0.73580198447E+02 -0.29031523786E+02  0.80485384842E+02  0.41800000000E+01 0.  1.
         -5    1    1    2    0  502  0.41430574876E+02  0.39046580871E+02 -0.32328907837E+02  0.65603038757E+02  0.41800000000E+01 0.  1.
        -11    1    1    2    0    0 -0.46926242870E+02  0.31714517298E+02 -0.41900064318E+02  0.70452099097E+02  0.00000000000E+00 0.  1.
         11    1    1    2    0    0  0.19762755863E+02  0.28191002793E+01  0.25104589699E+02  0.32074199439E+02  0.00000000000E+00 0. -1.
</event>
<event>
 6    1  0.5317355E-006  0.1062412E+03  0.7561462E-02  0.1267693E+00
          1   -1    0    0  501    0  0.00000000000E+00  0.00000000000E+00  0.26050677855E+03  0.26050677855E+03  0.00000000000E+00 0. -1.
         -1   -1    0    0    0  501 -0.00000000000E+00 -0.00000000000E+00 -0.56616898847E+02  0.56616898847E+02  0.00000000000E+00 0.  1.
          5    1    1    2  502    0 -0.65755553074E+02 -0.42595832123E+02  0.11918305298E+03  0.14268941864E+03  0.41800000000E+01 0. -1.
         -5    1    1    2    0  502  0.54069647335E+02  0.29185081542E+02  0.15926960612E+02  0.63611604459E+02  0.41800000000E+01 0.  1.
        -11    1    1    2    0    0  0.39905038439E+02  0.18125647695E+02  0.92782161825E+01  0.44799960856E+02  0.00000000000E+00 0.  1.
         11    1    1    2    0    0 -0.28219132700E+02 -0.47148971133E+01  0.59501649930E+02  0.66022693443E+02  0.00000000000E+00 0. -1.
</event>
<event>
 6    1  0.5317355E-006  0.1487218E+03  0.7561462E-02  0.1202052E+00
          2   -1    0    0  501    0  0.00000000000E+00  0.00000000000E+00  0.49613379855E+03  0.49613379855E+03  0.00000000000E+00 0. -1.
         -2   -1    0    0    0  501 -0.00000000000E+00 -0.00000000000E+00 -0.63113350801E+02  0.63113350801E+02  0.00000000000E+00 0.  1.
          5    1    1    2  502    0  0.24988916303E+02 -0.13649747042E+03  0.23132691434E+03  0.26978810031E+03  0.41800000000E+01 0. -1.
         -5    1    1    2    0  502 -0.29840867922E+02  0.10757992569E+02 -0.40219100196E+01  0.32246859733E+02  0.41800000000E+01 0.  1.
        -11    1    1    2    0    0 -0.49758870423E+01  0.35623507038E+02  0.41591719079E+01  0.36209010156E+02  0.00000000000E+00 0. -1.
         11    1    1    2    0    0  0.98278386616E+01  0.90115970812E+02  0.20155627152E+03  0.22100317916E+03  0.00000000000E+00 0.  1.
</event>
<event>
 6    1  0.5317355E-006  0.4615025E+02  0.7561462E-02  0.1467286E+00
          1   -1    0    0  501    0  0.00000000000E+00  0.00000000000E+00  0.14578910788E+03  0.14578910788E+03  0.00000000000E+00 0. -1.
         -1   -1    0    0    0  501 -0.00000000000E+00 -0.00000000000E+00 -0.90731877972E+02  0.90731877972E+02  0.00000000000E+00 0.  1.
          5    1    1    2  502    0 -0.22051427035E+02  0.12697920875E+02 -0.61893619796E+02  0.67050691274E+02  0.41800000000E+01 0. -1.
         -5    1    1    2    0  502 -0.78099313438E+00 -0.13109479436E+02  0.58547863598E+02  0.60148093347E+02  0.41800000000E+01 0. -1.
        -11    1    1    2    0    0 -0.69264963800E+01  0.17215013401E+02  0.70628932114E+02  0.73025879592E+02  0.00000000000E+00 0. -1.
         11    1    1    2    0    0  0.29758916549E+02 -0.16803454841E+02 -0.12225946008E+02  0.36296321640E+02  0.00000000000E+00 0.  1.
</event>
<event>
 6    1  0.5317355E-006  0.1110029E+03  0.7561462E-02  0.1258724E+00
          4   -1    0    0  501    0  0.00000000000E+00  0.00000000000E+00  0.22373550062E+02  0.22373550062E+02  0.00000000000E+00 0. -1.
         -4   -1    0    0    0  501 -0.00000000000E+00 -0.00000000000E+00 -0.64314034781E+03  0.64314034781E+03  0.00000000000E+00 0.  1.
          5    1    1    2  502    0 -0.82419071911E+02  0.78902946531E+01 -0.27306858678E+03  0.28537534170E+03  0.41800000000E+01 0. -1.
         -5    1    1    2    0  502  0.44263726975E+02 -0.18480066723E+02 -0.17631437210E+03  0.18277040406E+03  0.41800000000E+01 0. -1.
        -11    1    1    2    0    0  0.18876411262E+02 -0.35937145916E+02 -0.11403411978E+03  0.12104370216E+03  0.00000000000E+00 0.  1.
         11    1    1    2    0    0  0.19278933675E+02  0.46526917986E+02 -0.57349719096E+02  0.76324449957E+02  0.00000000000E+00 0. -1.
</event>
<event>
 6    1  0.5317355E-006  0.1440971E+03  0.7561462E-02  0.1207920E+00
         -1   -1    0    0    0  501 -0.00000000000E+00  0.00000000000E+00  0.10608292682E+03  0.10608292682E+03  0.00000000000E+00 0.  1.
          1   -1    0    0  501    0  0.00000000000E+00 -0.00000000000E+00 -0.25465795021E+03  0.25465795021E+03  0.00000000000E+00 0. -1.
          5    1    1    2  502    0 -0.84941228644E+02  0.81924803265E+02 -0.17281583203E+02  0.11934324963E+03  0.41800000000E+01 0. -1.
         -5    1    1    2    0  502  0.84851595148E+02 -0.86009440001E+01 -0.38880357548E+02  0.93823899087E+02  0.41800000000E+01 0.  1.
        -11    1    1    2    0    0 -0.20248286629E+02 -0.24207416827E+02  0.92186521320E+01  0.32878194719E+02  0.00000000000E+00 0.  1.
         11    1    1    2    0    0  0.20337920125E+02 -0.49116442437E+02 -0.10163173478E+03  0.11469553360E+03  0.00000000000E+00 0. -1.
</event>
<event>
 6    1  0.5317355E-006  0.1970913E+03  0.7561462E-02  0.1152217E+00
         -2   -1    0    0    0  501 -0.00000000000E+00  0.00000000000E+00  0.64543039743E+02  0.64543039743E+02  0.00000000000E+00 0.  1.
          2   -1    0    0  501    0  0.00000000000E+00 -0.00000000000E+00 -0.80861511001E+03  0.80861511001E+03  0.00000000000E+00 0. -1.
          5    1    1    2  502    0 -0.30740390117E+02 -0.10699155292E+02  0.63320153207E+01  0.33421704423E+02  0.41800000000E+01 0. -1.
         -5    1    1    2    0  502 -0.45358596108E+02 -0.15470783101E+03 -0.23035154878E+03  0.28119605908E+03  0.41800000000E+01 0. -1.
        -11    1    1    2    0    0  0.65871330926E+02  0.46225605074E+02 -0.15928556462E+03  0.17845932282E+03  0.00000000000E+00 0.  1.
         11    1    1    2    0    0  0.10227655299E+02  0.11918138123E+03 -0.36076697218E+03  0.38008106343E+03  0.00000000000E+00 0. -1.
</event>
<event>
 6    1  0.5317355E-006  0.1130803E+03  0.7561462E-02  0.1254970E+00
          1   -1    0    0  501    0  0.00000000000E+00  0.00000000000E+00  0.64924546646E+03  0.64924546646E+03  0.00000000000E+00 0. -1.
         -1   -1    0    0    0  501 -0.00000000000E+00 -0.00000000000E+00 -0.29794809534E+02  0.29794809534E+02  0.00000000000E+00 0.  1.
          5    1    1    2  502    0  0.86088516250E+02  0.35736609898E+02  0.12006761628E+03  0.15205933972E+03  0.41800000000E+01 0. -1.
         -5    1    1    2    0  502 -0.98795761670E+01 -0.32543282883E+02  0.23389479799E+03  0.23639145546E+03  0.41800000000E+01 0.  1.
        -11    1    1    2    0    0 -0.47613289943E+02 -0.32496660622E+02  0.69145452413E+02  0.90023063268E+02  0.00000000000E+00 0.  1.
         11    1    1    2    0    0 -0.28595650140E+02  0.29303333606E+02  0.19634279024E+03  0.20056641754E+03  0.00000000000E+00 0. -1.
</event>
<event>
 6    1  0.5317355E-006  0.2103014E+03  0.7561462E-02  0.1141328E+00
         -1   -1    0    0    0  501 -0.00000000000E+00  0.00000000000E+00  0.11179658696E+04  0.11179658696E+04  0.00000000000E+00 0.  1.
          1   -1    0    0  501    0  0.00000000000E+00 -0.00000000000E+00 -0.46365977487E+02  0.46365977487E+02  0.00000000000E+00 0. -1.
          5    1    1    2  502    0 -0.13963506615E+02  0.16502829814E+02  0.14804042461E+02  0.26532149970E+02  0.41800000000E+01 0. -1.
         -5    1    1    2    0  502  0.11613770908E+03  0.14767226878E+03  0.67722830141E+03  0.70281627120E+03  0.41800000000E+01 0. -1.
        -11    1    1    2    0    0 -0.65426485189E+01 -0.88435505810E+02  0.18810841426E+03  0.20796254579E+03  0.00000000000E+00 0.  1.
         11    1    1    2    0    0 -0.95631553950E+02 -0.75739592785E+02  0.19145913401E+03  0.22702088014E+03  0.00000000000E+00 0. -1.
</event>
<event>
 6    1  0.5317355E-006  0.1263030E+03  0.7561462E-02  0.1233047E+00
          1   -1    0    0  501    0  0.00000000000E+00  0.00000000000E+00  0.43982331265E+03  0.43982331265E+03  0.00000000000E+00 0. -1.
         -1   -1    0    0    0  501 -0.00000000000E+00 -0.00000000000E+00 -0.40346496912E+02  0.40346496912E+02  0.00000000000E+00 0.  1.
          5    1    1    2  502    0 -0.90116981020E+02 -0.47720623802E+02  0.11037520492E+03  0.15032792976E+03  0.41800000000E+01 0. -1.
         -5    1    1    2    0  502  0.33070888684E+02  0.19002893114E+02  0.39759788930E+02  0.55254925942E+02  0.41800000000E+01 0. -1.
        -11    1    1    2    0    0 -0.14387588137E+02 -0.20777487758E+02  0.85055073458E+02  0.88730334220E+02  0.00000000000E+00 0. -1.
         11    1    1    2    0    0  0.71433680473E+02  0.49495218446E+02  0.16428674843E+03  0.18585661964E+03  0.00000000000E+00 0.  1.
</event>
<event>
 6    1  0.5317355E-006  0.1034085E+03  0.7561462E-02  0.1273287E+00
          2   -1    0    0  501    0  0.00000000000E+00  0.00000000000E+00  0.35421755984E+02  0.35421755984E+02  0.00000000000E+00 0. -1.
         -2   -1    0    0    0  501 -0.00000000000E+00 -0.00000000000E+00 -0.65351057862E+03  0.65351057862E+03  0.00000000000E+00 0.  1.
          5    1    1    2  502    0  0.23091398003E+02  0.44030483119E+01 -0.40321407090E+03  0.40392036204E+03  0.41800000000E+01 0. -1.
         -5    1    1    2    0  502  0.19541115271E+02 -0.63782656421E+02 -0.10438651023E+03  0.12395200025E+03  0.41800000000E+01 0. -1.
        -11    1    1    2    0    0 -0.22979640313E+02 -0.22341455203E+02 -0.40756483805E+02  0.51848774929E+02  0.00000000000E+00 0.  1.
         11    1    1    2    0    0 -0.19652872961E+02  0.81721063312E+02 -0.69731757700E+02  0.10921119739E+03  0.00000000000E+00 0. -1.
</event>
<event>
 6    1  0.5317355E-006  0.4250582E+03  0.7561462E-02  0.1035433E+00
         -2   -1    0    0    0  501 -0.00000000000E+00  0.00000000000E+00  0.12428800280E+03  0.12428800280E+03  0.00000000000E+00 0.  1.
          2   -1    0    0  501    0  0.00000000000E+00 -0.00000000000E+00 -0.21258526751E+04  0.21258526751E+04  0.00000000000E+00 0. -1.
          5    1    1    2  502    0 -0.11285010871E+03 -0.20534915357E+03 -0.29792169700E+03  0.37904911536E+03  0.41800000000E+01 0. -1.
         -5    1    1    2    0  502  0.13427002057E+03  0.53213070326E+02 -0.19098312497E+03  0.23948297580E+03  0.41800000000E+01 0.  1.
        -11    1    1    2    0    0 -0.53738201751E+02 -0.15417009528E+03 -0.11324096675E+03  0.19869506575E+03  0.00000000000E+00 0.  1.
         11    1    1    2    0    0  0.32318289885E+02  0.30630617852E+03 -0.13994188836E+04  0.14329135210E+04  0.00000000000E+00 0. -1.
</event>
<event>
 6    1  0.5317355E-006  0.9538612E+02  0.7561462E-02  0.1290309E+00
         -3   -1    0    0    0  501 -0.00000000000E+00  0.00000000000E+00  0.31696669340E+03  0.31696669340E+03  0.00000000000E+00 0.  1.
          3   -1    0    0  501    0  0.00000000000E+00 -0.00000000000E+00 -0.43340097349E+02  0.43340097349E+02  0.00000000000E+00 0. -1.
          5    1    1    2  502    0  0.60406591782E+02 -0.25029471084E+02  0.19722401456E+03  0.20782255670E+03  0.41800000000E+01 0. -1.
         -5    1    1    2    0  502 -0.29379483744E+02  0.41894201504E+02  0.50959208667E+02  0.72336654144E+02  0.41800000000E+01 0. -1.
        -11    1    1    2    0    0 -0.47637413946E+01 -0.39168021976E+02  0.42242441920E+01  0.39682129688E+02  0.00000000000E+00 0.  1.
         11    1    1    2    0    0 -0.26263366643E+02  0.22303291555E+02  0.21219128635E+02  0.40465450222E+02  0.00000000000E+00 0. -1.
</event>
<event>
 6    1  0.5317355E-006  0.1362805E+03  0.7561462E-02  0.1218423E+00
          2   -1    0    0  501    0  0.00000000000E+00  0.00000000000E+00  0.21639256484E+03  0.21639256484E+03  0.00000000000E+00 0. -1.
         -2   -1    0    0    0  501 -0.00000000000E+00 -0.00000000000E+00 -0.11809768857E+03  0.11809768857E+03  0.00000000000E+00 0.  1.
          5    1    1    2  502    0  0.20489044591E+02 -0.10850764014E+03 -0.37220618761E+02  0.11660426998E+03  0.41800000000E+01 0. -1.
         -5    1    1    2    0  502 -0.30942180481E+02  0.22135308582E+02  0.65246339001E+01  0.38825683078E+02  0.41800000000E+01 0. -1.
        -11    1    1    2    0    0 -0.29095556798E+02  0.78147928292E+02  0.79930935267E+02  0.11551019234E+03  0.00000000000E+00 0.  1.
         11    1    1    2    0    0  0.39548692688E+02  0.82244032687E+01  0.49059925862E+02  0.63550108009E+02  0.00000000000E+00 0. -1.
</event>
<event>
 6    1  0.5317355E-006  0.1102375E+03  0.7561462E-02  0.1260131E+00
          2   -1    0    0  501    0  0.00000000000E+00  0.00000000000E+00  0.44345514733E+02  0.44345514733E+02  0.00000000000E+00 0. -1.
         -2   -1    0    0    0  501 -0.00000000000E+00 -0.00000000000E+00 -0.39033614270E+03  0.39033614270E+03  0.00000000000E+00 0.  1.
          5    1    1    2  502    0 -0.57409114337E+02 -0.67418108903E+01 -0.13010065289E+03  0.14242510560E+03  0.41800000000E+01 0. -1.
         -5    1    1    2    0  502  0.70684935399E+02 -0.46811672337E+01 -0.18027132889E+03  0.19373563905E+03  0.41800000000E+01 0.  1.
        -11    1    1    2    0    0  0.13693926579E+02 -0.35158862029E+02 -0.10786899181E+02  0.39243170084E+02  0.00000000000E+00 0.  1.
         11    1    1    2    0    0 -0.26969747641E+02  0.46581840153E+02 -0.24831747007E+02  0.59277742697E+02  0.00000000000E+00 0. -1.
</event>
<event>
 6    1  0.5317355E-006  0.1162793E+03  0.7561462E-02  0.1249364E+00
          1   -1    0    0  501    0  0.00000000000E+00  0.00000000000E+00  0.39626318992E+03  0.39626318992E+03  0.00000000000E+00 0. -1.
         -1   -1    0    0    0  501 -0.00000000000E+00 -0.00000000000E+00 -0.53730493210E+02  0.53730493210E+02  0.00000000000E+00 0.  1.
          5    1    1    2  502    0  0.10343166457E+02 -0.18933166090E+02 -0.13309974404E+02  0.25691899291E+02  0.41800000000E+01 0.  1.
         -5    1    1    2    0  502  0.35153863001E+01  0.10291184707E+03  0.12717878768E+03  0.16369215816E+03  0.41800000000E+01 0.  1.
        -11    1    1    2    0    0  0.20815216565E+01 -0.90339967594E+02  0.22579926427E+03  0.24320968365E+03  0.00000000000E+00 0. -1.
         11    1    1    2    0    0 -0.15940074413E+02  0.63612866178E+01  0.28646191705E+01  0.17399942032E+02  0.00000000000E+00 0.  1.
</event>
<event>
 6    1  0.5317355E-006  0.1029838E+03  0.7561462E-02  0.1274144E+00
          1   -1    0    0  501    0  0.00000000000E+00  0.00000000000E+00  0.86237676423E+02  0.86237676423E+02  0.00000000000E+00 0. -1.
         -1   -1    0    0    0  501 -0.00000000000E+00 -0.00000000000E+00 -0.23634538572E+03  0.23634538572E+03  0.00000000000E+00 0.  1.
          5    1    1    2  502    0 -0.46305062533E+02  0.41472481740E+02 -0.14686965531E+03  0.15953774979E+03  0.41800000000E+01 0.  1.
         -5    1    1    2    0  502 -0.26702803607E+01 -0.51294247202E+02 -0.20900801099E+02  0.55610665162E+02  0.41800000000E+01 0.  1.
        -11    1    1    2    0    0  0.45866790880E+02  0.40565185399E+02 -0.14403778571E+02  0.62902826718E+02  0.00000000000E+00 0.  1.
         11    1    1    2    0    0  0.31085520139E+01 -0.30743419937E+02  0.32066525682E+02  0.44531820470E+02  0.00000000000E+00 0. -1.
</event>
<event>
 6    1  0.5317355E-006  0.1979524E+03  0.7561462E-02  0.1151478E+00
         -1   -1    0    0    0  501 -0.00000000000E+00  0.00000000000E+00  0.52633457675E+02  0.52633457675E+02  0.00000000000E+00 0.  1.
          1   -1    0    0  501    0  0.00000000000E+00 -0.00000000000E+00 -0.90879396917E+03  0.90879396917E+03  0.00000000000E+00 0. -1.
          5    1    1    2  502    0  0.60363392092E+02  0.32390283929E+01 -0.15885725504E+03  0.17002155830E+03  0.41800000000E+01 0. -1.
         -5    1    1    2    0  502  0.67953851304E+02 -0.13489050337E+03 -0.17632884786E+03  0.23221220638E+03  0.41800000000E+01 0. -1.
        -11    1    1    2    0    0 -0.54249631251E+02  0.64001016387E+02 -0.12382795015E+03  0.14957444243E+03  0.00000000000E+00 0.  1.
         11    1    1    2    0    0 -0.74067612144E+02  0.67650458585E+02 -0.39714645845E+03  0.40961921973E+03  0.00000000000E+00 0. -1.
</event>
<event>
 6    1  0.5317355E-006  0.1870377E+03  0.7561462E-02  0.1161161E+00
          2   -1    0    0  501    0  0.00000000000E+00  0.00000000000E+00  0.24209354029E+03  0.24209354029E+03  0.00000000000E+00 0. -1.
         -2   -1    0    0    0  501 -0.00000000000E+00 -0.00000000000E+00 -0.21606472622E+03  0.21606472622E+03  0.00000000000E+00 0.  1.
          5    1    1    2  502    0 -0.14167260246E+02 -0.39432849843E+01  0.17321388248E+02  0.23103325522E+02  0.41800000000E+01 0.  1.
         -5    1    1    2    0  502  0.33806831296E+02  0.17665897500E+03 -0.10497481656E+03  0.20829901537E+03  0.41800000000E+01 0.  1.
        -11    1    1    2    0    0 -0.32963975044E+02 -0.13088682425E+03  0.12215787785E+03  0.18204541063E+03  0.00000000000E+00 0. -1.
         11    1    1    2    0    0  0.13324403993E+02 -0.41828865768E+02 -0.84756354641E+01  0.44710514979E+02  0.00000000000E+00 0.  1.
</event>
<event>
 6    1  0.5317355E-006  0.1390702E+03  0.7561462E-02  0.1214586E+00
         -2   -1    0    0    0  501 -0.00000000000E+00  0.00000000000E+00  0.26783733192E+03  0.26783733192E+03  0.00000000000E+00 0.  1.
          2   -1    0    0  501    0  0.00000000000E+00 -0.00000000000E+00 -0.10082096757E+03  0.10082096757E+03  0.00000000000E+00 0. -1.
          5    1    1    2  502    0 -0.63097321469E+02 -0.28248063805E+02  0.10537686634E+03  0.12609909375E+03  0.41800000000E+01 0.  1.
         -5    1    1    2    0  502 -0.57200508576E+02  0.41564328290E+01 -0.29743275641E+02  0.64740319439E+02  0.41800000000E+01 0.  1.
        -11    1    1    2    0    0  0.64931341134E+02 -0.32152345635E+02  0.32824935890E+02  0.79544508342E+02  0.00000000000E+00 0. -1.
         11    1    1    2    0    0  0.55366488910E+02  0.56243976610E+02  0.58557837761E+02  0.98274377955E+02  0.00000000000E+00 0.  1.
</event>
<event>
 6    1  0.5317355E-006  0.4328727E+03  0.7561462E-02  0.1032956E+00
         -2   -1    0    0    0  501 -0.00000000000E+00  0.00000000000E+00  0.40883026265E+03  0.40883026265E+03  0.00000000000E+00 0.  1.
          2   -1    0    0  501    0  0.00000000000E+00 -0.00000000000E+00 -0.77611848105E+03  0.77611848105E+03  0.00000000000E+00 0. -1.
          5    1    1    2  502    0 -0.33888675777E+03  0.13606151179E+03  0.10499502962E+03  0.37999789240E+03  0.41800000000E+01 0. -1.
         -5    1    1    2    0  502 -0.68479507863E+02 -0.62897502285E+01  0.77036960967E+02  0.10334974461E+03  0.41800000000E+01 0.  1.
        -11    1    1    2    0    0  0.35216676445E+03 -0.89629208075E+02 -0.42009583598E+03  0.55545957219E+03  0.00000000000E+00 0.  1.
         11    1    1    2    0    0  0.55199501183E+02 -0.40142553489E+02 -0.12922437300E+03  0.14614153451E+03  0.00000000000E+00 0. -1.
</event>
<event>
 6    1  0.5317355E-006  0.1039328E+03  0.7561462E-02  0.1272237E+00
         -1   -1    0    0    0  501 -0.00000000000E+00  0.00000000000E+00  0.18715007638E+03  0.18715007638E+03  0.00000000000E+00 0.  1.
          1   -1    0    0  501    0  0.00000000000E+00 -0.00000000000E+00 -0.11579646843E+03  0.11579646843E+03  0.00000000000E+00 0. -1.
          5    1    1    2  502    0 -0.56707601732E+01  0.68892776143E+02  0.53322382810E+02  0.87402065389E+02  0.41800000000E+01 0. -1.
         -5    1    1    2    0  502  0.22979194911E+02 -0.49829211874E+02  0.81191223057E+02  0.98084049958E+02  0.41800000000E+01 0.  1.
        -11    1    1    2    0    0 -0.64044789562E+01  0.31352704445E+02 -0.57190209757E+02  0.65534185878E+02  0.00000000000E+00 0.  1.
         11    1    1    2    0    0 -0.10903955782E+02 -0.50416268714E+02 -0.59697881573E+01  0.51926243591E+02  0.00000000000E+00 0. -1.
</event>
<event>
 6    1  0.5317355E-006  0.1508610E+03  0.7561462E-02  0.1199419E+00
          3   -1    0    0  501    0  0.00000000000E+00  0.00000000000E+00  0.28429843848E+02  0.28429843848E+02  0.00000000000E+00 0. -1.
         -3   -1    0    0    0  501 -0.00000000000E+00 -0.00000000000E+00 -0.98433273928E+03  0.98433273928E+03  0.00000000000E+00 0.  1.
          5    1    1    2  502    0  0.38917445168E+02  0.30401912195E+02 -0.36736319989E+03  0.37069129587E+03  0.41800000000E+01 0. -1.
         -5    1    1    2    0  502  0.82409502865E+02 -0.52868015217E+02 -0.19113871635E+03  0.21479719384E+03  0.41800000000E+01 0. -1.
        -11    1    1    2    0    0 -0.84977078801E+02 -0.30187205095E+02 -0.27085481274E+03  0.28547276728E+03  0.00000000000E+00 0.  1.
         11    1    1    2    0    0 -0.36349869232E+02  0.52653308117E+02 -0.12654616646E+03  0.14180132614E+03  0.00000000000E+00 0. -1.
</event>
<event>
 6    1  0.5317355E-006  0.1215724E+03  0.7561462E-02  0.1240525E+00
          1   -1    0    0  501    0  0.00000000000E+00  0.00000000000E+00  0.69530903311E+03  0.69530903311E+03  0.00000000000E+00 0. -1.
         -1   -1    0    0    0  501 -0.00000000000E+00 -0.00000000000E+00 -0.33389353466E+02  0.33389353466E+02  0.00000000000E+00 0.  1.
          5    1    1    2  502    0  0.11315586311E+02  0.27916103160E+02  0.18850811733E+03  0.19094536917E+03  0.41800000000E+01 0.  1.
         -5    1    1    2    0  502  0.90042732099E+02 -0.18622806795E+02  0.78440723163E+02  0.12093354368E+03  0.41800000000E+01 0.  1.
        -11    1    1    2    0    0 -0.47353443403E+01 -0.22658032988E+02  0.24429131876E+02  0.33654010595E+02  0.00000000000E+00 0.  1.
         11    1    1    2    0    0 -0.96622974070E+02  0.13364736624E+02  0.37054170728E+03  0.38316546313E+03  0.00000000000E+00 0. -1.
</event>
<event>
 6    1  0.5317355E-006  0.1099406E+03  0.7561462E-02  0.1260680E+00
         -2   -1    0    0    0  501 -0.00000000000E+00  0.00000000000E+00  0.43138603162E+02  0.43138603162E+02  0.00000000000E+00 0. -1.
          2   -1    0    0  501    0  0.00000000000E+00 -0.00000000000E+00 -0.41027714580E+03  0.41027714580E+03  0.00000000000E+00 0.  1.
          5    1    1    2  502    0  0.42181594688E+02  0.35571459964E+02 -0.73239128515E+02  0.91793562083E+02  0.41800000000E+01 0.  1.
         -5    1    1    2    0  502 -0.74241728914E+02  0.10977615315E+02 -0.34495813245E+02  0.82702937563E+02  0.41800000000E+01 0.  1.
        -11    1    1    2    0    0  0.42199840177E+02 -0.47435429271E+00 -0.19239328851E+03  0.19696758360E+03  0.00000000000E+00 0.  1.
         11    1    1    2    0    0 -0.10139705950E+02 -0.46074720986E+02 -0.67010312360E+02  0.81951665714E+02  0.00000000000E+00 0. -1.
</event>
<event>
 6    1  0.5317355E-006  0.9620969E+02  0.7561462E-02  0.1288475E+00
         -1   -1    0    0    0  501 -0.00000000000E+00  0.00000000000E+00  0.32369296958E+02  0.32369296958E+02  0.00000000000E+00 0.  1.
          1   -1    0    0  501    0  0.00000000000E+00 -0.00000000000E+00 -0.46206921055E+03  0.46206921055E+03  0.00000000000E+00 0. -1.
          5    1    1    2  502    0  0.39484245172E+02 -0.57974238560E+01 -0.58404772488E+02  0.70860465632E+02  0.41800000000E+01 0.  1.
         -5    1    1    2    0  502 -0.94387664369E+02  0.12614758859E+02 -0.19826882304E+03  0.21999127691E+03  0.41800000000E+01 0.  1.
        -11    1    1    2    0    0  0.34519499601E+02 -0.10873001636E+02 -0.17846967597E+03  0.18210228790E+03  0.00000000000E+00 0. -1.
         11    1    1    2    0    0  0.20383919596E+02  0.40556666330E+01  0.54433579008E+01  0.21484477074E+02  0.00000000000E+00 0.  1.
</event>
<event>
 6    1  0.5317355E-006  0.1332888E+03  0.7561462E-02  0.1222656E+00
         -1   -1    0    0    0  501 -0.00000000000E+00  0.00000000000E+00  0.41088293579E+02  0.41088293579E+02  0.00000000000E+00 0.  1.
          1   -1    0    0  501    0  0.00000000000E+00 -0.00000000000E+00 -0.54633997729E+03  0.54633997729E+03  0.00000000000E+00 0. -1.
          5    1    1    2  502    0  0.71354469055E+02  0.37813216248E+02 -0.11092556021E+03  0.13727072479E+03  0.41800000000E+01 0. -1.
         -5    1    1    2    0  502 -0.99510553385E+02 -0.14733737718E+02 -0.10888459777E+03  0.14829956606E+03  0.41800000000E+01 0.  1.
        -11    1    1    2    0    0  0.53148041138E+02 -0.34614393187E+01 -0.24341149262E+03  0.24917032443E+03  0.00000000000E+00 0. -1.
         11    1    1    2    0    0 -0.24991956808E+02 -0.19618039211E+02 -0.42030033117E+02  0.52687655589E+02  0.00000000000E+00 0.  1.
</event>
<event>
 6    1  0.5317355E-006  0.5802594E+02  0.7561462E-02  0.1406308E+00
         -2   -1    0    0    0  501 -0.00000000000E+00  0.00000000000E+00  0.71787093268E+03  0.71787093268E+03  0.00000000000E+00 0.  1.
          2   -1    0    0  501    0  0.00000000000E+00 -0.00000000000E+00 -0.26903692127E+02  0.26903692127E+02  0.00000000000E+00 0. -1.
          5    1    1    2  502    0 -0.21752242798E+02  0.37630731670E+01  0.56565364293E+03  0.56609967050E+03  0.41800000000E+01 0.  1.
         -5    1    1    2    0  502 -0.11639112317E+02  0.26247186233E+02  0.22038963193E+02  0.36435861720E+02  0.41800000000E+01 0.  1.
        -11    1    1    2    0    0  0.31780064572E+02  0.26307474032E+01  0.10477861798E+03  0.10952375140E+03  0.00000000000E+00 0.  1.
         11    1    1    2    0    0  0.16112905428E+01 -0.32641006803E+02 -0.15039835416E+01  0.32715341184E+02  0.00000000000E+00 0. -1.
</event>
<event>
 6    1  0.5317355E-006  0.1307706E+03  0.7561462E-02  0.1226317E+00
          2   -1    0    0  501    0  0.00000000000E+00  0.00000000000E+00  0.12335780665E+04  0.12335780665E+04  0.00000000000E+00 0. -1.
         -2   -1    0    0    0  501 -0.00000000000E+00 -0.00000000000E+00 -0.15770846131E+02  0.15770846131E+02  0.00000000000E+00 0.  1.
          5    1    1    2  502    0  0.16352594767E+02  0.22973183881E+02  0.31528740679E+03  0.31657352355E+03  0.41800000000E+01 0.  1.
         -5    1    1    2    0  502  0.18163767394E+02 -0.10796460495E+03  0.36004706116E+03  0.37634776074E+03  0.41800000000E+01 0.  1.
        -11    1    1    2    0    0  0.27217024252E+02  0.32895011230E+02  0.16783810994E+03  0.17318336907E+03  0.00000000000E+00 0. -1.
         11    1    1    2    0    0 -0.61733386413E+02  0.52096409841E+02  0.37463464250E+03  0.38324425929E+03  0.00000000000E+00 0.  1.
</event>
<event>
 6    1  0.5317355E-006  0.1202897E+03  0.7561462E-02  0.1242620E+00
         -1   -1    0    0    0  501 -0.00000000000E+00  0.00000000000E+00  0.34403360558E+02  0.34403360558E+02  0.00000000000E+00 0.  1.
          1   -1    0    0  501    0  0.00000000000E+00 -0.00000000000E+00 -0.51886740225E+03  0.51886740225E+03  0.00000000000E+00 0. -1.
          5    1    1    2  502    0 -0.36302853109E+02  0.66472899418E+02 -0.12929006800E+03  0.14989975845E+03  0.41800000000E+01 0. -1.
         -5    1    1    2    0  502  0.15681666989E+02 -0.91053770407E+02 -0.16607791417E+03  0.19009484412E+03  0.41800000000E+01 0.  1.
        -11    1    1    2    0    0  0.37603961801E+02  0.35768749348E+02 -0.18550086872E+03  0.19262407344E+03  0.00000000000E+00 0. -1.
         11    1    1    2    0    0 -0.16982775681E+02 -0.11187878360E+02 -0.35951907977E+01  0.20652086793E+02  0.00000000000E+00 0.  1.
</event>
<event>
 6    1  0.5317355E-006  0.1048270E+03  0.7561462E-02  0.1270461E+00
         -1   -1    0    0    0  501 -0.00000000000E+00  0.00000000000E+00  0.62598613861E+02  0.62598613861E+02  0.00000000000E+00 0.  1.
          1   -1    0    0  501    0  0.00000000000E+00 -0.00000000000E+00 -0.21340573844E+03  0.21340573844E+03  0.00000000000E+00 0. -1.
          5    1    1    2  502    0  0.39488825014E+02  0.94457763088E+01 -0.56044503548E+02  0.69332883750E+02  0.41800000000E+01 0.  1.
         -5    1    1    2    0  502 -0.71259187393E+02 -0.15125445697E+02 -0.38726910411E+01  0.73069289248E+02  0.41800000000E+01 0.  1.
        -11    1    1    2    0    0  0.62877142126E+02 -0.47624917671E+01 -0.72123871072E+02  0.95802239579E+02  0.00000000000E+00 0.  1.
         11    1    1    2    0    0 -0.31106779748E+02  0.10442161155E+02 -0.18766058916E+02  0.37799939724E+02  0.00000000000E+00 0. -1.
</event>
<event>
 6    1  0.5317355E-006  0.2429593E+03  0.7561462E-02  0.1117837E+00
          2   -1    0    0  501    0  0.00000000000E+00  0.00000000000E+00  0.79083804745E+03  0.79083804745E+03  0.00000000000E+00 0. -1.
         -2   -1    0    0    0  501 -0.00000000000E+00 -0.00000000000E+00 -0.97330284833E+02  0.97330284833E+02  0.00000000000E+00 0.  1.
          5    1    1    2  502    0 -0.12885728548E+03 -0.29334587869E+02  0.51126657100E+02  0.14176080394E+03  0.41800000000E+01 0.  1.
         -5    1    1    2    0  502 -0.96430374211E+02  0.69916154367E+02  0.12671891824E+03  0.17396046203E+03  0.41800000000E+01 0.  1.
        -11    1    1    2    0    0  0.81078845271E+02  0.99999708280E+01  0.97305338441E+02  0.12705159368E+03  0.00000000000E+00 0.  1.
         11    1    1    2    0    0  0.14420881442E+03 -0.50581537326E+02  0.41835684884E+03  0.44539547264E+03  0.00000000000E+00 0. -1.
</event>
<event>
 6    1  0.5317355E-006  0.1154852E+03  0.7561462E-02  0.1250736E+00
          1   -1    0    0  501    0  0.00000000000E+00  0.00000000000E+00  0.23722314041E+03  0.23722314041E+03  0.00000000000E+00 0. -1.
         -1   -1    0    0    0  501 -0.00000000000E+00 -0.00000000000E+00 -0.14647522487E+03  0.14647522487E+03  0.00000000000E+00 0.  1.
          5    1    1    2  502    0 -0.51203401117E+02  0.87050280610E+01 -0.39389337897E+02  0.65318895730E+02  0.41800000000E+01 0.  1.
         -5    1    1    2    0  502  0.56911575023E+02 -0.61128091456E+02 -0.59426811212E+02  0.10258942064E+03  0.41800000000E+01 0.  1.
        -11    1    1    2    0    0 -0.29655440777E+01 -0.21280160336E+02  0.14770222091E+02  0.26072957949E+02  0.00000000000E+00 0.  1.
         11    1    1    2    0    0 -0.27426298278E+01  0.73703223732E+02  0.17479384256E+03  0.18971709096E+03  0.00000000000E+00 0. -1.
</event>
<event>
 6    1  0.5317355E-006  0.7789875E+02  0.7561462E-02  0.1335122E+00
         -1   -1    0    0    0  501 -0.00000000000E+00  0.00000000000E+00  0.13415350549E+03  0.13415350549E+03  0.00000000000E+00 0.  1.
          1   -1    0    0  501    0  0.00000000000E+00 -0.00000000000E+00 -0.90512301079E+02  0.90512301079E+02  0.00000000000E+00 0. -1.
          5    1    1    2  502    0 -0.16281884307E+02  0.33780303634E+02  0.59075459948E+02  0.70097011622E+02  0.41800000000E+01 0. -1.
         -5    1    1    2    0  502  0.34915556333E+02 -0.19669505850E+02 -0.42115778564E+02  0.58285476223E+02  0.41800000000E+01 0. -1.
        -11    1    1    2    0    0 -0.21647129408E+02 -0.43310433351E+02 -0.98586451735E+01  0.49412394531E+02  0.00000000000E+00 0. -1.
         11    1    1    2    0    0  0.30134573824E+01  0.29199635567E+02  0.36540168203E+02  0.46870924195E+02  0.00000000000E+00 0.  1.
</event>
<event>
 6    1  0.5317355E-006  0.9700615E+02  0.7561462E-02  0.1286721E+00
          4   -1    0    0  501    0  0.00000000000E+00  0.00000000000E+00  0.13155863241E+03  0.13155863241E+03  0.00000000000E+00 0. -1.
         -4   -1    0    0    0  501 -0.00000000000E+00 -0.00000000000E+00 -0.22994256032E+03  0.22994256032E+03  0.00000000000E+00 0.  1.
          5    1    1    2  502    0  0.40153337711E+01 -0.62152366876E+02 -0.14839108953E+03  0.16098579896E+03  0.41800000000E+01 0. -1.
         -5    1    1    2    0  502  0.28896356291E+02  0.45992250434E+02 -0.37823368404E+02  0.66320178711E+02  0.41800000000E+01 0. -1.
        -11    1    1    2    0    0  0.15006429253E+02 -0.13975724088E+02 -0.87125995902E+01  0.22280555970E+02  0.00000000000E+00 0.  1.
         11    1    1    2    0    0 -0.47918119315E+02  0.30135840529E+02  0.96543129614E+02  0.11191465909E+03  0.00000000000E+00 0. -1.
</event>
<event>
 6    1  0.5317355E-006  0.2822837E+03  0.7561462E-02  0.1094448E+00
         -2   -1    0    0    0  501 -0.00000000000E+00  0.00000000000E+00  0.36621704944E+03  0.36621704944E+03  0.00000000000E+00 0. -1.
          2   -1    0    0  501    0  0.00000000000E+00 -0.00000000000E+00 -0.24578394392E+03  0.24578394392E+03  0.00000000000E+00 0.  1.
          5    1    1    2  502    0 -0.12293416856E+02  0.25995575227E+01  0.18481579676E+02  0.22736028338E+02  0.41800000000E+01 0.  1.
         -5    1    1    2    0  502  0.21743517954E+03 -0.17522994437E+03  0.12164672492E+03  0.30462926450E+03  0.41800000000E+01 0.  1.
        -11    1    1    2    0    0 -0.15479930244E+02  0.33226671223E+02 -0.32383255899E+02  0.48911299140E+02  0.00000000000E+00 0.  1.
         11    1    1    2    0    0 -0.18966183244E+03  0.13940371563E+03  0.12688056819E+02  0.23572440137E+03  0.00000000000E+00 0. -1.
</event>
<event>
 6    1  0.5317355E-006  0.5956377E+02  0.7561462E-02  0.1399672E+00
          3   -1    0    0  501    0  0.00000000000E+00  0.00000000000E+00  0.12989662484E+03  0.12989662484E+03  0.00000000000E+00 0. -1.
         -3   -1    0    0    0  501 -0.00000000000E+00 -0.00000000000E+00 -0.14782561716E+03  0.14782561716E+03  0.00000000000E+00 0.  1.
          5    1    1    2  502    0  0.33047996738E+02  0.17103002939E+02 -0.11006791936E+03  0.11626307269E+03  0.41800000000E+01 0.  1.
         -5    1    1    2    0  502 -0.24299299241E+02 -0.29422868997E+02  0.15420694831E+02  0.41369449992E+02  0.41800000000E+01 0.  1.
        -11    1    1    2    0    0 -0.22938004082E+02 -0.21371413740E+01 -0.14120002032E+02  0.27020249109E+02  0.00000000000E+00 0.  1.
         11    1    1    2    0    0  0.14189306585E+02  0.14457007432E+02  0.90838234239E+02  0.93069470209E+02  0.00000000000E+00 0. -1.
</event>
<event>
 6    1  0.5317355E-006  0.1703808E+03  0.7561462E-02  0.1177451E+00
          1   -1    0    0  501    0  0.00000000000E+00  0.00000000000E+00  0.19156834566E+03  0.19156834566E+03  0.00000000000E+00 0. -1.
         -1   -1    0    0    0  501 -0.00000000000E+00 -0.00000000000E+00 -0.16890539643E+03  0.16890539643E+03  0.00000000000E+00 0.  1.
          5    1    1    2  502    0  0.28112922965E+02  0.91217128885E+02  0.31479237632E+02  0.10059481021E+03  0.41800000000E+01 0. -1.
         -5    1    1    2    0  502 -0.83243415791E+02  0.36654762728E+02  0.14840292471E+02  0.92253696857E+02  0.41800000000E+01 0. -1.
        -11    1    1    2    0    0  0.57952226287E+02 -0.50865508599E+02  0.19183726094E+02  0.79459271601E+02  0.00000000000E+00 0.  1.
         11    1    1    2    0    0 -0.28217334606E+01 -0.77006383014E+02 -0.42840306965E+02  0.88165963418E+02  0.00000000000E+00 0. -1.
</event>
<event>
 6    1  0.5317355E-006  0.1667504E+03  0.7561462E-02  0.1181280E+00
         -4   -1    0    0    0  501 -0.00000000000E+00  0.00000000000E+00  0.15869950768E+03  0.15869950768E+03  0.00000000000E+00 0.  1.
          4   -1    0    0  501    0  0.00000000000E+00 -0.00000000000E+00 -0.23350977305E+03  0.23350977305E+03  0.00000000000E+00 0. -1.
          5    1    1    2  502    0 -0.69479888339E+02 -0.84153337318E+02  0.35722822719E+02  0.11490357492E+03  0.41800000000E+01 0. -1.
         -5    1    1    2    0  502  0.48658218257E+02 -0.59352743833E+02 -0.12977791778E+02  0.77950406566E+02  0.41800000000E+01 0. -1.
        -11    1    1    2    0    0  0.61970943763E+01  0.11693437729E+03 -0.11520044978E+03  0.16426562696E+03  0.00000000000E+00 0. -1.
         11    1    1    2    0    0  0.14624575705E+02  0.26571703863E+02  0.17645153468E+02  0.35089672293E+02  0.00000000000E+00 0.  1.
</event>
<event>
 6    1  0.5317355E-006  0.1252194E+03  0.7561462E-02  0.1234727E+00
         -2   -1    0    0    0  501 -0.00000000000E+00  0.00000000000E+00  0.63289408059E+02  0.63289408059E+02  0.00000000000E+00 0. -1.
          2   -1    0    0  501    0  0.00000000000E+00 -0.00000000000E+00 -0.26295254018E+03  0.26295254018E+03  0.00000000000E+00 0.  1.
          5    1    1    2  502    0 -0.77384750946E+01  0.52312370976E+02 -0.64767394141E+02  0.83718312798E+02  0.41800000000E+01 0.  1.
         -5    1    1    2    0  502 -0.60774461413E+02 -0.64159646585E+02 -0.69262238226E+02  0.11235980355E+03  0.41800000000E+01 0.  1.
        -11    1    1    2    0    0  0.81390206275E+02 -0.11556544799E+02 -0.62501248536E+02  0.10326822103E+03  0.00000000000E+00 0.  1.
         11    1    1    2    0    0 -0.12877269767E+02  0.23403820407E+02 -0.31322512227E+01  0.26895610869E+02  0.00000000000E+00 0. -1.
</event>
<event>
 6    1  0.5317355E-006  0.5293038E+02  0.7561462E-02  0.1430148E+00
         -4   -1    0    0    0  501 -0.00000000000E+00  0.00000000000E+00  0.26874997441E+03  0.26874997441E+03  0.00000000000E+00 0. -1.
          4   -1    0    0  501    0  0.00000000000E+00 -0.00000000000E+00 -0.48050581780E+02  0.48050581780E+02  0.00000000000E+00 0.  1.
          5    1    1    2  502    0 -0.14744896133E+02 -0.15795255235E+02  0.16012440597E+03  0.16162982348E+03  0.41800000000E+01 0.  1.
         -5    1    1    2    0  502 -0.15467628570E+02  0.27621963849E+02 -0.12740550066E+02  0.34380436828E+02  0.41800000000E+01 0.  1.
        -11    1    1    2    0    0  0.81938614543E+01  0.15073707096E+02 -0.16916141600E+02  0.24093813683E+02  0.00000000000E+00 0.  1.
         11    1    1    2    0    0  0.22018663249E+02 -0.26900415711E+02  0.90231678323E+02  0.96696482199E+02  0.00000000000E+00 0. -1.
</event>
<event>
 6    1  0.5317355E-006  0.9961521E+02  0.7561462E-02  0.1281107E+00
         -1   -1    0    0    0  501 -0.00000000000E+00  0.00000000000E+00  0.77292154809E+02  0.77292154809E+02  0.00000000000E+00 0.  1.
          1   -1    0    0  501    0  0.00000000000E+00 -0.00000000000E+00 -0.17697059368E+03  0.17697059368E+03  0.00000000000E+00 0. -1.
          5    1    1    2  502    0  0.75932756650E+02 -0.62301801513E+01  0.23419307835E+01  0.76338428835E+02  0.41800000000E+01 0.  1.
         -5    1    1    2    0  502 -0.33979492141E+02  0.16104945709E+02 -0.53474979202E+02  0.65505884951E+02  0.41800000000E+01 0.  1.
        -11    1    1    2    0    0 -0.13919922050E+02 -0.40944582399E+02 -0.55117358604E+02  0.70058163530E+02  0.00000000000E+00 0. -1.
         11    1    1    2    0    0 -0.28033342459E+02  0.31069816842E+02  0.65719681566E+01  0.42360271169E+02  0.00000000000E+00 0.  1.
</event>
<event>
 6    1  0.5317355E-006  0.1393810E+03  0.7561462E-02  0.1214164E+00
         -1   -1    0    0    0  501 -0.00000000000E+00  0.00000000000E+00  0.50853233562E+02  0.50853233562E+02  0.00000000000E+00 0.  1.
          1   -1    0    0  501    0  0.00000000000E+00 -0.00000000000E+00 -0.41442172684E+03  0.41442172684E+03  0.00000000000E+00 0. -1.
          5    1    1    2  502    0 -0.64380231550E+02  0.12874293992E+02 -0.92030281564E+02  0.11312650788E+03  0.41800000000E+01 0. -1.
         -5    1    1    2    0  502  0.38679702994E+02  0.75606161423E+02 -0.58583434635E+02  0.10325648785E+03  0.41800000000E+01 0. -1.
        -11    1    1    2    0    0 -0.11531987208E+02 -0.89947804074E+02 -0.13707088895E+03  0.16435334735E+03  0.00000000000E+00 0.  1.
         11    1    1    2    0    0  0.37232515764E+02  0.14673486592E+01 -0.75883888132E+02  0.84538617332E+02  0.00000000000E+00 0. -1.
</event>
<event>
 6    1  0.5317355E-006  0.2867780E+03  0.7561462E-02  0.1092043E+00
         -1   -1    0    0    0  501 -0.00000000000E+00  0.00000000000E+00  0.71600867525E+02  0.71600867525E+02  0.00000000000E+00 0.  1.
          1   -1    0    0  501    0  0.00000000000E+00 -0.00000000000E+00 -0.14585957428E+04  0.14585957428E+04  0.00000000000E+00 0. -1.
          5    1    1    2  502    0 -0.28213954256E+02 -0.22971150848E+03 -0.24577074212E+03  0.33761536462E+03  0.41800000000E+01 0.  1.
         -5    1    1    2    0  502 -0.46856041036E+02 -0.33533244085E+02 -0.14159816328E+03  0.15292965469E+03  0.41800000000E+01 0.  1.
        -11    1    1    2    0    0 -0.60263333483E+01  0.11643433387E+03 -0.46115265119E+03  0.47566273608E+03  0.00000000000E+00 0.  1.
         11    1    1    2    0    0  0.81096328640E+02  0.14681041869E+03 -0.53847331865E+03  0.56398885490E+03  0.00000000000E+00 0. -1.
</event>
<event>
 6    1  0.5317355E-006  0.9408795E+02  0.7561462E-02  0.1293244E+00
          3   -1    0    0  501    0  0.00000000000E+00  0.00000000000E+00  0.35670306446E+02  0.35670306446E+02  0.00000000000E+00 0. -1.
         -3   -1    0    0    0  501 -0.00000000000E+00 -0.00000000000E+00 -0.37989326460E+03  0.37989326460E+03  0.00000000000E+00 0.  1.
          5    1    1    2  502    0 -0.98838799220E+01  0.47390406624E+02 -0.12213471982E+03  0.13144544081E+03  0.41800000000E+01 0. -1.
         -5    1    1    2    0  502  0.49859107410E+02 -0.55354838850E+02 -0.76969514201E+02  0.10720012730E+03  0.41800000000E+01 0. -1.
        -11    1    1    2    0    0 -0.19500747890E+02  0.29430459752E+02 -0.14287078904E+03  0.14716824892E+03  0.00000000000E+00 0.  1.
         11    1    1    2    0    0 -0.20474479598E+02 -0.21466027525E+02 -0.22479350936E+01  0.29749754027E+02  0.00000000000E+00 0. -1.
</event>
<event>
 6    1  0.5317355E-006  0.1547407E+03  0.7561462E-02  0.1194766E+00
          2   -1    0    0  501    0  0.00000000000E+00  0.00000000000E+00  0.36962317435E+03  0.36962317435E+03  0.00000000000E+00 0. -1.
         -2   -1    0    0    0  501 -0.00000000000E+00 -0.00000000000E+00 -0.11788826417E+03  0.11788826417E+03  0.00000000000E+00 0.  1.
          5    1    1    2  502    0 -0.34451137847E+02  0.68968087043E+02 -0.23442920180E+02  0.80687798557E+02  0.41800000000E+01 0.  1.
         -5    1    1    2    0  502 -0.92965070719E+02 -0.36481210563E+02  0.14606238112E+02  0.10101582891E+03  0.41800000000E+01 0.  1.
        -11    1    1    2    0    0  0.45949147994E+02 -0.44527833633E+01  0.20067106797E+02  0.50337265085E+02  0.00000000000E+00 0.  1.
         11    1    1    2    0    0  0.81467060572E+02 -0.28034093117E+02  0.24050448545E+03  0.25547054596E+03  0.00000000000E+00 0. -1.
</event>
<event>
 6    1  0.5317355E-006  0.1092329E+03  0.7561462E-02  0.1261997E+00
          2   -1    0    0  501    0  0.00000000000E+00  0.00000000000E+00  0.15868536339E+03  0.15868536339E+03  0.00000000000E+00 0.  1.
         -2   -1    0    0    0  501 -0.00000000000E+00 -0.00000000000E+00 -0.95847070230E+02  0.95847070230E+02  0.00000000000E+00 0. -1.
          5    1    1    2  502    0  0.86054613873E+00 -0.27343896508E+02  0.52122023472E+02  0.59013616621E+02  0.41800000000E+01 0. -1.
         -5    1    1    2    0  502  0.30709014127E+02  0.76538446572E+02 -0.15292823588E+02  0.83979284384E+02  0.41800000000E+01 0. -1.
        -11    1    1    2    0    0  0.31638553564E+02 -0.75653761370E+01  0.43774015452E+01  0.32823690103E+02  0.00000000000E+00 0.  1.
         11    1    1    2    0    0 -0.63208113830E+02 -0.41629173927E+02  0.21631691735E+02  0.78715842516E+02  0.00000000000E+00 0. -1.
</event>
<event>
 6    1  0.5317355E-006  0.1136291E+03  0.7561462E-02  0.1253993E+00
          2   -1    0    0  501    0  0.00000000000E+00  0.00000000000E+00  0.11850466205E+03  0.11850466205E+03  0.00000000000E+00 0. -1.
         -2   -1    0    0    0  501 -0.00000000000E+00 -0.00000000000E+00 -0.12780224337E+03  0.12780224337E+03  0.00000000000E+00 0.  1.
          5    1    1    2  502    0 -0.57804127881E+02 -0.11707954643E+02 -0.43854146172E+02  0.73614210167E+02  0.41800000000E+01 0.  1.
         -5    1    1    2    0  502  0.53118942384E+02 -0.35051131408E+02  0.91572510566E+01  0.64432379281E+02  0.41800000000E+01 0.  1.
        -11    1    1    2    0    0 -0.42326259883E+02  0.37265750472E+02  0.20689746555E+02  0.60069243764E+02  0.00000000000E+00 0. -1.
         11    1    1    2    0    0  0.47011445380E+02  0.94933355788E+01  0.47095672389E+01  0.48191072210E+02  0.00000000000E+00 0.  1.
</event>
<event>
 6    1  0.5317355E-006  0.1228501E+03  0.7561462E-02  0.1238468E+00
          1   -1    0    0  501    0  0.00000000000E+00  0.00000000000E+00  0.80856755086E+03  0.80856755086E+03  0.00000000000E+00 0. -1.
         -1   -1    0    0    0  501 -0.00000000000E+00 -0.00000000000E+00 -0.20192617255E+02  0.20192617255E+02  0.00000000000E+00 0.  1.
          5    1    1    2  502    0 -0.28060777088E+02  0.75629406760E+02  0.30740390458E+03  0.31783934201E+03  0.41800000000E+01 0.  1.
         -5    1    1    2    0  502  0.56478811534E+02 -0.13899776165E+02  0.13973118738E+03  0.15141115235E+03  0.41800000000E+01 0.  1.
        -11    1    1    2    0    0 -0.57669573267E+02 -0.40971239453E+02  0.27745381438E+03  0.28633030097E+03  0.00000000000E+00 0. -1.
         11    1    1    2    0    0  0.29251538821E+02 -0.20758391142E+02  0.63786027269E+02  0.73179372783E+02  0.00000000000E+00 0.  1.
</event>
<event>
 6    1  0.5317355E-006  0.9653498E+02  0.7561462E-02  0.1287756E+00
         -1   -1    0    0    0  501 -0.00000000000E+00  0.00000000000E+00  0.11854747433E+03  0.11854747433E+03  0.00000000000E+00 0.  1.
          1   -1    0    0  501    0  0.00000000000E+00 -0.00000000000E+00 -0.14797164933E+03  0.14797164933E+03  0.00000000000E+00 0. -1.
          5    1    1    2  502    0  0.40870087263E+02  0.50598821629E+01  0.62175818340E+02  0.74694519388E+02  0.41800000000E+01 0.  1.
         -5    1    1    2    0  502  0.22713644426E+02  0.32730367558E+02 -0.58232719877E+02  0.70680327304E+02  0.41800000000E+01 0.  1.
        -11    1    1    2    0    0 -0.17491945541E+01 -0.48782702127E+02  0.23935547381E+01  0.48872700076E+02  0.00000000000E+00 0.  1.
         11    1    1    2    0    0 -0.61834537134E+02  0.10992452406E+02 -0.35760828206E+02  0.72271576892E+02  0.00000000000E+00 0. -1.
</event>
<event>
 6    1  0.5317355E-006  0.2450365E+03  0.7561462E-02  0.1116482E+00
         -1   -1    0    0    0  501 -0.00000000000E+00  0.00000000000E+00  0.17145180492E+03  0.17145180492E+03  0.00000000000E+00 0.  1.
          1   -1    0    0  501    0  0.00000000000E+00 -0.00000000000E+00 -0.35282191162E+03  0.35282191162E+03  0.00000000000E+00 0. -1.
          5    1    1    2  502    0 -0.75061542319E+02  0.12458459038E+02 -0.30920773640E+02  0.82237552124E+02  0.41800000000E+01 0. -1.
         -5    1    1    2    0  502 -0.47211926038E+02  0.16998452523E+03 -0.82131224209E+02  0.19464510055E+03  0.41800000000E+01 0. -1.
        -11    1    1    2    0    0 -0.42340591980E+01 -0.63876543566E+02 -0.12348745422E+02  0.65196867936E+02  0.00000000000E+00 0.  1.
         11    1    1    2    0    0  0.12650752756E+03 -0.11856644071E+03 -0.55969363429E+02  0.18219419593E+03  0.00000000000E+00 0. -1.
</event>
<event>
 6    1  0.5317355E-006  0.9688353E+02  0.7561462E-02  0.1286989E+00
         -1   -1    0    0    0  501 -0.00000000000E+00  0.00000000000E+00  0.24493244616E+02  0.24493244616E+02  0.00000000000E+00 0.  1.
          1   -1    0    0  501    0  0.00000000000E+00 -0.00000000000E+00 -0.50589966021E+03  0.50589966021E+03  0.00000000000E+00 0. -1.
          5    1    1    2  502    0  0.26566433327E+02  0.53160119092E+02 -0.54547087376E+02  0.80775186678E+02  0.41800000000E+01 0. -1.
         -5    1    1    2    0  502 -0.26652757430E+02 -0.40959026931E+02 -0.16572832033E+03  0.17283332990E+03  0.41800000000E+01 0. -1.
        -11    1    1    2    0    0  0.31500887314E+02 -0.34426854158E+02 -0.19275848379E+03  0.19832636553E+03  0.00000000000E+00 0.  1.
         11    1    1    2    0    0 -0.31414563210E+02  0.22225761996E+02 -0.68372524098E+02  0.78458022722E+02  0.00000000000E+00 0. -1.
</event>
<event>
 6    1  0.5317355E-006  0.1886401E+03  0.7561462E-02  0.1159694E+00
          1   -1    0    0  501    0  0.00000000000E+00  0.00000000000E+00  0.18548245625E+03  0.18548245625E+03  0.00000000000E+00 0. -1.
         -1   -1    0    0    0  501 -0.00000000000E+00 -0.00000000000E+00 -0.19923018223E+03  0.19923018223E+03  0.00000000000E+00 0.  1.
          5    1    1    2  502    0  0.54063849754E+02 -0.29728500330E+02  0.57835729882E+01  0.62109626457E+02  0.41800000000E+01 0. -1.
         -5    1    1    2    0  502 -0.48968935881E+02 -0.12779669582E+03 -0.33969547685E+02  0.14107216137E+03  0.41800000000E+01 0. -1.
        -11    1    1    2    0    0 -0.42848907263E+02  0.58288910963E+02 -0.86954669108E+01  0.72864512211E+02  0.00000000000E+00 0. -1.
         11    1    1    2    0    0  0.37753993390E+02  0.99236285183E+02  0.23133715630E+02  0.10866633845E+03  0.00000000000E+00 0.  1.
</event>
<event>
 6    1  0.5317355E-006  0.1113708E+03  0.7561462E-02  0.1258052E+00
         -1   -1    0    0    0  501 -0.00000000000E+00  0.00000000000E+00  0.11914444481E+03  0.11914444481E+03  0.00000000000E+00 0.  1.
          1   -1    0    0  501    0  0.00000000000E+00 -0.00000000000E+00 -0.12359772068E+03  0.12359772068E+03  0.00000000000E+00 0. -1.
          5    1    1    2  502    0  0.17641578352E+02 -0.29446010302E+02  0.25815482787E+02  0.43153265936E+02  0.41800000000E+01 0. -1.
         -5    1    1    2    0  502 -0.60379954619E+02  0.58957233836E+02 -0.38605785064E+02  0.92895497101E+02  0.41800000000E+01 0. -1.
        -11    1    1    2    0    0  0.47952687427E+02 -0.57686439314E+02  0.16686457842E+02  0.76848053895E+02  0.00000000000E+00 0.  1.
         11    1    1    2    0    0 -0.52143111603E+01  0.28175215780E+02 -0.83494314308E+01  0.29845348555E+02  0.00000000000E+00 0. -1.
</event>
<event>
 6    1  0.5317355E-006  0.1320656E+03  0.7561462E-02  0.1224422E+00
         -2   -1    0    0    0  501 -0.00000000000E+00  0.00000000000E+00  0.15696882823E+03  0.15696882823E+03  0.00000000000E+00 0.  1.
          2   -1    0    0  501    0  0.00000000000E+00 -0.00000000000E+00 -0.15462764350E+03  0.15462764350E+03  0.00000000000E+00 0. -1.
          5    1    1    2  502    0 -0.19716943190E+02 -0.21051323638E+02 -0.44431619370E+01  0.29481013613E+02  0.41800000000E+01 0.  1.
         -5    1    1    2    0  502  0.68511367572E+02  0.96282344288E+02  0.73364207452E+02  0.13915414706E+03  0.41800000000E+01 0.  1.
        -11    1    1    2    0    0 -0.32415609187E+02  0.67763668463E+01  0.42262835347E+01  0.33384911849E+02  0.00000000000E+00 0.  1.
         11    1    1    2    0    0 -0.16378815195E+02 -0.82007387497E+02 -0.70806144313E+02  0.10957639921E+03  0.00000000000E+00 0. -1.
</event>
<event>
 6    1  0.5317355E-006  0.9451987E+02  0.7561462E-02  0.1292261E+00
          2   -1    0    0  501    0  0.00000000000E+00  0.00000000000E+00  0.33982926320E+02  0.33982926320E+02  0.00000000000E+00 0. -1.
         -2   -1    0    0    0  501 -0.00000000000E+00 -0.00000000000E+00 -0.45022819941E+03  0.45022819941E+03  0.00000000000E+00 0.  1.
          5    1    1    2  502    0  0.64517450476E+02  0.18699618857E+02 -0.10860642096E+03  0.12776933997E+03  0.41800000000E+01 0. -1.
         -5    1    1    2    0  502 -0.27659056122E+02 -0.59603390209E+02 -0.17689434559E+03  0.18875028321E+03  0.41800000000E+01 0. -1.
        -11    1    1    2    0    0 -0.25937141785E+02  0.21760350237E+02  0.12404931149E+01  0.33879005144E+02  0.00000000000E+00 0. -1.
         11    1    1    2    0    0 -0.10921252569E+02  0.19143421115E+02 -0.13198499965E+03  0.13381249741E+03  0.00000000000E+00 0.  1.
</event>
<event>
 6    1  0.1007164E-005  0.2362242E+03  0.7561462E-02  0.1122334E+00
          3   -1    0    0  501    0  0.00000000000E+00  0.00000000000E+00  0.13376186411E+03  0.13376186411E+03  0.00000000000E+00 0. -1.
         -3   -1    0    0    0  501 -0.00000000000E+00 -0.00000000000E+00 -0.44306596154E+03  0.44306596154E+03  0.00000000000E+00 0.  1.
          5    1    1    2  502    0 -0.66795112604E+01 -0.15471738783E+03 -0.13046709220E+03  0.20253696086E+03  0.41800000000E+01 0. -1.
         -5    1    1    2    0  502  0.77659447594E+02 -0.43347272627E+02 -0.96017150388E+02  0.13094556660E+03  0.41800000000E+01 0. -1.
        -11    1    1    2    0    0 -0.18186641243E+01  0.13464548001E+03 -0.55156786259E+02  0.14551626678E+03  0.00000000000E+00 0. -1.
         11    1    1    2    0    0 -0.69161272209E+02  0.63419180447E+02 -0.27663068579E+02  0.97829031404E+02  0.00000000000E+00 0.  1.
</event>
<event>
 6    1  0.5317355E-006  0.1362031E+03  0.7561462E-02  0.1218531E+00
         -2   -1    0    0    0  501 -0.00000000000E+00  0.00000000000E+00  0.22544388798E+03  0.22544388798E+03  0.00000000000E+00 0.  1.
          2   -1    0    0  501    0  0.00000000000E+00 -0.00000000000E+00 -0.10882055540E+03  0.10882055540E+03  0.00000000000E+00 0. -1.
          5    1    1    2  502    0  0.16060325198E+02 -0.27840465478E+02  0.64629939178E+01  0.33049481900E+02  0.41800000000E+01 0.  1.
         -5    1    1    2    0  502  0.13104961131E+02  0.13070721217E+03  0.58685558875E+02  0.14393603628E+03  0.41800000000E+01 0.  1.
        -11    1    1    2    0    0 -0.16238553588E+02 -0.84858828870E+02  0.82291799996E+02  0.11931744133E+03  0.00000000000E+00 0.  1.
         11    1    1    2    0    0 -0.12926732741E+02 -0.18007917819E+02 -0.30817020206E+02  0.37961483874E+02  0.00000000000E+00 0. -1.
</event>
<event>
 6    1  0.5317355E-006  0.1096163E+03  0.7561462E-02  0.1261282E+00
          1   -1    0    0  501    0  0.00000000000E+00  0.00000000000E+00  0.19570138100E+02  0.19570138100E+02  0.00000000000E+00 0. -1.
         -1   -1    0    0    0  501 -0.00000000000E+00 -0.00000000000E+00 -0.94670976446E+03  0.94670976446E+03  0.00000000000E+00 0.  1.
          5    1    1    2  502    0 -0.73566981818E+02  0.39098446955E+02 -0.61574004247E+03  0.62136467688E+03  0.41800000000E+01 0.  1.
         -5    1    1    2    0  502  0.36798290692E+02 -0.17024929051E+02 -0.13824415490E+03  0.14412800273E+03  0.41800000000E+01 0.  1.
        -11    1    1    2    0    0 -0.25133406156E+02  0.78086782419E+01 -0.85117358836E+02  0.89093368643E+02  0.00000000000E+00 0.  1.
         11    1    1    2    0    0  0.61902097281E+02 -0.29882196145E+02 -0.88038070154E+02  0.11169385431E+03  0.00000000000E+00 0. -1.
</event>
<event>
 6    1  0.5317355E-006  0.7774470E+02  0.7561462E-02  0.1335576E+00
          2   -1    0    0  501    0  0.00000000000E+00  0.00000000000E+00  0.14850779215E+03  0.14850779215E+03  0.00000000000E+00 0. -1.
         -2   -1    0    0    0  501 -0.00000000000E+00 -0.00000000000E+00 -0.10013546358E+03  0.10013546358E+03  0.00000000000E+00 0.  1.
          5    1    1    2  502    0  0.46538489219E+01 -0.45621741171E+02 -0.62867395372E+02  0.77928065407E+02  0.41800000000E+01 0. -1.
         -5    1    1    2    0  502  0.21787735042E+01  0.36911953498E+02  0.34584271906E+02  0.50801413645E+02  0.41800000000E+01 0. -1.
        -11    1    1    2    0    0 -0.36363087413E+02  0.18910597414E+02  0.44356036168E+01  0.41225712853E+02  0.00000000000E+00 0.  1.
         11    1    1    2    0    0  0.29530464987E+02 -0.10200809740E+02  0.72219848420E+02  0.78688063818E+02  0.00000000000E+00 0. -1.
</event>
<event>
 6    1  0.5317355E-006  0.1096289E+03  0.7561462E-02  0.1261259E+00
         -1   -1    0    0    0  501 -0.00000000000E+00  0.00000000000E+00  0.47456961834E+02  0.47456961834E+02  0.00000000000E+00 0.  1.
          1   -1    0    0  501    0  0.00000000000E+00 -0.00000000000E+00 -0.38829329867E+03  0.38829329867E+03  0.00000000000E+00 0. -1.
          5    1    1    2  502    0  0.61178898002E+02  0.59808458523E+02 -0.12330757088E+03  0.15014039665E+03  0.41800000000E+01 0. -1.
         -5    1    1    2    0  502 -0.60820130532E+01 -0.22796208911E+02  0.13903759144E+02  0.27702796642E+02  0.41800000000E+01 0.  1.
        -11    1    1    2    0    0 -0.51383673006E+02 -0.64181543867E+02 -0.19973301461E+03  0.21599266087E+03  0.00000000000E+00 0.  1.
         11    1    1    2    0    0 -0.37132119430E+01  0.27169294255E+02 -0.31699510500E+02  0.41914406344E+02  0.00000000000E+00 0. -1.
</event>
<event>
 6    1  0.5317355E-006  0.1526613E+03  0.7561462E-02  0.1197240E+00
         -2   -1    0    0    0  501 -0.00000000000E+00  0.00000000000E+00  0.30470857171E+03  0.30470857171E+03  0.00000000000E+00 0.  1.
          2   -1    0    0  501    0  0.00000000000E+00 -0.00000000000E+00 -0.11842359669E+03  0.11842359669E+03  0.00000000000E+00 0. -1.
          5    1    1    2  502    0  0.25476718348E+02  0.19437521254E+02  0.10796188455E+03  0.11269481499E+03  0.41800000000E+01 0.  1.
         -5    1    1    2    0  502 -0.70752520056E+02  0.10370674286E+03  0.82704216104E+02  0.15039437280E+03  0.41800000000E+01 0.  1.
        -11    1    1    2    0    0 -0.17084017426E+02 -0.15906739654E+02 -0.25096588994E+02  0.34274287695E+02  0.00000000000E+00 0. -1.
         11    1    1    2    0    0  0.62359819135E+02 -0.10723752446E+03  0.20715463362E+02  0.12576869291E+03  0.00000000000E+00 0.  1.
</event>
<event>
 6    1  0.5317355E-006  0.1067996E+03  0.7561462E-02  0.1266614E+00
         -1   -1    0    0    0  501 -0.00000000000E+00  0.00000000000E+00  0.78021303753E+02  0.78021303753E+02  0.00000000000E+00 0.  1.
          1   -1    0    0  501    0  0.00000000000E+00 -0.00000000000E+00 -0.23124104967E+03  0.23124104967E+03  0.00000000000E+00 0. -1.
          5    1    1    2  502    0 -0.18561366532E+02 -0.53561512118E+01  0.33637218849E+02  0.39014709729E+02  0.41800000000E+01 0. -1.
         -5    1    1    2    0  502  0.69351821738E+02  0.45268423014E+02 -0.64656011328E+02  0.10515121255E+03  0.41800000000E+01 0. -1.
        -11    1    1    2    0    0 -0.11481643400E+02  0.29213517951E+02 -0.31432862323E+02  0.44421645625E+02  0.00000000000E+00 0.  1.
         11    1    1    2    0    0 -0.39308811806E+02 -0.69125789753E+02 -0.90768091120E+02  0.12067478552E+03  0.00000000000E+00 0. -1.
</event>
<event>
 6    1  0.5317355E-006  0.1694566E+03  0.7561462E-02  0.1178416E+00
         -1   -1    0    0    0  501 -0.00000000000E+00  0.00000000000E+00  0.14354132509E+02  0.14354132509E+02  0.00000000000E+00 0. -1.
          1   -1    0    0  501    0  0.00000000000E+00 -0.00000000000E+00 -0.25085230656E+04  0.25085230656E+04  0.00000000000E+00 0.  1.
          5    1    1    2  502    0  0.18195907704E+02  0.27387298591E+02 -0.27988449408E+03  0.28184030515E+03  0.41800000000E+01 0. -1.
         -5    1    1    2    0  502  0.53801986517E+02 -0.13712308698E+03 -0.15868690319E+04  0.15936963925E+04  0.41800000000E+01 0. -1.
        -11    1    1    2    0    0  0.23149548585E+01 -0.13935836811E+02 -0.38543225337E+02  0.41050539375E+02  0.00000000000E+00 0.  1.
         11    1    1    2    0    0 -0.74312849079E+02  0.12367162520E+03 -0.58887218181E+03  0.60628996110E+03  0.00000000000E+00 0. -1.
</event>
<event>
 6    1  0.5317355E-006  0.1149279E+03  0.7561462E-02  0.1251707E+00
          1   -1    0    0  501    0  0.00000000000E+00  0.00000000000E+00  0.15641297254E+03  0.15641297254E+03  0.00000000000E+00 0. -1.
         -1   -1    0    0    0  501 -0.00000000000E+00 -0.00000000000E+00 -0.92865694739E+02  0.92865694739E+02  0.00000000000E+00 0.  1.
          5    1    1    2  502    0  0.41406418674E+02 -0.25150913312E+02  0.25592381062E+02  0.54949998328E+02  0.41800000000E+01 0.  1.
         -5    1    1    2    0  502 -0.84025743431E+02 -0.62999054002E+01  0.64822515434E+01  0.84613866194E+02  0.41800000000E+01 0.  1.
        -11    1    1    2    0    0  0.22972912770E+02  0.58835248555E+02  0.40239482550E+02  0.74890300770E+02  0.00000000000E+00 0. -1.
         11    1    1    2    0    0  0.19646411987E+02 -0.27384429842E+02 -0.87668373500E+01  0.34824501990E+02  0.00000000000E+00 0.  1.
</event>
<event>
 6    1  0.5317355E-006  0.1596071E+03  0.7561462E-02  0.1189141E+00
         -2   -1    0    0    0  501 -0.00000000000E+00  0.00000000000E+00  0.29821266510E+03  0.29821266510E+03  0.00000000000E+00 0. -1.
          2   -1    0    0  501    0  0.00000000000E+00 -0.00000000000E+00 -0.10216194012E+03  0.10216194012E+03  0.00000000000E+00 0.  1.
          5    1    1    2  502    0 -0.13670256112E+03  0.46391560846E+02  0.14626934234E+03  0.20555281570E+03  0.41800000000E+01 0.  1.
         -5    1    1    2    0  502  0.28385829034E+02  0.96170252369E+01  0.29346916784E+02  0.42153960539E+02  0.41800000000E+01 0.  1.
        -11    1    1    2    0    0  0.80365607839E+02 -0.75650664812E+02 -0.43589515537E+01  0.11045657277E+03  0.00000000000E+00 0.  1.
         11    1    1    2    0    0  0.27951124246E+02  0.19642078729E+02  0.24793417410E+02  0.42211256204E+02  0.00000000000E+00 0. -1.
</event>
<event>
 6    1  0.5317355E-006  0.1279870E+03  0.7561462E-02  0.1230474E+00
          1   -1    0    0  501    0  0.00000000000E+00  0.00000000000E+00  0.29758024881E+03  0.29758024881E+03  0.00000000000E+00 0. -1.
         -1   -1    0    0    0  501 -0.00000000000E+00 -0.00000000000E+00 -0.11352306928E+03  0.11352306928E+03  0.00000000000E+00 0.  1.
          5    1    1    2  502    0 -0.69502569514E+02 -0.69829985842E+02  0.45851755636E+02  0.10875058614E+03  0.41800000000E+01 0. -1.
         -5    1    1    2    0  502 -0.47552326115E+01 -0.13457894017E+02 -0.57370607599E+02  0.59267074880E+02  0.41800000000E+01 0. -1.
        -11    1    1    2    0    0 -0.18880988118E+02  0.29235059563E+02  0.32209770659E+02  0.47419929839E+02  0.00000000000E+00 0.  1.
         11    1    1    2    0    0  0.93138790243E+02  0.54052820295E+02  0.16336626084E+03  0.19566572722E+03  0.00000000000E+00 0. -1.
</event>
<event>
 6    1  0.5317355E-006  0.1069932E+03  0.7561462E-02  0.1266242E+00
          1   -1    0    0  501    0  0.00000000000E+00  0.00000000000E+00  0.79972069287E+03  0.79972069287E+03  0.00000000000E+00 0. -1.
         -1   -1    0    0    0  501 -0.00000000000E+00 -0.00000000000E+00 -0.16319120357E+02  0.16319120357E+02  0.00000000000E+00 0.  1.
          5    1    1    2  502    0  0.75817139892E+02  0.36815991540E+02  0.31790481034E+03  0.32891426964E+03  0.41800000000E+01 0. -1.
         -5    1    1    2    0  502 -0.39836835311E+02 -0.20761458623E+02  0.11971286029E+03  0.12793222007E+03  0.41800000000E+01 0. -1.
        -11    1    1    2    0    0  0.20635953470E+02  0.90716619431E+01  0.30747959046E+02  0.38125773586E+02  0.00000000000E+00 0.  1.
         11    1    1    2    0    0 -0.56616258051E+02 -0.25126194860E+02  0.31503594283E+03  0.32106754993E+03  0.00000000000E+00 0. -1.
</event>
<event>
 6    1  0.5317355E-006  0.6020855E+02  0.7561462E-02  0.1396959E+00
         -1   -1    0    0    0  501 -0.00000000000E+00  0.00000000000E+00  0.23112015459E+03  0.23112015459E+03  0.00000000000E+00 0.  1.
          1   -1    0    0  501    0  0.00000000000E+00 -0.00000000000E+00 -0.49935885045E+02  0.49935885045E+02  0.00000000000E+00 0. -1.
          5    1    1    2  502    0  0.21477784154E+02 -0.17491746469E+02 -0.14909580757E+02  0.31733647837E+02  0.41800000000E+01 0.  1.
         -5    1    1    2    0  502 -0.28169480927E+02  0.11981514677E+02  0.14771782936E+03  0.15091423346E+03  0.41800000000E+01 0.  1.
        -11    1    1    2    0    0  0.14738712152E+02 -0.25509816403E+02  0.57909815643E+02  0.64973280021E+02  0.00000000000E+00 0.  1.
         11    1    1    2    0    0 -0.80470153801E+01  0.31020048195E+02 -0.95337947037E+01  0.33434878316E+02  0.00000000000E+00 0. -1.
</event>
<event>
 6    1  0.5317355E-006  0.1857814E+03  0.7561462E-02  0.1162322E+00
         -2   -1    0    0    0  501 -0.00000000000E+00  0.00000000000E+00  0.61786616621E+02  0.61786616621E+02  0.00000000000E+00 0.  1.
          2   -1    0    0  501    0  0.00000000000E+00 -0.00000000000E+00 -0.68949130277E+03  0.68949130277E+03  0.00000000000E+00 0. -1.
          5    1    1    2  502    0  0.11641440979E+03 -0.68510605437E+02 -0.92204579673E+02  0.16360065640E+03  0.41800000000E+01 0.  1.
         -5    1    1    2    0  502 -0.13450046750E+02 -0.54279917648E+02 -0.10818454399E+03  0.12185475442E+03  0.41800000000E+01 0.  1.
        -11    1    1    2    0    0 -0.15243834501E+02  0.82350180393E+02 -0.25342585934E+03  0.26690558795E+03  0.00000000000E+00 0. -1.
         11    1    1    2    0    0 -0.87720528534E+02  0.40440342692E+02 -0.17388970315E+03  0.19891692061E+03  0.00000000000E+00 0.  1.
</event>
<event>
 6    1  0.5317355E-006  0.1603638E+03  0.7561462E-02  0.1188287E+00
         -2   -1    0    0    0  501 -0.00000000000E+00  0.00000000000E+00  0.17675095365E+03  0.17675095365E+03  0.00000000000E+00 0.  1.
          2   -1    0    0  501    0  0.00000000000E+00 -0.00000000000E+00 -0.33165102994E+03  0.33165102994E+03  0.00000000000E+00 0. -1.
          5    1    1    2  502    0  0.25915342615E+02 -0.29242108736E+02 -0.18579423121E+02  0.43466921558E+02  0.41800000000E+01 0. -1.
         -5    1    1    2    0  502  0.12529969965E+03  0.63004590372E+01  0.10611436721E+03  0.16436983253E+03  0.41800000000E+01 0.  1.
        -11    1    1    2    0    0 -0.55726567831E+02  0.23334130015E+02 -0.29569135210E+02  0.67262662324E+02  0.00000000000E+00 0.  1.
         11    1    1    2    0    0 -0.95488474437E+02 -0.39248031631E+00 -0.21286588516E+03  0.23330256719E+03  0.00000000000E+00 0. -1.
</event>
<event>
 6    1  0.5317355E-006  0.1049659E+03  0.7561462E-02  0.1270187E+00
          1   -1    0    0  501    0  0.00000000000E+00  0.00000000000E+00  0.21555929608E+03  0.21555929608E+03  0.00000000000E+00 0. -1.
         -1   -1    0    0    0  501 -0.00000000000E+00 -0.00000000000E+00 -0.93326778427E+02  0.93326778427E+02  0.00000000000E+00 0.  1.
          5    1    1    2  502    0 -0.26190596637E+02  0.54893419714E+02 -0.59918396850E+01  0.61258545714E+02  0.41800000000E+01 0.  1.
         -5    1    1    2    0  502  0.73123645929E+02 -0.22271567310E+02 -0.47767401094E+01  0.76703193874E+02  0.41800000000E+01 0.  1.
        -11    1    1    2    0    0 -0.76828527536E+01 -0.32258429588E+02  0.12694909940E+03  0.13120863670E+03  0.00000000000E+00 0. -1.
         11    1    1    2    0    0 -0.39250196539E+02 -0.36342281660E+00  0.60519980424E+01  0.39715698216E+02  0.00000000000E+00 0.  1.
</event>
<event>
 6    1  0.5317355E-006  0.1026620E+03  0.7561462E-02  0.1274796E+00
         -2   -1    0    0    0  501 -0.00000000000E+00  0.00000000000E+00  0.11790985025E+03  0.11790985025E+03  0.00000000000E+00 0.  1.
          2   -1    0    0  501    0  0.00000000000E+00 -0.00000000000E+00 -0.10444669432E+03  0.10444669432E+03  0.00000000000E+00 0. -1.
          5    1    1    2  502    0  0.56610409861E+02  0.51700309153E+01 -0.97036022448E+00  0.57007733890E+02  0.41800000000E+01 0.  1.
         -5    1    1    2    0  502 -0.61145766861E+02 -0.14109007969E+02  0.39516262516E+02  0.74275677810E+02  0.41800000000E+01 0.  1.
        -11    1    1    2    0    0  0.44336964977E+02 -0.12260462629E+01 -0.30507490936E+01  0.44458708065E+02  0.00000000000E+00 0.  1.
         11    1    1    2    0    0 -0.39801607977E+02  0.10165023316E+02 -0.22031997268E+02  0.46614424808E+02  0.00000000000E+00 0. -1.
</event>
<event>
 6    1  0.5317355E-006  0.9567377E+02  0.7561462E-02  0.1289666E+00
         -2   -1    0    0    0  501 -0.00000000000E+00  0.00000000000E+00  0.53293228396E+02  0.53293228396E+02  0.00000000000E+00 0.  1.
          2   -1    0    0  501    0  0.00000000000E+00 -0.00000000000E+00 -0.25003275776E+03  0.25003275776E+03  0.00000000000E+00 0. -1.
          5    1    1    2  502    0 -0.38885356134E+02 -0.67250922268E+00 -0.10746171188E+03  0.11435914966E+03  0.41800000000E+01 0.  1.
         -5    1    1    2    0  502  0.46154898462E+02 -0.25282674696E+02 -0.80554209259E-01  0.52791734020E+02  0.41800000000E+01 0.  1.
        -11    1    1    2    0    0  0.40350713935E+02 -0.77643556325E+01 -0.54616806351E+02  0.68348086070E+02  0.00000000000E+00 0. -1.
         11    1    1    2    0    0 -0.47620256263E+02  0.33719539551E+02 -0.34580456930E+02  0.67827016414E+02  0.00000000000E+00 0.  1.
</event>
<event>
 6    1  0.5317355E-006  0.4321715E+03  0.7561462E-02  0.1033176E+00
          2   -1    0    0  501    0  0.00000000000E+00  0.00000000000E+00  0.10730946132E+04  0.10730946132E+04  0.00000000000E+00 0.  1.
         -2   -1    0    0    0  501 -0.00000000000E+00 -0.00000000000E+00 -0.17976312804E+03  0.17976312804E+03  0.00000000000E+00 0. -1.
          5    1    1    2  502    0  0.11774231947E+03  0.15272202087E+03  0.23667441454E+03  0.30531871929E+03  0.41800000000E+01 0. -1.
         -5    1    1    2    0  502  0.21052863784E+03  0.11522079297E+03  0.16023616139E+03  0.28860221465E+03  0.41800000000E+01 0. -1.
        -11    1    1    2    0    0 -0.18101684659E+03 -0.19841883772E+03  0.33834423664E+03  0.43198837529E+03  0.00000000000E+00 0.  1.
         11    1    1    2    0    0 -0.14725411072E+03 -0.69523976115E+02  0.15807667257E+03  0.22694843200E+03  0.00000000000E+00 0. -1.
</event>
<event>
 6    1  0.5317355E-006  0.1911542E+03  0.7561462E-02  0.1157424E+00
          1   -1    0    0  501    0  0.00000000000E+00  0.00000000000E+00  0.13041603475E+04  0.13041603475E+04  0.00000000000E+00 0. -1.
         -1   -1    0    0    0  501 -0.00000000000E+00 -0.00000000000E+00 -0.38984076714E+02  0.38984076714E+02  0.00000000000E+00 0.  1.
          5    1    1    2  502    0 -0.11069726080E+03  0.96313342121E+02  0.41471575755E+03  0.43992814798E+03  0.41800000000E+01 0. -1.
         -5    1    1    2    0  502 -0.32449447826E+02  0.17408494389E+02  0.89060613641E+01  0.38115779804E+02  0.41800000000E+01 0. -1.
        -11    1    1    2    0    0  0.19992423443E+02 -0.61535521916E+02  0.33457397291E+03  0.34077274070E+03  0.00000000000E+00 0.  1.
         11    1    1    2    0    0  0.12315428518E+03 -0.52186314593E+02  0.50698047891E+03  0.52432775569E+03  0.00000000000E+00 0. -1.
</event>
<event>
 6    1  0.5317355E-006  0.1130554E+03  0.7561462E-02  0.1255014E+00
          1   -1    0    0  501    0  0.00000000000E+00  0.00000000000E+00  0.48260099747E+03  0.48260099747E+03  0.00000000000E+00 0. -1.
         -1   -1    0    0    0  501 -0.00000000000E+00 -0.00000000000E+00 -0.50226434156E+02  0.50226434156E+02  0.00000000000E+00 0.  1.
          5    1    1    2  502    0 -0.71143857983E+02 -0.13021614864E+02  0.11598156079E+03  0.13674869588E+03  0.41800000000E+01 0. -1.
         -5    1    1    2    0  502 -0.79384760853E+01 -0.26757580374E+02 -0.20961595902E+02  0.35154635723E+02  0.41800000000E+01 0.  1.
        -11    1    1    2    0    0 -0.16045133173E+02  0.24218040571E+02  0.11427614060E+03  0.11791096683E+03  0.00000000000E+00 0.  1.
         11    1    1    2    0    0  0.95127467241E+02  0.15561154668E+02  0.22307845782E+03  0.24301313319E+03  0.00000000000E+00 0. -1.
</event>
<event>
 6    1  0.5317355E-006  0.1017448E+03  0.7561462E-02  0.1276669E+00
          1   -1    0    0  501    0  0.00000000000E+00  0.00000000000E+00  0.60508372772E+03  0.60508372772E+03  0.00000000000E+00 0. -1.
         -1   -1    0    0    0  501 -0.00000000000E+00 -0.00000000000E+00 -0.27394328167E+02  0.27394328167E+02  0.00000000000E+00 0.  1.
          5    1    1    2  502    0 -0.25568380697E+02  0.72645623960E+02  0.19034906331E+03  0.20538102901E+03  0.41800000000E+01 0.  1.
         -5    1    1    2    0  502 -0.35879147119E+02 -0.47775066525E+02  0.81749890156E+02  0.10134242507E+03  0.41800000000E+01 0.  1.
        -11    1    1    2    0    0  0.52011927185E+02 -0.19097674653E+02  0.30919531221E+03  0.31412052279E+03  0.00000000000E+00 0. -1.
         11    1    1    2    0    0  0.94356006307E+01 -0.57728827819E+01 -0.36048661204E+01  0.11634079019E+02  0.00000000000E+00 0.  1.
</event>
<event>
 6    1  0.5317355E-006  0.1052027E+03  0.7561462E-02  0.1269721E+00
          1   -1    0    0  501    0  0.00000000000E+00  0.00000000000E+00  0.52720139101E+03  0.52720139101E+03  0.00000000000E+00 0. -1.
         -1   -1    0    0    0  501 -0.00000000000E+00 -0.00000000000E+00 -0.24854518031E+02  0.24854518031E+02  0.00000000000E+00 0.  1.
          5    1    1    2  502    0  0.47689327362E+02  0.13084863874E+02  0.92843585659E+02  0.10527530292E+03  0.41800000000E+01 0. -1.
         -5    1    1    2    0  502 -0.75008365457E+02 -0.23931745967E+02  0.14141907701E+03  0.16191297383E+03  0.41800000000E+01 0. -1.
        -11    1    1    2    0    0  0.47545123536E+02  0.28203100184E+02  0.23945351567E+03  0.24575178493E+03  0.00000000000E+00 0. -1.
         11    1    1    2    0    0 -0.20226085441E+02 -0.17356218091E+02  0.28630694650E+02  0.39115847362E+02  0.00000000000E+00 0.  1.
</event>
<event>
 6    1  0.5317355E-006  0.1246852E+03  0.7561462E-02  0.1235562E+00
         -1   -1    0    0    0  501 -0.00000000000E+00  0.00000000000E+00  0.13415209976E+03  0.13415209976E+03  0.00000000000E+00 0.  1.
          1   -1    0    0  501    0  0.00000000000E+00 -0.00000000000E+00 -0.12572939565E+03  0.12572939565E+03  0.00000000000E+00 0. -1.
          5    1    1    2  502    0 -0.30742011726E+02  0.25984321452E+02 -0.11057330290E+02  0.41952272875E+02  0.41800000000E+01 0. -1.
         -5    1    1    2    0  502  0.28284610653E+02 -0.88955970347E+02  0.37013350327E+02  0.10050196198E+03  0.41800000000E+01 0. -1.
        -11    1    1    2    0    0 -0.63464480250E-01  0.89157091658E+02 -0.82799740352E+01  0.89540767199E+02  0.00000000000E+00 0.  1.
         11    1    1    2    0    0  0.25208655531E+01 -0.26185442763E+02 -0.92533418919E+01  0.27886493361E+02  0.00000000000E+00 0. -1.
</event>
<event>
 6    1  0.5317355E-006  0.1010903E+03  0.7561462E-02  0.1278020E+00
         -1   -1    0    0    0  501 -0.00000000000E+00  0.00000000000E+00  0.50638179033E+02  0.50638179033E+02  0.00000000000E+00 0.  1.
          1   -1    0    0  501    0  0.00000000000E+00 -0.00000000000E+00 -0.31971847570E+03  0.31971847570E+03  0.00000000000E+00 0. -1.
          5    1    1    2  502    0  0.34419961330E+02 -0.53626437167E+02 -0.78660735660E+02  0.10131886417E+03  0.41800000000E+01 0.  1.
         -5    1    1    2    0  502 -0.51781635290E+02  0.12483461139E+02 -0.74866210272E+00  0.53434141242E+02  0.41800000000E+01 0.  1.
        -11    1    1    2    0    0  0.17853383488E+02  0.61750274024E+02 -0.73605870262E+02  0.97722381167E+02  0.00000000000E+00 0.  1.
         11    1    1    2    0    0 -0.49170952885E+00 -0.20607297996E+02 -0.11606502864E+03  0.11788126815E+03  0.00000000000E+00 0. -1.
</event>
<event>
 6    1  0.5317355E-006  0.1076736E+03  0.7561462E-02  0.1264940E+00
         -1   -1    0    0    0  501 -0.00000000000E+00  0.00000000000E+00  0.24510119568E+03  0.24510119568E+03  0.00000000000E+00 0.  1.
          1   -1    0    0  501    0  0.00000000000E+00 -0.00000000000E+00 -0.50686224930E+02  0.50686224930E+02  0.00000000000E+00 0. -1.
          5    1    1    2  502    0  0.13324180022E+02 -0.37462511437E+02  0.48067443430E+02  0.62521396773E+02  0.41800000000E+01 0. -1.
         -5    1    1    2    0  502 -0.16245907296E+02  0.96428013186E+02  0.91751250532E+02  0.13415683212E+03  0.41800000000E+01 0. -1.
        -11    1    1    2    0    0 -0.18035954257E+02 -0.37369330771E+01  0.29825295288E+02  0.35054365688E+02  0.00000000000E+00 0. -1.
         11    1    1    2    0    0  0.20957681531E+02 -0.55228568672E+02  0.24770981496E+02  0.64054826024E+02  0.00000000000E+00 0.  1.
</event>
<event>
 6    1  0.5317355E-006  0.1279795E+03  0.7561462E-02  0.1230485E+00
          2   -1    0    0  501    0  0.00000000000E+00  0.00000000000E+00  0.68605259318E+03  0.68605259318E+03  0.00000000000E+00 0. -1.
         -2   -1    0    0    0  501 -0.00000000000E+00 -0.00000000000E+00 -0.25464013862E+02  0.25464013862E+02  0.00000000000E+00 0.  1.
          5    1    1    2  502    0  0.46508423043E+02 -0.31357299090E+02  0.11841318166E+03  0.13109335456E+03  0.41800000000E+01 0. -1.
         -5    1    1    2    0  502 -0.67816025185E+01  0.84970922886E+02  0.15989790162E+03  0.18124805988E+03  0.41800000000E+01 0. -1.
        -11    1    1    2    0    0 -0.33638041042E+02  0.20902538447E+02  0.11446382196E+03  0.12112142856E+03  0.00000000000E+00 0.  1.
         11    1    1    2    0    0 -0.60887794818E+01 -0.74516162243E+02  0.26781367408E+03  0.27805376404E+03  0.00000000000E+00 0. -1.
</event>
<event>
 6    1  0.5317355E-006  0.8917666E+02  0.7561462E-02  0.1304858E+00
          3   -1    0    0  501    0  0.00000000000E+00  0.00000000000E+00  0.10657121763E+03  0.10657121763E+03  0.00000000000E+00 0. -1.
         -3   -1    0    0    0  501 -0.00000000000E+00 -0.00000000000E+00 -0.23756886444E+03  0.23756886444E+03  0.00000000000E+00 0.  1.
          5    1    1    2  502    0 -0.56085248819E+00 -0.70858595971E+01  0.21431686712E+02  0.22963308931E+02  0.41800000000E+01 0. -1.
         -5    1    1    2    0  502 -0.58505311574E+02 -0.53612859894E+02 -0.17629672244E+03  0.19337842944E+03  0.41800000000E+01 0. -1.
        -11    1    1    2    0    0  0.19143832284E+02  0.42809858675E+02  0.56349691034E+02  0.73310694949E+02  0.00000000000E+00 0. -1.
         11    1    1    2    0    0  0.39922331779E+02  0.17888860816E+02 -0.32482302114E+02  0.54487648752E+02  0.00000000000E+00 0.  1.
</event>
<event>
 6    1  0.5317355E-006  0.1136659E+03  0.7561462E-02  0.1253928E+00
         -1   -1    0    0    0  501 -0.00000000000E+00  0.00000000000E+00  0.52604095046E+02  0.52604095046E+02  0.00000000000E+00 0.  1.
          1   -1    0    0  501    0  0.00000000000E+00 -0.00000000000E+00 -0.65357701207E+03  0.65357701207E+03  0.00000000000E+00 0. -1.
          5    1    1    2  502    0 -0.59296702551E+02  0.21390960267E+02  0.15389195035E+02  0.65022856277E+02  0.41800000000E+01 0.  1.
         -5    1    1    2    0  502  0.14757294186E+02  0.42930995987E+02 -0.88690429508E+02  0.99721175457E+02  0.41800000000E+01 0.  1.
        -11    1    1    2    0    0 -0.13967993756E+02 -0.58071144979E+02 -0.20846267380E+03  0.21685029190E+03  0.00000000000E+00 0.  1.
         11    1    1    2    0    0  0.58507402121E+02 -0.62508112745E+01 -0.31920900875E+03  0.32458678348E+03  0.00000000000E+00 0. -1.
</event>
<event>
 6    1  0.5317355E-006  0.1079061E+03  0.7561462E-02  0.1264497E+00
         -1   -1    0    0    0  501 -0.00000000000E+00  0.00000000000E+00  0.14125201599E+03  0.14125201599E+03  0.00000000000E+00 0.  1.
          1   -1    0    0  501    0  0.00000000000E+00 -0.00000000000E+00 -0.88248179534E+02  0.88248179534E+02  0.00000000000E+00 0. -1.
          5    1    1    2  502    0  0.63853936982E+02  0.25552311841E+01  0.18666032053E+02  0.66706428679E+02  0.41800000000E+01 0.  1.
         -5    1    1    2    0  502 -0.60455681283E+02  0.34320483598E+01  0.29826445408E+02  0.67629561591E+02  0.41800000000E+01 0.  1.
        -11    1    1    2    0    0 -0.35417844955E+02 -0.33579217283E+02  0.16002640168E+02  0.51362165715E+02  0.00000000000E+00 0.  1.
         11    1    1    2    0    0  0.32019589255E+02  0.27591937739E+02 -0.11491281178E+02  0.43802039534E+02  0.00000000000E+00 0. -1.
</event>
<event>
 6    1  0.5317355E-006  0.1039854E+03  0.7561462E-02  0.1272132E+00
          2   -1    0    0  501    0  0.00000000000E+00  0.00000000000E+00  0.24998147378E+03  0.24998147378E+03  0.00000000000E+00 0.  1.
         -2   -1    0    0    0  501 -0.00000000000E+00 -0.00000000000E+00 -0.54869228053E+02  0.54869228053E+02  0.00000000000E+00 0. -1.
          5    1    1    2  502    0 -0.47358289483E+02 -0.36758214400E+02  0.81364553795E+02  0.10115155423E+03  0.41800000000E+01 0. -1.
         -5    1    1    2    0  502  0.50657834831E+02  0.78954528474E+01  0.10353303886E+01  0.51449963211E+02  0.41800000000E+01 0. -1.
        -11    1    1    2    0    0  0.42861177974E+02  0.26121900525E+02  0.83891297668E+02  0.97760851515E+02  0.00000000000E+00 0.  1.
         11    1    1    2    0    0 -0.46160723322E+02  0.27408610276E+01  0.28821063873E+02  0.54488332875E+02  0.00000000000E+00 0. -1.
</event>
<event>
 6    1  0.5317355E-006  0.9508945E+02  0.7561462E-02  0.1290975E+00
         -2   -1    0    0    0  501 -0.00000000000E+00  0.00000000000E+00  0.36446531128E+03  0.36446531128E+03  0.00000000000E+00 0.  1.
          2   -1    0    0  501    0  0.00000000000E+00 -0.00000000000E+00 -0.41612821527E+02  0.41612821527E+02  0.00000000000E+00 0. -1.
          5    1    1    2  502    0  0.35213065605E+01  0.69671108508E+02  0.20977022241E+03  0.22110513692E+03  0.41800000000E+01 0.  1.
         -5    1    1    2    0  502  0.52690073949E+01 -0.46461045935E+02  0.51885674597E+02  0.69971328819E+02  0.41800000000E+01 0.  1.
        -11    1    1    2    0    0 -0.17357033725E+01 -0.47766865167E+02  0.72680608690E+02  0.86989407135E+02  0.00000000000E+00 0.  1.
         11    1    1    2    0    0 -0.70546105829E+01  0.24556802595E+02 -0.11484015950E+02  0.28012259932E+02  0.00000000000E+00 0. -1.
</event>
<event>
 6    1  0.5317355E-006  0.1152401E+03  0.7561462E-02  0.1251163E+00
         -2   -1    0    0    0  501 -0.00000000000E+00  0.00000000000E+00  0.17602851141E+02  0.17602851141E+02  0.00000000000E+00 0.  1.
          2   -1    0    0  501    0  0.00000000000E+00 -0.00000000000E+00 -0.81934513543E+03  0.81934513543E+03  0.00000000000E+00 0. -1.
          5    1    1    2  502    0  0.80731215843E+01 -0.37082615173E+02 -0.15560290157E+03  0.16021869747E+03  0.41800000000E+01 0. -1.
         -5    1    1    2    0  502 -0.65992690818E+02  0.58274065536E+02 -0.23058702537E+03  0.24685775383E+03  0.41800000000E+01 0.  1.
        -11    1    1    2    0    0  0.59299223216E+02  0.20276597303E+02 -0.31358325119E+03  0.31978429245E+03  0.00000000000E+00 0.  1.
         11    1    1    2    0    0 -0.13796539828E+01 -0.41468047666E+02 -0.10196910616E+03  0.11008724283E+03  0.00000000000E+00 0. -1.
</event>
<event>
 6    1  0.5317355E-006  0.1057161E+03  0.7561462E-02  0.1268715E+00
         -1   -1    0    0    0  501 -0.00000000000E+00  0.00000000000E+00  0.51223643251E+02  0.51223643251E+02  0.00000000000E+00 0.  1.
          1   -1    0    0  501    0  0.00000000000E+00 -0.00000000000E+00 -0.40947711383E+03  0.40947711383E+03  0.00000000000E+00 0. -1.
          5    1    1    2  502    0 -0.55022373966E+02  0.24335563600E+02 -0.19754848917E+03  0.20654916913E+03  0.41800000000E+01 0. -1.
         -5    1    1    2    0  502 -0.15163480361E+00  0.52729001902E+02 -0.10285597842E+02  0.53885402083E+02  0.41800000000E+01 0. -1.
        -11    1    1    2    0    0  0.32148236020E+02 -0.64330919364E+02 -0.31572956414E+02  0.78541885909E+02  0.00000000000E+00 0.  1.
         11    1    1    2    0    0  0.23025772749E+02 -0.12733646138E+02 -0.11884642715E+03  0.12172429996E+03  0.00000000000E+00 0. -1.
</event>
<event>
 6    1  0.5317355E-006  0.7232861E+02  0.7561462E-02  0.1352349E+00
          1   -1    0    0  501    0  0.00000000000E+00  0.00000000000E+00  0.18065624405E+03  0.18065624405E+03  0.00000000000E+00 0. -1.
         -1   -1    0    0    0  501 -0.00000000000E+00 -0.00000000000E+00 -0.74042873906E+02  0.74042873906E+02  0.00000000000E+00 0.  1.
          5    1    1    2  502    0 -0.37965689682E+02  0.23209306034E+02 -0.21542009526E+02  0.49614474239E+02  0.41800000000E+01 0.  1.
         -5    1    1    2    0  502  0.39051412931E+02 -0.51705872336E+02  0.49632658086E+02  0.81727493750E+02  0.41800000000E+01 0.  1.
        -11    1    1    2    0    0  0.84461725476E+01  0.21813174062E+02  0.97952507840E+02  0.10070673357E+03  0.00000000000E+00 0. -1.
         11    1    1    2    0    0 -0.95318957972E+01  0.66833922404E+01 -0.19429786255E+02  0.22650416403E+02  0.00000000000E+00 0.  1.
</event>
<event>
 6    1  0.5317355E-006  0.9848314E+02  0.7561462E-02  0.1283518E+00
          1   -1    0    0  501    0  0.00000000000E+00  0.00000000000E+00  0.20896098558E+03  0.20896098558E+03  0.00000000000E+00 0. -1.
         -1   -1    0    0    0  501 -0.00000000000E+00 -0.00000000000E+00 -0.59191405971E+02  0.59191405971E+02  0.00000000000E+00 0.  1.
          5    1    1    2  502    0 -0.45328815213E+02  0.25917283461E+02 -0.38165753404E+01  0.52520907436E+02  0.41800000000E+01 0. -1.
         -5    1    1    2    0  502  0.58553578594E+02 -0.87595589102E+01  0.66270467409E+02  0.88963468284E+02  0.41800000000E+01 0. -1.
        -11    1    1    2    0    0 -0.47138795536E+02  0.18813537676E+00  0.71010385763E+02  0.85232483982E+02  0.00000000000E+00 0. -1.
         11    1    1    2    0    0  0.33914032155E+02 -0.17345859927E+02  0.16305301780E+02  0.41435531851E+02  0.00000000000E+00 0.  1.
</event>
<event>
 6    1  0.5317355E-006  0.1323233E+03  0.7561462E-02  0.1224049E+00
         -1   -1    0    0    0  501 -0.00000000000E+00  0.00000000000E+00  0.18590293476E+04  0.18590293476E+04  0.00000000000E+00 0.  1.
          1   -1    0    0  501    0  0.00000000000E+00 -0.00000000000E+00 -0.32563125665E+02  0.32563125665E+02  0.00000000000E+00 0. -1.
          5    1    1    2  502    0 -0.59878490157E+02 -0.25189124289E+02  0.26220352893E+03  0.27016307769E+03  0.41800000000E+01 0. -1.
         -5    1    1    2    0  502 -0.26883795064E+02 -0.47439952137E+02  0.14050919763E+04  0.14061558312E+04  0.41800000000E+01 0.  1.
        -11    1    1    2    0    0  0.70000034055E+02 -0.33283212856E+00  0.73438226714E+02  0.10145584600E+03  0.00000000000E+00 0.  1.
         11    1    1    2    0    0  0.16762251166E+02  0.72961908555E+02  0.85732490002E+02  0.11381771833E+03  0.00000000000E+00 0. -1.
</event>
<event>
 6    1  0.5317355E-006  0.1328779E+03  0.7561462E-02  0.1223247E+00
         -1   -1    0    0    0  501 -0.00000000000E+00  0.00000000000E+00  0.20962822161E+03  0.20962822161E+03  0.00000000000E+00 0.  1.
          1   -1    0    0  501    0  0.00000000000E+00 -0.00000000000E+00 -0.15366616496E+03  0.15366616496E+03  0.00000000000E+00 0. -1.
          5    1    1    2  502    0  0.20311331408E+02  0.26539511828E+02  0.21577612349E+02  0.39999520327E+02  0.41800000000E+01 0. -1.
         -5    1    1    2    0  502 -0.89868054441E+02 -0.70961545374E+02  0.12653451394E+03  0.17070519544E+03  0.41800000000E+01 0. -1.
        -11    1    1    2    0    0 -0.12465564182E+01  0.46637827678E+02 -0.17905239017E+02  0.49972376947E+02  0.00000000000E+00 0.  1.
         11    1    1    2    0    0  0.70803279451E+02 -0.22157941322E+01 -0.74244830625E+02  0.10261729386E+03  0.00000000000E+00 0. -1.
</event>
<event>
 6    1  0.5317355E-006  0.2056542E+03  0.7561462E-02  0.1145054E+00
         -2   -1    0    0    0  501 -0.00000000000E+00  0.00000000000E+00  0.35020895106E+02  0.35020895106E+02  0.00000000000E+00 0.  1.
          2   -1    0    0  501    0  0.00000000000E+00 -0.00000000000E+00 -0.12171878836E+04  0.12171878836E+04  0.00000000000E+00 0. -1.
          5    1    1    2  502    0 -0.13674868164E+03 -0.15407320855E+02 -0.42474954756E+03  0.44650558565E+03  0.41800000000E+01 0. -1.
         -5    1    1    2    0  502 -0.13304283380E+02 -0.75560362939E+02 -0.19176084150E+03  0.20658186062E+03  0.41800000000E+01 0. -1.
        -11    1    1    2    0    0  0.22271246048E+02  0.61849548251E+02 -0.16687606386E+03  0.17935717357E+03  0.00000000000E+00 0. -1.
         11    1    1    2    0    0  0.12778171898E+03  0.29118135544E+02 -0.39878053560E+03  0.41976415890E+03  0.00000000000E+00 0.  1.
</event>
<event>
 6    1  0.5317355E-006  0.1195111E+03  0.7561462E-02  0.1243906E+00
          1   -1    0    0  501    0  0.00000000000E+00  0.00000000000E+00  0.21401629066E+03  0.21401629066E+03  0.00000000000E+00 0. -1.
         -1   -1    0    0    0  501 -0.00000000000E+00 -0.00000000000E+00 -0.86309519773E+02  0.86309519773E+02  0.00000000000E+00 0.  1.
          5    1    1    2  502    0 -0.21588866644E+01 -0.50971392244E+02 -0.24041126756E+01  0.51244470694E+02  0.41800000000E+01 0.  1.
         -5    1    1    2    0  502  0.80337245758E+02  0.28073672250E+02  0.80492238440E+02  0.11721210253E+03  0.41800000000E+01 0.  1.
        -11    1    1    2    0    0 -0.29008054277E+02 -0.21716617575E+02 -0.15002300076E+02  0.39219226145E+02  0.00000000000E+00 0.  1.
         11    1    1    2    0    0 -0.49170304816E+02  0.44614337569E+02  0.64620945198E+02  0.92650011067E+02  0.00000000000E+00 0. -1.
</event>
<event>
 6    1  0.5317355E-006  0.1221134E+03  0.7561462E-02  0.1239651E+00
          2   -1    0    0  501    0  0.00000000000E+00  0.00000000000E+00  0.30216706417E+03  0.30216706417E+03  0.00000000000E+00 0. -1.
         -2   -1    0    0    0  501 -0.00000000000E+00 -0.00000000000E+00 -0.86969917156E+02  0.86969917156E+02  0.00000000000E+00 0.  1.
          5    1    1    2  502    0  0.62538109675E+01 -0.55336736297E+02 -0.38082569059E+02  0.67594519022E+02  0.41800000000E+01 0.  1.
         -5    1    1    2    0  502  0.60725455459E+02 -0.14818566678E+02  0.69892436676E+02  0.93859447919E+02  0.41800000000E+01 0.  1.
        -11    1    1    2    0    0 -0.17134621819E+02  0.73793735892E+02  0.67450989449E+02  0.10143345947E+03  0.00000000000E+00 0.  1.
         11    1    1    2    0    0 -0.49844644608E+02 -0.36384329168E+01  0.11593628995E+03  0.12624955492E+03  0.00000000000E+00 0. -1.
</event>
<event>
 6    1  0.5317355E-006  0.7169576E+02  0.7561462E-02  0.1354420E+00
         -2   -1    0    0    0  501 -0.00000000000E+00  0.00000000000E+00  0.48038744624E+02  0.48038744624E+02  0.00000000000E+00 0.  1.
          2   -1    0    0  501    0  0.00000000000E+00 -0.00000000000E+00 -0.29652656230E+03  0.29652656230E+03  0.00000000000E+00 0. -1.
          5    1    1    2  502    0 -0.14560098961E+02 -0.43108021853E+02 -0.15750242002E+03  0.16399628880E+03  0.41800000000E+01 0. -1.
         -5    1    1    2    0  502  0.69866379124E+01 -0.11107387143E+02  0.23539919690E+02  0.27272465555E+02  0.41800000000E+01 0. -1.
        -11    1    1    2    0    0 -0.91540878876E+01  0.63931203342E+02 -0.39248833563E+02  0.75574248404E+02  0.00000000000E+00 0.  1.
         11    1    1    2    0    0  0.16727548936E+02 -0.97157943458E+01 -0.75276483788E+02  0.77722304165E+02  0.00000000000E+00 0. -1.
</event>
<event>
 6    1  0.5317355E-006  0.9869327E+02  0.7561462E-02  0.1283068E+00
          2   -1    0    0  501    0  0.00000000000E+00  0.00000000000E+00  0.13435805976E+03  0.13435805976E+03  0.00000000000E+00 0. -1.
         -2   -1    0    0    0  501 -0.00000000000E+00 -0.00000000000E+00 -0.11049472934E+03  0.11049472934E+03  0.00000000000E+00 0.  1.
          5    1    1    2  502    0  0.47498364589E+02 -0.42876235666E+02  0.41853702985E+02  0.76574611178E+02  0.41800000000E+01 0.  1.
         -5    1    1    2    0  502 -0.28333068203E+02 -0.40495281879E+01 -0.51093158628E+02  0.58712389586E+02  0.41800000000E+01 0.  1.
        -11    1    1    2    0    0 -0.36597790668E+02 -0.15336173564E+02  0.10179169256E+02  0.40965985745E+02  0.00000000000E+00 0.  1.
         11    1    1    2    0    0  0.17432494281E+02  0.62261937419E+02  0.22923616810E+02  0.68599802592E+02  0.00000000000E+00 0. -1.
</event>
<event>
 6    1  0.5317355E-006  0.1035000E+03  0.7561462E-02  0.1273104E+00
          2   -1    0    0  501    0  0.00000000000E+00  0.00000000000E+00  0.50133129878E+03  0.50133129878E+03  0.00000000000E+00 0.  1.
         -2   -1    0    0    0  501 -0.00000000000E+00 -0.00000000000E+00 -0.31772135692E+02  0.31772135692E+02  0.00000000000E+00 0. -1.
          5    1    1    2  502    0  0.56582647617E+02  0.14388971497E+02  0.27713578856E+02  0.64762283508E+02  0.41800000000E+01 0.  1.
         -5    1    1    2    0  502 -0.53680573215E+02 -0.90351787613E+01  0.10108737658E+03  0.11488850464E+03  0.41800000000E+01 0.  1.
        -11    1    1    2    0    0  0.44620765295E+02  0.59682772296E+01  0.16514096684E+03  0.17116708784E+03  0.00000000000E+00 0.  1.
         11    1    1    2    0    0 -0.47522839698E+02 -0.11322069965E+02  0.17561724082E+03  0.18228555849E+03  0.00000000000E+00 0. -1.
</event>
<event>
 6    1  0.5317355E-006  0.1221233E+03  0.7561462E-02  0.1239635E+00
         -1   -1    0    0    0  501 -0.00000000000E+00  0.00000000000E+00  0.50009653180E+02  0.50009653180E+02  0.00000000000E+00 0.  1.
          1   -1    0    0  501    0  0.00000000000E+00 -0.00000000000E+00 -0.39495160432E+03  0.39495160432E+03  0.00000000000E+00 0. -1.
          5    1    1    2  502    0 -0.20320565970E+02 -0.63396031304E+02 -0.13458562267E+02  0.68048420148E+02  0.41800000000E+01 0. -1.
         -5    1    1    2    0  502  0.54739440420E+02  0.26268012776E+01 -0.10233703220E+03  0.11616215813E+03  0.41800000000E+01 0. -1.
        -11    1    1    2    0    0 -0.67560003797E+02  0.58490048332E+02 -0.14551344733E+03  0.17076183186E+03  0.00000000000E+00 0.  1.
         11    1    1    2    0    0  0.33141129347E+02  0.22791816938E+01 -0.83632909346E+02  0.89988847360E+02  0.00000000000E+00 0. -1.
</event>
<event>
 6    1  0.5317355E-006  0.1651099E+03  0.7561462E-02  0.1183046E+00
         -1   -1    0    0    0  501 -0.00000000000E+00  0.00000000000E+00  0.17027824897E+03  0.17027824897E+03  0.00000000000E+00 0.  1.
          1   -1    0    0  501    0  0.00000000000E+00 -0.00000000000E+00 -0.21934686172E+03  0.21934686172E+03  0.00000000000E+00 0. -1.
          5    1    1    2  502    0  0.38094707136E+01 -0.76108975097E+02 -0.47706236922E+02  0.90002475514E+02  0.41800000000E+01 0.  1.
         -5    1    1    2    0  502  0.78425305719E+02 -0.57229263258E+02  0.52667660054E+02  0.11053086431E+03  0.41800000000E+01 0.  1.
        -11    1    1    2    0    0 -0.64792694472E+02  0.10851044462E+03  0.84632704967E+00  0.12638562465E+03  0.00000000000E+00 0.  1.
         11    1    1    2    0    0 -0.17442081961E+02  0.24827793735E+02 -0.54876362933E+02  0.62706146219E+02  0.00000000000E+00 0. -1.
</event>
<event>
 6    1  0.5317355E-006  0.1178680E+03  0.7561462E-02  0.1246656E+00
         -1   -1    0    0    0  501 -0.00000000000E+00  0.00000000000E+00  0.61960738808E+03  0.61960738808E+03  0.00000000000E+00 0.  1.
          1   -1    0    0  501    0  0.00000000000E+00 -0.00000000000E+00 -0.34569672961E+02  0.34569672961E+02  0.00000000000E+00 0. -1.
          5    1    1    2  502    0 -0.21653301861E+02  0.73692767079E+01  0.12086734981E+02  0.26205596409E+02  0.41800000000E+01 0.  1.
         -5    1    1    2    0  502  0.38464444935E+02 -0.86750328737E+02  0.42936494121E+03  0.43974635666E+03  0.41800000000E+01 0.  1.
        -11    1    1    2    0    0 -0.44797515003E+02  0.14910380110E+02  0.82740086003E+02  0.95263102077E+02  0.00000000000E+00 0.  1.
         11    1    1    2    0    0  0.27986371929E+02  0.64470671920E+02  0.60845952922E+02  0.92962005887E+02  0.00000000000E+00 0. -1.
</event>
<event>
 6    1  0.5317355E-006  0.2227520E+03  0.7561462E-02  0.1131848E+00
          2   -1    0    0  501    0  0.00000000000E+00  0.00000000000E+00  0.83859826981E+03  0.83859826981E+03  0.00000000000E+00 0. -1.
         -2   -1    0    0    0  501 -0.00000000000E+00 -0.00000000000E+00 -0.72228864793E+02  0.72228864793E+02  0.00000000000E+00 0.  1.
          5    1    1    2  502    0 -0.99550592712E+01 -0.78255398265E+02  0.76641946465E+02  0.11006575726E+03  0.41800000000E+01 0. -1.
         -5    1    1    2    0  502 -0.15222697267E+03 -0.39846962531E+02  0.14756642622E+03  0.21576411698E+03  0.41800000000E+01 0. -1.
        -11    1    1    2    0    0  0.16123910890E+03  0.97404168713E+02  0.52601823002E+03  0.55873142084E+03  0.00000000000E+00 0. -1.
         11    1    1    2    0    0  0.94292303802E+00  0.20698192082E+02  0.16142802326E+02  0.26265839531E+02  0.00000000000E+00 0.  1.
</event>
<event>
 6    1  0.6570828E-006  0.1582736E+03  0.7561462E-02  0.1190660E+00
          2   -1    0    0  501    0  0.00000000000E+00  0.00000000000E+00  0.39999287674E+03  0.39999287674E+03  0.00000000000E+00 0.  1.
         -2   -1    0    0    0  501 -0.00000000000E+00 -0.00000000000E+00 -0.96177520532E+02  0.96177520532E+02  0.00000000000E+00 0. -1.
          5    1    1    2  502    0 -0.54870180794E+02 -0.27254620344E+02  0.11416224591E+03  0.12963040485E+03  0.41800000000E+01 0.  1.
         -5    1    1    2    0  502 -0.82962913141E+02 -0.49208166251E+02 -0.98056782969E+01  0.97045928866E+02  0.41800000000E+01 0.  1.
        -11    1    1    2    0    0  0.92766254329E+02  0.41875225349E+02  0.58211714333E+02  0.11725065512E+03  0.00000000000E+00 0. -1.
         11    1    1    2    0    0  0.45066839606E+02  0.34587561245E+02  0.14124707426E+03  0.15224340843E+03  0.00000000000E+00 0.  1.
</event>
<event>
 6    1  0.5317355E-006  0.1022432E+03  0.7561462E-02  0.1275648E+00
          2   -1    0    0  501    0  0.00000000000E+00  0.00000000000E+00  0.42790352067E+03  0.42790352067E+03  0.00000000000E+00 0. -1.
         -2   -1    0    0    0  501 -0.00000000000E+00 -0.00000000000E+00 -0.31928851126E+02  0.31928851126E+02  0.00000000000E+00 0.  1.
          5    1    1    2  502    0  0.30811415509E+02  0.60230937777E+02  0.15760143030E+03  0.17155988000E+03  0.41800000000E+01 0.  1.
         -5    1    1    2    0  502 -0.37558912511E+01 -0.39624816989E+02  0.11752689582E+02  0.41711280883E+02  0.41800000000E+01 0.  1.
        -11    1    1    2    0    0 -0.57948548091E+02 -0.28813912129E+02  0.14011464546E+03  0.15433855523E+03  0.00000000000E+00 0.  1.
         11    1    1    2    0    0  0.30893023834E+02  0.82077913405E+01  0.86505904200E+02  0.92222655686E+02  0.00000000000E+00 0. -1.
</event>
<event>
 6    1  0.5317355E-006  0.1012531E+03  0.7561462E-02  0.1277683E+00
          1   -1    0    0  501    0  0.00000000000E+00  0.00000000000E+00  0.50878361819E+03  0.50878361819E+03  0.00000000000E+00 0. -1.
         -1   -1    0    0    0  501 -0.00000000000E+00 -0.00000000000E+00 -0.27238370704E+02  0.27238370704E+02  0.00000000000E+00 0.  1.
          5    1    1    2  502    0  0.39566514295E+02 -0.21930029712E+02  0.31295534697E+02  0.55166277277E+02  0.41800000000E+01 0.  1.
         -5    1    1    2    0  502 -0.13484267697E+02  0.58629285645E+02  0.23309309846E+03  0.24076769626E+03  0.41800000000E+01 0.  1.
        -11    1    1    2    0    0  0.31674038094E+02 -0.10699534554E+02  0.41075554120E+02  0.52961550913E+02  0.00000000000E+00 0.  1.
         11    1    1    2    0    0 -0.57756284691E+02 -0.25999721379E+02  0.17608106021E+03  0.18712646445E+03  0.00000000000E+00 0. -1.
</event>
<event>
 6    1  0.5317355E-006  0.6386907E+02  0.7561462E-02  0.1382277E+00
          1   -1    0    0  501    0  0.00000000000E+00  0.00000000000E+00  0.18717044246E+03  0.18717044246E+03  0.00000000000E+00 0. -1.
         -1   -1    0    0    0  501 -0.00000000000E+00 -0.00000000000E+00 -0.96499742939E+02  0.96499742939E+02  0.00000000000E+00 0.  1.
          5    1    1    2  502    0 -0.28713862526E+01 -0.37915376327E+02 -0.72904497450E+02  0.82330788709E+02  0.41800000000E+01 0. -1.
         -5    1    1    2    0  502  0.64011940259E+00  0.24492075139E+02  0.40575652039E+02  0.47582848127E+02  0.41800000000E+01 0. -1.
        -11    1    1    2    0    0 -0.28428559352E+02  0.17975393557E+02  0.78912854339E+01  0.34548084551E+02  0.00000000000E+00 0.  1.
         11    1    1    2    0    0  0.30659826202E+02 -0.45520923688E+01  0.11510825950E+03  0.11920846401E+03  0.00000000000E+00 0. -1.
</event>
<event>
 6    1  0.5317355E-006  0.1422276E+03  0.7561462E-02  0.1210363E+00
         -1   -1    0    0    0  501 -0.00000000000E+00  0.00000000000E+00  0.35691556449E+02  0.35691556449E+02  0.00000000000E+00 0.  1.
          1   -1    0    0  501    0  0.00000000000E+00 -0.00000000000E+00 -0.82102380651E+03  0.82102380651E+03  0.00000000000E+00 0. -1.
          5    1    1    2  502    0  0.23436931461E+02 -0.64991158288E+01 -0.15781385453E+03  0.15973169173E+03  0.41800000000E+01 0. -1.
         -5    1    1    2    0  502  0.34797157677E+02  0.11380867964E+03 -0.12426703865E+03  0.17211341330E+03  0.41800000000E+01 0. -1.
        -11    1    1    2    0    0  0.20977595151E+01 -0.69419544844E+02 -0.16196971520E+03  0.17623184288E+03  0.00000000000E+00 0.  1.
         11    1    1    2    0    0 -0.60331848653E+02 -0.37890018963E+02 -0.34128164169E+03  0.34863841505E+03  0.00000000000E+00 0. -1.
</event>
<event>
 6    1  0.5317355E-006  0.9948666E+02  0.7561462E-02  0.1281379E+00
          2   -1    0    0  501    0  0.00000000000E+00  0.00000000000E+00  0.18206696770E+03  0.18206696770E+03  0.00000000000E+00 0. -1.
         -2   -1    0    0    0  501 -0.00000000000E+00 -0.00000000000E+00 -0.73952592875E+02  0.73952592875E+02  0.00000000000E+00 0.  1.
          5    1    1    2  502    0  0.66306072128E+02 -0.12936271010E+02  0.26361549302E+02  0.72637772476E+02  0.41800000000E+01 0. -1.
         -5    1    1    2    0  502 -0.43451704764E+02  0.46544439550E+02  0.27823855594E+02  0.69613754675E+02  0.41800000000E+01 0. -1.
        -11    1    1    2    0    0 -0.15035332595E+02  0.13207371784E+02  0.62420790018E+02  0.65550369352E+02  0.00000000000E+00 0. -1.
         11    1    1    2    0    0 -0.78190347694E+01 -0.46815540325E+02 -0.84918200844E+01  0.48217664076E+02  0.00000000000E+00 0.  1.
</event>
<event>
 6    1  0.5317355E-006  0.1072718E+03  0.7561462E-02  0.1265707E+00
          1   -1    0    0  501    0  0.00000000000E+00  0.00000000000E+00  0.15041679882E+03  0.15041679882E+03  0.00000000000E+00 0. -1.
         -1   -1    0    0    0  501 -0.00000000000E+00 -0.00000000000E+00 -0.89890421258E+02  0.89890421258E+02  0.00000000000E+00 0.  1.
          5    1    1    2  502    0 -0.72546841411E+01 -0.45545452540E+02 -0.23719769031E+02  0.52029977244E+02  0.41800000000E+01 0. -1.
         -5    1    1    2    0  502  0.11317458984E+01  0.72400980126E+02  0.34722827422E+02  0.80413493371E+02  0.41800000000E+01 0.  1.
        -11    1    1    2    0    0  0.27973348993E+02 -0.54025765708E+02  0.34043743950E+02  0.69715623187E+02  0.00000000000E+00 0. -1.
         11    1    1    2    0    0 -0.21850410750E+02  0.27170238123E+02  0.15479575225E+02  0.38148126281E+02  0.00000000000E+00 0.  1.
</event>
<event>
 6    1  0.5317355E-006  0.1911265E+03  0.7561462E-02  0.1157449E+00
         -3   -1    0    0    0  501 -0.00000000000E+00  0.00000000000E+00  0.95412271622E+02  0.95412271622E+02  0.00000000000E+00 0.  1.
          3   -1    0    0  501    0  0.00000000000E+00 -0.00000000000E+00 -0.57090497219E+03  0.57090497219E+03  0.00000000000E+00 0. -1.
          5    1    1    2  502    0  0.16131504604E+02  0.17915666828E+03 -0.51245229686E+02  0.18708522976E+03  0.41800000000E+01 0. -1.
         -5    1    1    2    0  502 -0.24836604824E+02 -0.59685167802E+01 -0.35044880419E+02  0.43567145595E+02  0.41800000000E+01 0. -1.
        -11    1    1    2    0    0 -0.83204481088E+01 -0.12599138761E+03 -0.17581391492E+03  0.21645690631E+03  0.00000000000E+00 0.  1.
         11    1    1    2    0    0  0.17025548330E+02 -0.47196763893E+02 -0.21338867555E+03  0.21920796215E+03  0.00000000000E+00 0. -1.
</event>
<event>
 6    1  0.5317355E-006  0.1079788E+03  0.7561462E-02  0.1264359E+00
         -1   -1    0    0    0  501 -0.00000000000E+00  0.00000000000E+00  0.49499257196E+03  0.49499257196E+03  0.00000000000E+00 0.  1.
          1   -1    0    0  501    0  0.00000000000E+00 -0.00000000000E+00 -0.43860590882E+02  0.43860590882E+02  0.00000000000E+00 0. -1.
          5    1    1    2  502    0 -0.40303228384E+02 -0.41053111620E+02  0.31182036186E+02  0.65570572459E+02  0.41800000000E+01 0. -1.
         -5    1    1    2    0  502  0.86682280814E+01 -0.47029922513E+02  0.26475663927E+03  0.26907341419E+03  0.41800000000E+01 0. -1.
        -11    1    1    2    0    0 -0.14536191687E+02  0.52793440514E+01  0.84614311016E+02  0.86016009970E+02  0.00000000000E+00 0.  1.
         11    1    1    2    0    0  0.46171191990E+02  0.82803690082E+02  0.70578994609E+02  0.11819316622E+03  0.00000000000E+00 0. -1.
</event>
<event>
 6    1  0.5317355E-006  0.1424786E+03  0.7561462E-02  0.1210032E+00
          1   -1    0    0  501    0  0.00000000000E+00  0.00000000000E+00  0.61108816870E+03  0.61108816870E+03  0.00000000000E+00 0. -1.
         -1   -1    0    0    0  501 -0.00000000000E+00 -0.00000000000E+00 -0.48633932738E+02  0.48633932738E+02  0.00000000000E+00 0.  1.
          5    1    1    2  502    0 -0.59328292606E+02 -0.35769437432E+02  0.18503039227E+02  0.71827110609E+02  0.41800000000E+01 0. -1.
         -5    1    1    2    0  502 -0.57603044844E+02 -0.17609976179E+02  0.21087179800E+03  0.21934586759E+03  0.41800000000E+01 0. -1.
        -11    1    1    2    0    0  0.66245402396E+02  0.75002428135E+02  0.18141564378E+03  0.20718458768E+03  0.00000000000E+00 0. -1.
         11    1    1    2    0    0  0.50685935054E+02 -0.21623014524E+02  0.15166375495E+03  0.16136453556E+03  0.00000000000E+00 0.  1.
</event>
<event>
 6    1  0.5317355E-006  0.1763161E+03  0.7561462E-02  0.1171417E+00
          2   -1    0    0  501    0  0.00000000000E+00  0.00000000000E+00  0.99844533488E+03  0.99844533488E+03  0.00000000000E+00 0. -1.
         -2   -1    0    0    0  501 -0.00000000000E+00 -0.00000000000E+00 -0.32161810970E+02  0.32161810970E+02  0.00000000000E+00 0.  1.
          5    1    1    2  502    0  0.22978253636E+02  0.31097431985E+02  0.10191626204E+03  0.10908458775E+03  0.41800000000E+01 0. -1.
         -5    1    1    2    0  502 -0.14132601982E+03  0.42160227690E+02  0.48480926185E+03  0.50676229285E+03  0.41800000000E+01 0. -1.
        -11    1    1    2    0    0  0.54943128408E+02 -0.85494084255E+02  0.25383888400E+03  0.27342670833E+03  0.00000000000E+00 0.  1.
         11    1    1    2    0    0  0.63404637774E+02  0.12236424579E+02  0.12571911602E+03  0.14133355691E+03  0.00000000000E+00 0. -1.
</event>
<event>
 6    1  0.5317355E-006  0.1933663E+03  0.7561462E-02  0.1155460E+00
         -2   -1    0    0    0  501 -0.00000000000E+00  0.00000000000E+00  0.23851200806E+03  0.23851200806E+03  0.00000000000E+00 0. -1.
          2   -1    0    0  501    0  0.00000000000E+00 -0.00000000000E+00 -0.30240455672E+03  0.30240455672E+03  0.00000000000E+00 0.  1.
          5    1    1    2  502    0 -0.14298224914E+02 -0.37094199010E+01 -0.19951276221E+02  0.25173892320E+02  0.41800000000E+01 0. -1.
         -5    1    1    2    0  502 -0.10703948435E+03  0.14795950973E+03  0.14567171456E+03  0.23363901334E+03  0.41800000000E+01 0. -1.
        -11    1    1    2    0    0  0.38950582889E+02 -0.39876927815E+02 -0.11931329662E+03  0.13169274859E+03  0.00000000000E+00 0.  1.
         11    1    1    2    0    0  0.82387126377E+02 -0.10437316201E+03 -0.70299690374E+02  0.15041091054E+03  0.00000000000E+00 0. -1.
</event>
<event>
 6    1  0.5317355E-006  0.1376968E+03  0.7561462E-02  0.1216462E+00
         -2   -1    0    0    0  501 -0.00000000000E+00  0.00000000000E+00  0.28583316407E+02  0.28583316407E+02  0.00000000000E+00 0.  1.
          2   -1    0    0  501    0  0.00000000000E+00 -0.00000000000E+00 -0.67675091833E+03  0.67675091833E+03  0.00000000000E+00 0. -1.
          5    1    1    2  502    0 -0.55999729858E+02  0.97724754784E+02 -0.28133322489E+03  0.30307087170E+03  0.41800000000E+01 0. -1.
         -5    1    1    2    0  502  0.35326435818E+02 -0.13853141638E+02 -0.69489719188E+02  0.79285308057E+02  0.41800000000E+01 0. -1.
        -11    1    1    2    0    0  0.44977777505E+02 -0.91043335968E+01 -0.85878587066E+02  0.97370534947E+02  0.00000000000E+00 0.  1.
         11    1    1    2    0    0 -0.24304483465E+02 -0.74767279549E+02 -0.21146607078E+03  0.22560752004E+03  0.00000000000E+00 0. -1.
</event>
<event>
 6    1  0.5317355E-006  0.1307514E+03  0.7561462E-02  0.1226345E+00
          2   -1    0    0  501    0  0.00000000000E+00  0.00000000000E+00  0.70394336113E+03  0.70394336113E+03  0.00000000000E+00 0. -1.
         -2   -1    0    0    0  501 -0.00000000000E+00 -0.00000000000E+00 -0.29122876342E+02  0.29122876342E+02  0.00000000000E+00 0.  1.
          5    1    1    2  502    0  0.92137314433E+02  0.72075507876E+01  0.16510236254E+03  0.18925510830E+03  0.41800000000E+01 0. -1.
         -5    1    1    2    0  502 -0.20444406519E+02 -0.55815135296E+02  0.11265143548E+03  0.12744065836E+03  0.41800000000E+01 0. -1.
        -11    1    1    2    0    0 -0.57762862058E+02 -0.11052749291E+01  0.10563839380E+03  0.12040448543E+03  0.00000000000E+00 0.  1.
         11    1    1    2    0    0 -0.13930045856E+02  0.49712859438E+02  0.29142829296E+03  0.29596598539E+03  0.00000000000E+00 0. -1.
</event>
<event>
 6    1  0.5317355E-006  0.9994808E+02  0.7561462E-02  0.1280405E+00
         -1   -1    0    0    0  501 -0.00000000000E+00  0.00000000000E+00  0.86048162925E+03  0.86048162925E+03  0.00000000000E+00 0.  1.
          1   -1    0    0  501    0  0.00000000000E+00 -0.00000000000E+00 -0.16105180243E+02  0.16105180243E+02  0.00000000000E+00 0. -1.
          5    1    1    2  502    0  0.21879576268E+02  0.14814540721E+02  0.31083311374E+03  0.31198218455E+03  0.41800000000E+01 0.  1.
         -5    1    1    2    0  502 -0.56600845549E+02 -0.43713888091E+02  0.12948285309E+03  0.14797919236E+03  0.41800000000E+01 0.  1.
        -11    1    1    2    0    0  0.27968715584E+02 -0.30697417058E+02  0.15949982704E+03  0.16481739984E+03  0.00000000000E+00 0. -1.
         11    1    1    2    0    0  0.67525536971E+01  0.59596764428E+02  0.24456065514E+03  0.25180803275E+03  0.00000000000E+00 0.  1.
</event>
<event>
 6    1  0.5317355E-006  0.1444201E+03  0.7561462E-02  0.1207502E+00
         -1   -1    0    0    0  501 -0.00000000000E+00  0.00000000000E+00  0.28655845548E+02  0.28655845548E+02  0.00000000000E+00 0.  1.
          1   -1    0    0  501    0  0.00000000000E+00 -0.00000000000E+00 -0.10989688813E+04  0.10989688813E+04  0.00000000000E+00 0. -1.
          5    1    1    2  502    0 -0.46106722629E+02 -0.91748031013E+02 -0.33916041378E+03  0.35438790857E+03  0.41800000000E+01 0. -1.
         -5    1    1    2    0  502  0.21438526282E+02 -0.34502442801E+02 -0.16640113696E+02  0.44095291724E+02  0.41800000000E+01 0. -1.
        -11    1    1    2    0    0 -0.22932871125E+02  0.29076155472E+02 -0.17144068829E+03  0.17539455235E+03  0.00000000000E+00 0.  1.
         11    1    1    2    0    0  0.47601067472E+02  0.97174318342E+02 -0.54307182003E+03  0.55374697424E+03  0.00000000000E+00 0. -1.
</event>
<event>
 6    1  0.6682197E-006  0.1390663E+03  0.7561462E-02  0.1214591E+00
          1   -1    0    0  501    0  0.00000000000E+00  0.00000000000E+00  0.33189715174E+03  0.33189715174E+03  0.00000000000E+00 0. -1.
         -1   -1    0    0    0  501 -0.00000000000E+00 -0.00000000000E+00 -0.64763004899E+02  0.64763004899E+02  0.00000000000E+00 0.  1.
          5    1    1    2  502    0 -0.33313066887E+02 -0.77747935918E+01  0.10581395827E+02  0.36050605799E+02  0.41800000000E+01 0.  1.
         -5    1    1    2    0  502  0.70503611673E+02  0.96623172426E+02  0.11073105460E+03  0.16305102134E+03  0.41800000000E+01 0.  1.
        -11    1    1    2    0    0 -0.18372392896E+02  0.11640794256E+02  0.30585362023E+01  0.21963778258E+02  0.00000000000E+00 0.  1.
         11    1    1    2    0    0 -0.18818151890E+02 -0.10048917309E+03  0.14276316021E+03  0.17559475124E+03  0.00000000000E+00 0. -1.
</event>
<event>
 6    1  0.5317355E-006  0.9440583E+02  0.7561462E-02  0.1292520E+00
          2   -1    0    0  501    0  0.00000000000E+00  0.00000000000E+00  0.20573322444E+03  0.20573322444E+03  0.00000000000E+00 0. -1.
         -2   -1    0    0    0  501 -0.00000000000E+00 -0.00000000000E+00 -0.73730233827E+02  0.73730233827E+02  0.00000000000E+00 0.  1.
          5    1    1    2  502    0  0.81847760436E+02 -0.91345534426E+01  0.34077948795E+01  0.82532305317E+02  0.41800000000E+01 0.  1.
         -5    1    1    2    0  502 -0.45698459683E+02  0.23920458242E+01  0.19192534327E+02  0.49798562977E+02  0.41800000000E+01 0.  1.
        -11    1    1    2    0    0  0.11244389945E+02 -0.37569815261E+01 -0.11704081683E+02  0.16659434068E+02  0.00000000000E+00 0.  1.
         11    1    1    2    0    0 -0.47393690698E+02  0.10499489145E+02  0.12110674309E+03  0.13047315591E+03  0.00000000000E+00 0. -1.
</event>
<event>
 6    1  0.5317355E-006  0.1289216E+03  0.7561462E-02  0.1229065E+00
          1   -1    0    0  501    0  0.00000000000E+00  0.00000000000E+00  0.91177720518E+02  0.91177720518E+02  0.00000000000E+00 0. -1.
         -1   -1    0    0    0  501 -0.00000000000E+00 -0.00000000000E+00 -0.24915371831E+03  0.24915371831E+03  0.00000000000E+00 0.  1.
          5    1    1    2  502    0 -0.86311085490E+02  0.49677380446E+02 -0.36472213247E+02  0.10613736545E+03  0.41800000000E+01 0. -1.
         -5    1    1    2    0  502  0.23670961495E+02  0.21511955989E+02 -0.89479342028E+02  0.95116264216E+02  0.41800000000E+01 0. -1.
        -11    1    1    2    0    0  0.62221638248E+02 -0.80149152547E+01 -0.41465022891E+02  0.75200526967E+02  0.00000000000E+00 0.  1.
         11    1    1    2    0    0  0.41848574726E+00 -0.63174421180E+02  0.94405803773E+01  0.63877282187E+02  0.00000000000E+00 0. -1.
</event>
<event>
 6    1  0.5317355E-006  0.1362286E+03  0.7561462E-02  0.1218496E+00
         -2   -1    0    0    0  501 -0.00000000000E+00  0.00000000000E+00  0.15763023149E+03  0.15763023149E+03  0.00000000000E+00 0. -1.
          2   -1    0    0  501    0  0.00000000000E+00 -0.00000000000E+00 -0.15018855702E+03  0.15018855702E+03  0.00000000000E+00 0.  1.
          5    1    1    2  502    0 -0.34550977621E+02  0.64621655638E+02  0.52911909092E+02  0.90481329322E+02  0.41800000000E+01 0.  1.
         -5    1    1    2    0  502  0.37755430112E+02  0.41180206138E+02 -0.47535951867E+02  0.73473947767E+02  0.41800000000E+01 0.  1.
        -11    1    1    2    0    0 -0.28027543518E+02 -0.11360746985E+03 -0.42345233440E+01  0.11709027111E+03  0.00000000000E+00 0.  1.
         11    1    1    2    0    0  0.24823091026E+02  0.78056080724E+01  0.63002405892E+01  0.26773240315E+02  0.00000000000E+00 0. -1.
</event>
<event>
 6    1  0.5317355E-006  0.1162829E+03  0.7561462E-02  0.1249358E+00
          2   -1    0    0  501    0  0.00000000000E+00  0.00000000000E+00  0.17048973037E+02  0.17048973037E+02  0.00000000000E+00 0. -1.
         -2   -1    0    0    0  501 -0.00000000000E+00 -0.00000000000E+00 -0.10798098910E+04  0.10798098910E+04  0.00000000000E+00 0.  1.
          5    1    1    2  502    0 -0.18872781872E+02 -0.46500326913E+02 -0.30799896300E+03  0.31208860266E+03  0.41800000000E+01 0.  1.
         -5    1    1    2    0  502 -0.10767304857E+02  0.82156548627E+02 -0.54647187407E+03  0.55273376492E+03  0.41800000000E+01 0.  1.
        -11    1    1    2    0    0  0.39222864560E+02  0.19120096198E+02 -0.12007004486E+03  0.12775299157E+03  0.00000000000E+00 0.  1.
         11    1    1    2    0    0 -0.95827778310E+01 -0.54776317911E+02 -0.88220036071E+02  0.10428350492E+03  0.00000000000E+00 0. -1.
</event>
<event>
 6    1  0.5317355E-006  0.1307896E+03  0.7561462E-02  0.1226289E+00
          1   -1    0    0  501    0  0.00000000000E+00  0.00000000000E+00  0.23387660657E+03  0.23387660657E+03  0.00000000000E+00 0. -1.
         -1   -1    0    0    0  501 -0.00000000000E+00 -0.00000000000E+00 -0.16973807199E+03  0.16973807199E+03  0.00000000000E+00 0.  1.
          5    1    1    2  502    0 -0.91204333479E+02  0.34490597516E+02 -0.32411427313E+02  0.10283873192E+03  0.41800000000E+01 0. -1.
         -5    1    1    2    0  502 -0.39964690954E+01 -0.33319595566E+02 -0.76353032263E+02  0.83507036528E+02  0.41800000000E+01 0.  1.
        -11    1    1    2    0    0  0.11140039227E+03 -0.97616436262E+01  0.15836744839E+03  0.19387002294E+03  0.00000000000E+00 0. -1.
         11    1    1    2    0    0 -0.16199589693E+02  0.85906416753E+01  0.14535545757E+02  0.23398887176E+02  0.00000000000E+00 0.  1.
</event>
<event>
 6    1  0.5317355E-006  0.1831011E+03  0.7561462E-02  0.1164835E+00
          2   -1    0    0  501    0  0.00000000000E+00  0.00000000000E+00  0.16968042635E+03  0.16968042635E+03  0.00000000000E+00 0. -1.
         -2   -1    0    0    0  501 -0.00000000000E+00 -0.00000000000E+00 -0.27837509311E+03  0.27837509311E+03  0.00000000000E+00 0.  1.
          5    1    1    2  502    0  0.67879928808E+02 -0.38015568354E+01 -0.10827812042E+03  0.12792091436E+03  0.41800000000E+01 0. -1.
         -5    1    1    2    0  502  0.11491858888E+03  0.39708198060E+01  0.77615320282E+01  0.11532459954E+03  0.41800000000E+01 0. -1.
        -11    1    1    2    0    0 -0.68549750760E+02 -0.44642276249E+01 -0.47934006455E+02  0.83765545616E+02  0.00000000000E+00 0.  1.
         11    1    1    2    0    0 -0.11424876693E+03  0.42949646543E+01  0.39755928093E+02  0.12104445995E+03  0.00000000000E+00 0. -1.
</event>
<event>
 6    1  0.5317355E-006  0.1008248E+03  0.7561462E-02  0.1278571E+00
          3   -1    0    0  501    0  0.00000000000E+00  0.00000000000E+00  0.54698233957E+02  0.54698233957E+02  0.00000000000E+00 0. -1.
         -3   -1    0    0    0  501 -0.00000000000E+00 -0.00000000000E+00 -0.34484182189E+03  0.34484182189E+03  0.00000000000E+00 0.  1.
          5    1    1    2  502    0 -0.41699167837E+02  0.18398186912E+02 -0.52836986560E+02  0.69903744025E+02  0.41800000000E+01 0. -1.
         -5    1    1    2    0  502  0.62734644162E+02 -0.32699871950E+02 -0.22407176007E+03  0.23501179389E+03  0.41800000000E+01 0. -1.
        -11    1    1    2    0    0  0.21895687487E+02 -0.20310890315E+02 -0.24150420472E+02  0.38408283024E+02  0.00000000000E+00 0.  1.
         11    1    1    2    0    0 -0.42931163812E+02  0.34612575353E+02  0.10915579172E+02  0.56216234910E+02  0.00000000000E+00 0. -1.
</event>
<event>
 6    1  0.5317355E-006  0.9988939E+02  0.7561462E-02  0.1280529E+00
         -2   -1    0    0    0  501 -0.00000000000E+00  0.00000000000E+00  0.37187328739E+02  0.37187328739E+02  0.00000000000E+00 0.  1.
          2   -1    0    0  501    0  0.00000000000E+00 -0.00000000000E+00 -0.46505079819E+03  0.46505079819E+03  0.00000000000E+00 0. -1.
          5    1    1    2  502    0 -0.52640314880E+02 -0.27379278836E+02 -0.90184657798E+02  0.10803412684E+03  0.41800000000E+01 0.  1.
         -5    1    1    2    0  502  0.64000488301E+02 -0.29499999424E+02 -0.37736217341E+02  0.80048778678E+02  0.41800000000E+01 0.  1.
        -11    1    1    2    0    0  0.14435081719E+02  0.18673280825E+02 -0.21513713378E+02  0.31935918091E+02  0.00000000000E+00 0.  1.
         11    1    1    2    0    0 -0.25795255140E+02  0.38205997435E+02 -0.27842888093E+03  0.28221930332E+03  0.00000000000E+00 0. -1.
</event>
<event>
 6    1  0.5317355E-006  0.3515707E+03  0.7561462E-02  0.1061972E+00
          1   -1    0    0  501    0  0.00000000000E+00  0.00000000000E+00  0.24982895634E+03  0.24982895634E+03  0.00000000000E+00 0. -1.
         -1   -1    0    0    0  501 -0.00000000000E+00 -0.00000000000E+00 -0.52342846355E+03  0.52342846355E+03  0.00000000000E+00 0.  1.
          5    1    1    2  502    0  0.11404397394E+03 -0.56192531705E+02 -0.59249778960E+01  0.12734286935E+03  0.41800000000E+01 0.  1.
         -5    1    1    2    0  502  0.22863315148E+03  0.41382064081E+02 -0.98440014557E+02  0.25237571605E+03  0.41800000000E+01 0.  1.
        -11    1    1    2    0    0 -0.16266157175E+03 -0.27145395096E+01 -0.13053148716E+03  0.20857762293E+03  0.00000000000E+00 0.  1.
         11    1    1    2    0    0 -0.18001555367E+03  0.17525007133E+02 -0.38703027595E+02  0.18496121157E+03  0.00000000000E+00 0. -1.
</event>
<event>
 6    1  0.5317355E-006  0.2014210E+03  0.7561462E-02  0.1148546E+00
          1   -1    0    0  501    0  0.00000000000E+00  0.00000000000E+00  0.50229441317E+02  0.50229441317E+02  0.00000000000E+00 0. -1.
         -1   -1    0    0    0  501 -0.00000000000E+00 -0.00000000000E+00 -0.89605357813E+03  0.89605357813E+03  0.00000000000E+00 0.  1.
          5    1    1    2  502    0  0.13640340592E+03 -0.27120681874E+02 -0.39194022549E+03  0.41590387506E+03  0.41800000000E+01 0.  1.
         -5    1    1    2    0  502  0.32141853654E+02  0.65649931517E+02 -0.16471053067E+03  0.18024994752E+03  0.41800000000E+01 0.  1.
        -11    1    1    2    0    0 -0.35788821102E+02  0.24660508908E+02 -0.11049294127E+03  0.11873361144E+03  0.00000000000E+00 0.  1.
         11    1    1    2    0    0 -0.13275643847E+03 -0.63189758551E+02 -0.17868043938E+03  0.23139558543E+03  0.00000000000E+00 0. -1.
</event>
<event>
 6    1  0.5317355E-006  0.2025349E+03  0.7561462E-02  0.1147618E+00
          2   -1    0    0  501    0  0.00000000000E+00  0.00000000000E+00  0.64016104885E+03  0.64016104885E+03  0.00000000000E+00 0. -1.
         -2   -1    0    0    0  501 -0.00000000000E+00 -0.00000000000E+00 -0.95289065270E+02  0.95289065270E+02  0.00000000000E+00 0.  1.
          5    1    1    2  502    0 -0.25692523465E+02 -0.85129326282E+02  0.76710071592E+02  0.11751176724E+03  0.41800000000E+01 0.  1.
         -5    1    1    2    0  502  0.82062357713E+02 -0.86775306656E+02  0.13695198424E+02  0.12028805119E+03  0.41800000000E+01 0.  1.
        -11    1    1    2    0    0 -0.75604831976E+02  0.12896328852E+03  0.28569911777E+03  0.32244628436E+03  0.00000000000E+00 0.  1.
         11    1    1    2    0    0  0.19234997729E+02  0.42941344420E+02  0.16876759580E+03  0.17520401134E+03  0.00000000000E+00 0. -1.
</event>
<event>
 6    1  0.5317355E-006  0.2535160E+03  0.7561462E-02  0.1111103E+00
          2   -1    0    0  501    0  0.00000000000E+00  0.00000000000E+00  0.32905922880E+03  0.32905922880E+03  0.00000000000E+00 0. -1.
         -2   -1    0    0    0  501 -0.00000000000E+00 -0.00000000000E+00 -0.22621996157E+03  0.22621996157E+03  0.00000000000E+00 0.  1.
          5    1    1    2  502    0  0.55930945020E+02 -0.16367286929E+02  0.13688204106E+02  0.60008316290E+02  0.41800000000E+01 0.  1.
         -5    1    1    2    0  502  0.38412549417E+02 -0.19541549153E+03 -0.54982840448E+02  0.20664782463E+03  0.41800000000E+01 0.  1.
        -11    1    1    2    0    0 -0.69519761605E+02  0.49758941783E+02  0.59402300026E+02  0.10410371170E+03  0.00000000000E+00 0.  1.
         11    1    1    2    0    0 -0.24823732832E+02  0.16202383667E+03  0.84731603547E+02  0.18451933774E+03  0.00000000000E+00 0. -1.
</event>
<event>
 6    1  0.5317355E-006  0.1220951E+03  0.7561462E-02  0.1239680E+00
         -2   -1    0    0    0  501 -0.00000000000E+00  0.00000000000E+00  0.34103222616E+02  0.34103222616E+02  0.00000000000E+00 0.  1.
          2   -1    0    0  501    0  0.00000000000E+00 -0.00000000000E+00 -0.47594901893E+03  0.47594901893E+03  0.00000000000E+00 0. -1.
          5    1    1    2  502    0 -0.10606895014E+02  0.61494957920E+02 -0.15658751598E+03  0.16861571289E+03  0.41800000000E+01 0.  1.
         -5    1    1    2    0  502  0.22561667673E+02 -0.48475167361E+02 -0.48765457931E+02  0.72487329832E+02  0.41800000000E+01 0.  1.
        -11    1    1    2    0    0 -0.62212891893E+02 -0.36942381133E+02 -0.13791426105E+03  0.15574185963E+03  0.00000000000E+00 0. -1.
         11    1    1    2    0    0  0.50258119234E+02  0.23922590575E+02 -0.98578561356E+02  0.11320733920E+03  0.00000000000E+00 0.  1.
</event>
<event>
 6    1  0.5317355E-006  0.2640576E+03  0.7561462E-02  0.1104730E+00
          1   -1    0    0  501    0  0.00000000000E+00  0.00000000000E+00  0.40474861345E+03  0.40474861345E+03  0.00000000000E+00 0. -1.
         -1   -1    0    0    0  501 -0.00000000000E+00 -0.00000000000E+00 -0.20359777139E+03  0.20359777139E+03  0.00000000000E+00 0.  1.
          5    1    1    2  502    0 -0.58478294108E+02  0.35041551833E+02  0.44458312752E+02  0.81496228191E+02  0.41800000000E+01 0.  1.
         -5    1    1    2    0  502 -0.60093491109E+02  0.18574510034E+03 -0.36792562694E+02  0.19870489436E+03  0.41800000000E+01 0.  1.
        -11    1    1    2    0    0  0.12865142855E+03 -0.17235513963E+03  0.16485714005E+03  0.27098959546E+03  0.00000000000E+00 0.  1.
         11    1    1    2    0    0 -0.10079643334E+02 -0.48431512542E+02  0.28627951963E+02  0.57155666827E+02  0.00000000000E+00 0. -1.
</event>
<event>
 6    1  0.5317355E-006  0.1585616E+03  0.7561462E-02  0.1190330E+00
         -1   -1    0    0    0  501 -0.00000000000E+00  0.00000000000E+00  0.76654653775E+02  0.76654653775E+02  0.00000000000E+00 0.  1.
          1   -1    0    0  501    0  0.00000000000E+00 -0.00000000000E+00 -0.42149418116E+03  0.42149418116E+03  0.00000000000E+00 0. -1.
          5    1    1    2  502    0 -0.90067260905E+02  0.32538563381E+02 -0.28325061941E+02  0.99953244708E+02  0.41800000000E+01 0. -1.
         -5    1    1    2    0  502  0.17405305000E+02  0.76473281719E+02 -0.74899635473E+02  0.10852896043E+03  0.41800000000E+01 0. -1.
        -11    1    1    2    0    0  0.45996585878E+02 -0.20631781295E+02 -0.15532888755E+03  0.16330468340E+03  0.00000000000E+00 0. -1.
         11    1    1    2    0    0  0.26665370026E+02 -0.88380063806E+02 -0.86285942419E+02  0.12636194639E+03  0.00000000000E+00 0.  1.
</event>
<event>
 6    1  0.5317355E-006  0.1205121E+03  0.7561462E-02  0.1242255E+00
          2   -1    0    0  501    0  0.00000000000E+00  0.00000000000E+00  0.29694398543E+03  0.29694398543E+03  0.00000000000E+00 0. -1.
         -2   -1    0    0    0  501 -0.00000000000E+00 -0.00000000000E+00 -0.85233490957E+02  0.85233490957E+02  0.00000000000E+00 0.  1.
          5    1    1    2  502    0 -0.41368674218E+02  0.60063575569E+02  0.16327930301E+00  0.73051347536E+02  0.41800000000E+01 0. -1.
         -5    1    1    2    0  502 -0.30020696532E+02 -0.52114584917E+02 -0.95553358640E+01  0.61040552298E+02  0.41800000000E+01 0.  1.
        -11    1    1    2    0    0  0.12386837520E+02  0.33408775465E+02  0.11032658054E+03  0.11593763149E+03  0.00000000000E+00 0. -1.
         11    1    1    2    0    0  0.59002533231E+02 -0.41357766117E+02  0.11077597050E+03  0.13214794507E+03  0.00000000000E+00 0.  1.
</event>
<event>
 6    1  0.5317355E-006  0.1731056E+03  0.7561462E-02  0.1174647E+00
          1   -1    0    0  501    0  0.00000000000E+00  0.00000000000E+00  0.14852009341E+03  0.14852009341E+03  0.00000000000E+00 0. -1.
         -1   -1    0    0    0  501 -0.00000000000E+00 -0.00000000000E+00 -0.25878686730E+03  0.25878686730E+03  0.00000000000E+00 0.  1.
          5    1    1    2  502    0  0.62091050974E+02  0.30582067530E+02 -0.49160810017E+02  0.84998935917E+02  0.41800000000E+01 0. -1.
         -5    1    1    2    0  502  0.65108195458E+02 -0.10559874525E+03 -0.79844978389E+02  0.14759019306E+03  0.41800000000E+01 0. -1.
        -11    1    1    2    0    0 -0.42488105907E+02  0.47375258881E+02 -0.32994632684E+02  0.71681936941E+02  0.00000000000E+00 0.  1.
         11    1    1    2    0    0 -0.84711140525E+02  0.27641418835E+02  0.51733647201E+02  0.10303589480E+03  0.00000000000E+00 0. -1.
</event>
<event>
 6    1  0.5317355E-006  0.1030104E+03  0.7561462E-02  0.1274090E+00
         -2   -1    0    0    0  501 -0.00000000000E+00  0.00000000000E+00  0.22874042772E+03  0.22874042772E+03  0.00000000000E+00 0.  1.
          2   -1    0    0  501    0  0.00000000000E+00 -0.00000000000E+00 -0.26256226116E+03  0.26256226116E+03  0.00000000000E+00 0. -1.
          5    1    1    2  502    0 -0.42770323584E+01 -0.98743857850E+01 -0.14534114675E+02  0.18560964140E+02  0.41800000000E+01 0. -1.
         -5    1    1    2    0  502 -0.93322066304E+02  0.95939803731E+01  0.19707041377E+03  0.21830087700E+03  0.41800000000E+01 0.  1.
        -11    1    1    2    0    0  0.87303019128E+02  0.80463221750E+01 -0.22322877740E+03  0.23982837095E+03  0.00000000000E+00 0. -1.
         11    1    1    2    0    0  0.10296079535E+02 -0.77659167631E+01  0.68706448699E+01  0.14612476789E+02  0.00000000000E+00 0.  1.
</event>
<event>
 6    1  0.5317355E-006  0.1134148E+03  0.7561462E-02  0.1254374E+00
         -2   -1    0    0    0  501 -0.00000000000E+00  0.00000000000E+00  0.78448636899E+02  0.78448636899E+02  0.00000000000E+00 0.  1.
          2   -1    0    0  501    0  0.00000000000E+00 -0.00000000000E+00 -0.22658522083E+03  0.22658522083E+03  0.00000000000E+00 0. -1.
          5    1    1    2  502    0  0.41960725822E+02 -0.42029970464E+01 -0.50642808812E+02  0.66034340915E+02  0.41800000000E+01 0. -1.
         -5    1    1    2    0  502 -0.75614053191E+02 -0.63507218810E+02 -0.44667638170E+02  0.10845885017E+03  0.41800000000E+01 0. -1.
        -11    1    1    2    0    0  0.31909046015E+02  0.19539825188E+02  0.20595560001E+02  0.42710292410E+02  0.00000000000E+00 0.  1.
         11    1    1    2    0    0  0.17442813546E+01  0.48170390668E+02 -0.73421696949E+02  0.87830374231E+02  0.00000000000E+00 0. -1.
</event>
<event>
 6    1  0.5317355E-006  0.9330737E+02  0.7561462E-02  0.1295034E+00
          1   -1    0    0  501    0  0.00000000000E+00  0.00000000000E+00  0.11924604120E+03  0.11924604120E+03  0.00000000000E+00 0. -1.
         -1   -1    0    0    0  501 -0.00000000000E+00 -0.00000000000E+00 -0.36876049921E+03  0.36876049921E+03  0.00000000000E+00 0.  1.
          5    1    1    2  502    0  0.73480046287E+01 -0.40996273325E+02 -0.18955313834E+03  0.19411994296E+03  0.41800000000E+01 0. -1.
         -5    1    1    2    0  502 -0.49653387367E+02  0.63779516689E+02 -0.14129434757E+03  0.16283381308E+03  0.41800000000E+01 0. -1.
        -11    1    1    2    0    0  0.36741100487E+02  0.35428024929E+01 -0.79887466389E+01  0.37766122218E+02  0.00000000000E+00 0.  1.
         11    1    1    2    0    0  0.55642822515E+01 -0.26326045857E+02  0.89321774543E+02  0.93286662149E+02  0.00000000000E+00 0. -1.
</event>
<event>
 6    1  0.5317355E-006  0.1205170E+03  0.7561462E-02  0.1242247E+00
          1   -1    0    0  501    0  0.00000000000E+00  0.00000000000E+00  0.22712497529E+03  0.22712497529E+03  0.00000000000E+00 0. -1.
         -1   -1    0    0    0  501 -0.00000000000E+00 -0.00000000000E+00 -0.72961744810E+02  0.72961744810E+02  0.00000000000E+00 0.  1.
          5    1    1    2  502    0 -0.42521732731E+02 -0.44687023903E+01  0.21398975958E+02  0.47994329118E+02  0.41800000000E+01 0. -1.
         -5    1    1    2    0  502  0.78659426642E+02  0.53660665042E+02  0.22223675381E+02  0.97867954509E+02  0.41800000000E+01 0. -1.
        -11    1    1    2    0    0  0.37432898884E+01 -0.61043564104E+02  0.42512392226E+02  0.74482430348E+02  0.00000000000E+00 0.  1.
         11    1    1    2    0    0 -0.39880983799E+02  0.11851601453E+02  0.68028186912E+02  0.79742006122E+02  0.00000000000E+00 0. -1.
</event>
<event>
 6    1  0.5317355E-006  0.1034836E+03  0.7561462E-02  0.1273136E+00
          2   -1    0    0  501    0  0.00000000000E+00  0.00000000000E+00  0.20442110099E+03  0.20442110099E+03  0.00000000000E+00 0. -1.
         -2   -1    0    0    0  501 -0.00000000000E+00 -0.00000000000E+00 -0.88067807763E+02  0.88067807763E+02  0.00000000000E+00 0.  1.
          5    1    1    2  502    0 -0.18507309725E+02  0.52025237309E+02  0.64363597226E+01  0.55749842662E+02  0.41800000000E+01 0.  1.
         -5    1    1    2    0  502  0.92590011929E+01 -0.66322290599E+02 -0.26218411236E+02  0.72036468689E+02  0.41800000000E+01 0.  1.
        -11    1    1    2    0    0  0.28547045604E+02 -0.26759638818E+02  0.97698640349E+02  0.10524274991E+03  0.00000000000E+00 0. -1.
         11    1    1    2    0    0 -0.19298737072E+02  0.41056692107E+02  0.38436704389E+02  0.59459847491E+02  0.00000000000E+00 0.  1.
</event>
<event>
 6    1  0.5317355E-006  0.1022601E+03  0.7561462E-02  0.1275614E+00
         -1   -1    0    0    0  501 -0.00000000000E+00  0.00000000000E+00  0.13120119890E+04  0.13120119890E+04  0.00000000000E+00 0.  1.
          1   -1    0    0  501    0  0.00000000000E+00 -0.00000000000E+00 -0.86331338331E+01  0.86331338331E+01  0.00000000000E+00 0. -1.
          5    1    1    2  502    0 -0.53516975839E+02 -0.88926496381E+01  0.24157460807E+03  0.24762655267E+03  0.41800000000E+01 0. -1.
         -5    1    1    2    0  502  0.53770732650E+02 -0.16873001292E+02  0.53124544033E+03  0.53424262291E+03  0.41800000000E+01 0.  1.
        -11    1    1    2    0    0 -0.43818704527E+01  0.59475276088E+02  0.35200581493E+03  0.35702185227E+03  0.00000000000E+00 0. -1.
         11    1    1    2    0    0  0.41281136414E+01 -0.33709625158E+02  0.17855299181E+03  0.18175409496E+03  0.00000000000E+00 0.  1.
</event>
<event>
 6    1  0.5317355E-006  0.1349511E+03  0.7561462E-02  0.1220289E+00
          2   -1    0    0  501    0  0.00000000000E+00  0.00000000000E+00  0.24421950623E+03  0.24421950623E+03  0.00000000000E+00 0. -1.
         -2   -1    0    0    0  501 -0.00000000000E+00 -0.00000000000E+00 -0.86636189561E+02  0.86636189561E+02  0.00000000000E+00 0.  1.
          5    1    1    2  502    0 -0.43061819624E+01 -0.39245950274E+02  0.25376985048E+02  0.47119545691E+02  0.41800000000E+01 0. -1.
         -5    1    1    2    0  502 -0.56556512287E+02  0.93496573112E+02  0.17093224460E+02  0.11067926178E+03  0.41800000000E+01 0.  1.
        -11    1    1    2    0    0  0.20503150206E+02 -0.73376119648E+02  0.10039977517E+03  0.12603391987E+03  0.00000000000E+00 0. -1.
         11    1    1    2    0    0  0.40359544043E+02  0.19125496810E+02  0.14713331987E+02  0.47022968449E+02  0.00000000000E+00 0.  1.
</event>
<event>
 6    1  0.5317355E-006  0.1379105E+03  0.7561462E-02  0.1216169E+00
          2   -1    0    0  501    0  0.00000000000E+00  0.00000000000E+00  0.88003411948E+03  0.88003411948E+03  0.00000000000E+00 0. -1.
         -2   -1    0    0    0  501 -0.00000000000E+00 -0.00000000000E+00 -0.27208964137E+02  0.27208964137E+02  0.00000000000E+00 0.  1.
          5    1    1    2  502    0 -0.82470498780E+02 -0.35572002214E+02  0.12735066941E+03  0.15589232152E+03  0.41800000000E+01 0.  1.
         -5    1    1    2    0  502 -0.31980904770E+01  0.59916103450E+02  0.14088450473E+03  0.15318643318E+03  0.41800000000E+01 0.  1.
        -11    1    1    2    0    0  0.60902816959E+02  0.28620887584E+02  0.34890650305E+03  0.35533653934E+03  0.00000000000E+00 0.  1.
         11    1    1    2    0    0  0.24765772298E+02 -0.52964988820E+02  0.23568347815E+03  0.24282778958E+03  0.00000000000E+00 0. -1.
</event>
<event>
 6    1  0.5317355E-006  0.1092290E+03  0.7561462E-02  0.1262004E+00
          2   -1    0    0  501    0  0.00000000000E+00  0.00000000000E+00  0.52877910985E+03  0.52877910985E+03  0.00000000000E+00 0. -1.
         -2   -1    0    0    0  501 -0.00000000000E+00 -0.00000000000E+00 -0.25563935416E+02  0.25563935416E+02  0.00000000000E+00 0.  1.
          5    1    1    2  502    0 -0.44454151278E+02 -0.39714308704E+02  0.14259544631E+03  0.15461025707E+03  0.41800000000E+01 0.  1.
         -5    1    1    2    0  502  0.15735576539E+02  0.68846487700E+02  0.12608994732E+03  0.14458075408E+03  0.41800000000E+01 0.  1.
        -11    1    1    2    0    0  0.38233266686E+02 -0.51214029836E+02  0.10134562552E+03  0.11981483775E+03  0.00000000000E+00 0.  1.
         11    1    1    2    0    0 -0.95146919463E+01  0.22081850840E+02  0.13318415529E+03  0.13533719636E+03  0.00000000000E+00 0. -1.
</event>
<event>
 6    1  0.5317355E-006  0.6264350E+02  0.7561462E-02  0.1387061E+00
          2   -1    0    0  501    0  0.00000000000E+00  0.00000000000E+00  0.61181276290E+03  0.61181276290E+03  0.00000000000E+00 0. -1.
         -2   -1    0    0    0  501 -0.00000000000E+00 -0.00000000000E+00 -0.19028680775E+02  0.19028680775E+02  0.00000000000E+00 0.  1.
          5    1    1    2  502    0  0.15416544672E+02  0.96507538138E+01 -0.26261240171E+01  0.18846109045E+02  0.41800000000E+01 0. -1.
         -5    1    1    2    0  502 -0.24515030255E+02 -0.12371888392E+02  0.33939039560E+03  0.34052512882E+03  0.41800000000E+01 0. -1.
        -11    1    1    2    0    0 -0.24943726578E+02  0.27210016282E+02  0.55790363937E+02  0.66896481147E+02  0.00000000000E+00 0.  1.
         11    1    1    2    0    0  0.34042212161E+02 -0.24488881703E+02  0.20022944661E+03  0.20457372467E+03  0.00000000000E+00 0. -1.
</event>
<event>
 6    1  0.5317355E-006  0.1975745E+03  0.7561462E-02  0.1151802E+00
          2   -1    0    0  501    0  0.00000000000E+00  0.00000000000E+00  0.12816315811E+04  0.12816315811E+04  0.00000000000E+00 0. -1.
         -2   -1    0    0    0  501 -0.00000000000E+00 -0.00000000000E+00 -0.34517967534E+02  0.34517967534E+02  0.00000000000E+00 0.  1.
          5    1    1    2  502    0  0.10520759308E+03 -0.75037687588E+02  0.22543070804E+03  0.25987644897E+03  0.41800000000E+01 0. -1.
         -5    1    1    2    0  502  0.63266339217E+02  0.21616809568E+02  0.32052402386E+03  0.32744929135E+03  0.41800000000E+01 0. -1.
        -11    1    1    2    0    0 -0.95575682627E+02  0.76480560223E+02  0.43774567039E+03  0.45453851228E+03  0.00000000000E+00 0.  1.
         11    1    1    2    0    0 -0.72898249671E+02 -0.23059682203E+02  0.26341321131E+03  0.27428529608E+03  0.00000000000E+00 0. -1.
</event>
<event>
 6    1  0.5317355E-006  0.1050993E+03  0.7561462E-02  0.1269924E+00
          2   -1    0    0  501    0  0.00000000000E+00  0.00000000000E+00  0.10928395904E+03  0.10928395904E+03  0.00000000000E+00 0. -1.
         -2   -1    0    0    0  501 -0.00000000000E+00 -0.00000000000E+00 -0.16816047229E+03  0.16816047229E+03  0.00000000000E+00 0.  1.
          5    1    1    2  502    0  0.29067005061E+02 -0.13296514740E+02 -0.99349291437E+00  0.32251318045E+02  0.41800000000E+01 0. -1.
         -5    1    1    2    0  502 -0.57316871045E+02  0.58593338916E+02 -0.10301433167E+03  0.13171115367E+03  0.41800000000E+01 0.  1.
        -11    1    1    2    0    0 -0.11083008278E+02 -0.54400148398E+02  0.37119759189E+01  0.55641602991E+02  0.00000000000E+00 0.  1.
         11    1    1    2    0    0  0.39332874261E+02  0.91033242211E+01  0.41419335410E+02  0.57840356632E+02  0.00000000000E+00 0. -1.
</event>
<event>
 6    1  0.5317355E-006  0.8892201E+02  0.7561462E-02  0.1305483E+00
         -1   -1    0    0    0  501 -0.00000000000E+00  0.00000000000E+00  0.44370668671E+02  0.44370668671E+02  0.00000000000E+00 0.  1.
          1   -1    0    0  501    0  0.00000000000E+00 -0.00000000000E+00 -0.39187266332E+03  0.39187266332E+03  0.00000000000E+00 0. -1.
          5    1    1    2  502    0 -0.42471018934E+02 -0.14283983582E+02  0.82276274924E+01  0.45749162729E+02  0.41800000000E+01 0.  1.
         -5    1    1    2    0  502  0.27543368164E+02 -0.42366398855E+02 -0.12578954942E+03  0.13562459963E+03  0.41800000000E+01 0.  1.
        -11    1    1    2    0    0  0.34480982697E+02  0.18177673548E+02 -0.27062342150E+02  0.47452464066E+02  0.00000000000E+00 0.  1.
         11    1    1    2    0    0 -0.19553331927E+02  0.38472708890E+02 -0.20287773057E+03  0.20741710556E+03  0.00000000000E+00 0. -1.
</event>
<event>
 6    1  0.5317355E-006  0.1273125E+03  0.7561462E-02  0.1231499E+00
          1   -1    0    0  501    0  0.00000000000E+00  0.00000000000E+00  0.70710089504E+03  0.70710089504E+03  0.00000000000E+00 0. -1.
         -1   -1    0    0    0  501 -0.00000000000E+00 -0.00000000000E+00 -0.28422237200E+02  0.28422237200E+02  0.00000000000E+00 0.  1.
          5    1    1    2  502    0 -0.41558563665E+02 -0.37540090673E+02  0.77564056019E+02  0.95760262154E+02  0.41800000000E+01 0. -1.
         -5    1    1    2    0  502  0.59213083471E+02 -0.48539697647E+02  0.35025586799E+03  0.35855116366E+03  0.41800000000E+01 0. -1.
        -11    1    1    2    0    0  0.30177982053E+02  0.60345207609E+02  0.97919600105E+02  0.11891384598E+03  0.00000000000E+00 0.  1.
         11    1    1    2    0    0 -0.47832501860E+02  0.25734580710E+02  0.15293913373E+03  0.16229786045E+03  0.00000000000E+00 0. -1.
</event>
<event>
 6    1  0.5317355E-006  0.1239983E+03  0.7561462E-02  0.1236643E+00
          2   -1    0    0  501    0  0.00000000000E+00  0.00000000000E+00  0.19377115977E+03  0.19377115977E+03  0.00000000000E+00 0. -1.
         -2   -1    0    0    0  501 -0.00000000000E+00 -0.00000000000E+00 -0.14620145550E+03  0.14620145550E+03  0.00000000000E+00 0.  1.
          5    1    1    2  502    0  0.15310657975E+02  0.87137344028E+02 -0.79764235207E+02  0.11919370197E+03  0.41800000000E+01 0. -1.
         -5    1    1    2    0  502  0.33029356509E+02 -0.33216013171E+02 -0.24512424794E+01  0.47092705508E+02  0.41800000000E+01 0. -1.
        -11    1    1    2    0    0 -0.36809498230E+02 -0.77695480500E+02  0.80568858289E+02  0.11782558201E+03  0.00000000000E+00 0.  1.
         11    1    1    2    0    0 -0.11530516255E+02  0.23774149643E+02  0.49216323673E+02  0.55860625777E+02  0.00000000000E+00 0. -1.
</event>
<event>
 6    1  0.5317355E-006  0.1170419E+03  0.7561462E-02  0.1248058E+00
          2   -1    0    0  501    0  0.00000000000E+00  0.00000000000E+00  0.21752420106E+03  0.21752420106E+03  0.00000000000E+00 0. -1.
         -2   -1    0    0    0  501 -0.00000000000E+00 -0.00000000000E+00 -0.81672763529E+02  0.81672763529E+02  0.00000000000E+00 0.  1.
          5    1    1    2  502    0 -0.64912232783E+02  0.51511094811E+01 -0.15592033748E+02  0.67087374447E+02  0.41800000000E+01 0.  1.
         -5    1    1    2    0  502  0.45189988533E+02  0.44893933751E+02  0.27796368155E+02  0.69625504191E+02  0.41800000000E+01 0.  1.
        -11    1    1    2    0    0 -0.33827197080E+02 -0.34298769968E+01  0.46984370947E+02  0.57996331193E+02  0.00000000000E+00 0.  1.
         11    1    1    2    0    0  0.53549441331E+02 -0.46615166235E+02  0.76662732181E+02  0.10448775476E+03  0.00000000000E+00 0. -1.
</event>
<event>
 6    1  0.5317355E-006  0.7001678E+02  0.7561462E-02  0.1360036E+00
         -2   -1    0    0    0  501 -0.00000000000E+00  0.00000000000E+00  0.51521766311E+03  0.51521766311E+03  0.00000000000E+00 0.  1.
          2   -1    0    0  501    0  0.00000000000E+00 -0.00000000000E+00 -0.42449898222E+02  0.42449898222E+02  0.00000000000E+00 0. -1.
          5    1    1    2  502    0 -0.56572913675E+02 -0.13313101862E+02  0.89508537325E+02  0.10680348261E+03  0.41800000000E+01 0. -1.
         -5    1    1    2    0  502  0.30767486718E+02 -0.85863315104E+01  0.34813950474E+03  0.34962687324E+03  0.41800000000E+01 0. -1.
        -11    1    1    2    0    0  0.23628452642E+02 -0.36491264873E+01  0.60565066005E+02  0.65113340558E+02  0.00000000000E+00 0.  1.
         11    1    1    2    0    0  0.21769743156E+01  0.25548559859E+02 -0.25445343181E+02  0.36123864933E+02  0.00000000000E+00 0. -1.
</event>
<event>
 6    1  0.5317355E-006  0.2311114E+03  0.7561462E-02  0.1125860E+00
          4   -1    0    0  501    0  0.00000000000E+00  0.00000000000E+00  0.53177426889E+03  0.53177426889E+03  0.00000000000E+00 0. -1.
         -4   -1    0    0    0  501 -0.00000000000E+00 -0.00000000000E+00 -0.13977266957E+03  0.13977266957E+03  0.00000000000E+00 0.  1.
          5    1    1    2  502    0  0.21141525280E+02 -0.90619003484E+01 -0.21377311896E+02  0.31678762491E+02  0.41800000000E+01 0.  1.
         -5    1    1    2    0  502  0.11528137458E+03  0.17850726608E+03  0.71307178239E+02  0.22418034133E+03  0.41800000000E+01 0.  1.
        -11    1    1    2    0    0 -0.12353393014E+03 -0.10977648183E+03  0.18997312847E+03  0.25179614254E+03  0.00000000000E+00 0.  1.
         11    1    1    2    0    0 -0.12888969721E+02 -0.59668883905E+02  0.15209860451E+03  0.16389169210E+03  0.00000000000E+00 0. -1.
</event>
<event>
 6    1  0.5317355E-006  0.8704537E+02  0.7561462E-02  0.1310169E+00
          3   -1    0    0  501    0  0.00000000000E+00  0.00000000000E+00  0.20085175317E+03  0.20085175317E+03  0.00000000000E+00 0. -1.
         -3   -1    0    0    0  501 -0.00000000000E+00 -0.00000000000E+00 -0.71964284281E+02  0.71964284281E+02  0.00000000000E+00 0.  1.
          5    1    1    2  502    0 -0.32951037677E+02  0.33005254324E+02  0.25625006487E+02  0.53378188939E+02  0.41800000000E+01 0.  1.
         -5    1    1    2    0  502  0.76268190122E+02 -0.33312671248E+02  0.11587480083E+02  0.84132710552E+02  0.41800000000E+01 0.  1.
        -11    1    1    2    0    0 -0.26461648622E+02 -0.33915363912E+01  0.10818311562E+03  0.11142400043E+03  0.00000000000E+00 0. -1.
         11    1    1    2    0    0 -0.16855503823E+02  0.36989533151E+01 -0.16508133298E+02  0.23881137530E+02  0.00000000000E+00 0.  1.
</event>
<event>
 6    1  0.5317355E-006  0.1048032E+03  0.7561462E-02  0.1270508E+00
         -1   -1    0    0    0  501 -0.00000000000E+00  0.00000000000E+00  0.88298953875E+02  0.88298953875E+02  0.00000000000E+00 0.  1.
          1   -1    0    0  501    0  0.00000000000E+00 -0.00000000000E+00 -0.17811957601E+03  0.17811957601E+03  0.00000000000E+00 0. -1.
          5    1    1    2  502    0 -0.49314944895E+02  0.71183186496E+01 -0.11755581984E+02  0.51364388035E+02  0.41800000000E+01 0. -1.
         -5    1    1    2    0  502  0.62598995352E+02 -0.52579742527E+02  0.95299247417E+01  0.82410893751E+02  0.41800000000E+01 0. -1.
        -11    1    1    2    0    0  0.14569557776E+02  0.47630886905E+02 -0.91749557702E+02  0.10439805908E+03  0.00000000000E+00 0. -1.
         11    1    1    2    0    0 -0.27853608233E+02 -0.21694630273E+01  0.41545928085E+01  0.28245189021E+02  0.00000000000E+00 0.  1.
</event>
<event>
 6    1  0.5317355E-006  0.9870218E+02  0.7561462E-02  0.1283049E+00
          1   -1    0    0  501    0  0.00000000000E+00  0.00000000000E+00  0.31426964506E+03  0.31426964506E+03  0.00000000000E+00 0. -1.
         -1   -1    0    0    0  501 -0.00000000000E+00 -0.00000000000E+00 -0.45487819522E+02  0.45487819522E+02  0.00000000000E+00 0.  1.
          5    1    1    2  502    0 -0.70338769280E+02  0.48928694303E+01  0.19086510486E+02  0.73165906798E+02  0.41800000000E+01 0.  1.
         -5    1    1    2    0  502  0.24633364427E+02 -0.97583606976E+01  0.10692511121E+03  0.11023828760E+03  0.41800000000E+01 0.  1.
        -11    1    1    2    0    0  0.56514364446E+02 -0.29621734985E+02  0.67665297204E+02  0.93004908569E+02  0.00000000000E+00 0.  1.
         11    1    1    2    0    0 -0.10808959593E+02  0.34487226252E+02  0.75104906643E+02  0.83348361615E+02  0.00000000000E+00 0. -1.
</event>
<event>
 6    1  0.5317355E-006  0.1170001E+03  0.7561462E-02  0.1248130E+00
         -2   -1    0    0    0  501 -0.00000000000E+00  0.00000000000E+00  0.14249068114E+03  0.14249068114E+03  0.00000000000E+00 0.  1.
          2   -1    0    0  501    0  0.00000000000E+00 -0.00000000000E+00 -0.16431638377E+03  0.16431638377E+03  0.00000000000E+00 0. -1.
          5    1    1    2  502    0  0.37197374317E+02 -0.34729596708E+01  0.60494774893E+02  0.71223565583E+02  0.41800000000E+01 0.  1.
         -5    1    1    2    0  502 -0.32523053603E+02  0.78230880110E+02 -0.45535817959E+01  0.84947201988E+02  0.41800000000E+01 0.  1.
        -11    1    1    2    0    0  0.72584178885E+01 -0.91077439397E+02 -0.25896472068E+02  0.94965319264E+02  0.00000000000E+00 0.  1.
         11    1    1    2    0    0 -0.11932738603E+02  0.16319518958E+02 -0.51870423653E+02  0.55670978072E+02  0.00000000000E+00 0. -1.
</event>
<event>
 6    1  0.5317355E-006  0.1399965E+03  0.7561462E-02  0.1213334E+00
          4   -1    0    0  501    0  0.00000000000E+00  0.00000000000E+00  0.41531249568E+03  0.41531249568E+03  0.00000000000E+00 0. -1.
         -4   -1    0    0    0  501 -0.00000000000E+00 -0.00000000000E+00 -0.67229891438E+02  0.67229891438E+02  0.00000000000E+00 0.  1.
          5    1    1    2  502    0  0.53162507344E+02  0.70431535207E+02  0.39167051533E+02  0.96635312720E+02  0.41800000000E+01 0.  1.
         -5    1    1    2    0  502 -0.42544877819E+02  0.45000966340E+02  0.12754975029E+03  0.14185050158E+03  0.41800000000E+01 0.  1.
        -11    1    1    2    0    0  0.23361319332E+02 -0.33107768826E+02  0.14020649652E+03  0.14594429507E+03  0.00000000000E+00 0. -1.
         11    1    1    2    0    0 -0.33978948857E+02 -0.82324732721E+02  0.41159305906E+02  0.98112277752E+02  0.00000000000E+00 0.  1.
</event>
<event>
 6    1  0.5317355E-006  0.1455881E+03  0.7561462E-02  0.1206002E+00
         -2   -1    0    0    0  501 -0.00000000000E+00  0.00000000000E+00  0.67208282328E+02  0.67208282328E+02  0.00000000000E+00 0.  1.
          2   -1    0    0  501    0  0.00000000000E+00 -0.00000000000E+00 -0.53559986155E+03  0.53559986155E+03  0.00000000000E+00 0. -1.
          5    1    1    2  502    0  0.16286059253E+02  0.27658588900E+02 -0.41875038515E+02  0.52926595550E+02  0.41800000000E+01 0. -1.
         -5    1    1    2    0  502  0.94824385126E+02 -0.87213413528E+02 -0.42548940343E+02  0.13574140208E+03  0.41800000000E+01 0.  1.
        -11    1    1    2    0    0 -0.45969578700E+02  0.42418863926E+02 -0.30021665735E+03  0.30666366517E+03  0.00000000000E+00 0.  1.
         11    1    1    2    0    0 -0.65140865679E+02  0.17135960702E+02 -0.83750943020E+02  0.10747648109E+03  0.00000000000E+00 0. -1.
</event>
<event>
 6    1  0.5317355E-006  0.2255465E+03  0.7561462E-02  0.1129814E+00
          2   -1    0    0  501    0  0.00000000000E+00  0.00000000000E+00  0.76240305418E+03  0.76240305418E+03  0.00000000000E+00 0. -1.
         -2   -1    0    0    0  501 -0.00000000000E+00 -0.00000000000E+00 -0.81105652608E+02  0.81105652608E+02  0.00000000000E+00 0.  1.
          5    1    1    2  502    0 -0.42780831514E+02  0.67661018874E+02  0.63646748185E+02  0.10235523423E+03  0.41800000000E+01 0. -1.
         -5    1    1    2    0  502 -0.15404716564E+03 -0.27336400671E+02  0.11978473696E+03  0.19708795918E+03  0.41800000000E+01 0. -1.
        -11    1    1    2    0    0  0.10606546374E+03 -0.59560638867E+02  0.33805990100E+03  0.35927962503E+03  0.00000000000E+00 0.  1.
         11    1    1    2    0    0  0.90762533423E+02  0.19236020664E+02  0.15980601542E+03  0.18478588834E+03  0.00000000000E+00 0. -1.
</event>
<event>
 6    1  0.5317355E-006  0.2811257E+03  0.7561462E-02  0.1095076E+00
          2   -1    0    0  501    0  0.00000000000E+00  0.00000000000E+00  0.41714515955E+03  0.41714515955E+03  0.00000000000E+00 0. -1.
         -2   -1    0    0    0  501 -0.00000000000E+00 -0.00000000000E+00 -0.27076091569E+03  0.27076091569E+03  0.00000000000E+00 0.  1.
          5    1    1    2  502    0 -0.12854010837E+03  0.35185495260E+02  0.19890706846E+02  0.13480983331E+03  0.41800000000E+01 0. -1.
         -5    1    1    2    0  502 -0.14066922894E+03  0.73863957764E+01 -0.10862045950E+03  0.17792770283E+03  0.41800000000E+01 0. -1.
        -11    1    1    2    0    0  0.33333551599E+02 -0.40044597256E+02  0.19644005045E+02  0.55682873182E+02  0.00000000000E+00 0. -1.
         11    1    1    2    0    0  0.23587578571E+03 -0.25272937809E+01  0.21546999147E+03  0.31948566591E+03  0.00000000000E+00 0.  1.
</event>
<event>
 6    1  0.5317355E-006  0.9511822E+02  0.7561462E-02  0.1290910E+00
          2   -1    0    0  501    0  0.00000000000E+00  0.00000000000E+00  0.34867974465E+03  0.34867974465E+03  0.00000000000E+00 0. -1.
         -2   -1    0    0    0  501 -0.00000000000E+00 -0.00000000000E+00 -0.35720416473E+02  0.35720416473E+02  0.00000000000E+00 0.  1.
          5    1    1    2  502    0  0.62817096160E+02  0.92563909130E+00  0.11819132824E+03  0.13391604403E+03  0.41800000000E+01 0. -1.
         -5    1    1    2    0  502 -0.59601575208E+02  0.19142340433E+02  0.87014435748E+02  0.10727423453E+03  0.41800000000E+01 0. -1.
        -11    1    1    2    0    0 -0.15982807759E+02 -0.38743972145E+02  0.11253596054E+03  0.12008700153E+03  0.00000000000E+00 0. -1.
         11    1    1    2    0    0  0.12767286807E+02  0.18675992621E+02 -0.47823963492E+01  0.23122881040E+02  0.00000000000E+00 0.  1.
</event>
<event>
 6    1  0.5317355E-006  0.1064686E+03  0.7561462E-02  0.1267253E+00
          1   -1    0    0  501    0  0.00000000000E+00  0.00000000000E+00  0.31372953819E+03  0.31372953819E+03  0.00000000000E+00 0. -1.
         -1   -1    0    0    0  501 -0.00000000000E+00 -0.00000000000E+00 -0.84515101855E+02  0.84515101855E+02  0.00000000000E+00 0.  1.
          5    1    1    2  502    0  0.77826782639E+02 -0.18133086580E+02 -0.43769891906E+02  0.91209060747E+02  0.41800000000E+01 0. -1.
         -5    1    1    2    0  502 -0.65964647397E+01  0.21624941642E+02  0.47573322930E+02  0.52837911604E+02  0.41800000000E+01 0. -1.
        -11    1    1    2    0    0 -0.52390890025E+02  0.37756104663E+02  0.17425578138E+03  0.18583704190E+03  0.00000000000E+00 0. -1.
         11    1    1    2    0    0 -0.18839427874E+02 -0.41247959725E+02  0.51155223936E+02  0.68360625802E+02  0.00000000000E+00 0.  1.
</event>
<event>
 6    1  0.5317355E-006  0.4748329E+03  0.7561462E-02  0.1020565E+00
          1   -1    0    0  501    0  0.00000000000E+00  0.00000000000E+00  0.76256783907E+03  0.76256783907E+03  0.00000000000E+00 0. -1.
         -1   -1    0    0    0  501 -0.00000000000E+00 -0.00000000000E+00 -0.29734627991E+03  0.29734627991E+03  0.00000000000E+00 0.  1.
          5    1    1    2  502    0 -0.35310686561E+03  0.14947980752E+03  0.22498114332E+03  0.44459268847E+03  0.41800000000E+01 0. -1.
         -5    1    1    2    0  502  0.40969243290E+03 -0.16691178720E+03  0.18018089731E+03  0.47769243498E+03  0.41800000000E+01 0.  1.
        -11    1    1    2    0    0  0.80013244228E+01 -0.37905321717E+02  0.20450471291E+02  0.43807035771E+02  0.00000000000E+00 0.  1.
         11    1    1    2    0    0 -0.64586891719E+02  0.55337301398E+02  0.39609047244E+02  0.93821959751E+02  0.00000000000E+00 0. -1.
</event>
<event>
 6    1  0.5317355E-006  0.1208669E+03  0.7561462E-02  0.1241674E+00
         -1   -1    0    0    0  501 -0.00000000000E+00  0.00000000000E+00  0.42642401385E+02  0.42642401385E+02  0.00000000000E+00 0.  1.
          1   -1    0    0  501    0  0.00000000000E+00 -0.00000000000E+00 -0.43790000575E+03  0.43790000575E+03  0.00000000000E+00 0. -1.
          5    1    1    2  502    0  0.97127896251E+02 -0.59026944286E+02 -0.17449975241E+03  0.20829220910E+03  0.41800000000E+01 0.  1.
         -5    1    1    2    0  502 -0.20044292012E+02  0.29683960566E+02 -0.58592982681E+02  0.68800589944E+02  0.41800000000E+01 0.  1.
        -11    1    1    2    0    0 -0.24717855742E+02 -0.97694738514E+01 -0.12595641184E+03  0.12873007689E+03  0.00000000000E+00 0. -1.
         11    1    1    2    0    0 -0.52365748497E+02  0.39112457571E+02 -0.36208457432E+02  0.74719531199E+02  0.00000000000E+00 0.  1.
</event>
<event>
 6    1  0.5317355E-006  0.1018314E+03  0.7561462E-02  0.1276491E+00
         -2   -1    0    0    0  501 -0.00000000000E+00  0.00000000000E+00  0.11054625589E+03  0.11054625589E+03  0.00000000000E+00 0.  1.
          2   -1    0    0  501    0  0.00000000000E+00 -0.00000000000E+00 -0.13835863068E+03  0.13835863068E+03  0.00000000000E+00 0. -1.
          5    1    1    2  502    0 -0.34947957880E+02 -0.66957614454E+02 -0.39784895074E+02  0.85469246922E+02  0.41800000000E+01 0.  1.
         -5    1    1    2    0  502  0.51765943351E+02  0.11668787992E+02  0.13255600226E+02  0.54854870719E+02  0.41800000000E+01 0.  1.
        -11    1    1    2    0    0  0.16476084783E+02  0.23917640920E+02 -0.39461293386E+02  0.48997026365E+02  0.00000000000E+00 0. -1.
         11    1    1    2    0    0 -0.33294070255E+02  0.31371185542E+02  0.38178213439E+02  0.59583742563E+02  0.00000000000E+00 0.  1.
</event>
<event>
 6    1  0.5317355E-006  0.6685241E+02  0.7561462E-02  0.1371136E+00
          1   -1    0    0  501    0  0.00000000000E+00  0.00000000000E+00  0.13990743038E+03  0.13990743038E+03  0.00000000000E+00 0. -1.
         -1   -1    0    0    0  501 -0.00000000000E+00 -0.00000000000E+00 -0.80970188726E+02  0.80970188726E+02  0.00000000000E+00 0.  1.
          5    1    1    2  502    0  0.35045192328E-01  0.21654303690E+02 -0.31374257974E+02  0.38350052932E+02  0.41800000000E+01 0.  1.
         -5    1    1    2    0  502  0.17168457121E+01 -0.62194827786E+02  0.80971362236E+02  0.10220067546E+03  0.41800000000E+01 0.  1.
        -11    1    1    2    0    0  0.12380805628E+02  0.11070675909E+02  0.35021942802E+02  0.38760555862E+02  0.00000000000E+00 0. -1.
         11    1    1    2    0    0 -0.14132696532E+02  0.29469848187E+02 -0.25681805413E+02  0.41566334848E+02  0.00000000000E+00 0.  1.
</event>
<event>
 6    1  0.5317355E-006  0.1126529E+03  0.7561462E-02  0.1255735E+00
          1   -1    0    0  501    0  0.00000000000E+00  0.00000000000E+00  0.28035458503E+03  0.28035458503E+03  0.00000000000E+00 0. -1.
         -1   -1    0    0    0  501 -0.00000000000E+00 -0.00000000000E+00 -0.55416408958E+02  0.55416408958E+02  0.00000000000E+00 0.  1.
          5    1    1    2  502    0  0.36491612458E+02 -0.32614074621E+02  0.10099259028E+02  0.50147612866E+02  0.41800000000E+01 0. -1.
         -5    1    1    2    0  502 -0.36394859966E+02  0.70162662439E+02  0.50018302886E+02  0.93630593590E+02  0.41800000000E+01 0. -1.
        -11    1    1    2    0    0  0.34022111578E+02 -0.50202587287E+02  0.11821683121E+03  0.13286467939E+03  0.00000000000E+00 0.  1.
         11    1    1    2    0    0 -0.34118864071E+02  0.12653999469E+02  0.46603782941E+02  0.59128108142E+02  0.00000000000E+00 0. -1.
</event>
<event>
 6    1  0.5317355E-006  0.2764508E+03  0.7561462E-02  0.1097643E+00
          2   -1    0    0  501    0  0.00000000000E+00  0.00000000000E+00  0.39094238576E+03  0.39094238576E+03  0.00000000000E+00 0. -1.
         -2   -1    0    0    0  501 -0.00000000000E+00 -0.00000000000E+00 -0.21664802800E+03  0.21664802800E+03  0.00000000000E+00 0.  1.
          5    1    1    2  502    0 -0.12907865596E+03 -0.16868794453E+02  0.42560503482E+02  0.13702089077E+03  0.41800000000E+01 0. -1.
         -5    1    1    2    0  502 -0.94360381268E+02 -0.11630688070E+03 -0.26073458487E+02  0.15208047110E+03  0.41800000000E+01 0. -1.
        -11    1    1    2    0    0  0.88617388740E+02  0.82045483290E+01  0.27470245459E+02  0.93139522148E+02  0.00000000000E+00 0.  1.
         11    1    1    2    0    0  0.13482164849E+03  0.12497112682E+03  0.13033706730E+03  0.22534952974E+03  0.00000000000E+00 0. -1.
</event>
<event>
 6    1  0.5317355E-006  0.1350346E+03  0.7561462E-02  0.1220171E+00
         -2   -1    0    0    0  501 -0.00000000000E+00  0.00000000000E+00  0.57359178537E+02  0.57359178537E+02  0.00000000000E+00 0. -1.
          2   -1    0    0  501    0  0.00000000000E+00 -0.00000000000E+00 -0.31978801852E+03  0.31978801852E+03  0.00000000000E+00 0.  1.
          5    1    1    2  502    0 -0.36614257108E+02 -0.63141926622E+02 -0.79853273757E+02  0.10826598935E+03  0.41800000000E+01 0.  1.
         -5    1    1    2    0  502  0.74055264636E+02 -0.70339798302E+01 -0.62414356249E+02  0.97194050016E+02  0.41800000000E+01 0.  1.
        -11    1    1    2    0    0 -0.26952336115E+02  0.93271877237E+02 -0.91456072700E+02  0.13338022619E+03  0.00000000000E+00 0. -1.
         11    1    1    2    0    0 -0.10488671413E+02 -0.23095970785E+02 -0.28705137280E+02  0.38306931497E+02  0.00000000000E+00 0.  1.
</event>
<event>
 6    1  0.5317355E-006  0.9118848E+02  0.7561462E-02  0.1299999E+00
          2   -1    0    0  501    0  0.00000000000E+00  0.00000000000E+00  0.17393336818E+03  0.17393336818E+03  0.00000000000E+00 0. -1.
         -2   -1    0    0    0  501 -0.00000000000E+00 -0.00000000000E+00 -0.88349300816E+02  0.88349300816E+02  0.00000000000E+00 0.  1.
          5    1    1    2  502    0  0.54037629106E+02 -0.12402381722E+02  0.36913459549E+02  0.66737997630E+02  0.41800000000E+01 0. -1.
         -5    1    1    2    0  502 -0.32095918543E+02  0.62619370346E+02 -0.13641158885E+02  0.71797542753E+02  0.41800000000E+01 0. -1.
        -11    1    1    2    0    0 -0.11139856365E+02 -0.11176981567E+02  0.78540622520E+02  0.80110240934E+02  0.00000000000E+00 0. -1.
         11    1    1    2    0    0 -0.10801854199E+02 -0.39040007057E+02 -0.16228855819E+02  0.43636887679E+02  0.00000000000E+00 0.  1.
</event>
<event>
 6    1  0.5317355E-006  0.8053499E+02  0.7561462E-02  0.1327540E+00
          1   -1    0    0  501    0  0.00000000000E+00  0.00000000000E+00  0.39035852470E+02  0.39035852470E+02  0.00000000000E+00 0.  1.
         -1   -1    0    0    0  501 -0.00000000000E+00 -0.00000000000E+00 -0.33255066570E+03  0.33255066570E+03  0.00000000000E+00 0. -1.
          5    1    1    2  502    0 -0.36020210086E+02 -0.44194686577E+02 -0.22445518628E+02  0.61415792454E+02  0.41800000000E+01 0. -1.
         -5    1    1    2    0  502  0.40491019553E+02  0.82276110775E+01 -0.14433399594E+03  0.15018984996E+03  0.41800000000E+01 0. -1.
        -11    1    1    2    0    0 -0.23569851535E+02  0.23202689973E+01  0.36617419619E+01  0.23965181071E+02  0.00000000000E+00 0.  1.
         11    1    1    2    0    0  0.19099042068E+02  0.33646806502E+02 -0.13039704063E+03  0.13601569468E+03  0.00000000000E+00 0. -1.
</event>
<event>
 6    1  0.5317355E-006  0.1379020E+03  0.7561462E-02  0.1216180E+00
          1   -1    0    0  501    0  0.00000000000E+00  0.00000000000E+00  0.65794834015E+03  0.65794834015E+03  0.00000000000E+00 0. -1.
         -1   -1    0    0    0  501 -0.00000000000E+00 -0.00000000000E+00 -0.38214516846E+02  0.38214516846E+02  0.00000000000E+00 0.  1.
          5    1    1    2  502    0  0.26109326014E+02  0.27110682459E+02  0.18912093993E+03  0.19287531809E+03  0.41800000000E+01 0.  1.
         -5    1    1    2    0  502  0.84986515216E+02 -0.44519808223E+02  0.82466899948E+02  0.12658192240E+03  0.41800000000E+01 0.  1.
        -11    1    1    2    0    0 -0.77268461425E+02  0.52300148468E+02  0.19782984463E+03  0.21872898319E+03  0.00000000000E+00 0. -1.
         11    1    1    2    0    0 -0.33827379805E+02 -0.34891022703E+02  0.15031613880E+03  0.15797663332E+03  0.00000000000E+00 0.  1.
</event>
<event>
 6    1  0.5317355E-006  0.1067660E+03  0.7561462E-02  0.1266679E+00
         -1   -1    0    0    0  501 -0.00000000000E+00  0.00000000000E+00  0.11963183370E+03  0.11963183370E+03  0.00000000000E+00 0.  1.
          1   -1    0    0  501    0  0.00000000000E+00 -0.00000000000E+00 -0.14297438056E+03  0.14297438056E+03  0.00000000000E+00 0. -1.
          5    1    1    2  502    0 -0.16377792444E+02 -0.19485647203E+02 -0.49353447265E+02  0.55688039013E+02  0.41800000000E+01 0.  1.
         -5    1    1    2    0  502  0.85986914081E+02  0.30667095812E+01  0.26592300009E+02  0.90154184155E+02  0.41800000000E+01 0.  1.
        -11    1    1    2    0    0  0.98767308967E+01  0.19703124429E+02  0.24877100599E+02  0.33236020515E+02  0.00000000000E+00 0.  1.
         11    1    1    2    0    0 -0.79485852534E+02 -0.32841868073E+01 -0.25458500197E+02  0.83527970574E+02  0.00000000000E+00 0. -1.
</event>
<event>
 6    1  0.5317355E-006  0.8731279E+02  0.7561462E-02  0.1309493E+00
         -1   -1    0    0    0  501 -0.00000000000E+00  0.00000000000E+00  0.74536052963E+02  0.74536052963E+02  0.00000000000E+00 0.  1.
          1   -1    0    0  501    0  0.00000000000E+00 -0.00000000000E+00 -0.17171242906E+03  0.17171242906E+03  0.00000000000E+00 0. -1.
          5    1    1    2  502    0 -0.20384140560E+02 -0.40541254809E+02  0.30724654312E+02  0.54959833610E+02  0.41800000000E+01 0. -1.
         -5    1    1    2    0  502  0.30676051404E+02  0.12265288825E+02 -0.73389187652E+02  0.80590959195E+02  0.41800000000E+01 0. -1.
        -11    1    1    2    0    0  0.29426184974E+02 -0.18215798203E+02 -0.13914932212E+02  0.37300683704E+02  0.00000000000E+00 0. -1.
         11    1    1    2    0    0 -0.39718095818E+02  0.46491764187E+02 -0.40596910543E+02  0.73397005513E+02  0.00000000000E+00 0.  1.
</event>
<event>
 6    1  0.5317355E-006  0.7961000E+02  0.7561462E-02  0.1330162E+00
          1   -1    0    0  501    0  0.00000000000E+00  0.00000000000E+00  0.20121882249E+03  0.20121882249E+03  0.00000000000E+00 0. -1.
         -1   -1    0    0    0  501 -0.00000000000E+00 -0.00000000000E+00 -0.81922420418E+02  0.81922420418E+02  0.00000000000E+00 0.  1.
          5    1    1    2  502    0 -0.21998948721E+02 -0.13043086383E+02 -0.47420680630E+02  0.54039515159E+02  0.41800000000E+01 0. -1.
         -5    1    1    2    0  502  0.51551822768E+02 -0.16163866808E+02  0.36648779500E+02  0.65417631107E+02  0.41800000000E+01 0.  1.
        -11    1    1    2    0    0 -0.11409119471E+00 -0.20955062843E+02 -0.27018481038E+00  0.20957115149E+02  0.00000000000E+00 0.  1.
         11    1    1    2    0    0 -0.29438782852E+02  0.50162016034E+02  0.13033848801E+03  0.14272698149E+03  0.00000000000E+00 0. -1.
</event>
<event>
 6    1  0.5317355E-006  0.1944801E+03  0.7561462E-02  0.1154482E+00
         -2   -1    0    0    0  501 -0.00000000000E+00  0.00000000000E+00  0.21891832262E+04  0.21891832262E+04  0.00000000000E+00 0.  1.
          2   -1    0    0  501    0  0.00000000000E+00 -0.00000000000E+00 -0.22437361823E+02  0.22437361823E+02  0.00000000000E+00 0. -1.
          5    1    1    2  502    0  0.72523790185E+02 -0.26495167997E+02  0.19487353627E+03  0.20965414761E+03  0.41800000000E+01 0.  1.
         -5    1    1    2    0  502  0.11268683485E+03 -0.22775070834E+02  0.10311356306E+04  0.10375332225E+04  0.41800000000E+01 0.  1.
        -11    1    1    2    0    0 -0.14747827727E+03  0.56942260845E+02  0.86651743720E+03  0.88082048813E+03  0.00000000000E+00 0.  1.
         11    1    1    2    0    0 -0.37732347769E+02 -0.76720220149E+01  0.74219260308E+02  0.83612729836E+02  0.00000000000E+00 0. -1.
</event>
<event>
 6    1  0.6206782E-006  0.1328099E+03  0.7561462E-02  0.1223345E+00
         -2   -1    0    0    0  501 -0.00000000000E+00  0.00000000000E+00  0.20765483399E+02  0.20765483399E+02  0.00000000000E+00 0.  1.
          2   -1    0    0  501    0  0.00000000000E+00 -0.00000000000E+00 -0.99970594149E+03  0.99970594149E+03  0.00000000000E+00 0. -1.
          5    1    1    2  502    0  0.42217221190E+02  0.11513600343E+02 -0.82209824064E+02  0.93224376268E+02  0.41800000000E+01 0. -1.
         -5    1    1    2    0  502 -0.32107730917E+02 -0.10071766810E+03 -0.34686074678E+03  0.36263591261E+03  0.41800000000E+01 0. -1.
        -11    1    1    2    0    0  0.20738628781E+02 -0.76887293252E+00 -0.32428083430E+02  0.38500162132E+02  0.00000000000E+00 0.  1.
         11    1    1    2    0    0 -0.30848119053E+02  0.89972940690E+02 -0.51744180382E+03  0.52611097389E+03  0.00000000000E+00 0. -1.
</event>
<event>
 6    1  0.5317355E-006  0.1107568E+03  0.7561462E-02  0.1259175E+00
          2   -1    0    0  501    0  0.00000000000E+00  0.00000000000E+00  0.15456581303E+04  0.15456581303E+04  0.00000000000E+00 0. -1.
         -2   -1    0    0    0  501 -0.00000000000E+00 -0.00000000000E+00 -0.13138307818E+02  0.13138307818E+02  0.00000000000E+00 0.  1.
          5    1    1    2  502    0  0.73666113951E+01 -0.21747991159E+02  0.28831901147E+02  0.37094379718E+02  0.41800000000E+01 0.  1.
         -5    1    1    2    0  502  0.81682652229E+02  0.34705203217E+02  0.90672536687E+03  0.91106798326E+03  0.41800000000E+01 0.  1.
        -11    1    1    2    0    0 -0.95545465264E+02 -0.22141052687E+02  0.58834429076E+03  0.59646304715E+03  0.00000000000E+00 0. -1.
         11    1    1    2    0    0  0.64962016406E+01  0.91838406285E+01  0.86182636708E+01  0.14171027949E+02  0.00000000000E+00 0.  1.
</event>
<event>
 6    1  0.5317355E-006  0.1586698E+03  0.7561462E-02  0.1190207E+00
          1   -1    0    0  501    0  0.00000000000E+00  0.00000000000E+00  0.72407322980E+03  0.72407322980E+03  0.00000000000E+00 0. -1.
         -1   -1    0    0    0  501 -0.00000000000E+00 -0.00000000000E+00 -0.35192178905E+02  0.35192178905E+02  0.00000000000E+00 0.  1.
          5    1    1    2  502    0 -0.15855046489E+02 -0.24345146721E+02  0.71893791974E+02  0.77654738377E+02  0.41800000000E+01 0. -1.
         -5    1    1    2    0  502  0.12433475026E+03  0.66677560979E+02  0.28325683521E+03  0.31647580374E+03  0.41800000000E+01 0. -1.
        -11    1    1    2    0    0 -0.33381252718E+02 -0.60928688041E+02  0.18221037536E+03  0.19500572799E+03  0.00000000000E+00 0. -1.
         11    1    1    2    0    0 -0.75098451051E+02  0.18596273782E+02  0.15152004835E+03  0.17012913860E+03  0.00000000000E+00 0.  1.
</event>
<event>
 6    1  0.5317355E-006  0.9702961E+02  0.7561462E-02  0.1286669E+00
         -1   -1    0    0    0  501 -0.00000000000E+00  0.00000000000E+00  0.61575959086E+02  0.61575959086E+02  0.00000000000E+00 0.  1.
          1   -1    0    0  501    0  0.00000000000E+00 -0.00000000000E+00 -0.25654100240E+03  0.25654100240E+03  0.00000000000E+00 0. -1.
          5    1    1    2  502    0  0.16082486538E+01  0.33451699638E+02  0.82242102260E+00  0.33760205105E+02  0.41800000000E+01 0.  1.
         -5    1    1    2    0  502 -0.18777792054E+02 -0.92959849352E+02 -0.97189409651E+02  0.13585798767E+03  0.41800000000E+01 0.  1.
        -11    1    1    2    0    0 -0.47739644720E+01  0.15255756081E+02  0.16668490447E+02  0.23094748411E+02  0.00000000000E+00 0.  1.
         11    1    1    2    0    0  0.21943507872E+02  0.44252393633E+02 -0.11526654513E+03  0.12540402030E+03  0.00000000000E+00 0. -1.
</event>
<event>
 6    1  0.5317355E-006  0.1554766E+03  0.7561462E-02  0.1193900E+00
          2   -1    0    0  501    0  0.00000000000E+00  0.00000000000E+00  0.40885409945E+03  0.40885409945E+03  0.00000000000E+00 0. -1.
         -2   -1    0    0    0  501 -0.00000000000E+00 -0.00000000000E+00 -0.67174734054E+02  0.67174734054E+02  0.00000000000E+00 0.  1.
          5    1    1    2  502    0 -0.44333694892E+02 -0.69133834937E+01  0.47011729955E+02  0.65121782281E+02  0.41800000000E+01 0. -1.
         -5    1    1    2    0  502  0.23530665725E+02  0.11836509762E+03  0.60861048415E+02  0.13522399261E+03  0.41800000000E+01 0. -1.
        -11    1    1    2    0    0 -0.20069127266E+02 -0.10096429816E+03  0.15107456185E+03  0.18281160415E+03  0.00000000000E+00 0.  1.
         11    1    1    2    0    0  0.40872156433E+02 -0.10487415963E+02  0.82732025179E+02  0.92871454469E+02  0.00000000000E+00 0. -1.
</event>
<event>
 6    1  0.5317355E-006  0.1076106E+03  0.7561462E-02  0.1265060E+00
          1   -1    0    0  501    0  0.00000000000E+00  0.00000000000E+00  0.59312483161E+02  0.59312483161E+02  0.00000000000E+00 0. -1.
         -1   -1    0    0    0  501 -0.00000000000E+00 -0.00000000000E+00 -0.25122375640E+03  0.25122375640E+03  0.00000000000E+00 0.  1.
          5    1    1    2  502    0 -0.15989706662E+01 -0.32419984495E+02  0.38800626866E+01  0.32956628898E+02  0.41800000000E+01 0. -1.
         -5    1    1    2    0  502 -0.31067383962E+02  0.76046158279E+02 -0.12415237930E+03  0.14892778861E+03  0.41800000000E+01 0. -1.
        -11    1    1    2    0    0  0.44924813940E+02  0.93301956926E+01 -0.55374470733E+02  0.71914000502E+02  0.00000000000E+00 0.  1.
         11    1    1    2    0    0 -0.12258459312E+02 -0.52956369477E+02 -0.16264485896E+02  0.56737821551E+02  0.00000000000E+00 0. -1.
</event>
<event>
 6    1  0.5317355E-006  0.9579188E+02  0.7561462E-02  0.1289402E+00
         -3   -1    0    0    0  501 -0.00000000000E+00  0.00000000000E+00  0.10374176780E+03  0.10374176780E+03  0.00000000000E+00 0.  1.
          3   -1    0    0  501    0  0.00000000000E+00 -0.00000000000E+00 -0.20677279381E+03  0.20677279381E+03  0.00000000000E+00 0. -1.
          5    1    1    2  502    0  0.24064065849E+02 -0.32676521792E+02  0.59397953573E+02  0.72058473688E+02  0.41800000000E+01 0.  1.
         -5    1    1    2    0  502  0.50362730259E+01  0.60821069016E+02 -0.21388703988E+02  0.64803669190E+02  0.41800000000E+01 0.  1.
        -11    1    1    2    0    0  0.52841798242E+01 -0.49077002410E+02 -0.35801035628E+02  0.60976953630E+02  0.00000000000E+00 0.  1.
         11    1    1    2    0    0 -0.34384518699E+02  0.20932455187E+02 -0.10523923997E+03  0.11267546510E+03  0.00000000000E+00 0. -1.
</event>
<event>
 6    1  0.5317355E-006  0.1260345E+03  0.7561462E-02  0.1233461E+00
          1   -1    0    0  501    0  0.00000000000E+00  0.00000000000E+00  0.27822429551E+03  0.27822429551E+03  0.00000000000E+00 0. -1.
         -1   -1    0    0    0  501 -0.00000000000E+00 -0.00000000000E+00 -0.90936625626E+02  0.90936625626E+02  0.00000000000E+00 0.  1.
          5    1    1    2  502    0 -0.11496751012E+02 -0.18177345532E+01 -0.37230863091E+02  0.39231224927E+02  0.41800000000E+01 0. -1.
         -5    1    1    2    0  502 -0.21421029514E+02 -0.97185840151E+02  0.83832795302E+02  0.13018970005E+03  0.41800000000E+01 0. -1.
        -11    1    1    2    0    0 -0.22506226980E+02  0.77406612947E+02  0.95910325952E+02  0.12528808644E+03  0.00000000000E+00 0. -1.
         11    1    1    2    0    0  0.55424007506E+02  0.21596961757E+02  0.44775411722E+02  0.74451909714E+02  0.00000000000E+00 0.  1.
</event>
<event>
 6    1  0.5317355E-006  0.9884047E+02  0.7561462E-02  0.1282753E+00
          1   -1    0    0  501    0  0.00000000000E+00  0.00000000000E+00  0.10744581786E+03  0.10744581786E+03  0.00000000000E+00 0. -1.
         -1   -1    0    0    0  501 -0.00000000000E+00 -0.00000000000E+00 -0.12143480359E+03  0.12143480359E+03  0.00000000000E+00 0.  1.
          5    1    1    2  502    0 -0.24251696278E+02  0.46603336671E+02  0.41733151021E+02  0.67224579250E+02  0.41800000000E+01 0.  1.
         -5    1    1    2    0  502 -0.96152488986E+01 -0.47771957900E+02 -0.38822865555E+02  0.62444377351E+02  0.41800000000E+01 0.  1.
        -11    1    1    2    0    0  0.56637654392E+02  0.26050646436E+02 -0.19665853123E+02  0.65369762535E+02  0.00000000000E+00 0.  1.
         11    1    1    2    0    0 -0.22770709216E+02 -0.24882025207E+02  0.27665819246E+01  0.33841902313E+02  0.00000000000E+00 0. -1.
</event>
<event>
 6    1  0.5317355E-006  0.1171679E+03  0.7561462E-02  0.1247844E+00
          2   -1    0    0  501    0  0.00000000000E+00  0.00000000000E+00  0.90863249066E+03  0.90863249066E+03  0.00000000000E+00 0. -1.
         -2   -1    0    0    0  501 -0.00000000000E+00 -0.00000000000E+00 -0.28061568497E+02  0.28061568497E+02  0.00000000000E+00 0.  1.
          5    1    1    2  502    0 -0.17895364744E+02 -0.99979823975E+01 -0.83091561885E+01  0.22510402215E+02  0.41800000000E+01 0. -1.
         -5    1    1    2    0  502 -0.33051738027E+02 -0.62041467581E+02  0.28637823906E+03  0.29490935776E+03  0.41800000000E+01 0. -1.
        -11    1    1    2    0    0  0.25350699925E+01 -0.29971742430E+02  0.11532099467E+03  0.11917912458E+03  0.00000000000E+00 0.  1.
         11    1    1    2    0    0  0.48412032778E+02  0.10201119241E+03  0.48718084462E+03  0.50009517460E+03  0.00000000000E+00 0. -1.
</event>
<event>
 6    1  0.5317355E-006  0.9429441E+02  0.7561462E-02  0.1292773E+00
         -3   -1    0    0    0  501 -0.00000000000E+00  0.00000000000E+00  0.31010808656E+02  0.31010808656E+02  0.00000000000E+00 0.  1.
          3   -1    0    0  501    0  0.00000000000E+00 -0.00000000000E+00 -0.52333167814E+03  0.52333167814E+03  0.00000000000E+00 0. -1.
          5    1    1    2  502    0 -0.56746436642E+02 -0.34354160975E+02 -0.31678358571E+02  0.73629866560E+02  0.41800000000E+01 0. -1.
         -5    1    1    2    0  502  0.21514974842E+01  0.15275282003E+02 -0.16935206565E+03  0.17010454939E+03  0.41800000000E+01 0. -1.
        -11    1    1    2    0    0  0.38076594116E+02 -0.33692748626E+02 -0.16708988577E+03  0.17465411033E+03  0.00000000000E+00 0. -1.
         11    1    1    2    0    0  0.16518345042E+02  0.52771627597E+02 -0.12420055949E+03  0.13595396052E+03  0.00000000000E+00 0.  1.
</event>
<event>
 6    1  0.5317355E-006  0.2152063E+03  0.7561462E-02  0.1137508E+00
         -1   -1    0    0    0  501 -0.00000000000E+00  0.00000000000E+00  0.62723975443E+03  0.62723975443E+03  0.00000000000E+00 0.  1.
          1   -1    0    0  501    0  0.00000000000E+00 -0.00000000000E+00 -0.11590473678E+03  0.11590473678E+03  0.00000000000E+00 0. -1.
          5    1    1    2  502    0  0.12017092113E+03 -0.27261495196E+02  0.18369711089E+03  0.22123819822E+03  0.41800000000E+01 0. -1.
         -5    1    1    2    0  502  0.33795023086E+02 -0.89896222204E+02  0.28993197344E+03  0.30545287030E+03  0.41800000000E+01 0. -1.
        -11    1    1    2    0    0 -0.45538113908E+02  0.87397844979E+02  0.23143298853E+01  0.98577174072E+02  0.00000000000E+00 0. -1.
         11    1    1    2    0    0 -0.10842783031E+03  0.29759872421E+02  0.35391603441E+02  0.11787624861E+03  0.00000000000E+00 0.  1.
</event>
<event>
 6    1  0.5317355E-006  0.9655634E+02  0.7561462E-02  0.1287709E+00
          1   -1    0    0  501    0  0.00000000000E+00  0.00000000000E+00  0.85953479297E+03  0.85953479297E+03  0.00000000000E+00 0. -1.
         -1   -1    0    0    0  501 -0.00000000000E+00 -0.00000000000E+00 -0.20238599332E+02  0.20238599332E+02  0.00000000000E+00 0.  1.
          5    1    1    2  502    0  0.44978706057E+02 -0.59270152936E+02  0.90604453835E+02  0.11731442572E+03  0.41800000000E+01 0. -1.
         -5    1    1    2    0  502 -0.64068237716E+01  0.10016071051E+00  0.28079576526E+03  0.28089996727E+03  0.41800000000E+01 0. -1.
        -11    1    1    2    0    0 -0.57903007666E+02  0.68317064574E+02  0.41399631321E+03  0.42357163144E+03  0.00000000000E+00 0. -1.
         11    1    1    2    0    0  0.19331125380E+02 -0.91470723483E+01  0.53899661332E+02  0.57987367872E+02  0.00000000000E+00 0.  1.
</event>
<event>
 6    1  0.1127389E-005  0.1619324E+03  0.7561462E-02  0.1186532E+00
         -1   -1    0    0    0  501 -0.00000000000E+00  0.00000000000E+00  0.19328082201E+03  0.19328082201E+03  0.00000000000E+00 0.  1.
          1   -1    0    0  501    0  0.00000000000E+00 -0.00000000000E+00 -0.18476869622E+03  0.18476869622E+03  0.00000000000E+00 0. -1.
          5    1    1    2  502    0  0.51894847397E+02 -0.10231495624E+03  0.69285463921E+02  0.13408718570E+03  0.41800000000E+01 0. -1.
         -5    1    1    2    0  502 -0.19509861016E+01 -0.43352798268E+02 -0.48712216239E+02  0.65372959818E+02  0.41800000000E+01 0. -1.
        -11    1    1    2    0    0 -0.63031638653E+02  0.10221560356E+03  0.21694274362E+02  0.12203138376E+03  0.00000000000E+00 0.  1.
         11    1    1    2    0    0  0.13087777358E+02  0.43452150950E+02 -0.33755396248E+02  0.56557988951E+02  0.00000000000E+00 0. -1.
</event>
<event>
 6    1  0.5317355E-006  0.3747249E+03  0.7561462E-02  0.1052901E+00
          1   -1    0    0  501    0  0.00000000000E+00  0.00000000000E+00  0.28865942211E+03  0.28865942211E+03  0.00000000000E+00 0. -1.
         -1   -1    0    0    0  501 -0.00000000000E+00 -0.00000000000E+00 -0.53444263106E+03  0.53444263106E+03  0.00000000000E+00 0.  1.
          5    1    1    2  502    0  0.56530186270E+02  0.14027365464E+03 -0.19734715597E+02  0.15257552735E+03  0.41800000000E+01 0. -1.
         -5    1    1    2    0  502  0.14808399208E+03  0.16993604853E+03 -0.17396824176E+03  0.28476227075E+03  0.41800000000E+01 0. -1.
        -11    1    1    2    0    0 -0.14792862202E+03 -0.24608754043E+03 -0.75778020704E+02  0.29695835262E+03  0.00000000000E+00 0.  1.
         11    1    1    2    0    0 -0.56685556324E+02 -0.64122162748E+02  0.23697769109E+02  0.88805902461E+02  0.00000000000E+00 0. -1.
</event>
<event>
 6    1  0.5317355E-006  0.9673632E+02  0.7561462E-02  0.1287313E+00
          3   -1    0    0  501    0  0.00000000000E+00  0.00000000000E+00  0.27537129877E+03  0.27537129877E+03  0.00000000000E+00 0. -1.
         -3   -1    0    0    0  501 -0.00000000000E+00 -0.00000000000E+00 -0.56855555035E+02  0.56855555035E+02  0.00000000000E+00 0.  1.
          5    1    1    2  502    0 -0.12491665686E+02 -0.75225433996E+01  0.11075761660E+03  0.11179155784E+03  0.41800000000E+01 0. -1.
         -5    1    1    2    0  502 -0.40456967661E+01  0.68913356370E+02  0.36475202066E+01  0.69254567735E+02  0.41800000000E+01 0. -1.
        -11    1    1    2    0    0 -0.26840855366E+02 -0.60016513837E+02  0.69503317869E+02  0.95671963734E+02  0.00000000000E+00 0.  1.
         11    1    1    2    0    0  0.43378217818E+02 -0.13742991332E+01  0.34607289059E+02  0.55508764490E+02  0.00000000000E+00 0. -1.
</event>
<event>
 6    1  0.5317355E-006  0.8982178E+02  0.7561462E-02  0.1303284E+00
         -4   -1    0    0    0  501 -0.00000000000E+00  0.00000000000E+00  0.11371700017E+03  0.11371700017E+03  0.00000000000E+00 0.  1.
          4   -1    0    0  501    0  0.00000000000E+00 -0.00000000000E+00 -0.13699186947E+03  0.13699186947E+03  0.00000000000E+00 0. -1.
          5    1    1    2  502    0  0.55592528056E+01  0.47539327466E+01  0.52069275980E+02  0.52746441296E+02  0.41800000000E+01 0.  1.
         -5    1    1    2    0  502  0.44096414985E+02 -0.42653190174E+02 -0.62165633692E+02  0.87440418908E+02  0.41800000000E+01 0.  1.
        -11    1    1    2    0    0 -0.52808834274E+02  0.64261635903E+02 -0.94656380711E+01  0.83713374860E+02  0.00000000000E+00 0. -1.
         11    1    1    2    0    0  0.31531664842E+01 -0.26362378476E+02 -0.37128735127E+01  0.26808634570E+02  0.00000000000E+00 0.  1.
</event>
<event>
 6    1  0.5317355E-006  0.1116889E+03  0.7561462E-02  0.1257474E+00
         -2   -1    0    0    0  501 -0.00000000000E+00  0.00000000000E+00  0.14806527513E+03  0.14806527513E+03  0.00000000000E+00 0. -1.
          2   -1    0    0  501    0  0.00000000000E+00 -0.00000000000E+00 -0.12338099359E+03  0.12338099359E+03  0.00000000000E+00 0.  1.
          5    1    1    2  502    0  0.42330692645E+02 -0.73438074782E+02  0.30944811131E+02  0.90333228125E+02  0.41800000000E+01 0.  1.
         -5    1    1    2    0  502 -0.50855386650E+02 -0.95532815953E+01 -0.30261025238E+02  0.60089413286E+02  0.41800000000E+01 0.  1.
        -11    1    1    2    0    0  0.15436523382E+02  0.37032891396E+02  0.52826018577E+02  0.66334828996E+02  0.00000000000E+00 0. -1.
         11    1    1    2    0    0 -0.69118293773E+01  0.45958464982E+02 -0.28825522932E+02  0.54688798315E+02  0.00000000000E+00 0.  1.
</event>
<event>
 6    1  0.5317355E-006  0.1566686E+03  0.7561462E-02  0.1192510E+00
          1   -1    0    0  501    0  0.00000000000E+00  0.00000000000E+00  0.85044572725E+02  0.85044572725E+02  0.00000000000E+00 0. -1.
         -1   -1    0    0    0  501 -0.00000000000E+00 -0.00000000000E+00 -0.40000092323E+03  0.40000092323E+03  0.00000000000E+00 0.  1.
          5    1    1    2  502    0  0.16013820309E+01 -0.89546625787E+02 -0.20062462248E+03  0.21974729614E+03  0.41800000000E+01 0.  1.
         -5    1    1    2    0  502  0.22884564122E+01 -0.57460425876E+02  0.13864545906E+01  0.57674363724E+02  0.41800000000E+01 0.  1.
        -11    1    1    2    0    0  0.35199025438E+02  0.47568326380E+02 -0.69309097270E+02  0.91134340568E+02  0.00000000000E+00 0. -1.
         11    1    1    2    0    0 -0.39088863881E+02  0.99438725283E+02 -0.46409085345E+02  0.11648949553E+03  0.00000000000E+00 0.  1.
</event>
<event>
 6    1  0.5317355E-006  0.9244807E+02  0.7561462E-02  0.1297029E+00
          1   -1    0    0  501    0  0.00000000000E+00  0.00000000000E+00  0.55824870880E+02  0.55824870880E+02  0.00000000000E+00 0. -1.
         -1   -1    0    0    0  501 -0.00000000000E+00 -0.00000000000E+00 -0.23778324653E+03  0.23778324653E+03  0.00000000000E+00 0.  1.
          5    1    1    2  502    0 -0.41997265665E+01  0.58376975599E+02 -0.10851661492E+03  0.12336465092E+03  0.41800000000E+01 0.  1.
         -5    1    1    2    0  502  0.25188382993E+02 -0.49724618942E+02 -0.25780720606E+02  0.61555749705E+02  0.41800000000E+01 0.  1.
        -11    1    1    2    0    0  0.26157055567E+01 -0.34913912863E+02  0.13939349949E+02  0.37684595048E+02  0.00000000000E+00 0. -1.
         11    1    1    2    0    0 -0.23604361983E+02  0.26261556206E+02 -0.61600390073E+02  0.71003121735E+02  0.00000000000E+00 0.  1.
</event>
<event>
 6    1  0.5317355E-006  0.1340593E+03  0.7561462E-02  0.1221554E+00
          2   -1    0    0  501    0  0.00000000000E+00  0.00000000000E+00  0.48095649643E+03  0.48095649643E+03  0.00000000000E+00 0. -1.
         -2   -1    0    0    0  501 -0.00000000000E+00 -0.00000000000E+00 -0.42822410459E+02  0.42822410459E+02  0.00000000000E+00 0.  1.
          5    1    1    2  502    0  0.10723179804E+03 -0.98838874067E+01  0.10521868498E+03  0.15061471977E+03  0.41800000000E+01 0.  1.
         -5    1    1    2    0  502 -0.33847545515E+02 -0.21953521082E+02  0.45590586815E+02  0.61021204769E+02  0.41800000000E+01 0.  1.
        -11    1    1    2    0    0 -0.32616676253E+02 -0.30927827159E+02  0.80586511227E+02  0.92274394359E+02  0.00000000000E+00 0.  1.
         11    1    1    2    0    0 -0.40767576271E+02  0.62765235647E+02  0.20673830295E+03  0.21986858800E+03  0.00000000000E+00 0. -1.
</event>
<event>
 6    1  0.5317355E-006  0.1125461E+03  0.7561462E-02  0.1255926E+00
         -2   -1    0    0    0  501 -0.00000000000E+00  0.00000000000E+00  0.48758886926E+02  0.48758886926E+02  0.00000000000E+00 0.  1.
          2   -1    0    0  501    0  0.00000000000E+00 -0.00000000000E+00 -0.30368103578E+03  0.30368103578E+03  0.00000000000E+00 0. -1.
          5    1    1    2  502    0  0.42995508905E+02 -0.94691411721E+01 -0.53004979589E+02  0.69030997978E+02  0.41800000000E+01 0. -1.
         -5    1    1    2    0  502 -0.82541869665E+02 -0.27806991886E+01 -0.37341867152E+02  0.90734668007E+02  0.41800000000E+01 0. -1.
        -11    1    1    2    0    0  0.65989094176E+02  0.22637422395E+02 -0.13308920628E+03  0.15026559910E+03  0.00000000000E+00 0.  1.
         11    1    1    2    0    0 -0.26442733415E+02 -0.10387582034E+02 -0.31486095830E+02  0.42408657625E+02  0.00000000000E+00 0. -1.
</event>
<event>
 6    1  0.5317355E-006  0.1195281E+03  0.7561462E-02  0.1243878E+00
          2   -1    0    0  501    0  0.00000000000E+00  0.00000000000E+00  0.59750153140E+03  0.59750153140E+03  0.00000000000E+00 0.  1.
         -2   -1    0    0    0  501 -0.00000000000E+00 -0.00000000000E+00 -0.37288177592E+02  0.37288177592E+02  0.00000000000E+00 0. -1.
          5    1    1    2  502    0 -0.42485629325E+02 -0.28994368713E+02  0.11876498286E+03  0.12949245411E+03  0.41800000000E+01 0.  1.
         -5    1    1    2    0  502 -0.14417684235E+02  0.68350823482E+02  0.27967044467E+02  0.75361347291E+02  0.41800000000E+01 0.  1.
        -11    1    1    2    0    0  0.61770629789E+02  0.14454894911E+02  0.20706009875E+03  0.21656047466E+03  0.00000000000E+00 0.  1.
         11    1    1    2    0    0 -0.48673162284E+01 -0.53811349680E+02  0.20642122773E+03  0.21337543293E+03  0.00000000000E+00 0. -1.
</event>
<event>
 6    1  0.5317355E-006  0.2751378E+03  0.7561462E-02  0.1098375E+00
         -2   -1    0    0    0  501 -0.00000000000E+00  0.00000000000E+00  0.18500386672E+03  0.18500386672E+03  0.00000000000E+00 0.  1.
          2   -1    0    0  501    0  0.00000000000E+00 -0.00000000000E+00 -0.44320421149E+03  0.44320421149E+03  0.00000000000E+00 0. -1.
          5    1    1    2  502    0 -0.20816741187E+03  0.33523042557E+00 -0.17463885433E+03  0.27175353831E+03  0.41800000000E+01 0.  1.
         -5    1    1    2    0  502 -0.50661212162E+02  0.40907878038E+02  0.34869023669E+01  0.65342511364E+02  0.41800000000E+01 0.  1.
        -11    1    1    2    0    0  0.22307967961E+03 -0.66806233680E+02 -0.81957821180E+02  0.24686980530E+03  0.00000000000E+00 0.  1.
         11    1    1    2    0    0  0.35748944420E+02  0.25563125217E+02 -0.50905716274E+01  0.44242223243E+02  0.00000000000E+00 0. -1.
</event>
<event>
 6    1  0.5317355E-006  0.9207054E+02  0.7561462E-02  0.1297914E+00
          2   -1    0    0  501    0  0.00000000000E+00  0.00000000000E+00  0.90828293403E+02  0.90828293403E+02  0.00000000000E+00 0. -1.
         -2   -1    0    0    0  501 -0.00000000000E+00 -0.00000000000E+00 -0.25298978001E+03  0.25298978001E+03  0.00000000000E+00 0.  1.
          5    1    1    2  502    0 -0.54346097781E+02  0.38307712505E+02 -0.10294215193E+03  0.12261948551E+03  0.41800000000E+01 0. -1.
         -5    1    1    2    0  502  0.24088629043E+02 -0.43734878100E+02 -0.10336680495E+03  0.11487023277E+03  0.41800000000E+01 0.  1.
        -11    1    1    2    0    0  0.18220880419E+02 -0.27142989738E+02 -0.16366736837E+02  0.36559710746E+02  0.00000000000E+00 0.  1.
         11    1    1    2    0    0  0.12036588320E+02  0.32570155333E+02  0.60514207115E+02  0.69768644386E+02  0.00000000000E+00 0. -1.
</event>
<event>
 6    1  0.5317355E-006  0.9448892E+02  0.7561462E-02  0.1292331E+00
         -2   -1    0    0    0  501 -0.00000000000E+00  0.00000000000E+00  0.19929143116E+02  0.19929143116E+02  0.00000000000E+00 0.  1.
          2   -1    0    0  501    0  0.00000000000E+00 -0.00000000000E+00 -0.53925062232E+03  0.53925062232E+03  0.00000000000E+00 0. -1.
          5    1    1    2  502    0  0.32627164411E+02  0.36356771990E+02 -0.60355089723E+02  0.77759603796E+02  0.41800000000E+01 0. -1.
         -5    1    1    2    0  502 -0.53353160110E+02 -0.36344770321E+02 -0.23318976672E+03  0.24199678040E+03  0.41800000000E+01 0. -1.
        -11    1    1    2    0    0  0.47972538785E+02 -0.11662994682E+01 -0.10264688922E+03  0.11330979039E+03  0.00000000000E+00 0.  1.
         11    1    1    2    0    0 -0.27246543086E+02  0.11542977994E+01 -0.12312973355E+03  0.12611359085E+03  0.00000000000E+00 0. -1.
</event>
<event>
 6    1  0.5317355E-006  0.1456878E+03  0.7561462E-02  0.1205874E+00
         -2   -1    0    0    0  501 -0.00000000000E+00  0.00000000000E+00  0.49701820406E+02  0.49701820406E+02  0.00000000000E+00 0. -1.
          2   -1    0    0  501    0  0.00000000000E+00 -0.00000000000E+00 -0.73219111172E+03  0.73219111172E+03  0.00000000000E+00 0.  1.
          5    1    1    2  502    0  0.12457066127E+02 -0.16048970844E+02  0.97550051550E+01  0.22921179883E+02  0.41800000000E+01 0. -1.
         -5    1    1    2    0  502  0.10287282747E+03  0.84796746493E+02 -0.20927334238E+03  0.24816549131E+03  0.41800000000E+01 0. -1.
        -11    1    1    2    0    0 -0.87820137326E+02 -0.65488406618E+02 -0.46512872844E+03  0.47785546135E+03  0.00000000000E+00 0.  1.
         11    1    1    2    0    0 -0.27509756276E+02 -0.32593690312E+01 -0.17842225653E+02  0.32950799582E+02  0.00000000000E+00 0. -1.
</event>
