<event>
 7    1  0.6584658E-006  0.8887430E+02  0.7561462E-02  0.1305601E+00
         -2   -1    0    0    0  501 -0.00000000000E+00  0.00000000000E+00  0.16231718733E+03  0.16231718733E+03  0.00000000000E+00 0.  1.
          2   -1    0    0  501    0  0.00000000000E+00 -0.00000000000E+00 -0.86243537900E+02  0.86243537900E+02  0.00000000000E+00 0. -1.
         23    2    1    2    0    0  0.26657662834E+02  0.32638842074E+02  0.15533143481E+02  0.10334431823E+03  0.93074403378E+02 0.  0.
          5    1    1    2  502    0  0.22488722572E+02 -0.46037434967E+02  0.76058154579E+02  0.91801434298E+02  0.41800000000E+01 0.  1.
         -5    1    1    2    0  502 -0.49146385406E+02  0.13398592894E+02 -0.15517648629E+02  0.53414972704E+02  0.41800000000E+01 0.  1.
        -11    1    3    3    0    0 -0.20320818737E+02  0.14064866736E+02 -0.27507164295E+02  0.36978375276E+02  0.00000000000E+00 0. -1.
         11    1    3    3    0    0  0.46978481571E+02  0.18573975337E+02  0.43040307777E+02  0.66365942953E+02  0.00000000000E+00 0.  1.
</event>
<event>
 7    1  0.6584658E-006  0.2633692E+03  0.7561462E-02  0.1105136E+00
          3   -1    0    0  501    0  0.00000000000E+00  0.00000000000E+00  0.14638338379E+03  0.14638338379E+03  0.00000000000E+00 0. -1.
         -3   -1    0    0    0  501 -0.00000000000E+00 -0.00000000000E+00 -0.49890034538E+03  0.49890034538E+03  0.00000000000E+00 0.  1.
         23    2    1    2    0    0 -0.53515201612E+02 -0.24060581156E+03 -0.19124606373E+03  0.32526745236E+03  0.92026220783E+02 0.  0.
          5    1    1    2  502    0 -0.35228210383E+02  0.49673631353E+02 -0.12847693344E+02  0.62378137860E+02  0.41800000000E+01 0. -1.
         -5    1    1    2    0  502  0.88743411994E+02  0.19093218020E+03 -0.14842320451E+03  0.25763813896E+03  0.41800000000E+01 0. -1.
        -11    1    3    3    0    0 -0.37690195401E+02 -0.44293609966E+02 -0.80517969220E+02  0.99325817794E+02  0.00000000000E+00 0.  1.
         11    1    3    3    0    0 -0.15825006211E+02 -0.19631220159E+03 -0.11072809452E+03  0.22594163456E+03  0.00000000000E+00 0. -1.
</event>
<event>
 7    1  0.6584658E-006  0.5680491E+02  0.7561462E-02  0.1411751E+00
         -3   -1    0    0    0  501 -0.00000000000E+00  0.00000000000E+00  0.72507056710E+03  0.72507056710E+03  0.00000000000E+00 0.  1.
          3   -1    0    0  501    0  0.00000000000E+00 -0.00000000000E+00 -0.19588506634E+02  0.19588506634E+02  0.00000000000E+00 0. -1.
         23    2    1    2    0    0  0.41512330014E+02 -0.16953877937E+02  0.10260297073E+03  0.12737403388E+03  0.60712991891E+02 0.  0.
          5    1    1    2  502    0 -0.32416511648E+02  0.81547480214E+01  0.32691954943E+02  0.46942160802E+02  0.41800000000E+01 0.  1.
         -5    1    1    2    0  502 -0.90958183661E+01  0.87991299159E+01  0.57018713480E+03  0.57034287905E+03  0.41800000000E+01 0.  1.
        -11    1    3    3    0    0 -0.29726767337E+01 -0.21658974316E+02  0.90208238994E+01  0.23650015628E+02  0.00000000000E+00 0. -1.
         11    1    3    3    0    0  0.44485006748E+02  0.47050963791E+01  0.93582146826E+02  0.10372401825E+03  0.00000000000E+00 0.  1.
</event>
<event>
 7    1  0.6584658E-006  0.1052640E+03  0.7561462E-02  0.1269600E+00
          1   -1    0    0  501    0  0.00000000000E+00  0.00000000000E+00  0.61794734167E+02  0.61794734167E+02  0.00000000000E+00 0. -1.
         -1   -1    0    0    0  501 -0.00000000000E+00 -0.00000000000E+00 -0.24823391567E+03  0.24823391567E+03  0.00000000000E+00 0.  1.
         23    2    1    2    0    0  0.34858576559E+02 -0.45500651921E+02 -0.64813908654E+02  0.12638730050E+03  0.92127505592E+02 0.  0.
          5    1    1    2  502    0 -0.80351817363E+02  0.42202881041E+02 -0.70515086543E+02  0.11501020629E+03  0.41800000000E+01 0. -1.
         -5    1    1    2    0  502  0.45493240805E+02  0.32977708802E+01 -0.51110186306E+02  0.68631143047E+02  0.41800000000E+01 0. -1.
        -11    1    3    3    0    0  0.31051250923E+02 -0.55262894753E+02 -0.83577033080E+02  0.10489655942E+03  0.00000000000E+00 0.  1.
         11    1    3    3    0    0  0.38073256359E+01  0.97622428323E+01  0.18763124426E+02  0.21490741072E+02  0.00000000000E+00 0. -1.
</event>
<event>
 7    1  0.6584658E-006  0.2114472E+03  0.7561462E-02  0.1140425E+00
          1   -1    0    0  501    0  0.00000000000E+00  0.00000000000E+00  0.67263723519E+03  0.67263723519E+03  0.00000000000E+00 0. -1.
         -1   -1    0    0    0  501 -0.00000000000E+00 -0.00000000000E+00 -0.83848911159E+02  0.83848911159E+02  0.00000000000E+00 0.  1.
         23    2    1    2    0    0  0.13373322313E+03  0.15835613008E+03  0.22146626697E+03  0.31655656448E+03  0.90551157937E+02 0.  0.
          5    1    1    2  502    0 -0.86325949896E+02 -0.11647042954E+03  0.34232484251E+03  0.37178125394E+03  0.41800000000E+01 0. -1.
         -5    1    1    2    0  502 -0.47407273237E+02 -0.41885700534E+02  0.24997214554E+02  0.68148327936E+02  0.41800000000E+01 0. -1.
        -11    1    3    3    0    0  0.83341148253E+02  0.56101540056E+02  0.15466137438E+03  0.18442687037E+03  0.00000000000E+00 0.  1.
         11    1    3    3    0    0  0.50392074880E+02  0.10225459002E+03  0.66804892595E+02  0.13212969411E+03  0.00000000000E+00 0. -1.
</event>
<event>
 7    1  0.6584658E-006  0.1290988E+03  0.7561462E-02  0.1228799E+00
          2   -1    0    0  501    0  0.00000000000E+00  0.00000000000E+00  0.19467022302E+03  0.19467022302E+03  0.00000000000E+00 0. -1.
         -2   -1    0    0    0  501 -0.00000000000E+00 -0.00000000000E+00 -0.11536190976E+03  0.11536190976E+03  0.00000000000E+00 0.  1.
         23    2    1    2    0    0 -0.93691860832E+02  0.16591562161E+02  0.76196708574E+02  0.15283618221E+03  0.92192816826E+02 0.  0.
          5    1    1    2  502    0 -0.16316133575E+02 -0.40921449142E+02  0.41596860511E+01  0.44447233916E+02  0.41800000000E+01 0. -1.
         -5    1    1    2    0  502  0.11000799441E+03  0.24329886982E+02 -0.10480813661E+01  0.11274871666E+03  0.41800000000E+01 0. -1.
        -11    1    3    3    0    0 -0.74082069770E+02 -0.20982821085E+01  0.23186371091E+01  0.74148040617E+02  0.00000000000E+00 0.  1.
         11    1    3    3    0    0 -0.19609791062E+02  0.18689844269E+02  0.73878071465E+02  0.78688141595E+02  0.00000000000E+00 0. -1.
</event>
<event>
 7    1  0.6584658E-006  0.1602009E+03  0.7561462E-02  0.1188470E+00
         -2   -1    0    0    0  501 -0.00000000000E+00  0.00000000000E+00  0.82123709641E+02  0.82123709641E+02  0.00000000000E+00 0.  1.
          2   -1    0    0  501    0  0.00000000000E+00 -0.00000000000E+00 -0.35042806165E+03  0.35042806165E+03  0.00000000000E+00 0. -1.
         23    2    1    2    0    0  0.71990941321E+02  0.11032216966E+03 -0.12467433058E+03  0.20096684176E+03  0.86546554135E+02 0.  0.
          5    1    1    2  502    0 -0.10135291902E+03 -0.53475989412E+02 -0.71774412313E+02  0.13528168501E+03  0.41800000000E+01 0.  1.
         -5    1    1    2    0  502  0.29361977699E+02 -0.56846180244E+02 -0.71855609114E+02  0.96303244513E+02  0.41800000000E+01 0.  1.
        -11    1    3    3    0    0  0.29638632234E+02  0.89771344478E+02 -0.12127510286E+03  0.15376928622E+03  0.00000000000E+00 0. -1.
         11    1    3    3    0    0  0.42352309087E+02  0.20550825177E+02 -0.33992277225E+01  0.47197555546E+02  0.00000000000E+00 0.  1.
</event>
<event>
 7    1  0.6584658E-006  0.1461872E+03  0.7561462E-02  0.1205238E+00
         -1   -1    0    0    0  501 -0.00000000000E+00  0.00000000000E+00  0.66891518303E+02  0.66891518303E+02  0.00000000000E+00 0.  1.
          1   -1    0    0  501    0  0.00000000000E+00 -0.00000000000E+00 -0.35768821731E+03  0.35768821731E+03  0.00000000000E+00 0. -1.
         23    2    1    2    0    0 -0.85284977169E+02  0.58660087690E+02 -0.18095622233E+03  0.22855019203E+03  0.93677652929E+02 0.  0.
          5    1    1    2  502    0  0.10188581762E+03 -0.83117208011E+00 -0.72004266174E+02  0.12483387932E+03  0.41800000000E+01 0. -1.
         -5    1    1    2    0  502 -0.16600840453E+02 -0.57828915610E+02 -0.37836210504E+02  0.71195664262E+02  0.41800000000E+01 0. -1.
        -11    1    3    3    0    0 -0.95355952304E+02  0.67387104234E+02 -0.12509489276E+03  0.17112133605E+03  0.00000000000E+00 0.  1.
         11    1    3    3    0    0  0.10070975135E+02 -0.87270165432E+01 -0.55861329567E+02  0.57428855978E+02  0.00000000000E+00 0. -1.
</event>
<event>
 7    1  0.6584658E-006  0.1483759E+03  0.7561462E-02  0.1202483E+00
          2   -1    0    0  501    0  0.00000000000E+00  0.00000000000E+00  0.25813826665E+03  0.25813826665E+03  0.00000000000E+00 0. -1.
         -2   -1    0    0    0  501 -0.00000000000E+00 -0.00000000000E+00 -0.10098349364E+03  0.10098349364E+03  0.00000000000E+00 0.  1.
         23    2    1    2    0    0 -0.69203056209E+02  0.88792658183E+02  0.11125114398E+03  0.18469883716E+03  0.95203173663E+02 0.  0.
          5    1    1    2  502    0 -0.20237583668E+02  0.83523544332E+01 -0.17063161731E+02  0.28070367036E+02  0.41800000000E+01 0. -1.
         -5    1    1    2    0  502  0.89440639877E+02 -0.97145012616E+02  0.62966790761E+02  0.14635255610E+03  0.41800000000E+01 0. -1.
        -11    1    3    3    0    0  0.36693061002E+01  0.65846540890E+02  0.75804683148E+02  0.10047676717E+03  0.00000000000E+00 0. -1.
         11    1    3    3    0    0 -0.72872362309E+02  0.22946117293E+02  0.35446460833E+02  0.84222069987E+02  0.00000000000E+00 0.  1.
</event>
<event>
 7    1  0.6584658E-006  0.1027530E+03  0.7561462E-02  0.1274611E+00
          2   -1    0    0  501    0  0.00000000000E+00  0.00000000000E+00  0.48068821302E+03  0.48068821302E+03  0.00000000000E+00 0. -1.
         -2   -1    0    0    0  501 -0.00000000000E+00 -0.00000000000E+00 -0.31095712827E+02  0.31095712827E+02  0.00000000000E+00 0.  1.
         23    2    1    2    0    0  0.16502412206E+02 -0.49122896925E+02  0.24780087710E+03  0.26877649392E+03  0.90278127921E+02 0.  0.
          5    1    1    2  502    0  0.15786060263E+02 -0.25797412051E+02  0.63556946998E+01  0.31186109444E+02  0.41800000000E+01 0.  1.
         -5    1    1    2    0  502 -0.32288472469E+02  0.74920308976E+02  0.19543592839E+03  0.21182132248E+03  0.41800000000E+01 0.  1.
        -11    1    3    3    0    0  0.35524568523E+02 -0.61192953345E+02  0.22818914283E+03  0.23890763365E+03  0.00000000000E+00 0.  1.
         11    1    3    3    0    0 -0.19022156317E+02  0.12070056420E+02  0.19611734264E+02  0.29868860269E+02  0.00000000000E+00 0. -1.
</event>
<event>
 7    1  0.6584658E-006  0.1122662E+03  0.7561462E-02  0.1256430E+00
          2   -1    0    0  501    0  0.00000000000E+00  0.00000000000E+00  0.17157818705E+03  0.17157818705E+03  0.00000000000E+00 0.  1.
         -2   -1    0    0    0  501 -0.00000000000E+00 -0.00000000000E+00 -0.10963978188E+03  0.10963978188E+03  0.00000000000E+00 0. -1.
         23    2    1    2    0    0  0.11511402227E+02  0.55759215089E+02  0.88534414876E+02  0.14122736010E+03  0.94155308805E+02 0.  0.
          5    1    1    2  502    0 -0.45314653938E+02 -0.71940476257E+02  0.12075054721E+02  0.85977493172E+02  0.41800000000E+01 0. -1.
         -5    1    1    2    0  502  0.33803251710E+02  0.16181261168E+02 -0.38671064424E+02  0.54013115656E+02  0.41800000000E+01 0. -1.
        -11    1    3    3    0    0  0.47689594219E+02  0.39969686361E+02  0.26352997001E+02  0.67574800595E+02  0.00000000000E+00 0.  1.
         11    1    3    3    0    0 -0.36178191992E+02  0.15789528728E+02  0.62181417875E+02  0.73652559509E+02  0.00000000000E+00 0. -1.
</event>
<event>
 7    1  0.6584658E-006  0.1137298E+03  0.7561462E-02  0.1253815E+00
         -1   -1    0    0    0  501 -0.00000000000E+00  0.00000000000E+00  0.73878932988E+03  0.73878932988E+03  0.00000000000E+00 0.  1.
          1   -1    0    0  501    0  0.00000000000E+00 -0.00000000000E+00 -0.25097216821E+02  0.25097216821E+02  0.00000000000E+00 0. -1.
         23    2    1    2    0    0 -0.36291504597E+02  0.71761935100E+02  0.25932028238E+03  0.28579868434E+03  0.89258223602E+02 0.  0.
          5    1    1    2  502    0  0.51343604984E+02 -0.12635121949E+02  0.64774513289E+02  0.83719902360E+02  0.41800000000E+01 0. -1.
         -5    1    1    2    0  502 -0.15052100387E+02 -0.59126813152E+02  0.38959731739E+03  0.39436796000E+03  0.41800000000E+01 0. -1.
        -11    1    3    3    0    0 -0.56568374835E+02  0.24138855938E+02  0.18707179979E+03  0.19692263373E+03  0.00000000000E+00 0.  1.
         11    1    3    3    0    0  0.20276870238E+02  0.47623079163E+02  0.72248482590E+02  0.88876050611E+02  0.00000000000E+00 0. -1.
</event>
<event>
 7    1  0.6584658E-006  0.1426400E+03  0.7561462E-02  0.1209820E+00
          1   -1    0    0  501    0  0.00000000000E+00  0.00000000000E+00  0.15924728420E+03  0.15924728420E+03  0.00000000000E+00 0. -1.
         -1   -1    0    0    0  501 -0.00000000000E+00 -0.00000000000E+00 -0.13185976261E+03  0.13185976261E+03  0.00000000000E+00 0.  1.
         23    2    1    2    0    0  0.28732730446E+02  0.89080705252E+02  0.33736156324E+02  0.13473607771E+03  0.90855602726E+02 0.  0.
          5    1    1    2  502    0  0.10840162109E+02 -0.11045595383E+03 -0.38866932205E+01  0.11113327870E+03  0.41800000000E+01 0.  1.
         -5    1    1    2    0  502 -0.39572892554E+02  0.21375248575E+02 -0.24619415102E+01  0.45237690401E+02  0.41800000000E+01 0.  1.
        -11    1    3    3    0    0 -0.30723247772E+02  0.47200383887E+02  0.24535180310E+02  0.61431012246E+02  0.00000000000E+00 0.  1.
         11    1    3    3    0    0  0.59455978217E+02  0.41880321364E+02  0.92009760138E+01  0.73305065466E+02  0.00000000000E+00 0. -1.
</event>
<event>
 7    1  0.6584658E-006  0.2641039E+03  0.7561462E-02  0.1104702E+00
         -2   -1    0    0    0  501 -0.00000000000E+00  0.00000000000E+00  0.23454454145E+03  0.23454454145E+03  0.00000000000E+00 0.  1.
          2   -1    0    0  501    0  0.00000000000E+00 -0.00000000000E+00 -0.32891628541E+03  0.32891628541E+03  0.00000000000E+00 0. -1.
         23    2    1    2    0    0  0.10689027627E+02  0.25473176575E+03 -0.31454419825E+02  0.27260281229E+03  0.91216144132E+02 0.  0.
          5    1    1    2  502    0 -0.19239488494E+02 -0.74173176337E+02  0.35992641926E+02  0.84762967611E+02  0.41800000000E+01 0.  1.
         -5    1    1    2    0  502  0.85504608666E+01 -0.18055858941E+03 -0.98909966062E+02  0.20609504695E+03  0.41800000000E+01 0.  1.
        -11    1    3    3    0    0  0.50578717882E+02  0.12224466955E+03 -0.11232781703E+02  0.13277101084E+03  0.00000000000E+00 0.  1.
         11    1    3    3    0    0 -0.39889690255E+02  0.13248709620E+03 -0.20221638122E+02  0.13983180145E+03  0.00000000000E+00 0. -1.
</event>
<event>
 7    1  0.6584658E-006  0.1309313E+03  0.7561462E-02  0.1226080E+00
         -3   -1    0    0    0  501 -0.00000000000E+00  0.00000000000E+00  0.39703825829E+03  0.39703825829E+03  0.00000000000E+00 0.  1.
          3   -1    0    0  501    0  0.00000000000E+00 -0.00000000000E+00 -0.53736827537E+02  0.53736827537E+02  0.00000000000E+00 0. -1.
         23    2    1    2    0    0  0.37380663947E+02 -0.60112962640E+02  0.89416420560E+02  0.14506724974E+03  0.89656725168E+02 0.  0.
          5    1    1    2  502    0  0.10304927304E+02  0.91303093646E+02  0.77418287943E+02  0.12022275219E+03  0.41800000000E+01 0. -1.
         -5    1    1    2    0  502 -0.47685591251E+02 -0.31190131007E+02  0.17646672225E+03  0.18548508389E+03  0.41800000000E+01 0.  1.
        -11    1    3    3    0    0  0.20498553888E+02  0.21326585184E+02  0.13722990826E+02  0.32608808999E+02  0.00000000000E+00 0. -1.
         11    1    3    3    0    0  0.16882110059E+02 -0.81439547824E+02  0.75693429734E+02  0.11245844074E+03  0.00000000000E+00 0.  1.
</event>
<event>
 7    1  0.6584658E-006  0.2832447E+03  0.7561462E-02  0.1093930E+00
          2   -1    0    0  501    0  0.00000000000E+00  0.00000000000E+00  0.20374566486E+03  0.20374566486E+03  0.00000000000E+00 0. -1.
         -2   -1    0    0    0  501 -0.00000000000E+00 -0.00000000000E+00 -0.51861516044E+03  0.51861516044E+03  0.00000000000E+00 0.  1.
         23    2    1    2    0    0 -0.16237104180E+03 -0.21564699500E+03  0.30586269016E+01  0.28693648576E+03  0.97237904078E+02 0.  0.
          5    1    1    2  502    0  0.14839887710E+03  0.98595842293E+02 -0.21126183371E+03  0.27639175390E+03  0.41800000000E+01 0.  1.
         -5    1    1    2    0  502  0.13972164702E+02  0.11705115271E+03 -0.10666628877E+03  0.15903258565E+03  0.41800000000E+01 0.  1.
        -11    1    3    3    0    0 -0.56641354649E+02 -0.86757383989E+02  0.48130553775E+02  0.11424376105E+03  0.00000000000E+00 0. -1.
         11    1    3    3    0    0 -0.10572968715E+03 -0.12888961102E+03 -0.45071926873E+02  0.17269272470E+03  0.00000000000E+00 0.  1.
</event>
<event>
 7    1  0.6584658E-006  0.2508388E+03  0.7561462E-02  0.1112776E+00
         -2   -1    0    0    0  501 -0.00000000000E+00  0.00000000000E+00  0.14490682937E+03  0.14490682937E+03  0.00000000000E+00 0.  1.
          2   -1    0    0  501    0  0.00000000000E+00 -0.00000000000E+00 -0.65195271981E+03  0.65195271981E+03  0.00000000000E+00 0. -1.
         23    2    1    2    0    0 -0.19618301994E+02 -0.22688950685E+03 -0.47605279099E+03  0.53518927209E+03  0.89093047189E+02 0.  0.
          5    1    1    2  502    0  0.70078534754E+02  0.11607694747E+03  0.11840436524E+01  0.13566035945E+03  0.41800000000E+01 0.  1.
         -5    1    1    2    0  502 -0.50460232761E+02  0.11081255939E+03 -0.32177143103E+02  0.12600991765E+03  0.41800000000E+01 0.  1.
        -11    1    3    3    0    0 -0.39554359534E+02 -0.40049936097E+02 -0.12222282021E+03  0.13456211398E+03  0.00000000000E+00 0. -1.
         11    1    3    3    0    0  0.19936057540E+02 -0.18683957075E+03 -0.35382997078E+03  0.40062715810E+03  0.00000000000E+00 0.  1.
</event>
<event>
 7    1  0.6584658E-006  0.1180189E+03  0.7561462E-02  0.1246401E+00
         -1   -1    0    0    0  501 -0.00000000000E+00  0.00000000000E+00  0.78455758465E+02  0.78455758465E+02  0.00000000000E+00 0. -1.
          1   -1    0    0  501    0  0.00000000000E+00 -0.00000000000E+00 -0.24886951492E+03  0.24886951492E+03  0.00000000000E+00 0.  1.
         23    2    1    2    0    0  0.21294651222E+02  0.76268987481E+02 -0.12155941654E+03  0.17142543603E+03  0.91321233827E+02 0.  0.
          5    1    1    2  502    0 -0.64595754841E+02 -0.81470688318E+02 -0.30849644789E+02  0.10853228820E+03  0.41800000000E+01 0. -1.
         -5    1    1    2    0  502  0.43301103619E+02  0.52017008374E+01 -0.18004695132E+02  0.47367549156E+02  0.41800000000E+01 0. -1.
        -11    1    3    3    0    0  0.17509741214E+02  0.70950921493E+01 -0.95592285066E+02  0.97441348175E+02  0.00000000000E+00 0.  1.
         11    1    3    3    0    0  0.37849100081E+01  0.69173895332E+02 -0.25967131471E+02  0.73984087856E+02  0.00000000000E+00 0. -1.
</event>
<event>
 7    1  0.6584658E-006  0.1076669E+03  0.7561462E-02  0.1264953E+00
         -1   -1    0    0    0  501 -0.00000000000E+00  0.00000000000E+00  0.25890502231E+02  0.25890502231E+02  0.00000000000E+00 0.  1.
          1   -1    0    0  501    0  0.00000000000E+00 -0.00000000000E+00 -0.80153293786E+03  0.80153293786E+03  0.00000000000E+00 0. -1.
         23    2    1    2    0    0 -0.84755219943E+02 -0.13132395451E+02 -0.46787431923E+03  0.48431243805E+03  0.91083763301E+02 0.  0.
          5    1    1    2  502    0  0.17004854900E+02 -0.30773298583E+02 -0.13422033303E+02  0.37865345289E+02  0.41800000000E+01 0. -1.
         -5    1    1    2    0  502  0.67750365043E+02  0.43905694034E+02 -0.29434608310E+03  0.30524565676E+03  0.41800000000E+01 0. -1.
        -11    1    3    3    0    0 -0.77289198609E+02  0.70078997014E+01 -0.44918656173E+03  0.45584130805E+03  0.00000000000E+00 0. -1.
         11    1    3    3    0    0 -0.74660213342E+01 -0.20140295152E+02 -0.18687757495E+02  0.28471130002E+02  0.00000000000E+00 0.  1.
</event>
<event>
 7    1  0.6584658E-006  0.8035532E+02  0.7561462E-02  0.1328046E+00
         -2   -1    0    0    0  501 -0.00000000000E+00  0.00000000000E+00  0.14571218578E+03  0.14571218578E+03  0.00000000000E+00 0.  1.
          2   -1    0    0  501    0  0.00000000000E+00 -0.00000000000E+00 -0.81450293094E+02  0.81450293094E+02  0.00000000000E+00 0. -1.
         23    2    1    2    0    0 -0.23360784134E+02  0.96641284443E+01  0.18219010137E+02  0.91495011005E+02  0.86024898108E+02 0.  0.
          5    1    1    2  502    0  0.53247915696E+01 -0.54516583385E+02 -0.15704202212E+02  0.57135852460E+02  0.41800000000E+01 0. -1.
         -5    1    1    2    0  502  0.18035992565E+02  0.44852454941E+02  0.61747084758E+02  0.78531615405E+02  0.41800000000E+01 0. -1.
        -11    1    3    3    0    0 -0.34937107761E+02 -0.82734263272E+01  0.44794012073E+02  0.57406921181E+02  0.00000000000E+00 0.  1.
         11    1    3    3    0    0  0.11576323627E+02  0.17937554771E+02 -0.26575001936E+02  0.34088089824E+02  0.00000000000E+00 0. -1.
</event>
<event>
 7    1  0.6584658E-006  0.1761356E+03  0.7561462E-02  0.1171596E+00
         -1   -1    0    0    0  501 -0.00000000000E+00  0.00000000000E+00  0.12540604899E+03  0.12540604899E+03  0.00000000000E+00 0.  1.
          1   -1    0    0  501    0  0.00000000000E+00 -0.00000000000E+00 -0.30051226999E+03  0.30051226999E+03  0.00000000000E+00 0. -1.
         23    2    1    2    0    0  0.15010987176E+03 -0.26439794962E+02 -0.13852657142E+03  0.22520465067E+03  0.91079565967E+02 0.  0.
          5    1    1    2  502    0  0.18401858957E+02  0.12335396042E+02 -0.21059226098E+02  0.30850507491E+02  0.41800000000E+01 0.  1.
         -5    1    1    2    0  502 -0.16851173072E+03  0.14104398921E+02 -0.15520423478E+02  0.16986316082E+03  0.41800000000E+01 0.  1.
        -11    1    3    3    0    0  0.13757040134E+03 -0.38830294277E+02 -0.14751920406E+03  0.20541500102E+03  0.00000000000E+00 0. -1.
         11    1    3    3    0    0  0.12539470417E+02  0.12390499314E+02  0.89926326336E+01  0.19789649650E+02  0.00000000000E+00 0.  1.
</event>
<event>
 7    1  0.6584658E-006  0.1641609E+03  0.7561462E-02  0.1184078E+00
          1   -1    0    0  501    0  0.00000000000E+00  0.00000000000E+00  0.57869593505E+03  0.57869593505E+03  0.00000000000E+00 0. -1.
         -1   -1    0    0    0  501 -0.00000000000E+00 -0.00000000000E+00 -0.57871997069E+02  0.57871997069E+02  0.00000000000E+00 0.  1.
         23    2    1    2    0    0 -0.52871131577E+02  0.13571487941E+03  0.21576078695E+03  0.27611583943E+03  0.92050825902E+02 0.  0.
          5    1    1    2  502    0  0.71066050247E+02 -0.45415999540E+02  0.21739767768E+03  0.23322139519E+03  0.41800000000E+01 0.  1.
         -5    1    1    2    0  502 -0.18194918669E+02 -0.90298879867E+02  0.87665473350E+02  0.12723069751E+03  0.41800000000E+01 0.  1.
        -11    1    3    3    0    0 -0.47389599445E+02  0.63426110217E+02  0.46106759640E+02  0.91621388754E+02  0.00000000000E+00 0.  1.
         11    1    3    3    0    0 -0.54815321326E+01  0.72288769190E+02  0.16965402731E+03  0.18449445067E+03  0.00000000000E+00 0. -1.
</event>
<event>
 7    1  0.6584658E-006  0.1119788E+03  0.7561462E-02  0.1256949E+00
          1   -1    0    0  501    0  0.00000000000E+00  0.00000000000E+00  0.66592463732E+03  0.66592463732E+03  0.00000000000E+00 0. -1.
         -1   -1    0    0    0  501 -0.00000000000E+00 -0.00000000000E+00 -0.33001364777E+02  0.33001364777E+02  0.00000000000E+00 0.  1.
         23    2    1    2    0    0 -0.47056713978E+02  0.77406709010E+02  0.39233218487E+03  0.41302744707E+03  0.91983671446E+02 0.  0.
          5    1    1    2  502    0  0.34218018770E+02 -0.24555338388E+02  0.33379512966E+01  0.42455291434E+02  0.41800000000E+01 0.  1.
         -5    1    1    2    0  502  0.12838695208E+02 -0.52851370622E+02  0.23725313638E+03  0.24344326360E+03  0.41800000000E+01 0.  1.
        -11    1    3    3    0    0 -0.51224561879E+02  0.16887860936E+01  0.12370971619E+03  0.13390631657E+03  0.00000000000E+00 0.  1.
         11    1    3    3    0    0  0.41678479007E+01  0.75717922917E+02  0.26862246868E+03  0.27912113049E+03  0.00000000000E+00 0. -1.
</event>
<event>
 7    1  0.6584658E-006  0.2190095E+03  0.7561462E-02  0.1134624E+00
         -2   -1    0    0    0  501 -0.00000000000E+00  0.00000000000E+00  0.32718547002E+03  0.32718547002E+03  0.00000000000E+00 0.  1.
          2   -1    0    0  501    0  0.00000000000E+00 -0.00000000000E+00 -0.19001033189E+03  0.19001033189E+03  0.00000000000E+00 0. -1.
         23    2    1    2    0    0 -0.20437508298E+03  0.71168521144E+02  0.58998858696E+01  0.23485605483E+03  0.91040786988E+02 0.  0.
          5    1    1    2  502    0  0.13161146582E+03 -0.65720536575E+02  0.19024058215E+02  0.14839189349E+03  0.41800000000E+01 0.  1.
         -5    1    1    2    0  502  0.72763617158E+02 -0.54479845688E+01  0.11225119404E+03  0.13394785359E+03  0.41800000000E+01 0.  1.
        -11    1    3    3    0    0 -0.48008050632E+02  0.27879826282E+02 -0.37388065942E+02  0.66932242708E+02  0.00000000000E+00 0.  1.
         11    1    3    3    0    0 -0.15636703234E+03  0.43288694863E+02  0.43287951811E+02  0.16792381213E+03  0.00000000000E+00 0. -1.
</event>
<event>
 7    1  0.6584658E-006  0.6912612E+02  0.7561462E-02  0.1363090E+00
         -2   -1    0    0    0  501 -0.00000000000E+00  0.00000000000E+00  0.27268113334E+03  0.27268113334E+03  0.00000000000E+00 0.  1.
          2   -1    0    0  501    0  0.00000000000E+00 -0.00000000000E+00 -0.40415921766E+02  0.40415921766E+02  0.00000000000E+00 0. -1.
         23    2    1    2    0    0 -0.24365535583E+02  0.37543842736E+02  0.71106342533E+02  0.10753140872E+03  0.67109406646E+02 0.  0.
          5    1    1    2  502    0  0.11739963986E+02  0.47669031127E+01 -0.17203818115E+02  0.21771400447E+02  0.41800000000E+01 0. -1.
         -5    1    1    2    0  502  0.12625571597E+02 -0.42310745848E+02  0.17836268716E+03  0.18379424595E+03  0.41800000000E+01 0.  1.
        -11    1    3    3    0    0  0.46868663973E+01  0.49076858609E+02  0.40792472237E+02  0.63988518960E+02  0.00000000000E+00 0. -1.
         11    1    3    3    0    0 -0.29052401981E+02 -0.11533015873E+02  0.30313870296E+02  0.43542889756E+02  0.00000000000E+00 0.  1.
</event>
<event>
 7    1  0.6584658E-006  0.1044788E+03  0.7561462E-02  0.1271150E+00
         -1   -1    0    0    0  501 -0.00000000000E+00  0.00000000000E+00  0.29659506189E+02  0.29659506189E+02  0.00000000000E+00 0.  1.
          1   -1    0    0  501    0  0.00000000000E+00 -0.00000000000E+00 -0.42009462144E+03  0.42009462144E+03  0.00000000000E+00 0. -1.
         23    2    1    2    0    0 -0.10543039587E+02  0.14120774259E+02 -0.20466065356E+03  0.22510076016E+03  0.92053338662E+02 0.  0.
          5    1    1    2  502    0 -0.19370702432E+02  0.45385159635E+02 -0.12476966613E+03  0.13423851464E+03  0.41800000000E+01 0. -1.
         -5    1    1    2    0  502  0.29913742019E+02 -0.59505933894E+02 -0.61004795563E+02  0.90414852828E+02  0.41800000000E+01 0. -1.
        -11    1    3    3    0    0 -0.11373092475E+01 -0.38868172593E+02 -0.10257603039E+03  0.10969899874E+03  0.00000000000E+00 0. -1.
         11    1    3    3    0    0 -0.94057303398E+01  0.52988946852E+02 -0.10208462317E+03  0.11540176142E+03  0.00000000000E+00 0.  1.
</event>
<event>
 7    1  0.6584658E-006  0.1909853E+03  0.7561462E-02  0.1157576E+00
         -2   -1    0    0    0  501 -0.00000000000E+00  0.00000000000E+00  0.75904107755E+02  0.75904107755E+02  0.00000000000E+00 0.  1.
          2   -1    0    0  501    0  0.00000000000E+00 -0.00000000000E+00 -0.85348146855E+03  0.85348146855E+03  0.00000000000E+00 0. -1.
         23    2    1    2    0    0  0.66476229577E+02  0.15954068326E+03 -0.65494783523E+03  0.68330120497E+03  0.89841811692E+02 0.  0.
          5    1    1    2  502    0  0.15912846904E+02 -0.72919177329E+02  0.32525955171E-01  0.74752247972E+02  0.41800000000E+01 0.  1.
         -5    1    1    2    0  502 -0.82389076481E+02 -0.86621505927E+02 -0.12266205152E+03  0.17133212336E+03  0.41800000000E+01 0.  1.
        -11    1    3    3    0    0  0.78950443309E+01  0.11166339529E+03 -0.47659563179E+03  0.48956556437E+03  0.00000000000E+00 0.  1.
         11    1    3    3    0    0  0.58581185247E+02  0.47877287965E+02 -0.17835220344E+03  0.19373564060E+03  0.00000000000E+00 0. -1.
</event>
<event>
 7    1  0.6584658E-006  0.1169337E+03  0.7561462E-02  0.1248243E+00
         -1   -1    0    0    0  501 -0.00000000000E+00  0.00000000000E+00  0.30979566319E+02  0.30979566319E+02  0.00000000000E+00 0.  1.
          1   -1    0    0  501    0  0.00000000000E+00 -0.00000000000E+00 -0.56977582214E+03  0.56977582214E+03  0.00000000000E+00 0. -1.
         23    2    1    2    0    0 -0.66067860735E+02  0.48452691409E+02 -0.28309964692E+03  0.30454407423E+03  0.76740195024E+02 0.  0.
          5    1    1    2  502    0 -0.15027581914E+02 -0.46088545889E+02 -0.32040646905E+02  0.58258542158E+02  0.41800000000E+01 0.  1.
         -5    1    1    2    0  502  0.81095442650E+02 -0.23641455202E+01 -0.22365596200E+03  0.23795277208E+03  0.41800000000E+01 0.  1.
        -11    1    3    3    0    0  0.32638293491E+01  0.32715749020E+02 -0.15089600970E+03  0.15443632525E+03  0.00000000000E+00 0. -1.
         11    1    3    3    0    0 -0.69331690084E+02  0.15736942389E+02 -0.13220363723E+03  0.15010774897E+03  0.00000000000E+00 0.  1.
</event>
<event>
 7    1  0.6584658E-006  0.1263986E+03  0.7561462E-02  0.1232899E+00
          2   -1    0    0  501    0  0.00000000000E+00  0.00000000000E+00  0.12346622727E+04  0.12346622727E+04  0.00000000000E+00 0. -1.
         -2   -1    0    0    0  501 -0.00000000000E+00 -0.00000000000E+00 -0.15268146736E+02  0.15268146736E+02  0.00000000000E+00 0.  1.
         23    2    1    2    0    0  0.95932961918E+01  0.69024554678E+02  0.34357160076E+03  0.36247954606E+03  0.92160490370E+02 0.  0.
          5    1    1    2  502    0  0.14608834552E+02  0.31918325030E+02  0.32501421668E+03  0.32693104925E+03  0.41800000000E+01 0. -1.
         -5    1    1    2    0  502 -0.24202130743E+02 -0.10094287971E+03  0.55080830856E+03  0.56051982416E+03  0.41800000000E+01 0. -1.
        -11    1    3    3    0    0  0.43180108806E+02  0.80186539023E+01  0.10160170202E+03  0.11068751718E+03  0.00000000000E+00 0.  1.
         11    1    3    3    0    0 -0.33586812614E+02  0.61005900776E+02  0.24196989874E+03  0.25179202888E+03  0.00000000000E+00 0. -1.
</event>
<event>
 7    1  0.6584658E-006  0.1290483E+03  0.7561462E-02  0.1228875E+00
          2   -1    0    0  501    0  0.00000000000E+00  0.00000000000E+00  0.12004274904E+03  0.12004274904E+03  0.00000000000E+00 0. -1.
         -2   -1    0    0    0  501 -0.00000000000E+00 -0.00000000000E+00 -0.15249334309E+03  0.15249334309E+03  0.00000000000E+00 0.  1.
         23    2    1    2    0    0  0.13886101057E+02 -0.75996786131E+02  0.13210576767E+02  0.11858388948E+03  0.88990360159E+02 0.  0.
          5    1    1    2  502    0 -0.80130002476E+01  0.10753663851E+03 -0.53811681123E+02  0.12058816783E+03  0.41800000000E+01 0.  1.
         -5    1    1    2    0  502 -0.58731008096E+01 -0.31539852376E+02  0.81505103076E+01  0.33364034817E+02  0.41800000000E+01 0.  1.
        -11    1    3    3    0    0 -0.32813154013E+02 -0.60140640708E+02  0.66535819304E+01  0.68832186465E+02  0.00000000000E+00 0. -1.
         11    1    3    3    0    0  0.46699255070E+02 -0.15856145423E+02  0.65569948370E+01  0.49751703017E+02  0.00000000000E+00 0.  1.
</event>
<event>
 7    1  0.6584658E-006  0.9944430E+02  0.7561462E-02  0.1281469E+00
          1   -1    0    0  501    0  0.00000000000E+00  0.00000000000E+00  0.32605223231E+03  0.32605223231E+03  0.00000000000E+00 0. -1.
         -1   -1    0    0    0  501 -0.00000000000E+00 -0.00000000000E+00 -0.62884888675E+02  0.62884888675E+02  0.00000000000E+00 0.  1.
         23    2    1    2    0    0 -0.81656148238E+02  0.29825219902E+02  0.16914940498E+03  0.20993167220E+03  0.88896093824E+02 0.  0.
          5    1    1    2  502    0  0.62655239533E+02 -0.52225381810E+02  0.13301349749E+01  0.81684828489E+02  0.41800000000E+01 0.  1.
         -5    1    1    2    0  502  0.19000908705E+02  0.22400161909E+02  0.92687803678E+02  0.97320620301E+02  0.41800000000E+01 0.  1.
        -11    1    3    3    0    0 -0.20687758050E+02  0.12467179144E+02 -0.49453623466E+01  0.24655029866E+02  0.00000000000E+00 0.  1.
         11    1    3    3    0    0 -0.60968390188E+02  0.17358040758E+02  0.17409476733E+03  0.18527664233E+03  0.00000000000E+00 0. -1.
</event>
<event>
 7    1  0.6584658E-006  0.1034222E+03  0.7561462E-02  0.1273260E+00
         -2   -1    0    0    0  501 -0.00000000000E+00  0.00000000000E+00  0.37225242686E+03  0.37225242686E+03  0.00000000000E+00 0.  1.
          2   -1    0    0  501    0  0.00000000000E+00 -0.00000000000E+00 -0.48197594980E+02  0.48197594980E+02  0.00000000000E+00 0. -1.
         23    2    1    2    0    0  0.41740206470E+02 -0.68591526372E+02  0.16096191885E+03  0.19978317537E+03  0.86934087174E+02 0.  0.
          5    1    1    2  502    0 -0.67650645302E+02  0.52969960224E+02  0.41899794469E+02  0.95684333475E+02  0.41800000000E+01 0.  1.
         -5    1    1    2    0  502  0.25910438832E+02  0.15621566148E+02  0.12119311856E+03  0.12498251300E+03  0.41800000000E+01 0.  1.
        -11    1    3    3    0    0  0.38765189381E+02 -0.24010097996E+02  0.16374387551E+02  0.48449409503E+02  0.00000000000E+00 0. -1.
         11    1    3    3    0    0  0.29750170889E+01 -0.44581428376E+02  0.14458753130E+03  0.15133376586E+03  0.00000000000E+00 0.  1.
</event>
<event>
 7    1  0.6584658E-006  0.1517114E+03  0.7561462E-02  0.1198386E+00
         -1   -1    0    0    0  501 -0.00000000000E+00  0.00000000000E+00  0.69329730429E+03  0.69329730429E+03  0.00000000000E+00 0.  1.
          1   -1    0    0  501    0  0.00000000000E+00 -0.00000000000E+00 -0.53039590091E+02  0.53039590091E+02  0.00000000000E+00 0. -1.
         23    2    1    2    0    0  0.10371909615E+03  0.30083097543E+02  0.81333492648E+02  0.16349421178E+03  0.91937895323E+02 0.  0.
          5    1    1    2  502    0  0.26904875440E+02 -0.20326067338E+02  0.12776259504E+03  0.13220353410E+03  0.41800000000E+01 0. -1.
         -5    1    1    2    0  502 -0.13062397158E+03 -0.97570302048E+01  0.43116162650E+03  0.45063914850E+03  0.41800000000E+01 0. -1.
        -11    1    3    3    0    0  0.44307711909E+02  0.57802569904E+02  0.60566722964E+02  0.94724011490E+02  0.00000000000E+00 0. -1.
         11    1    3    3    0    0  0.59411384236E+02 -0.27719472362E+02  0.20766769685E+02  0.68770200291E+02  0.00000000000E+00 0.  1.
</event>
<event>
 7    1  0.6584658E-006  0.9079096E+02  0.7561462E-02  0.1300947E+00
         -4   -1    0    0    0  501 -0.00000000000E+00  0.00000000000E+00  0.81039189109E+02  0.81039189109E+02  0.00000000000E+00 0.  1.
          4   -1    0    0  501    0  0.00000000000E+00 -0.00000000000E+00 -0.15128518501E+03  0.15128518501E+03  0.00000000000E+00 0. -1.
         23    2    1    2    0    0  0.23309124947E+02 -0.82784902535E+00 -0.35219451289E+02  0.10034592966E+03  0.91021399736E+02 0.  0.
          5    1    1    2  502    0 -0.64858868317E+02  0.27336568916E+02  0.14451079855E+01  0.70523198570E+02  0.41800000000E+01 0.  1.
         -5    1    1    2    0  502  0.41549743371E+02 -0.26508719890E+02 -0.36471652598E+02  0.61455245892E+02  0.41800000000E+01 0.  1.
        -11    1    3    3    0    0 -0.75133957382E+01 -0.22637947598E+02  0.21563784782E+02  0.32154697964E+02  0.00000000000E+00 0.  1.
         11    1    3    3    0    0  0.30822520685E+02  0.21810098573E+02 -0.56783236071E+02  0.68191231694E+02  0.00000000000E+00 0. -1.
</event>
<event>
 7    1  0.6584658E-006  0.1437533E+03  0.7561462E-02  0.1208366E+00
          1   -1    0    0  501    0  0.00000000000E+00  0.00000000000E+00  0.33422072134E+03  0.33422072134E+03  0.00000000000E+00 0. -1.
         -1   -1    0    0    0  501 -0.00000000000E+00 -0.00000000000E+00 -0.69506525470E+02  0.69506525470E+02  0.00000000000E+00 0.  1.
         23    2    1    2    0    0 -0.60368716896E+02  0.72615858012E+02  0.18148910187E+03  0.22538831628E+03  0.94573538599E+02 0.  0.
          5    1    1    2  502    0  0.56536426155E+02  0.23244528611E+02  0.38883443182E+02  0.72567693545E+02  0.41800000000E+01 0. -1.
         -5    1    1    2    0  502  0.38322907408E+01 -0.95860386622E+02  0.44341650814E+02  0.10577123698E+03  0.41800000000E+01 0.  1.
        -11    1    3    3    0    0 -0.38969107560E+01 -0.20738595997E+02  0.13410451676E+02  0.25002309724E+02  0.00000000000E+00 0.  1.
         11    1    3    3    0    0 -0.56471806140E+02  0.93354454009E+02  0.16807865020E+03  0.20038600656E+03  0.00000000000E+00 0. -1.
</event>
<event>
 7    1  0.6584658E-006  0.9682282E+02  0.7561462E-02  0.1287123E+00
          1   -1    0    0  501    0  0.00000000000E+00  0.00000000000E+00  0.27799866514E+02  0.27799866514E+02  0.00000000000E+00 0. -1.
         -1   -1    0    0    0  501 -0.00000000000E+00 -0.00000000000E+00 -0.76765466243E+03  0.76765466243E+03  0.00000000000E+00 0.  1.
         23    2    1    2    0    0  0.92532234210E+02 -0.84603745769E+01 -0.22073532266E+03  0.25623548230E+03  0.91097461077E+02 0.  0.
          5    1    1    2  502    0 -0.24869516186E+02  0.58940559496E+01 -0.13760140423E+02  0.29326551030E+02  0.41800000000E+01 0. -1.
         -5    1    1    2    0  502 -0.67662718025E+02  0.25663186272E+01 -0.50535933283E+03  0.50989249561E+03  0.41800000000E+01 0.  1.
        -11    1    3    3    0    0  0.65831109620E+02 -0.22714602167E+02 -0.57767711240E+02  0.90480918471E+02  0.00000000000E+00 0. -1.
         11    1    3    3    0    0  0.26701124590E+02  0.14254227590E+02 -0.16296761142E+03  0.16575456383E+03  0.00000000000E+00 0.  1.
</event>
<event>
 7    1  0.6584658E-006  0.1319684E+03  0.7561462E-02  0.1224564E+00
         -2   -1    0    0    0  501 -0.00000000000E+00  0.00000000000E+00  0.81215529113E+03  0.81215529113E+03  0.00000000000E+00 0.  1.
          2   -1    0    0  501    0  0.00000000000E+00 -0.00000000000E+00 -0.30068262043E+02  0.30068262043E+02  0.00000000000E+00 0. -1.
         23    2    1    2    0    0  0.18082444021E+02  0.10256564353E+03  0.24918066475E+03  0.28501286270E+03  0.91074926324E+02 0.  0.
          5    1    1    2  502    0  0.16270457078E+02 -0.11990267554E+03  0.35294950945E+03  0.37313832287E+03  0.41800000000E+01 0. -1.
         -5    1    1    2    0  502 -0.34352901099E+02  0.17337032012E+02  0.17995685489E+03  0.18407236760E+03  0.41800000000E+01 0. -1.
        -11    1    3    3    0    0  0.12396868079E+02  0.66454428817E+02  0.23704379715E+03  0.24649469612E+03  0.00000000000E+00 0.  1.
         11    1    3    3    0    0  0.56855759422E+01  0.36111214713E+02  0.12136867604E+02  0.38518166585E+02  0.00000000000E+00 0. -1.
</event>
<event>
 7    1  0.6584658E-006  0.1238732E+03  0.7561462E-02  0.1236841E+00
         -1   -1    0    0    0  501 -0.00000000000E+00  0.00000000000E+00  0.18830337064E+03  0.18830337064E+03  0.00000000000E+00 0.  1.
          1   -1    0    0  501    0  0.00000000000E+00 -0.00000000000E+00 -0.10202623672E+03  0.10202623672E+03  0.00000000000E+00 0. -1.
         23    2    1    2    0    0  0.24929156037E+02  0.17780302754E+02 -0.19161332689E+02  0.10324488031E+03  0.96719939277E+02 0.  0.
          5    1    1    2  502    0 -0.21006417269E+02 -0.83124891426E+02  0.77988832287E+02  0.11597735771E+03  0.41800000000E+01 0. -1.
         -5    1    1    2    0  502 -0.39227387680E+01  0.65344588671E+02  0.27449634328E+02  0.71107369328E+02  0.41800000000E+01 0.  1.
        -11    1    3    3    0    0  0.47910309533E+02  0.41426641148E+02  0.31772622168E+01  0.63416554239E+02  0.00000000000E+00 0.  1.
         11    1    3    3    0    0 -0.22981153496E+02 -0.23646338394E+02 -0.22338594906E+02  0.39828326074E+02  0.00000000000E+00 0. -1.
</event>
<event>
 7    1  0.6584658E-006  0.8952639E+02  0.7561462E-02  0.1304003E+00
         -3   -1    0    0    0  501 -0.00000000000E+00  0.00000000000E+00  0.64987438576E+02  0.64987438576E+02  0.00000000000E+00 0.  1.
          3   -1    0    0  501    0  0.00000000000E+00 -0.00000000000E+00 -0.26637092321E+03  0.26637092321E+03  0.00000000000E+00 0. -1.
         23    2    1    2    0    0 -0.31548934756E+01  0.58156764834E+00 -0.18412809436E+03  0.20499356089E+03  0.90049504702E+02 0.  0.
          5    1    1    2  502    0 -0.44055305772E+01  0.59259498499E+02  0.93667244485E+01  0.60301780977E+02  0.41800000000E+01 0. -1.
         -5    1    1    2    0  502  0.75604240529E+01 -0.59841066148E+02 -0.26622114722E+02  0.66063019927E+02  0.41800000000E+01 0. -1.
        -11    1    3    3    0    0  0.12829947632E+02  0.26000795345E+02 -0.13929501121E+02  0.32166440840E+02  0.00000000000E+00 0.  1.
         11    1    3    3    0    0 -0.15984841108E+02 -0.25419227696E+02 -0.17019859324E+03  0.17282712005E+03  0.00000000000E+00 0. -1.
</event>
<event>
 7    1  0.6584658E-006  0.1169707E+03  0.7561462E-02  0.1248180E+00
          2   -1    0    0  501    0  0.00000000000E+00  0.00000000000E+00  0.53451175055E+03  0.53451175055E+03  0.00000000000E+00 0. -1.
         -2   -1    0    0    0  501 -0.00000000000E+00 -0.00000000000E+00 -0.37502832804E+02  0.37502832804E+02  0.00000000000E+00 0.  1.
         23    2    1    2    0    0  0.91840414780E+02 -0.16420210186E+01  0.23580449230E+03  0.26818511977E+03  0.88781427422E+02 0.  0.
          5    1    1    2  502    0 -0.56826618960E+01 -0.17675571029E+02  0.18826918648E+03  0.18922863799E+03  0.41800000000E+01 0.  1.
         -5    1    1    2    0  502 -0.86157752884E+02  0.19317592047E+02  0.72935238961E+02  0.11460082559E+03  0.41800000000E+01 0.  1.
        -11    1    3    3    0    0  0.32834587732E+02 -0.43258941456E+02  0.11994895172E+03  0.13167079094E+03  0.00000000000E+00 0.  1.
         11    1    3    3    0    0  0.59005827048E+02  0.41616920438E+02  0.11585554058E+03  0.13651432883E+03  0.00000000000E+00 0. -1.
</event>
<event>
 7    1  0.6584658E-006  0.1248504E+03  0.7561462E-02  0.1235303E+00
          2   -1    0    0  501    0  0.00000000000E+00  0.00000000000E+00  0.43476882281E+03  0.43476882281E+03  0.00000000000E+00 0.  1.
         -2   -1    0    0    0  501 -0.00000000000E+00 -0.00000000000E+00 -0.69674207958E+02  0.69674207958E+02  0.00000000000E+00 0. -1.
         23    2    1    2    0    0 -0.16061284533E+02 -0.90415932184E+02  0.31812732799E+03  0.34231329038E+03  0.86835397762E+02 0.  0.
          5    1    1    2  502    0 -0.52601498084E+02  0.45845255366E+02  0.50942977100E+01  0.70086584376E+02  0.41800000000E+01 0.  1.
         -5    1    1    2    0  502  0.68662782617E+02  0.44570676818E+02  0.41872989161E+02  0.92043156020E+02  0.41800000000E+01 0.  1.
        -11    1    3    3    0    0 -0.26020868495E+02 -0.75833464836E+02  0.31414037414E+03  0.32420976951E+03  0.00000000000E+00 0.  1.
         11    1    3    3    0    0  0.99595839614E+01 -0.14582467349E+02  0.39869538494E+01  0.18103520864E+02  0.00000000000E+00 0. -1.
</event>
<event>
 7    1  0.6584658E-006  0.1352612E+03  0.7561462E-02  0.1219851E+00
          2   -1    0    0  501    0  0.00000000000E+00  0.00000000000E+00  0.21192896605E+03  0.21192896605E+03  0.00000000000E+00 0. -1.
         -2   -1    0    0    0  501 -0.00000000000E+00 -0.00000000000E+00 -0.14218011225E+03  0.14218011225E+03  0.00000000000E+00 0.  1.
         23    2    1    2    0    0  0.11919490540E+03  0.60406331722E+02  0.55435837820E+02  0.17050966448E+03  0.90244463427E+02 0.  0.
          5    1    1    2  502    0 -0.10406726186E+03 -0.53769138400E+02  0.62255246919E+02  0.13271888865E+03  0.41800000000E+01 0.  1.
         -5    1    1    2    0  502 -0.15127643542E+02 -0.66371933228E+01 -0.47942230945E+02  0.50880525177E+02  0.41800000000E+01 0.  1.
        -11    1    3    3    0    0  0.80028112920E+02  0.54101183848E+02 -0.66540619820E+01  0.96828268043E+02  0.00000000000E+00 0.  1.
         11    1    3    3    0    0  0.39166792481E+02  0.63051478741E+01  0.62089899802E+02  0.73681396433E+02  0.00000000000E+00 0. -1.
</event>
<event>
 7    1  0.6584658E-006  0.7973718E+02  0.7561462E-02  0.1329799E+00
         -1   -1    0    0    0  501 -0.00000000000E+00  0.00000000000E+00  0.10992224379E+03  0.10992224379E+03  0.00000000000E+00 0.  1.
          1   -1    0    0  501    0  0.00000000000E+00 -0.00000000000E+00 -0.13413298874E+03  0.13413298874E+03  0.00000000000E+00 0. -1.
         23    2    1    2    0    0 -0.93897591196E+01 -0.24752848616E+01 -0.65268208664E+02  0.11204287275E+03  0.90550381894E+02 0.  0.
          5    1    1    2  502    0  0.30292940616E+02 -0.52299230719E+02  0.47205330039E+00  0.60585204624E+02  0.41800000000E+01 0.  1.
         -5    1    1    2    0  502 -0.20903181496E+02  0.54774515581E+02  0.40585410417E+02  0.71427155148E+02  0.41800000000E+01 0.  1.
        -11    1    3    3    0    0 -0.16614288890E+02  0.14254718210E+02  0.17039948604E+02  0.27741511044E+02  0.00000000000E+00 0.  1.
         11    1    3    3    0    0  0.72245297702E+01 -0.16730003072E+02 -0.82308157269E+02  0.84301361710E+02  0.00000000000E+00 0. -1.
</event>
<event>
 7    1  0.6584658E-006  0.1088942E+03  0.7561462E-02  0.1262631E+00
          2   -1    0    0  501    0  0.00000000000E+00  0.00000000000E+00  0.50414596678E+03  0.50414596678E+03  0.00000000000E+00 0. -1.
         -2   -1    0    0    0  501 -0.00000000000E+00 -0.00000000000E+00 -0.25058658800E+02  0.25058658800E+02  0.00000000000E+00 0.  1.
         23    2    1    2    0    0 -0.37366144916E+02  0.56404264402E+01  0.19413233457E+03  0.21571635653E+03  0.86128624479E+02 0.  0.
          5    1    1    2  502    0 -0.39280695125E+02 -0.26572528804E+02  0.73620600102E+02  0.87672900351E+02  0.41800000000E+01 0.  1.
         -5    1    1    2    0  502  0.76646840040E+02  0.20932102364E+02  0.21133437331E+03  0.22581536869E+03  0.41800000000E+01 0.  1.
        -11    1    3    3    0    0 -0.56158358203E+02 -0.19305815841E+02  0.97488518176E+02  0.11415115811E+03  0.00000000000E+00 0.  1.
         11    1    3    3    0    0  0.18792213287E+02  0.24946242281E+02  0.96643816391E+02  0.10156519842E+03  0.00000000000E+00 0. -1.
</event>
<event>
 7    1  0.6584658E-006  0.1065712E+03  0.7561462E-02  0.1267055E+00
          2   -1    0    0  501    0  0.00000000000E+00  0.00000000000E+00  0.34190148752E+02  0.34190148752E+02  0.00000000000E+00 0. -1.
         -2   -1    0    0    0  501 -0.00000000000E+00 -0.00000000000E+00 -0.41785324295E+03  0.41785324295E+03  0.00000000000E+00 0.  1.
         23    2    1    2    0    0  0.36059937098E+02 -0.11925479645E+02 -0.96494721947E+02  0.13651438469E+03  0.88782936054E+02 0.  0.
          5    1    1    2  502    0 -0.89259678235E+00  0.59343155856E+02 -0.21007795034E+03  0.21834061577E+03  0.41800000000E+01 0.  1.
         -5    1    1    2    0  502 -0.35167340315E+02 -0.47417676212E+02 -0.77090421910E+02  0.97188391243E+02  0.41800000000E+01 0.  1.
        -11    1    3    3    0    0  0.20668442323E+02  0.37432859086E+02 -0.57984873651E+02  0.72046158952E+02  0.00000000000E+00 0.  1.
         11    1    3    3    0    0  0.15391494775E+02 -0.49358338730E+02 -0.38509848297E+02  0.64468225735E+02  0.00000000000E+00 0. -1.
</event>
<event>
 7    1  0.6584658E-006  0.1416188E+03  0.7561462E-02  0.1211167E+00
          1   -1    0    0  501    0  0.00000000000E+00  0.00000000000E+00  0.37194121729E+03  0.37194121729E+03  0.00000000000E+00 0. -1.
         -1   -1    0    0    0  501 -0.00000000000E+00 -0.00000000000E+00 -0.60600158808E+02  0.60600158808E+02  0.00000000000E+00 0.  1.
         23    2    1    2    0    0 -0.88909617071E+02 -0.52107017709E+02  0.16498830255E+03  0.21416526945E+03  0.89585497485E+02 0.  0.
          5    1    1    2  502    0  0.11374447964E+03  0.16564041438E+02  0.84498211994E+02  0.14272208780E+03  0.41800000000E+01 0.  1.
         -5    1    1    2    0  502 -0.24834862566E+02  0.35542976271E+02  0.61854543939E+02  0.75654018841E+02  0.41800000000E+01 0.  1.
        -11    1    3    3    0    0 -0.13983529139E+02  0.17490687561E+02  0.29934144692E+01  0.22592560031E+02  0.00000000000E+00 0.  1.
         11    1    3    3    0    0 -0.74926087932E+02 -0.69597705270E+02  0.16199488808E+03  0.19157270942E+03  0.00000000000E+00 0. -1.
</event>
<event>
 7    1  0.6584658E-006  0.1026694E+03  0.7561462E-02  0.1274781E+00
         -1   -1    0    0    0  501 -0.00000000000E+00  0.00000000000E+00  0.20081697779E+02  0.20081697779E+02  0.00000000000E+00 0.  1.
          1   -1    0    0  501    0  0.00000000000E+00 -0.00000000000E+00 -0.67963867027E+03  0.67963867027E+03  0.00000000000E+00 0. -1.
         23    2    1    2    0    0  0.19276659151E+02  0.34328017023E+02 -0.34536886149E+03  0.35926169643E+03  0.90770665362E+02 0.  0.
          5    1    1    2  502    0 -0.66671820516E+02 -0.44955302767E+02 -0.22238995865E+03  0.23651823821E+03  0.41800000000E+01 0. -1.
         -5    1    1    2    0  502  0.47395161365E+02  0.10627285744E+02 -0.91798152351E+02  0.10394043341E+03  0.41800000000E+01 0. -1.
        -11    1    3    3    0    0  0.12012271506E+02 -0.18873163310E+02 -0.21692279824E+02  0.31161610421E+02  0.00000000000E+00 0.  1.
         11    1    3    3    0    0  0.72643876448E+01  0.53201180333E+02 -0.32367658167E+03  0.32810008601E+03  0.00000000000E+00 0. -1.
</event>
<event>
 7    1  0.6584658E-006  0.1186868E+03  0.7561462E-02  0.1245279E+00
          2   -1    0    0  501    0  0.00000000000E+00  0.00000000000E+00  0.79037450110E+02  0.79037450110E+02  0.00000000000E+00 0. -1.
         -2   -1    0    0    0  501 -0.00000000000E+00 -0.00000000000E+00 -0.24680080190E+03  0.24680080190E+03  0.00000000000E+00 0.  1.
         23    2    1    2    0    0 -0.73602180324E+02  0.20422548233E+02 -0.25699373018E+02  0.12171792155E+03  0.91216408771E+02 0.  0.
          5    1    1    2  502    0  0.50262241332E+02  0.34488907522E+02 -0.12923069001E+03  0.14294691772E+03  0.41800000000E+01 0. -1.
         -5    1    1    2    0  502  0.23339938993E+02 -0.54911455756E+02 -0.12833288765E+02  0.61173412737E+02  0.41800000000E+01 0. -1.
        -11    1    3    3    0    0  0.20503648215E+02  0.49368969293E+01 -0.14715379025E+02  0.25716044044E+02  0.00000000000E+00 0. -1.
         11    1    3    3    0    0 -0.94105828540E+02  0.15485651304E+02 -0.10983993993E+02  0.96001877510E+02  0.00000000000E+00 0.  1.
</event>
<event>
 7    1  0.6584658E-006  0.1000484E+03  0.7561462E-02  0.1280194E+00
          2   -1    0    0  501    0  0.00000000000E+00  0.00000000000E+00  0.15073273490E+03  0.15073273490E+03  0.00000000000E+00 0. -1.
         -2   -1    0    0    0  501 -0.00000000000E+00 -0.00000000000E+00 -0.81239604662E+02  0.81239604662E+02  0.00000000000E+00 0.  1.
         23    2    1    2    0    0  0.21901681862E+02  0.22228902377E+02  0.46427015713E+02  0.10100394571E+03  0.84098284718E+02 0.  0.
          5    1    1    2  502    0  0.51786303827E+02 -0.25244410644E+01  0.36265263232E+01  0.52142287636E+02  0.41800000000E+01 0.  1.
         -5    1    1    2    0  502 -0.73687985689E+02 -0.19704461313E+02  0.19439588197E+02  0.78826106207E+02  0.41800000000E+01 0.  1.
        -11    1    3    3    0    0 -0.20992867401E+02  0.19590306582E+02  0.50232621557E+02  0.57860149172E+02  0.00000000000E+00 0. -1.
         11    1    3    3    0    0  0.42894549263E+02  0.26385957947E+01 -0.38056058438E+01  0.43143796542E+02  0.00000000000E+00 0.  1.
</event>
<event>
 7    1  0.6584658E-006  0.1017433E+03  0.7561462E-02  0.1276672E+00
          2   -1    0    0  501    0  0.00000000000E+00  0.00000000000E+00  0.48859650101E+03  0.48859650101E+03  0.00000000000E+00 0. -1.
         -2   -1    0    0    0  501 -0.00000000000E+00 -0.00000000000E+00 -0.27300344202E+02  0.27300344202E+02  0.00000000000E+00 0.  1.
         23    2    1    2    0    0 -0.12822374015E+02 -0.19325119159E+02  0.26395469641E+03  0.28109899860E+03  0.93843975584E+02 0.  0.
          5    1    1    2  502    0  0.43771172929E+00 -0.46319060610E+02  0.13700475802E+03  0.14468387294E+03  0.41800000000E+01 0. -1.
         -5    1    1    2    0  502  0.12384662285E+02  0.65644179768E+02  0.60336702379E+02  0.90113973674E+02  0.41800000000E+01 0. -1.
        -11    1    3    3    0    0  0.25725579977E+02  0.21768995433E+02  0.15288592272E+03  0.15655606022E+03  0.00000000000E+00 0.  1.
         11    1    3    3    0    0 -0.38547953992E+02 -0.41094114592E+02  0.11106877369E+03  0.12454293838E+03  0.00000000000E+00 0. -1.
</event>
<event>
 7    1  0.6584658E-006  0.1301677E+03  0.7561462E-02  0.1227207E+00
         -2   -1    0    0    0  501 -0.00000000000E+00  0.00000000000E+00  0.12683102259E+03  0.12683102259E+03  0.00000000000E+00 0.  1.
          2   -1    0    0  501    0  0.00000000000E+00 -0.00000000000E+00 -0.21531378124E+03  0.21531378124E+03  0.00000000000E+00 0. -1.
         23    2    1    2    0    0 -0.99174510588E+02 -0.20170844359E+02 -0.11595550504E+03  0.17891425228E+03  0.91226005094E+02 0.  0.
          5    1    1    2  502    0  0.12827749556E+03  0.18067694486E+02  0.12622232796E+02  0.13022423205E+03  0.41800000000E+01 0. -1.
         -5    1    1    2    0  502 -0.29102984973E+02  0.21031498728E+01  0.14850513590E+02  0.33006319511E+02  0.41800000000E+01 0. -1.
        -11    1    3    3    0    0 -0.41292903385E+02 -0.98755744273E+01  0.66189674169E+01  0.42970240514E+02  0.00000000000E+00 0.  1.
         11    1    3    3    0    0 -0.57881607204E+02 -0.10295269931E+02 -0.12257447246E+03  0.13594401176E+03  0.00000000000E+00 0. -1.
</event>
<event>
 7    1  0.6584658E-006  0.1761398E+03  0.7561462E-02  0.1171592E+00
          2   -1    0    0  501    0  0.00000000000E+00  0.00000000000E+00  0.12541032635E+03  0.12541032635E+03  0.00000000000E+00 0. -1.
         -2   -1    0    0    0  501 -0.00000000000E+00 -0.00000000000E+00 -0.46804277795E+03  0.46804277795E+03  0.00000000000E+00 0.  1.
         23    2    1    2    0    0  0.53320656587E+02  0.15540695700E+03  0.57391151048E+01  0.18847741579E+03  0.92175832614E+02 0.  0.
          5    1    1    2  502    0 -0.27180384878E+02 -0.83412114825E+02 -0.59480706668E+02  0.10607441297E+03  0.41800000000E+01 0.  1.
         -5    1    1    2    0  502 -0.26140271709E+02 -0.71994842173E+02 -0.28889086004E+03  0.29890127554E+03  0.41800000000E+01 0.  1.
        -11    1    3    3    0    0  0.19376982217E+02  0.15244446471E+03  0.10711095698E+02  0.15404385685E+03  0.00000000000E+00 0. -1.
         11    1    3    3    0    0  0.33943674370E+02  0.29624922834E+01 -0.49719805930E+01  0.34433558940E+02  0.00000000000E+00 0.  1.
</event>
<event>
 7    1  0.6584658E-006  0.1216329E+03  0.7561462E-02  0.1240427E+00
         -3   -1    0    0    0  501 -0.00000000000E+00  0.00000000000E+00  0.20221818502E+04  0.20221818502E+04  0.00000000000E+00 0.  1.
          3   -1    0    0  501    0  0.00000000000E+00 -0.00000000000E+00 -0.12286653507E+02  0.12286653507E+02  0.00000000000E+00 0. -1.
         23    2    1    2    0    0 -0.52000743359E+02 -0.32242050769E+02  0.33594455591E+03  0.35473531294E+03  0.96097713028E+02 0.  0.
          5    1    1    2  502    0  0.92207829845E+02  0.12907825741E+02  0.12304070629E+04  0.12339318898E+04  0.41800000000E+01 0. -1.
         -5    1    1    2    0  502 -0.40207086485E+02  0.19334225028E+02  0.44354357789E+03  0.44580130097E+03  0.41800000000E+01 0. -1.
        -11    1    3    3    0    0 -0.73364860469E+02 -0.93750892280E+01  0.28901554461E+03  0.29832914721E+03  0.00000000000E+00 0.  1.
         11    1    3    3    0    0  0.21364117110E+02 -0.22866961541E+02  0.46929011304E+02  0.56406165727E+02  0.00000000000E+00 0. -1.
</event>
<event>
 7    1  0.6584658E-006  0.7381269E+02  0.7561462E-02  0.1347588E+00
         -4   -1    0    0    0  501 -0.00000000000E+00  0.00000000000E+00  0.35167121113E+03  0.35167121113E+03  0.00000000000E+00 0.  1.
          4   -1    0    0  501    0  0.00000000000E+00 -0.00000000000E+00 -0.32671227378E+02  0.32671227378E+02  0.00000000000E+00 0. -1.
         23    2    1    2    0    0  0.98123793009E+01 -0.19467908261E+01  0.12991201910E+03  0.15740372615E+03  0.88310404362E+02 0.  0.
          5    1    1    2  502    0 -0.71551699103E+01  0.30359498838E+02  0.19497871334E+03  0.19750206754E+03  0.41800000000E+01 0.  1.
         -5    1    1    2    0  502 -0.26572093906E+01 -0.28412708012E+02 -0.58907486819E+01  0.29436644822E+02  0.41800000000E+01 0.  1.
        -11    1    3    3    0    0 -0.52918366933E+01  0.41231746428E+02  0.47288651567E+02  0.62962504843E+02  0.00000000000E+00 0. -1.
         11    1    3    3    0    0  0.15104215994E+02 -0.43178537254E+02  0.82623367534E+02  0.94441221312E+02  0.00000000000E+00 0.  1.
</event>
<event>
 7    1  0.6584658E-006  0.1790412E+03  0.7561462E-02  0.1168734E+00
         -1   -1    0    0    0  501 -0.00000000000E+00  0.00000000000E+00  0.15348991140E+03  0.15348991140E+03  0.00000000000E+00 0.  1.
          1   -1    0    0  501    0  0.00000000000E+00 -0.00000000000E+00 -0.27473634518E+03  0.27473634518E+03  0.00000000000E+00 0. -1.
         23    2    1    2    0    0  0.14861435681E+03  0.22395702049E+02 -0.14930760398E+03  0.23068404930E+03  0.91293896147E+02 0.  0.
          5    1    1    2  502    0 -0.21236540299E+02 -0.58247836346E+02 -0.32548250550E+00  0.62139998566E+02  0.41800000000E+01 0.  1.
         -5    1    1    2    0  502 -0.12737781651E+03  0.35852134298E+02  0.28386652708E+02  0.13540220872E+03  0.41800000000E+01 0.  1.
        -11    1    3    3    0    0  0.13474446291E+03  0.40540685033E+02 -0.89749250784E+02  0.16689681076E+03  0.00000000000E+00 0.  1.
         11    1    3    3    0    0  0.13869893906E+02 -0.18144982985E+02 -0.59558353196E+02  0.63787238535E+02  0.00000000000E+00 0. -1.
</event>
<event>
 7    1  0.6584658E-006  0.2083932E+03  0.7561462E-02  0.1142845E+00
          2   -1    0    0  501    0  0.00000000000E+00  0.00000000000E+00  0.44983326214E+03  0.44983326214E+03  0.00000000000E+00 0. -1.
         -2   -1    0    0    0  501 -0.00000000000E+00 -0.00000000000E+00 -0.17709798368E+03  0.17709798368E+03  0.00000000000E+00 0.  1.
         23    2    1    2    0    0  0.18094522973E+02  0.18186802827E+03  0.33918858857E+03  0.39569991295E+03  0.90145055458E+02 0.  0.
          5    1    1    2  502    0  0.22292404332E+02 -0.17277353163E+03 -0.73332825679E+02  0.18905771670E+03  0.41800000000E+01 0. -1.
         -5    1    1    2    0  502 -0.40386927305E+02 -0.90944966398E+01  0.68795155678E+01  0.42173616169E+02  0.41800000000E+01 0. -1.
        -11    1    3    3    0    0 -0.28375460885E+02  0.12133409035E+03  0.24134334243E+03  0.27161321249E+03  0.00000000000E+00 0. -1.
         11    1    3    3    0    0  0.46469983858E+02  0.60533937914E+02  0.97845246144E+02  0.12408670046E+03  0.00000000000E+00 0.  1.
</event>
<event>
 6    1  0.6584658E-006  0.1112423E+03  0.7561462E-02  0.1258287E+00
          2   -1    0    0  501    0  0.00000000000E+00  0.00000000000E+00  0.27461827322E+03  0.27461827322E+03  0.00000000000E+00 0. -1.
         -2   -1    0    0    0  501 -0.00000000000E+00 -0.00000000000E+00 -0.73807655475E+02  0.73807655475E+02  0.00000000000E+00 0.  1.
          5    1    1    2  502    0  0.49597362893E+00 -0.48960091905E+02  0.28155804694E+02  0.56635309897E+02  0.41800000000E+01 0. -1.
         -5    1    1    2    0  502  0.48467807599E+02  0.71169965129E+02  0.27955335630E+02  0.90627068253E+02  0.41800000000E+01 0. -1.
        -11    1    1    2    0    0  0.11603477824E+02 -0.23875719617E+02 -0.14905693503E+02  0.30444546041E+02  0.00000000000E+00 0.  1.
         11    1    1    2    0    0 -0.60567259051E+02  0.16658463924E+01  0.15960517092E+03  0.17071900450E+03  0.00000000000E+00 0. -1.
</event>
<event>
 7    1  0.6584658E-006  0.1442791E+03  0.7561462E-02  0.1207684E+00
          3   -1    0    0  501    0  0.00000000000E+00  0.00000000000E+00  0.37417267761E+03  0.37417267761E+03  0.00000000000E+00 0. -1.
         -3   -1    0    0    0  501 -0.00000000000E+00 -0.00000000000E+00 -0.10954314787E+03  0.10954314787E+03  0.00000000000E+00 0.  1.
         23    2    1    2    0    0  0.42752843888E+02  0.12458389995E+03  0.25689034572E+03  0.30190197577E+03  0.88335720214E+02 0.  0.
          5    1    1    2  502    0  0.49941427872E+01 -0.88408614827E-01  0.43272196029E+02  0.43759623255E+02  0.41800000000E+01 0. -1.
         -5    1    1    2    0  502 -0.47746986675E+02 -0.12449549133E+03 -0.35533012013E+02  0.13805422645E+03  0.41800000000E+01 0. -1.
        -11    1    3    3    0    0  0.51175983627E+01  0.10696399972E+03  0.22611632016E+03  0.25019208079E+03  0.00000000000E+00 0.  1.
         11    1    3    3    0    0  0.37635245525E+02  0.17619900226E+02  0.30774025560E+02  0.51709894980E+02  0.00000000000E+00 0. -1.
</event>
<event>
 7    1  0.6584658E-006  0.1129129E+03  0.7561462E-02  0.1255269E+00
          2   -1    0    0  501    0  0.00000000000E+00  0.00000000000E+00  0.57038527012E+03  0.57038527012E+03  0.00000000000E+00 0. -1.
         -2   -1    0    0    0  501 -0.00000000000E+00 -0.00000000000E+00 -0.25062652336E+02  0.25062652336E+02  0.00000000000E+00 0.  1.
         23    2    1    2    0    0 -0.31942988819E+02 -0.41856427801E+02  0.24985132030E+03  0.27029794671E+03  0.88673460828E+02 0.  0.
          5    1    1    2  502    0  0.36392806571E+01 -0.43086440180E+02  0.68405821554E+02  0.81034033058E+02  0.41800000000E+01 0. -1.
         -5    1    1    2    0  502  0.28303708161E+02  0.84942867982E+02  0.22706547593E+03  0.24411594269E+03  0.41800000000E+01 0. -1.
        -11    1    3    3    0    0  0.23749969882E+02 -0.25186639043E+02  0.41783174309E+02  0.54261049668E+02  0.00000000000E+00 0.  1.
         11    1    3    3    0    0 -0.55692958701E+02 -0.16669788758E+02  0.20806814599E+03  0.21603689704E+03  0.00000000000E+00 0. -1.
</event>
<event>
 7    1  0.6584658E-006  0.1345014E+03  0.7561462E-02  0.1220925E+00
         -1   -1    0    0    0  501 -0.00000000000E+00  0.00000000000E+00  0.11086048369E+03  0.11086048369E+03  0.00000000000E+00 0. -1.
          1   -1    0    0  501    0  0.00000000000E+00 -0.00000000000E+00 -0.27174518700E+03  0.27174518700E+03  0.00000000000E+00 0.  1.
         23    2    1    2    0    0 -0.48126539718E+02  0.11687488873E+03 -0.12905742964E+03  0.20195109335E+03  0.90291309209E+02 0.  0.
          5    1    1    2  502    0  0.37154278831E+02 -0.96702802438E+02  0.35348611811E+02  0.10953934997E+03  0.41800000000E+01 0.  1.
         -5    1    1    2    0  502  0.10972260887E+02 -0.20172086292E+02 -0.67175885479E+02  0.71115227373E+02  0.41800000000E+01 0.  1.
        -11    1    3    3    0    0 -0.41352966523E+02  0.21950714509E+02 -0.72500076934E+01  0.47375777769E+02  0.00000000000E+00 0.  1.
         11    1    3    3    0    0 -0.67735731956E+01  0.94924174222E+02 -0.12180742194E+03  0.15457531558E+03  0.00000000000E+00 0. -1.
</event>
<event>
 7    1  0.6584658E-006  0.1187178E+03  0.7561462E-02  0.1245227E+00
          2   -1    0    0  501    0  0.00000000000E+00  0.00000000000E+00  0.34262796063E+03  0.34262796063E+03  0.00000000000E+00 0. -1.
         -2   -1    0    0    0  501 -0.00000000000E+00 -0.00000000000E+00 -0.66472645462E+02  0.66472645462E+02  0.00000000000E+00 0.  1.
         23    2    1    2    0    0 -0.80769769596E+02 -0.43310855782E+02  0.19489317655E+03  0.23402740260E+03  0.91574499690E+02 0.  0.
          5    1    1    2  502    0  0.83228465396E+02  0.75601520963E+02  0.86603223307E+02  0.14198647158E+03  0.41800000000E+01 0. -1.
         -5    1    1    2    0  502 -0.24586957997E+01 -0.32290665180E+02 -0.53410846916E+01  0.33086731910E+02  0.41800000000E+01 0. -1.
        -11    1    3    3    0    0 -0.43108741564E+02 -0.17074053616E+02  0.15551483426E+02  0.48905373354E+02  0.00000000000E+00 0.  1.
         11    1    3    3    0    0 -0.37661028032E+02 -0.26236802166E+02  0.17934169312E+03  0.18512202925E+03  0.00000000000E+00 0. -1.
</event>
<event>
 7    1  0.6584658E-006  0.1416706E+03  0.7561462E-02  0.1211099E+00
         -2   -1    0    0    0  501 -0.00000000000E+00  0.00000000000E+00  0.44393153360E+02  0.44393153360E+02  0.00000000000E+00 0.  1.
          2   -1    0    0  501    0  0.00000000000E+00 -0.00000000000E+00 -0.47045092865E+03  0.47045092865E+03  0.00000000000E+00 0. -1.
         23    2    1    2    0    0 -0.98974963523E+01  0.94674257027E+02 -0.20343146197E+03  0.24231770546E+03  0.90952379208E+02 0.  0.
          5    1    1    2  502    0  0.47897878344E+02  0.21351775650E+01 -0.10472909049E+03  0.11525806057E+03  0.41800000000E+01 0.  1.
         -5    1    1    2    0  502 -0.38000381992E+02 -0.96809434592E+02 -0.11789722283E+03  0.15726831598E+03  0.41800000000E+01 0.  1.
        -11    1    3    3    0    0  0.34184574871E+02  0.75847861894E+02 -0.13928712471E+03  0.16224175302E+03  0.00000000000E+00 0.  1.
         11    1    3    3    0    0 -0.44082071223E+02  0.18826395132E+02 -0.64144337256E+02  0.80075952439E+02  0.00000000000E+00 0. -1.
</event>
<event>
 7    1  0.6584658E-006  0.1839662E+03  0.7561462E-02  0.1164019E+00
         -2   -1    0    0    0  501 -0.00000000000E+00  0.00000000000E+00  0.76181836376E+02  0.76181836376E+02  0.00000000000E+00 0.  1.
          2   -1    0    0  501    0  0.00000000000E+00 -0.00000000000E+00 -0.54199173694E+03  0.54199173694E+03  0.00000000000E+00 0. -1.
         23    2    1    2    0    0  0.16585559017E+03 -0.18737359201E+02 -0.28945012603E+03  0.34699345749E+03  0.93615803501E+02 0.  0.
          5    1    1    2  502    0  0.43714690443E+01 -0.28878136017E+01 -0.67701392776E+02  0.68032346665E+02  0.41800000000E+01 0. -1.
         -5    1    1    2    0  502 -0.17022705921E+03  0.21625172803E+02 -0.10865838176E+03  0.20314776916E+03  0.41800000000E+01 0.  1.
        -11    1    3    3    0    0 -0.86766331702E+01  0.94066488317E+01 -0.34060686433E+02  0.36385427930E+02  0.00000000000E+00 0.  1.
         11    1    3    3    0    0  0.17453222334E+03 -0.28144008033E+02 -0.25538943959E+03  0.31060802956E+03  0.00000000000E+00 0. -1.
</event>
<event>
 7    1  0.6584658E-006  0.7754438E+02  0.7561462E-02  0.1336168E+00
          2   -1    0    0  501    0  0.00000000000E+00  0.00000000000E+00  0.41523023485E+03  0.41523023485E+03  0.00000000000E+00 0. -1.
         -2   -1    0    0    0  501 -0.00000000000E+00 -0.00000000000E+00 -0.50750090693E+02  0.50750090693E+02  0.00000000000E+00 0.  1.
         23    2    1    2    0    0 -0.52562643407E+02  0.50220667388E+02  0.26810299100E+03  0.29301635774E+03  0.93243901698E+02 0.  0.
          5    1    1    2  502    0  0.26099395094E+02 -0.47676853927E+02  0.12335166237E+03  0.13486054217E+03  0.41800000000E+01 0. -1.
         -5    1    1    2    0  502  0.26463248313E+02 -0.25438134607E+01 -0.26974509212E+02  0.38103425639E+02  0.41800000000E+01 0.  1.
        -11    1    3    3    0    0 -0.15974681714E+02  0.23249591402E+02  0.84964683882E+01  0.29460548727E+02  0.00000000000E+00 0.  1.
         11    1    3    3    0    0 -0.36587961693E+02  0.26971075986E+02  0.25960652261E+03  0.26355580901E+03  0.00000000000E+00 0. -1.
</event>
<event>
 7    1  0.6584658E-006  0.2273393E+03  0.7561462E-02  0.1128527E+00
          1   -1    0    0  501    0  0.00000000000E+00  0.00000000000E+00  0.13383608838E+04  0.13383608838E+04  0.00000000000E+00 0. -1.
         -1   -1    0    0    0  501 -0.00000000000E+00 -0.00000000000E+00 -0.43151889418E+02  0.43151889418E+02  0.00000000000E+00 0.  1.
         23    2    1    2    0    0 -0.11012236734E+03 -0.18090562257E+03  0.62218348841E+03  0.66494797182E+03  0.10094420198E+03 0.  0.
          5    1    1    2  502    0  0.26783172868E+02 -0.40361902368E+01  0.23548648564E+02  0.36133646782E+02  0.41800000000E+01 0.  1.
         -5    1    1    2    0  502  0.83339194469E+02  0.18494181281E+03  0.64947685736E+03  0.68043115457E+03  0.41800000000E+01 0.  1.
        -11    1    3    3    0    0 -0.33709830472E+02 -0.12561421784E+03  0.45241538677E+03  0.47073874557E+03  0.00000000000E+00 0. -1.
         11    1    3    3    0    0 -0.76412536866E+02 -0.55291404730E+02  0.16976810165E+03  0.19420922626E+03  0.00000000000E+00 0.  1.
</event>
<event>
 7    1  0.6584658E-006  0.1250420E+03  0.7561462E-02  0.1235004E+00
          1   -1    0    0  501    0  0.00000000000E+00  0.00000000000E+00  0.62350036745E+03  0.62350036745E+03  0.00000000000E+00 0. -1.
         -1   -1    0    0    0  501 -0.00000000000E+00 -0.00000000000E+00 -0.34474795475E+02  0.34474795475E+02  0.00000000000E+00 0.  1.
         23    2    1    2    0    0 -0.21539847567E+02  0.75491720721E+02  0.40527723479E+03  0.42223344809E+03  0.88704468400E+02 0.  0.
          5    1    1    2  502    0  0.56808607392E+02 -0.10436026557E+02  0.13535602367E+03  0.14722382304E+03  0.41800000000E+01 0.  1.
         -5    1    1    2    0  502 -0.35268759825E+02 -0.65055694164E+02  0.48392313516E+02  0.88517891808E+02  0.41800000000E+01 0.  1.
        -11    1    3    3    0    0 -0.13046568538E+02  0.95464125338E+02  0.31645433715E+03  0.33079746021E+03  0.00000000000E+00 0.  1.
         11    1    3    3    0    0 -0.84932790293E+01 -0.19972404617E+02  0.88822897634E+02  0.91435987877E+02  0.00000000000E+00 0. -1.
</event>
<event>
 7    1  0.6584658E-006  0.1002487E+03  0.7561462E-02  0.1279774E+00
          1   -1    0    0  501    0  0.00000000000E+00  0.00000000000E+00  0.10501569695E+04  0.10501569695E+04  0.00000000000E+00 0. -1.
         -1   -1    0    0    0  501 -0.00000000000E+00 -0.00000000000E+00 -0.13292977396E+02  0.13292977396E+02  0.00000000000E+00 0.  1.
         23    2    1    2    0    0 -0.44636342120E+02 -0.11304284466E+02  0.41961271596E+03  0.43196606057E+03  0.91649638289E+02 0.  0.
          5    1    1    2  502    0  0.21649921503E+01 -0.34795250339E+02  0.51951805062E+02  0.62704538005E+02  0.41800000000E+01 0.  1.
         -5    1    1    2    0  502  0.42471349970E+02  0.46099534805E+02  0.56529947110E+03  0.56877934835E+03  0.41800000000E+01 0.  1.
        -11    1    3    3    0    0 -0.14017527394E+02 -0.50738168046E+02  0.21671747206E+03  0.22301864377E+03  0.00000000000E+00 0.  1.
         11    1    3    3    0    0 -0.30618814726E+02  0.39433883580E+02  0.20289524390E+03  0.20894741680E+03  0.00000000000E+00 0. -1.
</event>
<event>
 7    1  0.6584658E-006  0.1182972E+03  0.7561462E-02  0.1245933E+00
          1   -1    0    0  501    0  0.00000000000E+00  0.00000000000E+00  0.19015379812E+03  0.19015379812E+03  0.00000000000E+00 0. -1.
         -1   -1    0    0    0  501 -0.00000000000E+00 -0.00000000000E+00 -0.10417675611E+03  0.10417675611E+03  0.00000000000E+00 0.  1.
         23    2    1    2    0    0 -0.36471609755E+02  0.79537576772E+02  0.22429998463E+02  0.12897215718E+03  0.92056005023E+02 0.  0.
          5    1    1    2  502    0  0.32765958860E+02 -0.93085480907E+02 -0.13962458376E+01  0.98782269250E+02  0.41800000000E+01 0. -1.
         -5    1    1    2    0  502  0.37056508946E+01  0.13547904135E+02  0.64943289388E+02  0.66576127791E+02  0.41800000000E+01 0. -1.
        -11    1    3    3    0    0  0.18988080155E+02  0.62241557607E+02 -0.38988952381E+01  0.65190183812E+02  0.00000000000E+00 0.  1.
         11    1    3    3    0    0 -0.55459689909E+02  0.17296019165E+02  0.26328893701E+02  0.63781973373E+02  0.00000000000E+00 0. -1.
</event>
<event>
 7    1  0.6584658E-006  0.1093438E+03  0.7561462E-02  0.1261790E+00
          2   -1    0    0  501    0  0.00000000000E+00  0.00000000000E+00  0.77992325814E+03  0.77992325814E+03  0.00000000000E+00 0.  1.
         -2   -1    0    0    0  501 -0.00000000000E+00 -0.00000000000E+00 -0.19248382813E+02  0.19248382813E+02  0.00000000000E+00 0. -1.
         23    2    1    2    0    0  0.14383732054E+02  0.37004068660E+02  0.46779650655E+03  0.47823271430E+03  0.91086577707E+02 0.  0.
          5    1    1    2  502    0  0.50331020970E+01  0.40100312636E+02  0.45200657333E+02  0.60777783881E+02  0.41800000000E+01 0.  1.
         -5    1    1    2    0  502 -0.19416834151E+02 -0.77104381296E+02  0.24767771144E+03  0.26016114277E+03  0.41800000000E+01 0.  1.
        -11    1    3    3    0    0  0.47835767862E+02  0.43152223209E+02  0.27379444512E+03  0.28127170713E+03  0.00000000000E+00 0. -1.
         11    1    3    3    0    0 -0.33452035808E+02 -0.61481545491E+01  0.19400206143E+03  0.19696100717E+03  0.00000000000E+00 0.  1.
</event>
<event>
 7    1  0.6584658E-006  0.1675013E+03  0.7561462E-02  0.1180479E+00
         -3   -1    0    0    0  501 -0.00000000000E+00  0.00000000000E+00  0.24087741293E+03  0.24087741293E+03  0.00000000000E+00 0.  1.
          3   -1    0    0  501    0  0.00000000000E+00 -0.00000000000E+00 -0.18230924782E+03  0.18230924782E+03  0.00000000000E+00 0. -1.
         23    2    1    2    0    0  0.74326690985E+02 -0.12132976813E+03 -0.82716750097E+02  0.18685209278E+03  0.88466231974E+02 0.  0.
          5    1    1    2  502    0 -0.18048366908E+01  0.10504129545E+03  0.44349893648E+02  0.11411098392E+03  0.41800000000E+01 0.  1.
         -5    1    1    2    0  502 -0.72521854295E+02  0.16288472685E+02  0.96935021563E+02  0.12222358405E+03  0.41800000000E+01 0.  1.
        -11    1    3    3    0    0  0.58855229264E+02 -0.12615647517E+03 -0.45826478854E+02  0.14655872681E+03  0.00000000000E+00 0.  1.
         11    1    3    3    0    0  0.15471461721E+02  0.48267070372E+01 -0.36890271243E+02  0.40293365968E+02  0.00000000000E+00 0. -1.
</event>
<event>
 7    1  0.6584658E-006  0.1598603E+03  0.7561462E-02  0.1188855E+00
         -2   -1    0    0    0  501 -0.00000000000E+00  0.00000000000E+00  0.56110345843E+02  0.56110345843E+02  0.00000000000E+00 0.  1.
          2   -1    0    0  501    0  0.00000000000E+00 -0.00000000000E+00 -0.50600509201E+03  0.50600509201E+03  0.00000000000E+00 0. -1.
         23    2    1    2    0    0 -0.71269102808E+02  0.10708764325E+03 -0.16353128193E+03  0.22418093928E+03  0.83471941487E+02 0.  0.
          5    1    1    2  502    0  0.33792077012E+02  0.19612047821E+02 -0.11487433191E+03  0.12140890174E+03  0.41800000000E+01 0.  1.
         -5    1    1    2    0  502  0.37477025795E+02 -0.12669969107E+03 -0.17148913232E+03  0.21652559683E+03  0.41800000000E+01 0.  1.
        -11    1    3    3    0    0  0.13223305912E+02  0.19705031247E+01 -0.36649757362E+02  0.39012093209E+02  0.00000000000E+00 0. -1.
         11    1    3    3    0    0 -0.84492408719E+02  0.10511714012E+03 -0.12688152456E+03  0.18516884607E+03  0.00000000000E+00 0.  1.
</event>
<event>
 7    1  0.6584658E-006  0.9647147E+02  0.7561462E-02  0.1287896E+00
          4   -1    0    0  501    0  0.00000000000E+00  0.00000000000E+00  0.21794331280E+03  0.21794331280E+03  0.00000000000E+00 0.  1.
         -4   -1    0    0    0  501 -0.00000000000E+00 -0.00000000000E+00 -0.84453364062E+02  0.84453364062E+02  0.00000000000E+00 0. -1.
         23    2    1    2    0    0  0.25312228954E+02  0.35844668879E+02  0.13640469374E+03  0.16977547489E+03  0.91059992189E+02 0.  0.
          5    1    1    2  502    0 -0.98800222637E+01 -0.61178273876E+02  0.44589746061E+02  0.76459884175E+02  0.41800000000E+01 0. -1.
         -5    1    1    2    0  502 -0.15432206690E+02  0.25333604997E+02 -0.47504491064E+02  0.56161317797E+02  0.41800000000E+01 0. -1.
        -11    1    3    3    0    0  0.31957772932E+02 -0.24435275889E+02  0.59776284250E+02  0.72052662112E+02  0.00000000000E+00 0.  1.
         11    1    3    3    0    0 -0.66455439783E+01  0.60279944768E+02  0.76628409488E+02  0.97722812775E+02  0.00000000000E+00 0. -1.
</event>
<event>
 7    1  0.6584658E-006  0.1990525E+03  0.7561462E-02  0.1150541E+00
          2   -1    0    0  501    0  0.00000000000E+00  0.00000000000E+00  0.23403397416E+03  0.23403397416E+03  0.00000000000E+00 0. -1.
         -2   -1    0    0    0  501 -0.00000000000E+00 -0.00000000000E+00 -0.19648792613E+03  0.19648792613E+03  0.00000000000E+00 0.  1.
         23    2    1    2    0    0  0.81254506093E+01 -0.17353842145E+03 -0.45408337493E+02  0.20093494465E+03  0.90173877601E+02 0.  0.
          5    1    1    2  502    0 -0.24026900513E+02  0.18376955984E+03  0.93404371376E+02  0.20758225373E+03  0.41800000000E+01 0.  1.
         -5    1    1    2    0  502  0.15901449904E+02 -0.10231138388E+02 -0.10449985850E+02  0.22004701908E+02  0.41800000000E+01 0.  1.
        -11    1    3    3    0    0  0.46257996530E+02 -0.81107646014E+02 -0.37548938435E+02  0.10063883576E+03  0.00000000000E+00 0.  1.
         11    1    3    3    0    0 -0.38132545921E+02 -0.92430775434E+02 -0.78593990578E+01  0.10029610889E+03  0.00000000000E+00 0. -1.
</event>
<event>
 7    1  0.6584658E-006  0.1526565E+03  0.7561462E-02  0.1197246E+00
         -1   -1    0    0    0  501 -0.00000000000E+00  0.00000000000E+00  0.16886112520E+04  0.16886112520E+04  0.00000000000E+00 0.  1.
          1   -1    0    0  501    0  0.00000000000E+00 -0.00000000000E+00 -0.15356611306E+02  0.15356611306E+02  0.00000000000E+00 0. -1.
         23    2    1    2    0    0 -0.11786254324E+03 -0.98558117478E+01  0.80043018203E+03  0.81432795020E+03  0.91939208403E+02 0.  0.
          5    1    1    2  502    0  0.10965841080E+03  0.45441975782E+02  0.79190790530E+03  0.80076559810E+03  0.41800000000E+01 0. -1.
         -5    1    1    2    0  502  0.82041324430E+01 -0.35586164034E+02  0.80916553321E+02  0.88874314968E+02  0.41800000000E+01 0. -1.
        -11    1    3    3    0    0 -0.10113172143E+03 -0.45126181717E+02  0.59823424446E+03  0.60839806755E+03  0.00000000000E+00 0.  1.
         11    1    3    3    0    0 -0.16730821810E+02  0.35270369969E+02  0.20219593758E+03  0.20592988265E+03  0.00000000000E+00 0. -1.
</event>
<event>
 7    1  0.6584658E-006  0.9330411E+02  0.7561462E-02  0.1295042E+00
          1   -1    0    0  501    0  0.00000000000E+00  0.00000000000E+00  0.44733199154E+03  0.44733199154E+03  0.00000000000E+00 0. -1.
         -1   -1    0    0    0  501 -0.00000000000E+00 -0.00000000000E+00 -0.79240087999E+02  0.79240087999E+02  0.00000000000E+00 0.  1.
         23    2    1    2    0    0 -0.67924645132E+02  0.49633800200E+02  0.36353181792E+03  0.38301238304E+03  0.86405042545E+02 0.  0.
          5    1    1    2  502    0  0.56701275090E+02 -0.21187322297E+02  0.56651543867E+02  0.83010885103E+02  0.41800000000E+01 0. -1.
         -5    1    1    2    0  502  0.11223370042E+02 -0.28446477903E+02 -0.52091458247E+02  0.60548811404E+02  0.41800000000E+01 0.  1.
        -11    1    3    3    0    0 -0.50823298435E+02  0.98553633255E+01  0.30936466840E+03  0.31366643732E+03  0.00000000000E+00 0. -1.
         11    1    3    3    0    0 -0.17101346697E+02  0.39778436874E+02  0.54167149526E+02  0.69345945713E+02  0.00000000000E+00 0.  1.
</event>
<event>
 7    1  0.6584658E-006  0.1793203E+03  0.7561462E-02  0.1168462E+00
         -2   -1    0    0    0  501 -0.00000000000E+00  0.00000000000E+00  0.28400698993E+02  0.28400698993E+02  0.00000000000E+00 0.  1.
          2   -1    0    0  501    0  0.00000000000E+00 -0.00000000000E+00 -0.11729756825E+04  0.11729756825E+04  0.00000000000E+00 0. -1.
         23    2    1    2    0    0 -0.86975228299E+02  0.12243698726E+03 -0.60070883114E+03  0.62345442046E+03  0.72724194031E+02 0.  0.
          5    1    1    2  502    0  0.48737474933E+02  0.13347466673E+02 -0.19756961932E+03  0.20397235893E+03  0.41800000000E+01 0.  1.
         -5    1    1    2    0  502  0.38237753366E+02 -0.13578445393E+03 -0.34629653306E+03  0.37394960211E+03  0.41800000000E+01 0.  1.
        -11    1    3    3    0    0 -0.86457089211E+02  0.62050296047E+02 -0.37528349776E+03  0.39008046760E+03  0.00000000000E+00 0.  1.
         11    1    3    3    0    0 -0.51813908773E+00  0.60386691211E+02 -0.22542533338E+03  0.23337395286E+03  0.00000000000E+00 0. -1.
</event>
<event>
 7    1  0.6584658E-006  0.1560951E+03  0.7561462E-02  0.1193177E+00
          1   -1    0    0  501    0  0.00000000000E+00  0.00000000000E+00  0.22387398359E+03  0.22387398359E+03  0.00000000000E+00 0. -1.
         -1   -1    0    0    0  501 -0.00000000000E+00 -0.00000000000E+00 -0.17327954489E+03  0.17327954489E+03  0.00000000000E+00 0.  1.
         23    2    1    2    0    0  0.13135054537E+03 -0.22075108538E+02  0.12028659888E+03  0.20159037597E+03  0.91812513455E+02 0.  0.
          5    1    1    2  502    0 -0.11744807187E+03  0.63841632398E+02 -0.70809172772E+02  0.15133147380E+03  0.41800000000E+01 0.  1.
         -5    1    1    2    0  502 -0.13902473503E+02 -0.41766523860E+02  0.11170125990E+01  0.44231678715E+02  0.41800000000E+01 0.  1.
        -11    1    3    3    0    0  0.19509317493E+02 -0.94504649445E+01 -0.14432309965E+02  0.26042586807E+02  0.00000000000E+00 0.  1.
         11    1    3    3    0    0  0.11184122788E+03 -0.12624643594E+02  0.13471890884E+03  0.17554778916E+03  0.00000000000E+00 0. -1.
</event>
<event>
 7    1  0.6584658E-006  0.1618674E+03  0.7561462E-02  0.1186604E+00
          1   -1    0    0  501    0  0.00000000000E+00  0.00000000000E+00  0.53825608007E+03  0.53825608007E+03  0.00000000000E+00 0. -1.
         -1   -1    0    0    0  501 -0.00000000000E+00 -0.00000000000E+00 -0.62275817494E+02  0.62275817494E+02  0.00000000000E+00 0.  1.
         23    2    1    2    0    0 -0.96259542765E+01 -0.12940866523E+03  0.33830095445E+03  0.37372105213E+03  0.91545766640E+02 0.  0.
          5    1    1    2  502    0 -0.19203906255E+02  0.13955354566E+03  0.13610491429E+03  0.19592346010E+03  0.41800000000E+01 0.  1.
         -5    1    1    2    0  502  0.28829860531E+02 -0.10144880434E+02  0.15743938358E+01  0.30887385341E+02  0.41800000000E+01 0.  1.
        -11    1    3    3    0    0  0.31920248633E+02 -0.28352850633E+02  0.52013540404E+02  0.67291862786E+02  0.00000000000E+00 0.  1.
         11    1    3    3    0    0 -0.41546202909E+02 -0.10105581459E+03  0.28628741405E+03  0.30642918934E+03  0.00000000000E+00 0. -1.
</event>
<event>
 7    1  0.6584658E-006  0.1200797E+03  0.7561462E-02  0.1242966E+00
         -1   -1    0    0    0  501 -0.00000000000E+00  0.00000000000E+00  0.42594745959E+02  0.42594745959E+02  0.00000000000E+00 0.  1.
          1   -1    0    0  501    0  0.00000000000E+00 -0.00000000000E+00 -0.45933987686E+03  0.45933987686E+03  0.00000000000E+00 0. -1.
         23    2    1    2    0    0  0.52472146394E+02 -0.55069531126E+02 -0.26520800115E+03  0.29122789319E+03  0.93233161952E+02 0.  0.
          5    1    1    2  502    0 -0.62109864805E+02  0.90258618336E+02 -0.11148275752E+03  0.15636537697E+03  0.41800000000E+01 0. -1.
         -5    1    1    2    0  502  0.96377184107E+01 -0.35189087210E+02 -0.40054372226E+02  0.54341352664E+02  0.41800000000E+01 0. -1.
        -11    1    3    3    0    0  0.17130728677E+01 -0.41113630173E+02 -0.21353033260E+03  0.21745911833E+03  0.00000000000E+00 0. -1.
         11    1    3    3    0    0  0.50759073527E+02 -0.13955900953E+02 -0.51677668559E+02  0.73768774860E+02  0.00000000000E+00 0.  1.
</event>
<event>
 7    1  0.6584658E-006  0.1619797E+03  0.7561462E-02  0.1186480E+00
         -1   -1    0    0    0  501 -0.00000000000E+00  0.00000000000E+00  0.99464866346E+02  0.99464866346E+02  0.00000000000E+00 0.  1.
          1   -1    0    0  501    0  0.00000000000E+00 -0.00000000000E+00 -0.30197590001E+03  0.30197590001E+03  0.00000000000E+00 0. -1.
         23    2    1    2    0    0 -0.14097008803E+02  0.12836613226E+03 -0.14113042451E+03  0.21146247700E+03  0.90122099876E+02 0.  0.
          5    1    1    2  502    0  0.43864020507E+02 -0.12915445680E+03 -0.18656219313E+02  0.13773326732E+03  0.41800000000E+01 0.  1.
         -5    1    1    2    0  502 -0.29767011704E+02  0.78832454373E+00 -0.42724389840E+02  0.52245022046E+02  0.41800000000E+01 0.  1.
        -11    1    3    3    0    0  0.38495969638E+02  0.56657489108E+02 -0.58782016823E+02  0.90262596086E+02  0.00000000000E+00 0. -1.
         11    1    3    3    0    0 -0.52592978440E+02  0.71708643149E+02 -0.82348407691E+02  0.12119988091E+03  0.00000000000E+00 0.  1.
</event>
<event>
 7    1  0.6584658E-006  0.1462605E+03  0.7561462E-02  0.1205145E+00
          2   -1    0    0  501    0  0.00000000000E+00  0.00000000000E+00  0.55201366298E+02  0.55201366298E+02  0.00000000000E+00 0. -1.
         -2   -1    0    0    0  501 -0.00000000000E+00 -0.00000000000E+00 -0.58801733524E+03  0.58801733524E+03  0.00000000000E+00 0.  1.
         23    2    1    2    0    0 -0.14163375397E+03 -0.11752370734E+02 -0.28201288653E+03  0.32897576917E+03  0.92171308147E+02 0.  0.
          5    1    1    2  502    0  0.82148585387E+02 -0.13432544698E+02 -0.23247921188E+03  0.24696736565E+03  0.41800000000E+01 0.  1.
         -5    1    1    2    0  502  0.59485168584E+02  0.25184915432E+02 -0.18323870526E+02  0.67275566722E+02  0.41800000000E+01 0.  1.
        -11    1    3    3    0    0 -0.10202376710E+03  0.32836282242E+01 -0.26379748039E+03  0.28285816574E+03  0.00000000000E+00 0.  1.
         11    1    3    3    0    0 -0.39609986868E+02 -0.15035998959E+02 -0.18215406144E+02  0.46117603422E+02  0.00000000000E+00 0. -1.
</event>
<event>
 7    1  0.6584658E-006  0.9819216E+02  0.7561462E-02  0.1284144E+00
          3   -1    0    0  501    0  0.00000000000E+00  0.00000000000E+00  0.42206314309E+02  0.42206314309E+02  0.00000000000E+00 0. -1.
         -3   -1    0    0    0  501 -0.00000000000E+00 -0.00000000000E+00 -0.38723194872E+03  0.38723194872E+03  0.00000000000E+00 0.  1.
         23    2    1    2    0    0 -0.31267339501E+02  0.58409104251E+02 -0.17854262561E+03  0.21091257191E+03  0.90649731666E+02 0.  0.
          5    1    1    2  502    0  0.11370118878E+01 -0.55665913492E+02 -0.71481000998E+01  0.56289914337E+02  0.41800000000E+01 0. -1.
         -5    1    1    2    0  502  0.30130327613E+02 -0.27431907587E+01 -0.15933490870E+03  0.16223577678E+03  0.41800000000E+01 0. -1.
        -11    1    3    3    0    0 -0.62224243765E+02  0.37488084960E+02 -0.13679141117E+03  0.15488416058E+03  0.00000000000E+00 0.  1.
         11    1    3    3    0    0  0.30956904265E+02  0.20921019291E+02 -0.41751214435E+02  0.56028411334E+02  0.00000000000E+00 0. -1.
</event>
<event>
 7    1  0.6584658E-006  0.8404026E+02  0.7561462E-02  0.1317962E+00
         -1   -1    0    0    0  501 -0.00000000000E+00  0.00000000000E+00  0.20125188673E+04  0.20125188673E+04  0.00000000000E+00 0.  1.
          1   -1    0    0  501    0  0.00000000000E+00 -0.00000000000E+00 -0.17343075355E+02  0.17343075355E+02  0.00000000000E+00 0. -1.
         23    2    1    2    0    0 -0.18419589339E+02  0.26916192936E+02  0.78893316985E+02  0.10922406834E+03  0.68132069727E+02 0.  0.
          5    1    1    2  502    0  0.69656119956E+02 -0.18081179965E+01  0.87205428773E+03  0.87484364174E+03  0.41800000000E+01 0.  1.
         -5    1    1    2    0  502 -0.51236530617E+02 -0.25108074940E+02  0.10442281872E+04  0.10457942325E+04  0.41800000000E+01 0.  1.
        -11    1    3    3    0    0  0.39399224402E+01  0.15435108235E+02  0.82328498614E+02  0.83855514065E+02  0.00000000000E+00 0.  1.
         11    1    3    3    0    0 -0.22359511779E+02  0.11481084702E+02 -0.34351816295E+01  0.25368554270E+02  0.00000000000E+00 0. -1.
</event>
<event>
 7    1  0.6584658E-006  0.1067509E+03  0.7561462E-02  0.1266708E+00
          1   -1    0    0  501    0  0.00000000000E+00  0.00000000000E+00  0.17529192793E+03  0.17529192793E+03  0.00000000000E+00 0. -1.
         -1   -1    0    0    0  501 -0.00000000000E+00 -0.00000000000E+00 -0.99465682818E+02  0.99465682818E+02  0.00000000000E+00 0.  1.
         23    2    1    2    0    0  0.40403738932E+02 -0.92688799156E+01  0.97611133584E+02  0.14119064701E+03  0.93212076192E+02 0.  0.
          5    1    1    2  502    0  0.37586155999E+02  0.10404647205E+02 -0.37077463826E+02  0.53973943065E+02  0.41800000000E+01 0. -1.
         -5    1    1    2    0  502 -0.77989894931E+02 -0.11357672897E+01  0.15292575349E+02  0.79593020671E+02  0.41800000000E+01 0. -1.
        -11    1    3    3    0    0 -0.11916119848E+02  0.28996096476E+02  0.11460545620E+02  0.33378310757E+02  0.00000000000E+00 0.  1.
         11    1    3    3    0    0  0.52319858780E+02 -0.38264976392E+02  0.86150587964E+02  0.10781233625E+03  0.00000000000E+00 0. -1.
</event>
<event>
 7    1  0.1013404E-005  0.1685581E+03  0.7561462E-02  0.1179360E+00
         -1   -1    0    0    0  501 -0.00000000000E+00  0.00000000000E+00  0.20899749062E+03  0.20899749062E+03  0.00000000000E+00 0.  1.
          1   -1    0    0  501    0  0.00000000000E+00 -0.00000000000E+00 -0.16144549200E+03  0.16144549200E+03  0.00000000000E+00 0. -1.
         23    2    1    2    0    0  0.11709151282E+03  0.89550843505E+02  0.29455123911E+02  0.17626587873E+03  0.92044987544E+02 0.  0.
          5    1    1    2  502    0 -0.90418263560E+02  0.45759724879E+01 -0.12723057530E+02  0.91519126429E+02  0.41800000000E+01 0. -1.
         -5    1    1    2    0  502 -0.26673249261E+02 -0.94126815993E+02  0.30819932238E+02  0.10265797747E+03  0.41800000000E+01 0. -1.
        -11    1    3    3    0    0  0.74841222433E+02  0.68066147686E+02  0.62108067958E+02  0.11870813427E+03  0.00000000000E+00 0.  1.
         11    1    3    3    0    0  0.42250290388E+02  0.21484695819E+02 -0.32652944047E+02  0.57557744460E+02  0.00000000000E+00 0. -1.
</event>
<event>
 7    1  0.6584658E-006  0.2327266E+03  0.7561462E-02  0.1124735E+00
          1   -1    0    0  501    0  0.00000000000E+00  0.00000000000E+00  0.11389468526E+04  0.11389468526E+04  0.00000000000E+00 0. -1.
         -1   -1    0    0    0  501 -0.00000000000E+00 -0.00000000000E+00 -0.95927662236E+02  0.95927662236E+02  0.00000000000E+00 0.  1.
         23    2    1    2    0    0 -0.15222061936E+03  0.14080121244E+03  0.94779364680E+03  0.97466004628E+03  0.93023171946E+02 0.  0.
          5    1    1    2  502    0  0.49014284805E+02 -0.12584072761E+03  0.34437199006E+02  0.13943343185E+03  0.41800000000E+01 0.  1.
         -5    1    1    2    0  502  0.10320633455E+03 -0.14960484825E+02  0.60788344591E+02  0.12078103674E+03  0.41800000000E+01 0.  1.
        -11    1    3    3    0    0 -0.14753469362E+03  0.85596684731E+02  0.66789431139E+03  0.68933017448E+03  0.00000000000E+00 0. -1.
         11    1    3    3    0    0 -0.46859257337E+01  0.55204527708E+02  0.27989933541E+03  0.28532987180E+03  0.00000000000E+00 0.  1.
</event>
<event>
 7    1  0.6584658E-006  0.9211107E+02  0.7561462E-02  0.1297818E+00
          3   -1    0    0  501    0  0.00000000000E+00  0.00000000000E+00  0.98043191046E+02  0.98043191046E+02  0.00000000000E+00 0. -1.
         -3   -1    0    0    0  501 -0.00000000000E+00 -0.00000000000E+00 -0.16123023041E+03  0.16123023041E+03  0.00000000000E+00 0.  1.
         23    2    1    2    0    0 -0.46208917202E+02 -0.34698040097E+02 -0.11195911877E+01  0.10814646013E+03  0.91406702917E+02 0.  0.
          5    1    1    2  502    0  0.83284845909E+02  0.18931594675E+02 -0.11414372999E+02  0.86270105749E+02  0.41800000000E+01 0.  1.
         -5    1    1    2    0  502 -0.37075928707E+02  0.15766445422E+02 -0.50653075181E+02  0.64856855582E+02  0.41800000000E+01 0.  1.
        -11    1    3    3    0    0 -0.83585784786E+01 -0.98916922430E+01 -0.43961480763E+02  0.45829283220E+02  0.00000000000E+00 0.  1.
         11    1    3    3    0    0 -0.37850338723E+02 -0.24806347854E+02  0.42841889575E+02  0.62317176907E+02  0.00000000000E+00 0. -1.
</event>
<event>
 7    1  0.6584658E-006  0.1245812E+03  0.7561462E-02  0.1235725E+00
         -2   -1    0    0    0  501 -0.00000000000E+00  0.00000000000E+00  0.21947462232E+02  0.21947462232E+02  0.00000000000E+00 0.  1.
          2   -1    0    0  501    0  0.00000000000E+00 -0.00000000000E+00 -0.83512765834E+03  0.83512765834E+03  0.00000000000E+00 0. -1.
         23    2    1    2    0    0  0.47301836309E+02  0.56050871064E+02 -0.47080053187E+03  0.48525436424E+03  0.91866715035E+02 0.  0.
          5    1    1    2  502    0  0.12189916788E+02 -0.71766419084E+02 -0.25249198210E+03  0.26280922054E+03  0.41800000000E+01 0. -1.
         -5    1    1    2    0  502 -0.59491753097E+02  0.15715548020E+02 -0.89887682137E+02  0.10901153579E+03  0.41800000000E+01 0. -1.
        -11    1    3    3    0    0  0.47219279375E+02 -0.10211952798E+02 -0.14672346184E+03  0.15447238775E+03  0.00000000000E+00 0.  1.
         11    1    3    3    0    0  0.82556934050E-01  0.66262823863E+02 -0.32407707004E+03  0.33078197648E+03  0.00000000000E+00 0. -1.
</event>
<event>
 7    1  0.6584658E-006  0.1130860E+03  0.7561462E-02  0.1254960E+00
         -2   -1    0    0    0  501 -0.00000000000E+00  0.00000000000E+00  0.41664431435E+02  0.41664431435E+02  0.00000000000E+00 0.  1.
          2   -1    0    0  501    0  0.00000000000E+00 -0.00000000000E+00 -0.46067137939E+03  0.46067137939E+03  0.00000000000E+00 0. -1.
         23    2    1    2    0    0  0.53510558952E+02 -0.34059557091E+02 -0.28756992127E+03  0.31012231496E+03  0.97241746530E+02 0.  0.
          5    1    1    2  502    0  0.13997626886E+02  0.60304691775E+02 -0.34065190442E+02  0.70784878388E+02  0.41800000000E+01 0. -1.
         -5    1    1    2    0  502 -0.67508185837E+02 -0.26245134684E+02 -0.97371836246E+02  0.12142861748E+03  0.41800000000E+01 0. -1.
        -11    1    3    3    0    0  0.41751123730E+02  0.12474797041E+02 -0.44212194606E+02  0.62076525723E+02  0.00000000000E+00 0.  1.
         11    1    3    3    0    0  0.11759435221E+02 -0.46534354131E+02 -0.24335772666E+03  0.24804578924E+03  0.00000000000E+00 0. -1.
</event>
<event>
 7    1  0.6584658E-006  0.9528350E+02  0.7561462E-02  0.1290539E+00
          2   -1    0    0  501    0  0.00000000000E+00  0.00000000000E+00  0.22717491596E+03  0.22717491596E+03  0.00000000000E+00 0. -1.
         -2   -1    0    0    0  501 -0.00000000000E+00 -0.00000000000E+00 -0.55712361189E+02  0.55712361189E+02  0.00000000000E+00 0.  1.
         23    2    1    2    0    0 -0.18268290619E+02 -0.20751217304E+01  0.10354367428E+03  0.13936203748E+03  0.91446423846E+02 0.  0.
          5    1    1    2  502    0 -0.41505104887E+02  0.14252254923E+02 -0.92765888791E+01  0.45048063258E+02  0.41800000000E+01 0. -1.
         -5    1    1    2    0  502  0.59773395506E+02 -0.12177133192E+02  0.77195469368E+02  0.98477176412E+02  0.41800000000E+01 0. -1.
        -11    1    3    3    0    0 -0.24255125598E+02  0.37857611814E+02  0.26006619958E+02  0.51940871881E+02  0.00000000000E+00 0.  1.
         11    1    3    3    0    0  0.59868349790E+01 -0.39932733545E+02  0.77537054322E+02  0.87421165598E+02  0.00000000000E+00 0. -1.
</event>
<event>
 7    1  0.6584658E-006  0.2220226E+03  0.7561462E-02  0.1132384E+00
         -2   -1    0    0    0  501 -0.00000000000E+00  0.00000000000E+00  0.60486083620E+02  0.60486083620E+02  0.00000000000E+00 0. -1.
          2   -1    0    0  501    0  0.00000000000E+00 -0.00000000000E+00 -0.10978497569E+04  0.10978497569E+04  0.00000000000E+00 0.  1.
         23    2    1    2    0    0 -0.15334272403E+03 -0.11922589742E+03 -0.79475608907E+03  0.82332086621E+03  0.92147718345E+02 0.  0.
          5    1    1    2  502    0 -0.20893196925E+02  0.12638049587E+02 -0.14125254314E+02  0.28517383901E+02  0.41800000000E+01 0. -1.
         -5    1    1    2    0  502  0.17423592096E+03  0.10658784783E+03 -0.22848232993E+03  0.30649759044E+03  0.41800000000E+01 0. -1.
        -11    1    3    3    0    0 -0.13375344228E+03 -0.49610808933E+02 -0.52328000385E+03  0.54237733923E+03  0.00000000000E+00 0.  1.
         11    1    3    3    0    0 -0.19589281753E+02 -0.69615088487E+02 -0.27147608522E+03  0.28094352698E+03  0.00000000000E+00 0. -1.
</event>
<event>
 7    1  0.6584658E-006  0.1080970E+03  0.7561462E-02  0.1264135E+00
         -3   -1    0    0    0  501 -0.00000000000E+00  0.00000000000E+00  0.10713707053E+04  0.10713707053E+04  0.00000000000E+00 0.  1.
          3   -1    0    0  501    0  0.00000000000E+00 -0.00000000000E+00 -0.15051824143E+02  0.15051824143E+02  0.00000000000E+00 0. -1.
         23    2    1    2    0    0  0.51842918705E+02  0.10724884631E+02  0.30215751304E+03  0.32012648290E+03  0.91537374853E+02 0.  0.
          5    1    1    2  502    0  0.19301595548E+02  0.24249409966E+02  0.60484646591E+02  0.68091485134E+02  0.41800000000E+01 0. -1.
         -5    1    1    2    0  502 -0.71144514253E+02 -0.34974294597E+02  0.69367672149E+03  0.69820456138E+03  0.41800000000E+01 0. -1.
        -11    1    3    3    0    0  0.33391108845E+02 -0.39678432204E+02  0.15858396344E+03  0.16684788759E+03  0.00000000000E+00 0. -1.
         11    1    3    3    0    0  0.18451809860E+02  0.50403316835E+02  0.14357354960E+03  0.15327859530E+03  0.00000000000E+00 0.  1.
</event>
<event>
 7    1  0.6584658E-006  0.1129576E+03  0.7561462E-02  0.1255189E+00
          1   -1    0    0  501    0  0.00000000000E+00  0.00000000000E+00  0.42313881560E+03  0.42313881560E+03  0.00000000000E+00 0. -1.
         -1   -1    0    0    0  501 -0.00000000000E+00 -0.00000000000E+00 -0.35943810762E+02  0.35943810762E+02  0.00000000000E+00 0.  1.
         23    2    1    2    0    0  0.42469814819E+02  0.17004177155E+02  0.22448497605E+03  0.24880856175E+03  0.97053432290E+02 0.  0.
          5    1    1    2  502    0 -0.77412019641E+02  0.21860100312E+02  0.10435888583E+03  0.13182842722E+03  0.41800000000E+01 0. -1.
         -5    1    1    2    0  502  0.34942204822E+02 -0.38864277467E+02  0.58351142954E+02  0.78445637386E+02  0.41800000000E+01 0. -1.
        -11    1    3    3    0    0  0.53463742089E+02  0.40450494860E+02  0.20694004915E+03  0.21752884451E+03  0.00000000000E+00 0. -1.
         11    1    3    3    0    0 -0.10993927270E+02 -0.23446317705E+02  0.17544926893E+02  0.31279717237E+02  0.00000000000E+00 0.  1.
</event>
<event>
 7    1  0.6584658E-006  0.7269792E+02  0.7561462E-02  0.1351152E+00
          1   -1    0    0  501    0  0.00000000000E+00  0.00000000000E+00  0.18315232605E+03  0.18315232605E+03  0.00000000000E+00 0. -1.
         -1   -1    0    0    0  501 -0.00000000000E+00 -0.00000000000E+00 -0.66728146076E+02  0.66728146076E+02  0.00000000000E+00 0.  1.
         23    2    1    2    0    0  0.19257520811E+02  0.43572968221E+01  0.49130175741E+02  0.10646599969E+03  0.92365560567E+02 0.  0.
          5    1    1    2  502    0  0.11743641663E+02 -0.13527294181E+02  0.97351347636E+02  0.99074003118E+02  0.41800000000E+01 0.  1.
         -5    1    1    2    0  502 -0.31001162474E+02  0.91699973585E+01 -0.30057343406E+02  0.44340469313E+02  0.41800000000E+01 0.  1.
        -11    1    3    3    0    0  0.55945601696E+02  0.11269373087E+02  0.31379217821E+02  0.65127294048E+02  0.00000000000E+00 0.  1.
         11    1    3    3    0    0 -0.36688080885E+02 -0.69120762650E+01  0.17750957921E+02  0.41338705645E+02  0.00000000000E+00 0. -1.
</event>
<event>
 7    1  0.6584658E-006  0.2341304E+03  0.7561462E-02  0.1123766E+00
         -4   -1    0    0    0  501 -0.00000000000E+00  0.00000000000E+00  0.17601267709E+03  0.17601267709E+03  0.00000000000E+00 0.  1.
          4   -1    0    0  501    0  0.00000000000E+00 -0.00000000000E+00 -0.35908600851E+03  0.35908600851E+03  0.00000000000E+00 0. -1.
         23    2    1    2    0    0 -0.21860548786E+03  0.14030302941E+02 -0.16466518536E+03  0.28883156561E+03  0.91235088093E+02 0.  0.
          5    1    1    2  502    0 -0.96776619424E+00 -0.15271349006E+02 -0.21390448120E+02  0.26630327497E+02  0.41800000000E+01 0. -1.
         -5    1    1    2    0  502  0.21957325405E+03  0.12410460650E+01  0.29823020650E+01  0.21963679249E+03  0.41800000000E+01 0.  1.
        -11    1    3    3    0    0 -0.22015205300E+03  0.25123688655E+02 -0.16690596007E+03  0.27740895025E+03  0.00000000000E+00 0. -1.
         11    1    3    3    0    0  0.15465651417E+01 -0.11093385715E+02  0.22407747075E+01  0.11422615359E+02  0.00000000000E+00 0.  1.
</event>
<event>
 7    1  0.6584658E-006  0.1440570E+03  0.7561462E-02  0.1207972E+00
         -1   -1    0    0    0  501 -0.00000000000E+00  0.00000000000E+00  0.30149407926E+02  0.30149407926E+02  0.00000000000E+00 0.  1.
          1   -1    0    0  501    0  0.00000000000E+00 -0.00000000000E+00 -0.70747060038E+03  0.70747060038E+03  0.00000000000E+00 0. -1.
         23    2    1    2    0    0  0.89190523035E+02 -0.41633841435E+02 -0.30942284162E+03  0.33676474500E+03  0.89329012097E+02 0.  0.
          5    1    1    2  502    0 -0.75347273980E+02 -0.31862137899E+02 -0.15762626827E+03  0.17763986145E+03  0.41800000000E+01 0.  1.
         -5    1    1    2    0  502 -0.13843249056E+02  0.73495979334E+02 -0.21027208256E+03  0.22321540185E+03  0.41800000000E+01 0.  1.
        -11    1    3    3    0    0 -0.97652449640E+01 -0.30129998406E+02 -0.54024534994E+02  0.62624493567E+02  0.00000000000E+00 0. -1.
         11    1    3    3    0    0  0.98955768000E+02 -0.11503843028E+02 -0.25539830663E+03  0.27414025143E+03  0.00000000000E+00 0.  1.
</event>
<event>
 7    1  0.6584658E-006  0.1595113E+03  0.7561462E-02  0.1189250E+00
          1   -1    0    0  501    0  0.00000000000E+00  0.00000000000E+00  0.52886163071E+03  0.52886163071E+03  0.00000000000E+00 0. -1.
         -1   -1    0    0    0  501 -0.00000000000E+00 -0.00000000000E+00 -0.50705376243E+02  0.50705376243E+02  0.00000000000E+00 0.  1.
         23    2    1    2    0    0 -0.48558166352E+02 -0.11286048125E+03  0.21408469796E+03  0.26069782574E+03  0.83879167252E+02 0.  0.
          5    1    1    2  502    0 -0.17390478144E+02  0.11104947363E+03  0.16013593028E+03  0.19569211249E+03  0.41800000000E+01 0. -1.
         -5    1    1    2    0  502  0.65948644497E+02  0.18110076219E+01  0.10393562623E+03  0.12317706872E+03  0.41800000000E+01 0.  1.
        -11    1    3    3    0    0 -0.66062173742E+02 -0.90063021923E+02  0.19908513378E+03  0.22827713247E+03  0.00000000000E+00 0. -1.
         11    1    3    3    0    0  0.17504007390E+02 -0.22797459327E+02  0.14999564176E+02  0.32420693267E+02  0.00000000000E+00 0.  1.
</event>
<event>
 7    1  0.6584658E-006  0.9482696E+02  0.7561462E-02  0.1291566E+00
         -1   -1    0    0    0  501 -0.00000000000E+00  0.00000000000E+00  0.36163048673E+02  0.36163048673E+02  0.00000000000E+00 0.  1.
          1   -1    0    0  501    0  0.00000000000E+00 -0.00000000000E+00 -0.43976544035E+03  0.43976544035E+03  0.00000000000E+00 0. -1.
         23    2    1    2    0    0 -0.14947050588E+02 -0.24682460574E+02 -0.28751498682E+03  0.30283742670E+03  0.90625609944E+02 0.  0.
          5    1    1    2  502    0 -0.19117444620E+02 -0.27774822659E+02  0.72465002016E+01  0.34740489745E+02  0.41800000000E+01 0.  1.
         -5    1    1    2    0  502  0.34064495208E+02  0.52457283232E+02 -0.12333390505E+03  0.13835057258E+03  0.41800000000E+01 0.  1.
        -11    1    3    3    0    0 -0.52072020129E+02 -0.97586028517E+01 -0.13144120171E+03  0.14171631916E+03  0.00000000000E+00 0.  1.
         11    1    3    3    0    0  0.37124969541E+02 -0.14923857722E+02 -0.15607378512E+03  0.16112110754E+03  0.00000000000E+00 0. -1.
</event>
<event>
 7    1  0.6584658E-006  0.3460792E+03  0.7561462E-02  0.1064236E+00
          1   -1    0    0  501    0  0.00000000000E+00  0.00000000000E+00  0.98745303469E+03  0.98745303469E+03  0.00000000000E+00 0. -1.
         -1   -1    0    0    0  501 -0.00000000000E+00 -0.00000000000E+00 -0.13295784509E+03  0.13295784509E+03  0.00000000000E+00 0.  1.
         23    2    1    2    0    0 -0.22144102343E+03 -0.26408307571E+03  0.46725828248E+03  0.58713992295E+03  0.87332633343E+02 0.  0.
          5    1    1    2  502    0  0.42815191624E+02  0.28722783133E+02  0.77498513359E+01  0.52303647105E+02  0.41800000000E+01 0.  1.
         -5    1    1    2    0  502  0.17862583180E+03  0.23536029258E+03  0.37948705579E+03  0.48096730972E+03  0.41800000000E+01 0.  1.
        -11    1    3    3    0    0 -0.14802333590E+03 -0.16590403796E+03  0.22893401768E+03  0.31913295385E+03  0.00000000000E+00 0.  1.
         11    1    3    3    0    0 -0.73417687526E+02 -0.98179037753E+02  0.23832426480E+03  0.26800696910E+03  0.00000000000E+00 0. -1.
</event>
<event>
 7    1  0.6584658E-006  0.1002257E+03  0.7561462E-02  0.1279822E+00
         -1   -1    0    0    0  501 -0.00000000000E+00  0.00000000000E+00  0.19681825801E+03  0.19681825801E+03  0.00000000000E+00 0.  1.
          1   -1    0    0  501    0  0.00000000000E+00 -0.00000000000E+00 -0.15935470645E+03  0.15935470645E+03  0.00000000000E+00 0. -1.
         23    2    1    2    0    0 -0.48832107853E+02 -0.33910229098E+01 -0.11419332633E+03  0.15358410718E+03  0.90287808740E+02 0.  0.
          5    1    1    2  502    0  0.14034807364E+02 -0.53343593621E+02  0.11222111756E+03  0.12511421352E+03  0.41800000000E+01 0. -1.
         -5    1    1    2    0  502  0.34797300489E+02  0.56734616531E+02  0.39435760326E+02  0.77474643766E+02  0.41800000000E+01 0. -1.
        -11    1    3    3    0    0 -0.18306213217E+02 -0.31835191495E+02 -0.54685251484E+01  0.37128178344E+02  0.00000000000E+00 0.  1.
         11    1    3    3    0    0 -0.30525894636E+02  0.28444168585E+02 -0.10872480118E+03  0.11645592884E+03  0.00000000000E+00 0. -1.
</event>
<event>
 7    1  0.6584658E-006  0.1269100E+03  0.7561462E-02  0.1232114E+00
          1   -1    0    0  501    0  0.00000000000E+00  0.00000000000E+00  0.21995824225E+03  0.21995824225E+03  0.00000000000E+00 0. -1.
         -1   -1    0    0    0  501 -0.00000000000E+00 -0.00000000000E+00 -0.84382267334E+02  0.84382267334E+02  0.00000000000E+00 0.  1.
         23    2    1    2    0    0 -0.47905483645E+02 -0.48084294457E+02  0.10883537680E+03  0.15953359579E+03  0.94861974485E+02 0.  0.
          5    1    1    2  502    0 -0.26454669545E+02 -0.24996433354E+02 -0.16401601799E+01  0.36671974948E+02  0.41800000000E+01 0.  1.
         -5    1    1    2    0  502  0.74360153190E+02  0.73080727811E+02  0.28380758294E+02  0.10813493885E+03  0.41800000000E+01 0.  1.
        -11    1    3    3    0    0 -0.27925907657E+02  0.24750321017E+02  0.56261596495E+02  0.67511494940E+02  0.00000000000E+00 0. -1.
         11    1    3    3    0    0 -0.19979575988E+02 -0.72834615474E+02  0.52573780309E+02  0.92022100845E+02  0.00000000000E+00 0.  1.
</event>
<event>
 7    1  0.6584658E-006  0.2022464E+03  0.7561462E-02  0.1147857E+00
         -1   -1    0    0    0  501 -0.00000000000E+00  0.00000000000E+00  0.16122722234E+04  0.16122722234E+04  0.00000000000E+00 0.  1.
          1   -1    0    0  501    0  0.00000000000E+00 -0.00000000000E+00 -0.35897766985E+02  0.35897766985E+02  0.00000000000E+00 0. -1.
         23    2    1    2    0    0  0.62434724466E+02  0.17067100057E+03  0.37087755229E+03  0.42265024330E+03  0.89757362464E+02 0.  0.
          5    1    1    2  502    0 -0.83526687743E+02 -0.49736057853E+02  0.49255303613E+03  0.50207205541E+03  0.41800000000E+01 0.  1.
         -5    1    1    2    0  502  0.21091963276E+02 -0.12093494272E+03  0.71294386799E+03  0.72344769168E+03  0.41800000000E+01 0.  1.
        -11    1    3    3    0    0  0.38388446721E+02  0.60939245132E+02  0.23795915468E+03  0.24861983778E+03  0.00000000000E+00 0.  1.
         11    1    3    3    0    0  0.24046277745E+02  0.10973175544E+03  0.13291839761E+03  0.17403040553E+03  0.00000000000E+00 0. -1.
</event>
<event>
 7    1  0.6584658E-006  0.8652113E+02  0.7561462E-02  0.1311502E+00
         -2   -1    0    0    0  501 -0.00000000000E+00  0.00000000000E+00  0.32198101409E+03  0.32198101409E+03  0.00000000000E+00 0.  1.
          2   -1    0    0  501    0  0.00000000000E+00 -0.00000000000E+00 -0.45355198339E+02  0.45355198339E+02  0.00000000000E+00 0. -1.
         23    2    1    2    0    0 -0.42706838317E+02  0.34325602446E+02  0.95887409087E+02  0.14080708999E+03  0.87350560089E+02 0.  0.
          5    1    1    2  502    0  0.59273920056E+02 -0.29664063555E+01  0.21382816103E+02  0.63220996433E+02  0.41800000000E+01 0. -1.
         -5    1    1    2    0  502 -0.16567081739E+02 -0.31359196090E+02  0.15935559056E+03  0.16330812601E+03  0.41800000000E+01 0. -1.
        -11    1    3    3    0    0 -0.56281870377E+02  0.27523366075E+02  0.23610569464E+02  0.66952547402E+02  0.00000000000E+00 0. -1.
         11    1    3    3    0    0  0.13575032060E+02  0.68022363713E+01  0.72276839623E+02  0.73854542588E+02  0.00000000000E+00 0.  1.
</event>
<event>
 7    1  0.6584658E-006  0.1410885E+03  0.7561462E-02  0.1211872E+00
          4   -1    0    0  501    0  0.00000000000E+00  0.00000000000E+00  0.82279348978E+02  0.82279348978E+02  0.00000000000E+00 0. -1.
         -4   -1    0    0    0  501 -0.00000000000E+00 -0.00000000000E+00 -0.25445995096E+03  0.25445995096E+03  0.00000000000E+00 0.  1.
         23    2    1    2    0    0  0.74636888459E+02 -0.63242012747E+02 -0.84248264540E+02  0.15521805693E+03  0.86166454162E+02 0.  0.
          5    1    1    2  502    0 -0.99255610978E+02  0.76140639565E+02 -0.88694010252E+02  0.15340525792E+03  0.41800000000E+01 0. -1.
         -5    1    1    2    0  502  0.24618722519E+02 -0.12898626818E+02  0.76167280524E+00  0.28115985093E+02  0.41800000000E+01 0. -1.
        -11    1    3    3    0    0  0.67269257961E+02 -0.20803813513E+01 -0.32376299505E+02  0.74684039948E+02  0.00000000000E+00 0. -1.
         11    1    3    3    0    0  0.73676304974E+01 -0.61161631396E+02 -0.51871965035E+02  0.80534016978E+02  0.00000000000E+00 0.  1.
</event>
<event>
 7    1  0.6584658E-006  0.1249102E+03  0.7561462E-02  0.1235210E+00
         -1   -1    0    0    0  501 -0.00000000000E+00  0.00000000000E+00  0.18952531376E+03  0.18952531376E+03  0.00000000000E+00 0.  1.
          1   -1    0    0  501    0  0.00000000000E+00 -0.00000000000E+00 -0.11558910674E+03  0.11558910674E+03  0.00000000000E+00 0. -1.
         23    2    1    2    0    0 -0.87705128255E+02 -0.46531870523E+02  0.94211885622E+01  0.13287183517E+03  0.87799551765E+02 0.  0.
          5    1    1    2  502    0  0.34142231463E+02 -0.27288011788E+02 -0.19616599211E+02  0.48089613444E+02  0.41800000000E+01 0.  1.
         -5    1    1    2    0  502  0.53562896792E+02  0.73819882311E+02  0.84131617665E+02  0.12415297189E+03  0.41800000000E+01 0.  1.
        -11    1    3    3    0    0 -0.67039585069E+02 -0.38009948842E+01  0.38308832100E+02  0.77306663007E+02  0.00000000000E+00 0.  1.
         11    1    3    3    0    0 -0.20665543186E+02 -0.42730875639E+02 -0.28887643538E+02  0.55565172160E+02  0.00000000000E+00 0. -1.
</event>
<event>
 7    1  0.6584658E-006  0.1233438E+03  0.7561462E-02  0.1237681E+00
         -1   -1    0    0    0  501 -0.00000000000E+00  0.00000000000E+00  0.28080786241E+02  0.28080786241E+02  0.00000000000E+00 0.  1.
          1   -1    0    0  501    0  0.00000000000E+00 -0.00000000000E+00 -0.69812228804E+03  0.69812228804E+03  0.00000000000E+00 0. -1.
         23    2    1    2    0    0 -0.63415541333E+02  0.40707403981E+02 -0.42265014507E+03  0.43892392305E+03  0.91336966629E+02 0.  0.
          5    1    1    2  502    0 -0.11661406277E+02 -0.50912539386E+02 -0.17397530739E+03  0.18169467533E+03  0.41800000000E+01 0.  1.
         -5    1    1    2    0  502  0.75076947610E+02  0.10205135405E+02 -0.73416049340E+02  0.10558447590E+03  0.41800000000E+01 0.  1.
        -11    1    3    3    0    0 -0.47205221926E+02 -0.23113180168E+02 -0.18593899936E+03  0.19322490408E+03  0.00000000000E+00 0.  1.
         11    1    3    3    0    0 -0.16210319407E+02  0.63820584149E+02 -0.23671114571E+03  0.24569901897E+03  0.00000000000E+00 0. -1.
</event>
<event>
 7    1  0.6584658E-006  0.1204118E+03  0.7561462E-02  0.1242419E+00
          2   -1    0    0  501    0  0.00000000000E+00  0.00000000000E+00  0.24952550492E+03  0.24952550492E+03  0.00000000000E+00 0. -1.
         -2   -1    0    0    0  501 -0.00000000000E+00 -0.00000000000E+00 -0.68772277399E+02  0.68772277399E+02  0.00000000000E+00 0.  1.
         23    2    1    2    0    0  0.68681845504E+02  0.24137342545E+02  0.95065467629E+02  0.15018556871E+03  0.90655693178E+02 0.  0.
          5    1    1    2  502    0 -0.99788705878E+02 -0.31353557645E+02  0.39674340390E+02  0.11194801063E+03  0.41800000000E+01 0.  1.
         -5    1    1    2    0  502  0.31106860374E+02  0.72162151005E+01  0.46013419506E+02  0.56164202988E+02  0.41800000000E+01 0.  1.
        -11    1    3    3    0    0  0.78843572788E+02  0.12043229121E+01  0.37342393105E+02  0.87248001046E+02  0.00000000000E+00 0.  1.
         11    1    3    3    0    0 -0.10161727283E+02  0.22933019632E+02  0.57723074523E+02  0.62937567663E+02  0.00000000000E+00 0. -1.
</event>
<event>
 7    1  0.6584658E-006  0.1029988E+03  0.7561462E-02  0.1274113E+00
         -2   -1    0    0    0  501 -0.00000000000E+00  0.00000000000E+00  0.21210097864E+02  0.21210097864E+02  0.00000000000E+00 0.  1.
          2   -1    0    0  501    0  0.00000000000E+00 -0.00000000000E+00 -0.71619401231E+03  0.71619401231E+03  0.00000000000E+00 0. -1.
         23    2    1    2    0    0  0.50946877750E+01 -0.16563890543E+02 -0.47007508465E+03  0.47946724859E+03  0.92832854896E+02 0.  0.
          5    1    1    2  502    0  0.11866392737E+02 -0.46057146059E+02 -0.41198121814E+02  0.63062109231E+02  0.41800000000E+01 0.  1.
         -5    1    1    2    0  502 -0.16961080512E+02  0.62621036603E+02 -0.18371070798E+03  0.19487475235E+03  0.41800000000E+01 0.  1.
        -11    1    3    3    0    0  0.23255944848E+02  0.33047538392E+02 -0.24220647725E+03  0.24555438580E+03  0.00000000000E+00 0. -1.
         11    1    3    3    0    0 -0.18161257073E+02 -0.49611428935E+02 -0.22786860740E+03  0.23391286279E+03  0.00000000000E+00 0.  1.
</event>
<event>
 7    1  0.6584658E-006  0.1432115E+03  0.7561462E-02  0.1209072E+00
         -2   -1    0    0    0  501 -0.00000000000E+00  0.00000000000E+00  0.15549868330E+02  0.15549868330E+02  0.00000000000E+00 0.  1.
          2   -1    0    0  501    0  0.00000000000E+00 -0.00000000000E+00 -0.13426916768E+04  0.13426916768E+04  0.00000000000E+00 0. -1.
         23    2    1    2    0    0 -0.20361155191E+02 -0.91986154830E+02 -0.53365564827E+03  0.54945221911E+03  0.90737868825E+02 0.  0.
          5    1    1    2  502    0  0.25761226870E+02  0.12227038071E+03 -0.60775355563E+03  0.62048009122E+03  0.41800000000E+01 0.  1.
         -5    1    1    2    0  502 -0.54000716793E+01 -0.30284225885E+02 -0.18573260461E+03  0.18830923485E+03  0.41800000000E+01 0.  1.
        -11    1    3    3    0    0  0.34497521772E+02 -0.52269343980E+02 -0.23373388335E+03  0.24197870062E+03  0.00000000000E+00 0.  1.
         11    1    3    3    0    0 -0.54858676963E+02 -0.39716810850E+02 -0.29992176492E+03  0.30747351849E+03  0.00000000000E+00 0. -1.
</event>
<event>
 7    1  0.6584658E-006  0.6370275E+02  0.7561462E-02  0.1382919E+00
          1   -1    0    0  501    0  0.00000000000E+00  0.00000000000E+00  0.16438343256E+03  0.16438343256E+03  0.00000000000E+00 0. -1.
         -1   -1    0    0    0  501 -0.00000000000E+00 -0.00000000000E+00 -0.10751971897E+03  0.10751971897E+03  0.00000000000E+00 0.  1.
         23    2    1    2    0    0 -0.17524060649E+02 -0.16944224494E+02  0.83487842524E+02  0.12668225007E+03  0.92108485976E+02 0.  0.
          5    1    1    2  502    0  0.22219751871E+02  0.16358252516E+02  0.55887764839E+02  0.62467787357E+02  0.41800000000E+01 0. -1.
         -5    1    1    2    0  502 -0.46956912217E+01  0.58597197777E+00 -0.82511893773E+02  0.82753114100E+02  0.41800000000E+01 0.  1.
        -11    1    3    3    0    0  0.30783678977E+02  0.16019144147E+02  0.18764104050E+02  0.39450468582E+02  0.00000000000E+00 0. -1.
         11    1    3    3    0    0 -0.48307739626E+02 -0.32963368641E+02  0.64723738475E+02  0.87231781491E+02  0.00000000000E+00 0.  1.
</event>
<event>
 7    1  0.6584658E-006  0.1337152E+03  0.7561462E-02  0.1222045E+00
         -1   -1    0    0    0  501 -0.00000000000E+00  0.00000000000E+00  0.74404565897E+02  0.74404565897E+02  0.00000000000E+00 0.  1.
          1   -1    0    0  501    0  0.00000000000E+00 -0.00000000000E+00 -0.35813957394E+03  0.35813957394E+03  0.00000000000E+00 0. -1.
         23    2    1    2    0    0  0.67545378385E+02  0.98792107076E+02 -0.15930484960E+03  0.21935247995E+03  0.91734490742E+02 0.  0.
          5    1    1    2  502    0 -0.25262234249E+02 -0.28213096761E+02  0.22857150223E+02  0.44430631600E+02  0.41800000000E+01 0. -1.
         -5    1    1    2    0  502 -0.42283144136E+02 -0.70579010315E+02 -0.14728730867E+03  0.16876102829E+03  0.41800000000E+01 0. -1.
        -11    1    3    3    0    0  0.76753335395E+02  0.38334941994E+02 -0.11660273085E+03  0.14476477166E+03  0.00000000000E+00 0. -1.
         11    1    3    3    0    0 -0.92079570099E+01  0.60457165082E+02 -0.42702118751E+02  0.74587708290E+02  0.00000000000E+00 0.  1.
</event>
<event>
 7    1  0.6584658E-006  0.1089156E+03  0.7561462E-02  0.1262591E+00
         -1   -1    0    0    0  501 -0.00000000000E+00  0.00000000000E+00  0.96339900765E+03  0.96339900765E+03  0.00000000000E+00 0.  1.
          1   -1    0    0  501    0  0.00000000000E+00 -0.00000000000E+00 -0.17739489934E+02  0.17739489934E+02  0.00000000000E+00 0. -1.
         23    2    1    2    0    0  0.24354757062E+02 -0.67941582449E+02  0.41128852359E+03  0.42759624470E+03  0.92038502956E+02 0.  0.
          5    1    1    2  502    0  0.24988270491E+02 -0.13223008021E+02  0.28875647520E+03  0.29016725517E+03  0.41800000000E+01 0. -1.
         -5    1    1    2    0  502 -0.49343027553E+02  0.81164590470E+02  0.24561451892E+03  0.26337499771E+03  0.41800000000E+01 0. -1.
        -11    1    3    3    0    0 -0.18988346106E+02 -0.90036140557E+01  0.18330675588E+02  0.27886125966E+02  0.00000000000E+00 0. -1.
         11    1    3    3    0    0  0.43343103168E+02 -0.58937968394E+02  0.39295784800E+03  0.39971011873E+03  0.00000000000E+00 0.  1.
</event>
<event>
 7    1  0.6584658E-006  0.1100032E+03  0.7561462E-02  0.1260564E+00
         -1   -1    0    0    0  501 -0.00000000000E+00  0.00000000000E+00  0.72516731849E+02  0.72516731849E+02  0.00000000000E+00 0.  1.
          1   -1    0    0  501    0  0.00000000000E+00 -0.00000000000E+00 -0.28240595832E+03  0.28240595832E+03  0.00000000000E+00 0. -1.
         23    2    1    2    0    0  0.11413310620E+00 -0.35919979791E+02 -0.20002177801E+03  0.22314187081E+03  0.92159236396E+02 0.  0.
          5    1    1    2  502    0 -0.54305650674E+02 -0.14720847471E+02 -0.11007077851E+02  0.57484217036E+02  0.41800000000E+01 0. -1.
         -5    1    1    2    0  502  0.54191517568E+02  0.50640827262E+02  0.11396293935E+01  0.74296602326E+02  0.41800000000E+01 0.  1.
        -11    1    3    3    0    0  0.10745774322E+02 -0.61062072086E+02 -0.86756984060E+02  0.10663405927E+03  0.00000000000E+00 0. -1.
         11    1    3    3    0    0 -0.10631641216E+02  0.25142092295E+02 -0.11326479395E+03  0.11650781154E+03  0.00000000000E+00 0.  1.
</event>
<event>
 7    1  0.6584658E-006  0.1684305E+03  0.7561462E-02  0.1179495E+00
          2   -1    0    0  501    0  0.00000000000E+00  0.00000000000E+00  0.47361858771E+03  0.47361858771E+03  0.00000000000E+00 0. -1.
         -2   -1    0    0    0  501 -0.00000000000E+00 -0.00000000000E+00 -0.15081712908E+03  0.15081712908E+03  0.00000000000E+00 0.  1.
         23    2    1    2    0    0 -0.15062037218E+03  0.25811258014E+02  0.37924592235E+03  0.41904255572E+03  0.91741355600E+02 0.  0.
          5    1    1    2  502    0  0.87976803274E+02 -0.38921639260E+02 -0.91043641703E+02  0.13251878739E+03  0.41800000000E+01 0. -1.
         -5    1    1    2    0  502  0.62643568909E+02  0.13110381246E+02  0.34599177977E+02  0.72874373676E+02  0.41800000000E+01 0. -1.
        -11    1    3    3    0    0 -0.12294510460E+02 -0.25968183744E+02  0.42174321723E+02  0.51031117636E+02  0.00000000000E+00 0.  1.
         11    1    3    3    0    0 -0.13832586172E+03  0.51779441758E+02  0.33707160063E+03  0.36801143808E+03  0.00000000000E+00 0. -1.
</event>
<event>
 7    1  0.6584658E-006  0.8174323E+02  0.7561462E-02  0.1324176E+00
          1   -1    0    0  501    0  0.00000000000E+00  0.00000000000E+00  0.40541996429E+02  0.40541996429E+02  0.00000000000E+00 0. -1.
         -1   -1    0    0    0  501 -0.00000000000E+00 -0.00000000000E+00 -0.42156528958E+03  0.42156528958E+03  0.00000000000E+00 0.  1.
         23    2    1    2    0    0  0.11103037373E+02 -0.30416055611E+02 -0.56225074694E+02  0.11255146258E+03  0.91968249015E+02 0.  0.
          5    1    1    2  502    0 -0.26050270192E+02 -0.21587502912E+02 -0.27101192008E+03  0.27314752439E+03  0.41800000000E+01 0.  1.
         -5    1    1    2    0  502  0.14947232819E+02  0.52003558523E+02 -0.53786298384E+02  0.76408299038E+02  0.41800000000E+01 0.  1.
        -11    1    3    3    0    0  0.18877460680E+02 -0.50327316337E+02 -0.14692159021E+01  0.53771329598E+02  0.00000000000E+00 0. -1.
         11    1    3    3    0    0 -0.77744233067E+01  0.19911260726E+02 -0.54755858792E+02  0.58780132983E+02  0.00000000000E+00 0.  1.
</event>
<event>
 7    1  0.6584658E-006  0.9066524E+02  0.7561462E-02  0.1301249E+00
         -4   -1    0    0    0  501 -0.00000000000E+00  0.00000000000E+00  0.12432899672E+04  0.12432899672E+04  0.00000000000E+00 0.  1.
          4   -1    0    0  501    0  0.00000000000E+00 -0.00000000000E+00 -0.11690583016E+02  0.11690583016E+02  0.00000000000E+00 0. -1.
         23    2    1    2    0    0  0.14035949992E+02  0.43402506930E+02  0.38329229089E+03  0.39628793590E+03  0.89723811722E+02 0.  0.
          5    1    1    2  502    0 -0.12260678395E+02 -0.61466561641E+02  0.18985522594E+03  0.19997735285E+03  0.41800000000E+01 0.  1.
         -5    1    1    2    0  502 -0.17752715978E+01  0.18064054711E+02  0.65845186734E+03  0.65871526145E+03  0.41800000000E+01 0.  1.
        -11    1    3    3    0    0 -0.37869468692E+02  0.15114384971E+02  0.13300414633E+03  0.13911378160E+03  0.00000000000E+00 0.  1.
         11    1    3    3    0    0  0.51905418684E+02  0.28288121959E+02  0.25028814456E+03  0.25717415430E+03  0.00000000000E+00 0. -1.
</event>
<event>
 7    1  0.6584658E-006  0.1279482E+03  0.7561462E-02  0.1230532E+00
          1   -1    0    0  501    0  0.00000000000E+00  0.00000000000E+00  0.10304822602E+04  0.10304822602E+04  0.00000000000E+00 0. -1.
         -1   -1    0    0    0  501 -0.00000000000E+00 -0.00000000000E+00 -0.17277351526E+02  0.17277351526E+02  0.00000000000E+00 0.  1.
         23    2    1    2    0    0  0.64031348241E+02  0.26856475078E+02  0.58304660398E+03  0.59443283140E+03  0.92659402224E+02 0.  0.
          5    1    1    2  502    0 -0.82638790600E+02  0.23702881476E+02  0.30695194864E+03  0.31879141688E+03  0.41800000000E+01 0.  1.
         -5    1    1    2    0  502  0.18607442359E+02 -0.50559356554E+02  0.12320635607E+03  0.13453536346E+03  0.41800000000E+01 0.  1.
        -11    1    3    3    0    0  0.87863441285E+02  0.27120213266E+02  0.46179755157E+03  0.47086353535E+03  0.00000000000E+00 0.  1.
         11    1    3    3    0    0 -0.23832093044E+02 -0.26373818769E+00  0.12124905240E+03  0.12356929605E+03  0.00000000000E+00 0. -1.
</event>
<event>
 7    1  0.6584658E-006  0.1254156E+03  0.7561462E-02  0.1234421E+00
          1   -1    0    0  501    0  0.00000000000E+00  0.00000000000E+00  0.16426164676E+03  0.16426164676E+03  0.00000000000E+00 0. -1.
         -1   -1    0    0    0  501 -0.00000000000E+00 -0.00000000000E+00 -0.15332463704E+03  0.15332463704E+03  0.00000000000E+00 0.  1.
         23    2    1    2    0    0 -0.50199307078E+02 -0.94999765141E+02  0.47558460678E+02  0.14866277103E+03  0.91070777428E+02 0.  0.
          5    1    1    2  502    0  0.49983905277E+02  0.78262339844E+02  0.31889117189E+02  0.98273968169E+02  0.41800000000E+01 0. -1.
         -5    1    1    2    0  502  0.21540180132E+00  0.16737425297E+02 -0.68510568150E+02  0.70649544597E+02  0.41800000000E+01 0. -1.
        -11    1    3    3    0    0 -0.25083241749E+02  0.14027585842E+02  0.63509631824E+01  0.29432582533E+02  0.00000000000E+00 0.  1.
         11    1    3    3    0    0 -0.25116065329E+02 -0.10902735098E+03  0.41207497495E+02  0.11923018850E+03  0.00000000000E+00 0. -1.
</event>
<event>
 7    1  0.6584658E-006  0.8699721E+02  0.7561462E-02  0.1310291E+00
         -3   -1    0    0    0  501 -0.00000000000E+00  0.00000000000E+00  0.63744977670E+02  0.63744977670E+02  0.00000000000E+00 0.  1.
          3   -1    0    0  501    0  0.00000000000E+00 -0.00000000000E+00 -0.19043663020E+03  0.19043663020E+03  0.00000000000E+00 0. -1.
         23    2    1    2    0    0 -0.49169439520E+01  0.13394764517E+02 -0.74411185202E+02  0.11932859743E+03  0.92188359503E+02 0.  0.
          5    1    1    2  502    0 -0.49235998519E+02  0.19193148723E+02 -0.45367005482E+00  0.53011684793E+02  0.41800000000E+01 0. -1.
         -5    1    1    2    0  502  0.54152942471E+02 -0.32587913240E+02 -0.51826797273E+02  0.81841325644E+02  0.41800000000E+01 0. -1.
        -11    1    3    3    0    0 -0.15961402791E+02  0.32141329768E+02  0.56812976872E+01  0.36333298800E+02  0.00000000000E+00 0.  1.
         11    1    3    3    0    0  0.11044458839E+02 -0.18746565251E+02 -0.80092482890E+02  0.82995298633E+02  0.00000000000E+00 0. -1.
</event>
<event>
 7    1  0.6584658E-006  0.1211069E+03  0.7561462E-02  0.1241282E+00
         -1   -1    0    0    0  501 -0.00000000000E+00  0.00000000000E+00  0.15605631132E+03  0.15605631132E+03  0.00000000000E+00 0.  1.
          1   -1    0    0  501    0  0.00000000000E+00 -0.00000000000E+00 -0.20197645146E+03  0.20197645146E+03  0.00000000000E+00 0. -1.
         23    2    1    2    0    0 -0.28280704769E+01  0.16970971406E+01 -0.19534773501E+02  0.90981916806E+02  0.88798782023E+02 0.  0.
          5    1    1    2  502    0  0.13336745430E+02 -0.78581686908E+02 -0.12078818821E+03  0.14477641074E+03  0.41800000000E+01 0. -1.
         -5    1    1    2    0  502 -0.10508674953E+02  0.76884589767E+02  0.94402821570E+02  0.12227443524E+03  0.41800000000E+01 0.  1.
        -11    1    3    3    0    0  0.40764488621E+02 -0.28144972345E+01 -0.23226262583E+02  0.47001321266E+02  0.00000000000E+00 0. -1.
         11    1    3    3    0    0 -0.43592559097E+02  0.45115943750E+01  0.36914890816E+01  0.43980595541E+02  0.00000000000E+00 0.  1.
</event>
<event>
 7    1  0.6584658E-006  0.1604794E+03  0.7561462E-02  0.1188157E+00
         -1   -1    0    0    0  501 -0.00000000000E+00  0.00000000000E+00  0.37172222341E+03  0.37172222341E+03  0.00000000000E+00 0.  1.
          1   -1    0    0  501    0  0.00000000000E+00 -0.00000000000E+00 -0.81598398818E+02  0.81598398818E+02  0.00000000000E+00 0. -1.
         23    2    1    2    0    0  0.12562104960E+03 -0.50760325627E+02  0.13065741728E+03  0.20952796644E+03  0.92050797224E+02 0.  0.
          5    1    1    2  502    0 -0.97853834974E+01  0.66518863316E+02  0.61366882123E+02  0.91125624983E+02  0.41800000000E+01 0. -1.
         -5    1    1    2    0  502 -0.11583566611E+03 -0.15758537689E+02  0.98099525195E+02  0.15266703081E+03  0.41800000000E+01 0. -1.
        -11    1    3    3    0    0  0.21695257828E+02 -0.18999483271E+01  0.81937014681E+02  0.84781887162E+02  0.00000000000E+00 0.  1.
         11    1    3    3    0    0  0.10392579178E+03 -0.48860377300E+02  0.48720402596E+02  0.12474607928E+03  0.00000000000E+00 0. -1.
</event>
<event>
 7    1  0.6584658E-006  0.1043769E+03  0.7561462E-02  0.1271352E+00
         -1   -1    0    0    0  501 -0.00000000000E+00  0.00000000000E+00  0.53101939996E+02  0.53101939996E+02  0.00000000000E+00 0.  1.
          1   -1    0    0  501    0  0.00000000000E+00 -0.00000000000E+00 -0.39534424021E+03  0.39534424021E+03  0.00000000000E+00 0. -1.
         23    2    1    2    0    0  0.87979506440E+02  0.27158323767E+02 -0.19444806724E+03  0.23404466238E+03  0.92135145474E+02 0.  0.
          5    1    1    2  502    0 -0.67221660426E+02 -0.30335435825E+02 -0.16889372409E+03  0.18434086019E+03  0.41800000000E+01 0. -1.
         -5    1    1    2    0  502 -0.20757846014E+02  0.31771120576E+01  0.21099491119E+02  0.30060657638E+02  0.41800000000E+01 0. -1.
        -11    1    3    3    0    0  0.71703710868E+02  0.48550664537E+02 -0.84987740543E+02  0.12133221016E+03  0.00000000000E+00 0. -1.
         11    1    3    3    0    0  0.16275795573E+02 -0.21392340770E+02 -0.10946032670E+03  0.11271245222E+03  0.00000000000E+00 0.  1.
</event>
<event>
 7    1  0.6584658E-006  0.1355350E+03  0.7561462E-02  0.1219466E+00
         -1   -1    0    0    0  501 -0.00000000000E+00  0.00000000000E+00  0.31145843635E+03  0.31145843635E+03  0.00000000000E+00 0.  1.
          1   -1    0    0  501    0  0.00000000000E+00 -0.00000000000E+00 -0.13260741285E+03  0.13260741285E+03  0.00000000000E+00 0. -1.
         23    2    1    2    0    0 -0.12622372916E+03 -0.37355817366E+02 -0.37844255557E+02  0.16409649101E+03  0.90374685558E+02 0.  0.
          5    1    1    2  502    0  0.79947788652E+02  0.31876925977E+02  0.36124372174E+02  0.93435699735E+02  0.41800000000E+01 0. -1.
         -5    1    1    2    0  502  0.46275940507E+02  0.54788913894E+01  0.18057090689E+03  0.18653365845E+03  0.41800000000E+01 0.  1.
        -11    1    3    3    0    0 -0.12324235047E+03 -0.25452981779E+02 -0.59504220274E+02  0.13920231126E+03  0.00000000000E+00 0. -1.
         11    1    3    3    0    0 -0.29813786925E+01 -0.11902835587E+02  0.21659964717E+02  0.24894179751E+02  0.00000000000E+00 0.  1.
</event>
<event>
 7    1  0.6584658E-006  0.1033026E+03  0.7561462E-02  0.1273500E+00
         -3   -1    0    0    0  501 -0.00000000000E+00  0.00000000000E+00  0.49700178263E+03  0.49700178263E+03  0.00000000000E+00 0.  1.
          3   -1    0    0  501    0  0.00000000000E+00 -0.00000000000E+00 -0.41464561604E+02  0.41464561604E+02  0.00000000000E+00 0. -1.
         23    2    1    2    0    0  0.25429017819E+02 -0.89325258486E+02  0.17652157643E+03  0.21889962865E+03  0.90175072636E+02 0.  0.
          5    1    1    2  502    0 -0.26084466502E+02  0.95481900441E+02  0.28990282640E+03  0.30636304258E+03  0.41800000000E+01 0.  1.
         -5    1    1    2    0  502  0.65544868305E+00 -0.61566419544E+01 -0.10887181807E+02  0.13203673005E+02  0.41800000000E+01 0.  1.
        -11    1    3    3    0    0 -0.25525086337E+01 -0.58027126398E+02  0.16564170996E+03  0.17553016486E+03  0.00000000000E+00 0.  1.
         11    1    3    3    0    0  0.27981526452E+02 -0.31298132089E+02  0.10879866478E+02  0.43369463790E+02  0.00000000000E+00 0. -1.
</event>
<event>
 7    1  0.6584658E-006  0.1084325E+03  0.7561462E-02  0.1263501E+00
          3   -1    0    0  501    0  0.00000000000E+00  0.00000000000E+00  0.35567307524E+03  0.35567307524E+03  0.00000000000E+00 0. -1.
         -3   -1    0    0    0  501 -0.00000000000E+00 -0.00000000000E+00 -0.50053547559E+02  0.50053547559E+02  0.00000000000E+00 0.  1.
         23    2    1    2    0    0 -0.40407264809E+02  0.65216802565E+02  0.13022903054E+03  0.17704542917E+03  0.92192761151E+02 0.  0.
          5    1    1    2  502    0 -0.26168748402E+02 -0.55683171082E+02  0.13907400441E+03  0.15213306688E+03  0.41800000000E+01 0. -1.
         -5    1    1    2    0  502  0.66576013211E+02 -0.95336314835E+01  0.36316492727E+02  0.76548126746E+02  0.41800000000E+01 0. -1.
        -11    1    3    3    0    0 -0.76016985074E+01  0.51823726236E+02  0.12156444304E+02  0.53770471072E+02  0.00000000000E+00 0.  1.
         11    1    3    3    0    0 -0.32805566302E+02  0.13393076330E+02  0.11807258623E+03  0.12327495810E+03  0.00000000000E+00 0. -1.
</event>
<event>
 7    1  0.6584658E-006  0.1019302E+03  0.7561462E-02  0.1276289E+00
          2   -1    0    0  501    0  0.00000000000E+00  0.00000000000E+00  0.21792545030E+03  0.21792545030E+03  0.00000000000E+00 0. -1.
         -2   -1    0    0    0  501 -0.00000000000E+00 -0.00000000000E+00 -0.64093768708E+02  0.64093768708E+02  0.00000000000E+00 0.  1.
         23    2    1    2    0    0  0.34852129157E+02 -0.26766027928E+02  0.88945918811E+02  0.13437450736E+03  0.90631344457E+02 0.  0.
          5    1    1    2  502    0 -0.46456470236E+02 -0.25083416404E+02 -0.11797900497E+02  0.54259047738E+02  0.41800000000E+01 0. -1.
         -5    1    1    2    0  502  0.11604341080E+02  0.51849444332E+02  0.76683663275E+02  0.93385663904E+02  0.41800000000E+01 0. -1.
        -11    1    3    3    0    0 -0.24613371152E+02  0.11210095103E+02  0.40820536900E+02  0.48967341203E+02  0.00000000000E+00 0.  1.
         11    1    3    3    0    0  0.59465500308E+02 -0.37976123031E+02  0.48125381912E+02  0.85407166160E+02  0.00000000000E+00 0. -1.
</event>
<event>
 7    1  0.6584658E-006  0.7066001E+02  0.7561462E-02  0.1357863E+00
          1   -1    0    0  501    0  0.00000000000E+00  0.00000000000E+00  0.54629184416E+02  0.54629184416E+02  0.00000000000E+00 0. -1.
         -1   -1    0    0    0  501 -0.00000000000E+00 -0.00000000000E+00 -0.22104108892E+03  0.22104108892E+03  0.00000000000E+00 0.  1.
         23    2    1    2    0    0 -0.13709691630E+01  0.96103803466E+01 -0.47573864550E+02  0.10286063562E+03  0.90679649338E+02 0.  0.
          5    1    1    2  502    0  0.49230621699E+02 -0.27069341899E+02 -0.16972128396E+02  0.58838158758E+02  0.41800000000E+01 0. -1.
         -5    1    1    2    0  502 -0.47859652536E+02  0.17458961553E+02 -0.10186591156E+03  0.11397147897E+03  0.41800000000E+01 0. -1.
        -11    1    3    3    0    0 -0.35614868809E+01  0.21492015284E+02 -0.72208266744E+02  0.75422971938E+02  0.00000000000E+00 0.  1.
         11    1    3    3    0    0  0.21905177178E+01 -0.11881634937E+02  0.24634402194E+02  0.27437663678E+02  0.00000000000E+00 0. -1.
</event>
<event>
 7    1  0.6584658E-006  0.2117884E+03  0.7561462E-02  0.1140158E+00
         -2   -1    0    0    0  501 -0.00000000000E+00  0.00000000000E+00  0.10945522129E+03  0.10945522129E+03  0.00000000000E+00 0.  1.
          2   -1    0    0  501    0  0.00000000000E+00 -0.00000000000E+00 -0.42458772935E+03  0.42458772935E+03  0.00000000000E+00 0. -1.
         23    2    1    2    0    0 -0.15334985665E+03  0.10398441270E+03 -0.18495959515E+03  0.27535613343E+03  0.85334704315E+02 0.  0.
          5    1    1    2  502    0  0.16238445055E+03 -0.54463317977E+02 -0.86553014801E+02  0.19194754376E+03  0.41800000000E+01 0.  1.
         -5    1    1    2    0  502 -0.90345938985E+01 -0.49521094727E+02 -0.43619898107E+02  0.66739273451E+02  0.41800000000E+01 0.  1.
        -11    1    3    3    0    0  0.26725321824E+00  0.32159389726E+02 -0.45930740323E+02  0.56070764917E+02  0.00000000000E+00 0.  1.
         11    1    3    3    0    0 -0.15361710987E+03  0.71825022978E+02 -0.13902885483E+03  0.21928536852E+03  0.00000000000E+00 0. -1.
</event>
<event>
 7    1  0.6584658E-006  0.7819831E+02  0.7561462E-02  0.1334244E+00
          2   -1    0    0  501    0  0.00000000000E+00  0.00000000000E+00  0.79580770285E+03  0.79580770285E+03  0.00000000000E+00 0. -1.
         -2   -1    0    0    0  501 -0.00000000000E+00 -0.00000000000E+00 -0.18483555304E+02  0.18483555304E+02  0.00000000000E+00 0.  1.
         23    2    1    2    0    0 -0.22737833171E+02  0.44575197761E+02  0.41550036197E+03  0.42821866344E+03  0.90701243721E+02 0.  0.
          5    1    1    2  502    0  0.31650201796E+02 -0.25021480823E+02  0.23172631918E+02  0.46714591364E+02  0.41800000000E+01 0. -1.
         -5    1    1    2    0  502 -0.89123686251E+01 -0.19553716938E+02  0.33865115367E+03  0.33935800335E+03  0.41800000000E+01 0. -1.
        -11    1    3    3    0    0  0.92210059925E+01  0.58398839990E+02  0.33965522401E+03  0.34476241480E+03  0.00000000000E+00 0.  1.
         11    1    3    3    0    0 -0.31958839163E+02 -0.13823642229E+02  0.75845137960E+02  0.83456248642E+02  0.00000000000E+00 0. -1.
</event>
<event>
 7    1  0.6584658E-006  0.1195270E+03  0.7561462E-02  0.1243879E+00
         -1   -1    0    0    0  501 -0.00000000000E+00  0.00000000000E+00  0.58985093773E+02  0.58985093773E+02  0.00000000000E+00 0.  1.
          1   -1    0    0  501    0  0.00000000000E+00 -0.00000000000E+00 -0.26928233765E+03  0.26928233765E+03  0.00000000000E+00 0. -1.
         23    2    1    2    0    0  0.57634717044E+02 -0.11583951603E+02 -0.12179871645E+03  0.16414632497E+03  0.93022256088E+02 0.  0.
          5    1    1    2  502    0  0.20741442969E+02 -0.34028330400E+02 -0.53471370753E+02  0.66819118645E+02  0.41800000000E+01 0. -1.
         -5    1    1    2    0  502 -0.78376160013E+02  0.45612282003E+02 -0.35027156678E+02  0.97301987816E+02  0.41800000000E+01 0. -1.
        -11    1    3    3    0    0  0.12471196288E+02  0.38674572318E+02 -0.31766401856E+02  0.51578654187E+02  0.00000000000E+00 0.  1.
         11    1    3    3    0    0  0.45163520757E+02 -0.50258523921E+02 -0.90032314593E+02  0.11256767078E+03  0.00000000000E+00 0. -1.
</event>
<event>
 7    1  0.6584658E-006  0.1027613E+03  0.7561462E-02  0.1274594E+00
         -2   -1    0    0    0  501 -0.00000000000E+00  0.00000000000E+00  0.18943676930E+02  0.18943676930E+02  0.00000000000E+00 0. -1.
          2   -1    0    0  501    0  0.00000000000E+00 -0.00000000000E+00 -0.70829332955E+03  0.70829332955E+03  0.00000000000E+00 0.  1.
         23    2    1    2    0    0 -0.11182563647E+02  0.22702358580E+02 -0.38298749562E+03  0.39535738241E+03  0.94802907219E+02 0.  0.
          5    1    1    2  502    0  0.20171972892E+02 -0.65697499314E+02 -0.25517256066E+03  0.26429827472E+03  0.41800000000E+01 0.  1.
         -5    1    1    2    0  502 -0.89894092451E+01  0.42995140734E+02 -0.51189596346E+02  0.67581349345E+02  0.41800000000E+01 0.  1.
        -11    1    3    3    0    0  0.20380178473E+02  0.47968059502E+02 -0.27822304187E+03  0.28306244441E+03  0.00000000000E+00 0.  1.
         11    1    3    3    0    0 -0.31562742120E+02 -0.25265700922E+02 -0.10476445374E+03  0.11229493800E+03  0.00000000000E+00 0. -1.
</event>
<event>
 7    1  0.6690123E-006  0.1133842E+03  0.7561462E-02  0.1254428E+00
         -2   -1    0    0    0  501 -0.00000000000E+00  0.00000000000E+00  0.66378961522E+02  0.66378961522E+02  0.00000000000E+00 0.  1.
          2   -1    0    0  501    0  0.00000000000E+00 -0.00000000000E+00 -0.30452861958E+03  0.30452861958E+03  0.00000000000E+00 0. -1.
         23    2    1    2    0    0  0.90054174973E+02 -0.15126241293E+01 -0.11783395697E+03  0.17536786274E+03  0.93578861957E+02 0.  0.
          5    1    1    2  502    0 -0.72181159572E+02 -0.43534592236E+02 -0.24170834227E+02  0.87789988869E+02  0.41800000000E+01 0. -1.
         -5    1    1    2    0  502 -0.17873015401E+02  0.45047216365E+02 -0.96144866856E+02  0.10774972949E+03  0.41800000000E+01 0. -1.
        -11    1    3    3    0    0  0.58368918524E+02 -0.13398429487E+02 -0.12691033745E+03  0.14033061788E+03  0.00000000000E+00 0. -1.
         11    1    3    3    0    0  0.31685256449E+02  0.11885805357E+02  0.90763804762E+01  0.35037244866E+02  0.00000000000E+00 0.  1.
</event>
<event>
 7    1  0.6584658E-006  0.9699179E+02  0.7561462E-02  0.1286752E+00
          1   -1    0    0  501    0  0.00000000000E+00  0.00000000000E+00  0.11403832993E+03  0.11403832993E+03  0.00000000000E+00 0. -1.
         -1   -1    0    0    0  501 -0.00000000000E+00 -0.00000000000E+00 -0.11629583077E+03  0.11629583077E+03  0.00000000000E+00 0.  1.
         23    2    1    2    0    0 -0.25120292719E+02 -0.27794921228E+02  0.13279583209E+02  0.98824576937E+02  0.90478521895E+02 0.  0.
          5    1    1    2  502    0 -0.19467056118E+02  0.67062299411E+02 -0.16765558744E+02  0.71936601506E+02  0.41800000000E+01 0.  1.
         -5    1    1    2    0  502  0.44587348837E+02 -0.39267378183E+02  0.12284746956E+01  0.59572982263E+02  0.41800000000E+01 0.  1.
        -11    1    3    3    0    0 -0.26654716870E+02  0.86249775109E+01  0.43319664017E+02  0.51589315357E+02  0.00000000000E+00 0. -1.
         11    1    3    3    0    0  0.15344241513E+01 -0.36419898739E+02 -0.30040080808E+02  0.47235261580E+02  0.00000000000E+00 0.  1.
</event>
<event>
 7    1  0.6584658E-006  0.1222126E+03  0.7561462E-02  0.1239491E+00
          4   -1    0    0  501    0  0.00000000000E+00  0.00000000000E+00  0.27493832942E+03  0.27493832942E+03  0.00000000000E+00 0. -1.
         -4   -1    0    0    0  501 -0.00000000000E+00 -0.00000000000E+00 -0.10033823191E+03  0.10033823191E+03  0.00000000000E+00 0.  1.
         23    2    1    2    0    0  0.92820136162E+02  0.47947693909E+02  0.16001775389E+03  0.21165201543E+03  0.90974364777E+02 0.  0.
          5    1    1    2  502    0 -0.11926886021E+02 -0.49256346677E+02  0.53446475072E+02  0.73772870323E+02  0.41800000000E+01 0. -1.
         -5    1    1    2    0  502 -0.80893250141E+02  0.13086527675E+01 -0.38864131449E+02  0.89851675575E+02  0.41800000000E+01 0. -1.
        -11    1    3    3    0    0  0.37460241789E+01  0.18305469028E+02 -0.70867523303E+01  0.19983617092E+02  0.00000000000E+00 0.  1.
         11    1    3    3    0    0  0.89074111983E+02  0.29642224881E+02  0.16710450622E+03  0.19166839834E+03  0.00000000000E+00 0. -1.
</event>
<event>
 7    1  0.6584658E-006  0.8013072E+02  0.7561462E-02  0.1328681E+00
          2   -1    0    0  501    0  0.00000000000E+00  0.00000000000E+00  0.63539476232E+03  0.63539476232E+03  0.00000000000E+00 0. -1.
         -2   -1    0    0    0  501 -0.00000000000E+00 -0.00000000000E+00 -0.20787982981E+02  0.20787982981E+02  0.00000000000E+00 0.  1.
         23    2    1    2    0    0  0.13147500255E+02  0.13937763811E+02  0.21676510279E+03  0.23911770379E+03  0.99111293293E+02 0.  0.
          5    1    1    2  502    0  0.20029767150E+02  0.19284706606E+02  0.34543808236E+03  0.34658048506E+03  0.41800000000E+01 0.  1.
         -5    1    1    2    0  502 -0.33177267405E+02 -0.33222470417E+02  0.52403594192E+02  0.70484556446E+02  0.41800000000E+01 0.  1.
        -11    1    3    3    0    0  0.27684156658E+02 -0.28749978542E+02  0.39301151324E+02  0.56013875883E+02  0.00000000000E+00 0.  1.
         11    1    3    3    0    0 -0.14536656403E+02  0.42687742353E+02  0.17746395146E+03  0.18310382791E+03  0.00000000000E+00 0. -1.
</event>
<event>
 7    1  0.6584658E-006  0.1166571E+03  0.7561462E-02  0.1248716E+00
         -2   -1    0    0    0  501 -0.00000000000E+00  0.00000000000E+00  0.38659679155E+02  0.38659679155E+02  0.00000000000E+00 0.  1.
          2   -1    0    0  501    0  0.00000000000E+00 -0.00000000000E+00 -0.51033310075E+03  0.51033310075E+03  0.00000000000E+00 0. -1.
         23    2    1    2    0    0  0.32461209830E+02 -0.68168650317E+02 -0.29398156981E+03  0.31894383085E+03  0.97976062478E+02 0.  0.
          5    1    1    2  502    0 -0.56812879531E+02  0.54619272592E+01 -0.23676850474E+02  0.61932233759E+02  0.41800000000E+01 0. -1.
         -5    1    1    2    0  502  0.24351669701E+02  0.62706723058E+02 -0.15401500131E+03  0.16811671530E+03  0.41800000000E+01 0. -1.
        -11    1    3    3    0    0 -0.23280758744E+02 -0.38861400886E+01 -0.16731178847E+02  0.28931438922E+02  0.00000000000E+00 0.  1.
         11    1    3    3    0    0  0.55741968574E+02 -0.64282510228E+02 -0.27725039096E+03  0.29001239192E+03  0.00000000000E+00 0. -1.
</event>
<event>
 7    1  0.6584658E-006  0.1400395E+03  0.7561462E-02  0.1213276E+00
          1   -1    0    0  501    0  0.00000000000E+00  0.00000000000E+00  0.62659075607E+03  0.62659075607E+03  0.00000000000E+00 0. -1.
         -1   -1    0    0    0  501 -0.00000000000E+00 -0.00000000000E+00 -0.38614114904E+02  0.38614114904E+02  0.00000000000E+00 0.  1.
         23    2    1    2    0    0 -0.86177709345E+02 -0.70356988220E+02  0.25005688210E+03  0.28809197230E+03  0.89954637649E+02 0.  0.
          5    1    1    2  502    0  0.57272602387E+02  0.10646394719E+03  0.24358183920E+03  0.27196379874E+03  0.41800000000E+01 0.  1.
         -5    1    1    2    0  502  0.28905106957E+02 -0.36106958972E+02  0.94337919861E+02  0.10514909994E+03  0.41800000000E+01 0.  1.
        -11    1    3    3    0    0 -0.49443396176E+02 -0.28839111189E+02  0.21502866113E+03  0.22251667099E+03  0.00000000000E+00 0. -1.
         11    1    3    3    0    0 -0.36734313168E+02 -0.41517877031E+02  0.35028220972E+02  0.65575301307E+02  0.00000000000E+00 0.  1.
</event>
<event>
 7    1  0.6584658E-006  0.1239752E+03  0.7561462E-02  0.1236680E+00
         -3   -1    0    0    0  501 -0.00000000000E+00  0.00000000000E+00  0.49357602551E+02  0.49357602551E+02  0.00000000000E+00 0.  1.
          3   -1    0    0  501    0  0.00000000000E+00 -0.00000000000E+00 -0.46955373388E+03  0.46955373388E+03  0.00000000000E+00 0. -1.
         23    2    1    2    0    0  0.56577014362E+02  0.87659930981E+02 -0.16386876154E+03  0.21520767167E+03  0.92607499060E+02 0.  0.
          5    1    1    2  502    0 -0.53737880480E+02 -0.10895303403E+03 -0.25413443407E+03  0.28170961362E+03  0.41800000000E+01 0. -1.
         -5    1    1    2    0  502 -0.28391338822E+01  0.21293103053E+02 -0.21929357187E+01  0.21994051147E+02  0.41800000000E+01 0. -1.
        -11    1    3    3    0    0  0.94206595703E+01  0.10750694806E+02  0.11267662694E+02  0.18201277102E+02  0.00000000000E+00 0.  1.
         11    1    3    3    0    0  0.47156354791E+02  0.76909236175E+02 -0.17513642423E+03  0.19700639456E+03  0.00000000000E+00 0. -1.
</event>
<event>
 7    1  0.6584658E-006  0.1346232E+03  0.7561462E-02  0.1220753E+00
         -4   -1    0    0    0  501 -0.00000000000E+00  0.00000000000E+00  0.21409589125E+03  0.21409589125E+03  0.00000000000E+00 0.  1.
          4   -1    0    0  501    0  0.00000000000E+00 -0.00000000000E+00 -0.15986195853E+03  0.15986195853E+03  0.00000000000E+00 0. -1.
         23    2    1    2    0    0  0.94108410143E+02  0.57680191949E+02 -0.78816687684E+02  0.16057082019E+03  0.85950687240E+02 0.  0.
          5    1    1    2  502    0 -0.10042402221E+03 -0.11994962338E+02  0.38858100556E+02  0.10842641624E+03  0.41800000000E+01 0. -1.
         -5    1    1    2    0  502  0.63156120689E+01 -0.45685229611E+02  0.94192519845E+02  0.10496061335E+03  0.41800000000E+01 0. -1.
        -11    1    3    3    0    0  0.24926012024E+02 -0.81412510706E+01  0.11956713164E+02  0.28819247632E+02  0.00000000000E+00 0.  1.
         11    1    3    3    0    0  0.69182398120E+02  0.65821443019E+02 -0.90773400849E+02  0.13175157256E+03  0.00000000000E+00 0. -1.
</event>
<event>
 7    1  0.6584658E-006  0.1266098E+03  0.7561462E-02  0.1232575E+00
         -1   -1    0    0    0  501 -0.00000000000E+00  0.00000000000E+00  0.67218840440E+02  0.67218840440E+02  0.00000000000E+00 0.  1.
          1   -1    0    0  501    0  0.00000000000E+00 -0.00000000000E+00 -0.30033360634E+03  0.30033360634E+03  0.00000000000E+00 0. -1.
         23    2    1    2    0    0 -0.33939905318E+01  0.84929880411E+02 -0.15208544743E+03  0.19598074302E+03  0.89743325965E+02 0.  0.
          5    1    1    2  502    0 -0.35193474757E+02 -0.94967105626E+02 -0.28126489847E+02  0.10519459895E+03  0.41800000000E+01 0. -1.
         -5    1    1    2    0  502  0.38587465289E+02  0.10037225216E+02 -0.52902828619E+02  0.66377104813E+02  0.41800000000E+01 0. -1.
        -11    1    3    3    0    0 -0.23007217165E+02 -0.15781271303E+01 -0.74991065613E+02  0.78456882736E+02  0.00000000000E+00 0. -1.
         11    1    3    3    0    0  0.19613226633E+02  0.86508007541E+02 -0.77094381820E+02  0.11752386028E+03  0.00000000000E+00 0.  1.
</event>
<event>
 7    1  0.6584658E-006  0.7844289E+02  0.7561462E-02  0.1333529E+00
         -1   -1    0    0    0  501 -0.00000000000E+00  0.00000000000E+00  0.12783136771E+03  0.12783136771E+03  0.00000000000E+00 0.  1.
          1   -1    0    0  501    0  0.00000000000E+00 -0.00000000000E+00 -0.88615472738E+02  0.88615472738E+02  0.00000000000E+00 0. -1.
         23    2    1    2    0    0 -0.66497626694E+01  0.10204029071E+02  0.20698749165E+01  0.85391045611E+02  0.84492631250E+02 0.  0.
          5    1    1    2  502    0  0.74027080011E+01  0.50401597044E+02 -0.12473600283E+02  0.52613536037E+02  0.41800000000E+01 0.  1.
         -5    1    1    2    0  502 -0.75294533161E+00 -0.60605626114E+02  0.49619620342E+02  0.78442258804E+02  0.41800000000E+01 0.  1.
        -11    1    3    3    0    0  0.12082261341E+02 -0.11269606062E+02 -0.34959110238E+02  0.38666839133E+02  0.00000000000E+00 0. -1.
         11    1    3    3    0    0 -0.18732024011E+02  0.21473635132E+02  0.37028985155E+02  0.46724206477E+02  0.00000000000E+00 0.  1.
</event>
<event>
 7    1  0.6584658E-006  0.8678024E+02  0.7561462E-02  0.1310842E+00
          3   -1    0    0  501    0  0.00000000000E+00  0.00000000000E+00  0.18707440088E+02  0.18707440088E+02  0.00000000000E+00 0. -1.
         -3   -1    0    0    0  501 -0.00000000000E+00 -0.00000000000E+00 -0.94755342509E+03  0.94755342509E+03  0.00000000000E+00 0.  1.
         23    2    1    2    0    0 -0.44628950147E+02  0.39588748345E+02 -0.24433229766E+03  0.26785844746E+03  0.92145884378E+02 0.  0.
          5    1    1    2  502    0  0.21818547760E+02 -0.60135601120E+01 -0.62943207174E+03  0.62985269490E+03  0.41800000000E+01 0.  1.
         -5    1    1    2    0  502  0.22810402387E+02 -0.33575188233E+02 -0.55081615590E+02  0.68549722814E+02  0.41800000000E+01 0.  1.
        -11    1    3    3    0    0  0.28449129339E+02  0.17483529000E+02 -0.77336347801E+02  0.84237387410E+02  0.00000000000E+00 0.  1.
         11    1    3    3    0    0 -0.73078079486E+02  0.22105219344E+02 -0.16699594986E+03  0.18362106005E+03  0.00000000000E+00 0. -1.
</event>
<event>
 7    1  0.6584658E-006  0.9489429E+02  0.7561462E-02  0.1291414E+00
         -1   -1    0    0    0  501 -0.00000000000E+00  0.00000000000E+00  0.30215669751E+03  0.30215669751E+03  0.00000000000E+00 0.  1.
          1   -1    0    0  501    0  0.00000000000E+00 -0.00000000000E+00 -0.66648344210E+02  0.66648344210E+02  0.00000000000E+00 0. -1.
         23    2    1    2    0    0 -0.15698508792E+01  0.11178640668E+02 -0.99310379519E+01  0.93096519597E+02  0.91874425208E+02 0.  0.
          5    1    1    2  502    0 -0.53198444231E+02  0.18745586783E+01  0.53295059581E+02  0.75441528448E+02  0.41800000000E+01 0. -1.
         -5    1    1    2    0  502  0.54768295110E+02 -0.13053199346E+02  0.19214433168E+03  0.20026699368E+03  0.41800000000E+01 0. -1.
        -11    1    3    3    0    0  0.12753542534E+02  0.43100553120E+02 -0.28762174565E+02  0.53362657469E+02  0.00000000000E+00 0.  1.
         11    1    3    3    0    0 -0.14323393413E+02 -0.31921912452E+02  0.18831136613E+02  0.39733862128E+02  0.00000000000E+00 0. -1.
</event>
<event>
 7    1  0.6584658E-006  0.1214121E+03  0.7561462E-02  0.1240786E+00
         -2   -1    0    0    0  501 -0.00000000000E+00  0.00000000000E+00  0.20552849525E+03  0.20552849525E+03  0.00000000000E+00 0.  1.
          2   -1    0    0  501    0  0.00000000000E+00 -0.00000000000E+00 -0.11821719937E+03  0.11821719937E+03  0.00000000000E+00 0. -1.
         23    2    1    2    0    0  0.13997202861E+02 -0.97163672393E+02  0.83882768318E+02  0.15890350829E+03  0.92613741995E+02 0.  0.
          5    1    1    2  502    0 -0.17112070400E+02  0.67477586131E+01 -0.54272219288E+02  0.57456952461E+02  0.41800000000E+01 0. -1.
         -5    1    1    2    0  502  0.31148675392E+01  0.90415913780E+02  0.57700746857E+02  0.10738523387E+03  0.41800000000E+01 0.  1.
        -11    1    3    3    0    0 -0.35749648105E+02 -0.18324029057E+02  0.14554277568E+02  0.42727442892E+02  0.00000000000E+00 0.  1.
         11    1    3    3    0    0  0.49746850966E+02 -0.78839643337E+02  0.69328490750E+02  0.11617606540E+03  0.00000000000E+00 0. -1.
</event>
<event>
 7    1  0.6584658E-006  0.3244093E+03  0.7561462E-02  0.1073638E+00
          2   -1    0    0  501    0  0.00000000000E+00  0.00000000000E+00  0.12176206629E+04  0.12176206629E+04  0.00000000000E+00 0. -1.
         -2   -1    0    0    0  501 -0.00000000000E+00 -0.00000000000E+00 -0.89524831075E+02  0.89524831075E+02  0.00000000000E+00 0.  1.
         23    2    1    2    0    0  0.30956912184E+03 -0.27490872217E+02  0.59695942007E+03  0.67917885375E+03  0.91293904086E+02 0.  0.
          5    1    1    2  502    0 -0.30521132371E+03  0.51721143059E+02  0.49950459092E+03  0.58766600847E+03  0.41800000000E+01 0. -1.
         -5    1    1    2    0  502 -0.43577981249E+01 -0.24230270842E+02  0.31631820798E+02  0.40300631714E+02  0.41800000000E+01 0. -1.
        -11    1    3    3    0    0  0.12770231050E+02  0.84151180926E+01  0.84630000641E+02  0.86000755939E+02  0.00000000000E+00 0. -1.
         11    1    3    3    0    0  0.29679889079E+03 -0.35905990309E+02  0.51232941943E+03  0.59317809781E+03  0.00000000000E+00 0.  1.
</event>
<event>
 7    1  0.6584658E-006  0.1741566E+03  0.7561462E-02  0.1173581E+00
          2   -1    0    0  501    0  0.00000000000E+00  0.00000000000E+00  0.38202750743E+03  0.38202750743E+03  0.00000000000E+00 0. -1.
         -2   -1    0    0    0  501 -0.00000000000E+00 -0.00000000000E+00 -0.90846106130E+02  0.90846106130E+02  0.00000000000E+00 0.  1.
         23    2    1    2    0    0 -0.10085879148E+03 -0.11253560125E+03  0.13586840125E+03  0.22267499194E+03  0.91033906920E+02 0.  0.
          5    1    1    2  502    0  0.66772448568E+02  0.12286987909E+03  0.16164543562E+03  0.21378093070E+03  0.41800000000E+01 0.  1.
         -5    1    1    2    0  502  0.34086342909E+02 -0.10334277847E+02 -0.63324355728E+01  0.36417690918E+02  0.41800000000E+01 0.  1.
        -11    1    3    3    0    0 -0.39195128759E+01 -0.64028708552E+02  0.28809204444E+02  0.70320753414E+02  0.00000000000E+00 0.  1.
         11    1    3    3    0    0 -0.96939278601E+02 -0.48506892693E+02  0.10705919681E+03  0.15235423852E+03  0.00000000000E+00 0. -1.
</event>
<event>
 7    1  0.6584658E-006  0.7760447E+02  0.7561462E-02  0.1335990E+00
          2   -1    0    0  501    0  0.00000000000E+00  0.00000000000E+00  0.70129971800E+03  0.70129971800E+03  0.00000000000E+00 0. -1.
         -2   -1    0    0    0  501 -0.00000000000E+00 -0.00000000000E+00 -0.18479966533E+02  0.18479966533E+02  0.00000000000E+00 0.  1.
         23    2    1    2    0    0 -0.25295889278E+02 -0.21759344911E+02  0.33077212854E+03  0.34468167939E+03  0.91004988768E+02 0.  0.
          5    1    1    2  502    0 -0.15219933399E+02  0.25478034300E+02  0.32428094035E+03  0.32566298113E+03  0.41800000000E+01 0.  1.
         -5    1    1    2    0  502  0.40515822677E+02 -0.37186893881E+01  0.27766682572E+02  0.49435024012E+02  0.41800000000E+01 0.  1.
        -11    1    3    3    0    0 -0.31408844523E+02  0.23147441775E+02  0.71263736911E+02  0.81245552330E+02  0.00000000000E+00 0.  1.
         11    1    3    3    0    0  0.61129552444E+01 -0.44906786687E+02  0.25950839163E+03  0.26343612706E+03  0.00000000000E+00 0. -1.
</event>
<event>
 7    1  0.6584658E-006  0.9146278E+02  0.7561462E-02  0.1299348E+00
          2   -1    0    0  501    0  0.00000000000E+00  0.00000000000E+00  0.77641894837E+02  0.77641894837E+02  0.00000000000E+00 0. -1.
         -2   -1    0    0    0  501 -0.00000000000E+00 -0.00000000000E+00 -0.30636978582E+03  0.30636978582E+03  0.00000000000E+00 0.  1.
         23    2    1    2    0    0 -0.34314451892E+02 -0.65362497418E+02 -0.41836714520E+01  0.11658764702E+03  0.90141215064E+02 0.  0.
          5    1    1    2  502    0  0.54969646929E+02  0.59591067884E+02 -0.23082911152E+03  0.24468818643E+03  0.41800000000E+01 0.  1.
         -5    1    1    2    0  502 -0.20655195037E+02  0.57714295344E+01  0.62848919871E+01  0.22735847206E+02  0.41800000000E+01 0.  1.
        -11    1    3    3    0    0 -0.30453215962E+00 -0.32829349782E+02  0.40195453757E+02  0.51899262515E+02  0.00000000000E+00 0. -1.
         11    1    3    3    0    0 -0.34009919733E+02 -0.32533147636E+02 -0.44379125209E+02  0.64688384503E+02  0.00000000000E+00 0.  1.
</event>
<event>
 7    1  0.6584658E-006  0.1560010E+03  0.7561462E-02  0.1193287E+00
         -1   -1    0    0    0  501 -0.00000000000E+00  0.00000000000E+00  0.24790918454E+03  0.24790918454E+03  0.00000000000E+00 0.  1.
          1   -1    0    0  501    0  0.00000000000E+00 -0.00000000000E+00 -0.10538766415E+03  0.10538766415E+03  0.00000000000E+00 0. -1.
         23    2    1    2    0    0  0.78678735661E+02 -0.88024502902E+02  0.58220034460E+02  0.16174281450E+03  0.93981429406E+02 0.  0.
          5    1    1    2  502    0 -0.10214037530E+03  0.37080350927E+02  0.28699366724E+02  0.11246659389E+03  0.41800000000E+01 0. -1.
         -5    1    1    2    0  502  0.23461639635E+02  0.50944151975E+02  0.55602119205E+02  0.79087440310E+02  0.41800000000E+01 0. -1.
        -11    1    3    3    0    0  0.17703407004E+02  0.17658306813E+02  0.24844237288E+02  0.35248582177E+02  0.00000000000E+00 0. -1.
         11    1    3    3    0    0  0.60975328657E+02 -0.10568280971E+03  0.33375797172E+02  0.12649423232E+03  0.00000000000E+00 0.  1.
</event>
<event>
 7    1  0.6584658E-006  0.1001405E+03  0.7561462E-02  0.1280001E+00
          2   -1    0    0  501    0  0.00000000000E+00  0.00000000000E+00  0.21421970251E+02  0.21421970251E+02  0.00000000000E+00 0. -1.
         -2   -1    0    0    0  501 -0.00000000000E+00 -0.00000000000E+00 -0.69810060888E+03  0.69810060888E+03  0.00000000000E+00 0.  1.
         23    2    1    2    0    0 -0.35160562744E+02  0.41797823727E+02 -0.25619367895E+03  0.27743758333E+03  0.91395231102E+02 0.  0.
          5    1    1    2  502    0  0.49873131364E+02 -0.74919948948E+02 -0.36288766014E+03  0.37390540818E+03  0.41800000000E+01 0.  1.
         -5    1    1    2    0  502 -0.14712568619E+02  0.33122125222E+02 -0.57597299536E+02  0.68179587623E+02  0.41800000000E+01 0.  1.
        -11    1    3    3    0    0 -0.42950040558E+02  0.14530992025E+02 -0.24107418089E+03  0.24530107298E+03  0.00000000000E+00 0.  1.
         11    1    3    3    0    0  0.77894778140E+01  0.27266831702E+02 -0.15119498057E+02  0.32136510345E+02  0.00000000000E+00 0. -1.
</event>
<event>
 7    1  0.6584658E-006  0.1253778E+03  0.7561462E-02  0.1234480E+00
          2   -1    0    0  501    0  0.00000000000E+00  0.00000000000E+00  0.27881117635E+03  0.27881117635E+03  0.00000000000E+00 0.  1.
         -2   -1    0    0    0  501 -0.00000000000E+00 -0.00000000000E+00 -0.64769725262E+02  0.64769725262E+02  0.00000000000E+00 0. -1.
         23    2    1    2    0    0 -0.14554007466E+02 -0.74006811176E+02  0.11121932708E+03  0.16495138829E+03  0.95657694670E+02 0.  0.
          5    1    1    2  502    0  0.58196434794E+02  0.22771755553E+02  0.90532255369E+02  0.11008605514E+03  0.41800000000E+01 0. -1.
         -5    1    1    2    0  502 -0.43642427329E+02  0.51235055624E+02  0.12289868634E+02  0.68543458178E+02  0.41800000000E+01 0. -1.
        -11    1    3    3    0    0  0.34954097435E+02 -0.43380102013E+01  0.22692340999E+02  0.41899279230E+02  0.00000000000E+00 0. -1.
         11    1    3    3    0    0 -0.49508104900E+02 -0.69668800975E+02  0.88526986084E+02  0.12305210906E+03  0.00000000000E+00 0.  1.
</event>
<event>
 7    1  0.6584658E-006  0.1276163E+03  0.7561462E-02  0.1231036E+00
          2   -1    0    0  501    0  0.00000000000E+00  0.00000000000E+00  0.37804132572E+03  0.37804132572E+03  0.00000000000E+00 0. -1.
         -2   -1    0    0    0  501 -0.00000000000E+00 -0.00000000000E+00 -0.17598536944E+03  0.17598536944E+03  0.00000000000E+00 0.  1.
         23    2    1    2    0    0 -0.16130664525E+02 -0.89918283171E+02  0.33182524730E+03  0.35552964532E+03  0.89150647634E+02 0.  0.
          5    1    1    2  502    0  0.20556902879E+02 -0.12935450957E+02  0.84917837954E+01  0.26067123728E+02  0.41800000000E+01 0. -1.
         -5    1    1    2    0  502 -0.44262383539E+01  0.10285373413E+03 -0.13826107481E+03  0.17242992611E+03  0.41800000000E+01 0.  1.
        -11    1    3    3    0    0  0.20575437860E+02  0.86899477424E+01  0.63380782054E+02  0.67201096484E+02  0.00000000000E+00 0.  1.
         11    1    3    3    0    0 -0.36706102385E+02 -0.98608230913E+02  0.26844446524E+03  0.28832854884E+03  0.00000000000E+00 0. -1.
</event>
<event>
 7    1  0.6584658E-006  0.1597701E+03  0.7561462E-02  0.1188957E+00
          2   -1    0    0  501    0  0.00000000000E+00  0.00000000000E+00  0.11152676643E+04  0.11152676643E+04  0.00000000000E+00 0. -1.
         -2   -1    0    0    0  501 -0.00000000000E+00 -0.00000000000E+00 -0.41245095305E+02  0.41245095305E+02  0.00000000000E+00 0.  1.
         23    2    1    2    0    0  0.12128027981E+03  0.17764587386E+02  0.88770394810E+03  0.90080498837E+03  0.91688825763E+02 0.  0.
          5    1    1    2  502    0  0.14471700019E+02  0.20431166423E+02  0.48428012370E+01  0.25841590250E+02  0.41800000000E+01 0.  1.
         -5    1    1    2    0  502 -0.13575197983E+03 -0.38195753809E+02  0.18147581963E+03  0.22986618095E+03  0.41800000000E+01 0.  1.
        -11    1    3    3    0    0  0.90223686213E+02  0.54156239638E+02  0.61212494205E+03  0.62110398205E+03  0.00000000000E+00 0. -1.
         11    1    3    3    0    0  0.31056593594E+02 -0.36391652252E+02  0.27557900605E+03  0.27970100632E+03  0.00000000000E+00 0.  1.
</event>
<event>
 7    1  0.6584658E-006  0.9419799E+02  0.7561462E-02  0.1292993E+00
         -1   -1    0    0    0  501 -0.00000000000E+00  0.00000000000E+00  0.16385523285E+02  0.16385523285E+02  0.00000000000E+00 0.  1.
          1   -1    0    0  501    0  0.00000000000E+00 -0.00000000000E+00 -0.85513338891E+03  0.85513338891E+03  0.00000000000E+00 0. -1.
         23    2    1    2    0    0  0.55120913263E+01 -0.44235793383E+02 -0.39181026351E+03  0.40527025218E+03  0.93496022068E+02 0.  0.
          5    1    1    2  502    0  0.34615275371E+02  0.10335568953E+02 -0.37664603056E+03  0.37839760308E+03  0.41800000000E+01 0.  1.
         -5    1    1    2    0  502 -0.40127366698E+02  0.33900224430E+02 -0.70291571556E+02  0.87851056945E+02  0.41800000000E+01 0.  1.
        -11    1    3    3    0    0 -0.15993158857E+02  0.23409912285E+02 -0.66246519856E+02  0.72058354938E+02  0.00000000000E+00 0.  1.
         11    1    3    3    0    0  0.21505250183E+02 -0.67645705668E+02 -0.32556374365E+03  0.33321189724E+03  0.00000000000E+00 0. -1.
</event>
<event>
 7    1  0.6584658E-006  0.1493825E+03  0.7561462E-02  0.1201234E+00
          1   -1    0    0  501    0  0.00000000000E+00  0.00000000000E+00  0.66494359286E+03  0.66494359286E+03  0.00000000000E+00 0. -1.
         -1   -1    0    0    0  501 -0.00000000000E+00 -0.00000000000E+00 -0.42314199172E+02  0.42314199172E+02  0.00000000000E+00 0.  1.
         23    2    1    2    0    0 -0.95634984816E+02 -0.78322422582E+02  0.37372568813E+03  0.40248975678E+03  0.83944399123E+02 0.  0.
          5    1    1    2  502    0  0.72539792234E+02  0.11223747626E+03  0.20279527558E+03  0.24290464946E+03  0.41800000000E+01 0. -1.
         -5    1    1    2    0  502  0.23095192582E+02 -0.33915053677E+02  0.46108429987E+02  0.61863385797E+02  0.41800000000E+01 0. -1.
        -11    1    3    3    0    0 -0.70534501177E+02 -0.53638750063E+02  0.34742104887E+03  0.35854374428E+03  0.00000000000E+00 0. -1.
         11    1    3    3    0    0 -0.25100483639E+02 -0.24683672519E+02  0.26304639259E+02  0.43946012498E+02  0.00000000000E+00 0.  1.
</event>
<event>
 7    1  0.6584658E-006  0.9974892E+02  0.7561462E-02  0.1280825E+00
          1   -1    0    0  501    0  0.00000000000E+00  0.00000000000E+00  0.76038059082E+02  0.76038059082E+02  0.00000000000E+00 0. -1.
         -1   -1    0    0    0  501 -0.00000000000E+00 -0.00000000000E+00 -0.18251158138E+03  0.18251158138E+03  0.00000000000E+00 0.  1.
         23    2    1    2    0    0 -0.94906460410E+00 -0.18402251833E+02 -0.27531691381E+01  0.95008634472E+02  0.93163925893E+02 0.  0.
          5    1    1    2  502    0  0.47198524388E+02  0.50928410836E+02 -0.52734902114E+02  0.87291729481E+02  0.41800000000E+01 0.  1.
         -5    1    1    2    0  502 -0.46249459784E+02 -0.32526159004E+02 -0.50985451044E+02  0.76249276508E+02  0.41800000000E+01 0.  1.
        -11    1    3    3    0    0 -0.26880772225E+02  0.15133191434E+02  0.28769165680E+02  0.42181207810E+02  0.00000000000E+00 0. -1.
         11    1    3    3    0    0  0.25931707621E+02 -0.33535443267E+02 -0.31522334819E+02  0.52827426661E+02  0.00000000000E+00 0.  1.
</event>
<event>
 7    1  0.8888388E-006  0.3000775E+03  0.7561462E-02  0.1085202E+00
          2   -1    0    0  501    0  0.00000000000E+00  0.00000000000E+00  0.20745904995E+04  0.20745904995E+04  0.00000000000E+00 0. -1.
         -2   -1    0    0    0  501 -0.00000000000E+00 -0.00000000000E+00 -0.51892346826E+02  0.51892346826E+02  0.00000000000E+00 0.  1.
         23    2    1    2    0    0 -0.14176807352E+03  0.25433177403E+03  0.13336487728E+04  0.13680501123E+04  0.90328415329E+02 0.  0.
          5    1    1    2  502    0  0.31365600660E+01 -0.38630609793E+02  0.24305962964E+02  0.45939245288E+02  0.41800000000E+01 0.  1.
         -5    1    1    2    0  502  0.13863151346E+03 -0.21570116423E+03  0.66474341695E+03  0.71249348878E+03  0.41800000000E+01 0.  1.
        -11    1    3    3    0    0 -0.62166376668E+02  0.34872159580E+02  0.29505180064E+03  0.30353960361E+03  0.00000000000E+00 0.  1.
         11    1    3    3    0    0 -0.79601696854E+02  0.21945961445E+03  0.10385969722E+04  0.10645105087E+04  0.00000000000E+00 0. -1.
</event>
<event>
 7    1  0.6584658E-006  0.1339352E+03  0.7561462E-02  0.1221731E+00
         -4   -1    0    0    0  501 -0.00000000000E+00  0.00000000000E+00  0.15911435569E+03  0.15911435569E+03  0.00000000000E+00 0. -1.
          4   -1    0    0  501    0  0.00000000000E+00 -0.00000000000E+00 -0.14176771619E+03  0.14176771619E+03  0.00000000000E+00 0.  1.
         23    2    1    2    0    0  0.21429941321E+01  0.92823524210E+02 -0.36923602844E+02  0.13591506674E+03  0.92134433572E+02 0.  0.
          5    1    1    2  502    0  0.52530135567E+02 -0.73534072171E+02  0.82755253261E+01  0.90843996126E+02  0.41800000000E+01 0. -1.
         -5    1    1    2    0  502 -0.54673129699E+02 -0.19289452039E+02  0.45994717020E+02  0.74123009011E+02  0.41800000000E+01 0. -1.
        -11    1    3    3    0    0  0.36549412634E+02  0.28565880744E+02  0.12263672301E+02  0.47981942071E+02  0.00000000000E+00 0. -1.
         11    1    3    3    0    0 -0.34406418502E+02  0.64257643466E+02 -0.49187275145E+02  0.87933124670E+02  0.00000000000E+00 0.  1.
</event>
<event>
 7    1  0.6584658E-006  0.7445357E+02  0.7561462E-02  0.1345572E+00
         -1   -1    0    0    0  501 -0.00000000000E+00  0.00000000000E+00  0.37030913983E+03  0.37030913983E+03  0.00000000000E+00 0.  1.
          1   -1    0    0  501    0  0.00000000000E+00 -0.00000000000E+00 -0.34598324537E+02  0.34598324537E+02  0.00000000000E+00 0. -1.
         23    2    1    2    0    0 -0.16041715549E+02  0.32321551749E+01  0.19204584728E+03  0.21371170061E+03  0.92321720396E+02 0.  0.
          5    1    1    2  502    0 -0.10522571901E+02  0.28320086554E+02  0.14650081195E+03  0.14964194640E+03  0.41800000000E+01 0.  1.
         -5    1    1    2    0  502  0.26564287449E+02 -0.31552241729E+02 -0.28358439327E+01  0.41553817353E+02  0.41800000000E+01 0.  1.
        -11    1    3    3    0    0  0.22023129201E+02 -0.22121525810E+02  0.23503614905E+02  0.39074288702E+02  0.00000000000E+00 0. -1.
         11    1    3    3    0    0 -0.38064844750E+02  0.25353680985E+02  0.16854223237E+03  0.17463741191E+03  0.00000000000E+00 0.  1.
</event>
<event>
 7    1  0.6584658E-006  0.7342179E+02  0.7561462E-02  0.1348829E+00
         -2   -1    0    0    0  501 -0.00000000000E+00  0.00000000000E+00  0.64837552230E+03  0.64837552230E+03  0.00000000000E+00 0.  1.
          2   -1    0    0  501    0  0.00000000000E+00 -0.00000000000E+00 -0.19080378536E+02  0.19080378536E+02  0.00000000000E+00 0. -1.
         23    2    1    2    0    0  0.12144555914E+02  0.21854764960E+02  0.26844044192E+03  0.28471580097E+03  0.91529751853E+02 0.  0.
          5    1    1    2  502    0 -0.22945451309E+02 -0.40647523654E+02  0.35732479883E+03  0.36038479321E+03  0.41800000000E+01 0.  1.
         -5    1    1    2    0  502  0.10800895395E+02  0.18792758694E+02  0.35299030151E+01  0.22355306662E+02  0.41800000000E+01 0.  1.
        -11    1    3    3    0    0  0.43080067552E+02  0.18154900597E+02  0.23248925188E+03  0.23714287861E+03  0.00000000000E+00 0.  1.
         11    1    3    3    0    0 -0.30935511638E+02  0.36998643634E+01  0.35951190041E+02  0.47572922361E+02  0.00000000000E+00 0. -1.
</event>
<event>
 7    1  0.6584658E-006  0.8980255E+02  0.7561462E-02  0.1303331E+00
          2   -1    0    0  501    0  0.00000000000E+00  0.00000000000E+00  0.27456327217E+02  0.27456327217E+02  0.00000000000E+00 0.  1.
         -2   -1    0    0    0  501 -0.00000000000E+00 -0.00000000000E+00 -0.70567772845E+03  0.70567772845E+03  0.00000000000E+00 0. -1.
         23    2    1    2    0    0  0.24193912903E+02 -0.10424016839E+02 -0.84837549992E+02  0.12613846104E+03  0.89551638270E+02 0.  0.
          5    1    1    2  502    0 -0.69496246875E+02 -0.44568254835E+01 -0.22645197827E+03  0.23695476886E+03  0.41800000000E+01 0.  1.
         -5    1    1    2    0  502  0.45302333972E+02  0.14880842322E+02 -0.36693187297E+03  0.37004082577E+03  0.41800000000E+01 0.  1.
        -11    1    3    3    0    0  0.18568899275E+02  0.22158138203E+02 -0.88282279127E+02  0.92895360039E+02  0.00000000000E+00 0. -1.
         11    1    3    3    0    0  0.56250136283E+01 -0.32582155041E+02  0.34447291357E+01  0.33243101003E+02  0.00000000000E+00 0.  1.
</event>
<event>
 7    1  0.6584658E-006  0.1065016E+03  0.7561462E-02  0.1267189E+00
          3   -1    0    0  501    0  0.00000000000E+00  0.00000000000E+00  0.73581370975E+02  0.73581370975E+02  0.00000000000E+00 0. -1.
         -3   -1    0    0    0  501 -0.00000000000E+00 -0.00000000000E+00 -0.25100418837E+03  0.25100418837E+03  0.00000000000E+00 0.  1.
         23    2    1    2    0    0  0.23924733172E+02 -0.12488779277E+02  0.13688719094E+02  0.94589477162E+02  0.89618221887E+02 0.  0.
          5    1    1    2  502    0 -0.30801319921E+02 -0.51054230425E+02 -0.12146423553E+03  0.13537462342E+03  0.41800000000E+01 0.  1.
         -5    1    1    2    0  502  0.68765867487E+01  0.63543009702E+02 -0.69647300954E+02  0.94621458759E+02  0.41800000000E+01 0.  1.
        -11    1    3    3    0    0 -0.28033708026E+02 -0.22889277320E+02  0.19792638263E+02  0.41249925228E+02  0.00000000000E+00 0. -1.
         11    1    3    3    0    0  0.51958441198E+02  0.10400498043E+02 -0.61039191691E+01  0.53339551934E+02  0.00000000000E+00 0.  1.
</event>
<event>
 7    1  0.6584658E-006  0.2200355E+03  0.7561462E-02  0.1133857E+00
          2   -1    0    0  501    0  0.00000000000E+00  0.00000000000E+00  0.28004121640E+03  0.28004121640E+03  0.00000000000E+00 0. -1.
         -2   -1    0    0    0  501 -0.00000000000E+00 -0.00000000000E+00 -0.27670921253E+03  0.27670921253E+03  0.00000000000E+00 0.  1.
         23    2    1    2    0    0  0.21645057950E+03  0.32327086140E+02  0.13529390577E+03  0.27221863000E+03  0.88896837487E+02 0.  0.
          5    1    1    2  502    0 -0.84926903612E+02 -0.24218302710E+01  0.13483910354E+02  0.86126258815E+02  0.41800000000E+01 0. -1.
         -5    1    1    2    0  502 -0.13152367589E+03 -0.29905255869E+02 -0.14544581226E+03  0.19840554012E+03  0.41800000000E+01 0. -1.
        -11    1    3    3    0    0  0.18320982764E+03  0.35680664007E+02  0.70882042490E+02  0.19965774384E+03  0.00000000000E+00 0.  1.
         11    1    3    3    0    0  0.33240751857E+02 -0.33535778664E+01  0.64411863277E+02  0.72560886153E+02  0.00000000000E+00 0. -1.
</event>
<event>
 7    1  0.6584658E-006  0.1136727E+03  0.7561462E-02  0.1253916E+00
         -2   -1    0    0    0  501 -0.00000000000E+00  0.00000000000E+00  0.24128232700E+03  0.24128232700E+03  0.00000000000E+00 0.  1.
          2   -1    0    0  501    0  0.00000000000E+00 -0.00000000000E+00 -0.61083475460E+02  0.61083475460E+02  0.00000000000E+00 0. -1.
         23    2    1    2    0    0 -0.54658124613E+02  0.54977310238E+00  0.63183846564E+02  0.12256717715E+03  0.89681110667E+02 0.  0.
          5    1    1    2  502    0  0.16929842543E+02  0.61411128229E+02  0.53800973487E+02  0.83486306584E+02  0.41800000000E+01 0.  1.
         -5    1    1    2    0  502  0.37728282070E+02 -0.61960901331E+02  0.63214031488E+02  0.96312318728E+02  0.41800000000E+01 0.  1.
        -11    1    3    3    0    0 -0.36989579264E+02  0.35759229690E+02  0.41758666557E+01  0.51617723162E+02  0.00000000000E+00 0. -1.
         11    1    3    3    0    0 -0.17668545350E+02 -0.35209456587E+02  0.59007979908E+02  0.70949453985E+02  0.00000000000E+00 0.  1.
</event>
<event>
 7    1  0.6584658E-006  0.1434731E+03  0.7561462E-02  0.1208731E+00
          3   -1    0    0  501    0  0.00000000000E+00  0.00000000000E+00  0.93781321321E+02  0.93781321321E+02  0.00000000000E+00 0. -1.
         -3   -1    0    0    0  501 -0.00000000000E+00 -0.00000000000E+00 -0.29330011418E+03  0.29330011418E+03  0.00000000000E+00 0.  1.
         23    2    1    2    0    0  0.93589934556E+02  0.66209596421E+02 -0.35700207811E+02  0.15122840401E+03  0.91938777642E+02 0.  0.
          5    1    1    2  502    0  0.23602366243E+02 -0.23312048072E+02 -0.76489108588E+02  0.83478017527E+02  0.41800000000E+01 0.  1.
         -5    1    1    2    0  502 -0.11719230080E+03 -0.42897548348E+02 -0.87329476459E+02  0.15237501396E+03  0.41800000000E+01 0.  1.
        -11    1    3    3    0    0  0.12701665857E+02  0.42491119769E+02  0.21573595349E+02  0.49317822246E+02  0.00000000000E+00 0. -1.
         11    1    3    3    0    0  0.80888268699E+02  0.23718476651E+02 -0.57273803160E+02  0.10191058177E+03  0.00000000000E+00 0.  1.
</event>
<event>
 7    1  0.6584658E-006  0.1034734E+03  0.7561462E-02  0.1273157E+00
         -2   -1    0    0    0  501 -0.00000000000E+00  0.00000000000E+00  0.31050200741E+02  0.31050200741E+02  0.00000000000E+00 0.  1.
          2   -1    0    0  501    0  0.00000000000E+00 -0.00000000000E+00 -0.51829578148E+03  0.51829578148E+03  0.00000000000E+00 0. -1.
         23    2    1    2    0    0 -0.28473691190E+02 -0.33170719275E+02 -0.32018983870E+03  0.33611747166E+03  0.92424965456E+02 0.  0.
          5    1    1    2  502    0 -0.37056379652E+02 -0.49212340233E+01 -0.11548393004E+03  0.12145535935E+03  0.41800000000E+01 0. -1.
         -5    1    1    2    0  502  0.65530070842E+02  0.38091953298E+02 -0.51571811997E+02  0.91773151212E+02  0.41800000000E+01 0. -1.
        -11    1    3    3    0    0  0.29076341313E+02 -0.56176920848E+01 -0.46815351199E+02  0.55395570188E+02  0.00000000000E+00 0.  1.
         11    1    3    3    0    0 -0.57550032504E+02 -0.27553027190E+02 -0.27337448750E+03  0.28072190147E+03  0.00000000000E+00 0. -1.
</event>
<event>
 7    1  0.6584658E-006  0.1275275E+03  0.7561462E-02  0.1231171E+00
          1   -1    0    0  501    0  0.00000000000E+00  0.00000000000E+00  0.33782562007E+03  0.33782562007E+03  0.00000000000E+00 0. -1.
         -1   -1    0    0    0  501 -0.00000000000E+00 -0.00000000000E+00 -0.58285653762E+02  0.58285653762E+02  0.00000000000E+00 0.  1.
         23    2    1    2    0    0 -0.48450376451E+02  0.69565630665E+02  0.16535263559E+03  0.20670913623E+03  0.90555822330E+02 0.  0.
          5    1    1    2  502    0  0.81668308502E+02 -0.80144962628E+02  0.98110772264E+02  0.15078502473E+03  0.41800000000E+01 0.  1.
         -5    1    1    2    0  502 -0.33217932051E+02  0.10579331964E+02  0.16076558451E+02  0.38617112867E+02  0.41800000000E+01 0.  1.
        -11    1    3    3    0    0 -0.71930097082E+01  0.63305847840E+02  0.41553481780E+02  0.76066165984E+02  0.00000000000E+00 0.  1.
         11    1    3    3    0    0 -0.41257366743E+02  0.62597828243E+01  0.12379915381E+03  0.13064297025E+03  0.00000000000E+00 0. -1.
</event>
<event>
 7    1  0.6584658E-006  0.1070636E+03  0.7561462E-02  0.1266106E+00
          2   -1    0    0  501    0  0.00000000000E+00  0.00000000000E+00  0.59665389994E+03  0.59665389994E+03  0.00000000000E+00 0. -1.
         -2   -1    0    0    0  501 -0.00000000000E+00 -0.00000000000E+00 -0.22990581017E+02  0.22990581017E+02  0.00000000000E+00 0.  1.
         23    2    1    2    0    0 -0.43718569652E+02 -0.96513462607E+01  0.22627633638E+03  0.24771732856E+03  0.90324042458E+02 0.  0.
          5    1    1    2  502    0  0.22281183863E+02  0.59545245545E+02  0.26921771578E+03  0.27665454688E+03  0.41800000000E+01 0. -1.
         -5    1    1    2    0  502  0.21437385788E+02 -0.49893899285E+02  0.78169266761E+02  0.95272605513E+02  0.41800000000E+01 0. -1.
        -11    1    3    3    0    0 -0.49612677462E+01 -0.43928266588E+02  0.14299302159E+03  0.14967067517E+03  0.00000000000E+00 0. -1.
         11    1    3    3    0    0 -0.38757301905E+02  0.34276920327E+02  0.83283314795E+02  0.98046653392E+02  0.00000000000E+00 0.  1.
</event>
<event>
 7    1  0.6584658E-006  0.2035344E+03  0.7561462E-02  0.1146791E+00
         -1   -1    0    0    0  501 -0.00000000000E+00  0.00000000000E+00  0.15062396440E+03  0.15062396440E+03  0.00000000000E+00 0.  1.
          1   -1    0    0  501    0  0.00000000000E+00 -0.00000000000E+00 -0.29458620802E+03  0.29458620802E+03  0.00000000000E+00 0. -1.
         23    2    1    2    0    0  0.94992747085E+02  0.15137019313E+03 -0.42577368394E+02  0.20466190387E+03  0.90205904636E+02 0.  0.
          5    1    1    2  502    0  0.17639850351E+02 -0.77499890779E+02 -0.16507534344E+02  0.81285721263E+02  0.41800000000E+01 0. -1.
         -5    1    1    2    0  502 -0.11263259744E+03 -0.73870302347E+02 -0.84877340874E+02  0.15926254729E+03  0.41800000000E+01 0. -1.
        -11    1    3    3    0    0  0.21670296625E+01  0.67737629858E+02 -0.41971623316E+02  0.79716370214E+02  0.00000000000E+00 0. -1.
         11    1    3    3    0    0  0.92825717423E+02  0.83632563267E+02 -0.60574507807E+00  0.12494553366E+03  0.00000000000E+00 0.  1.
</event>
<event>
 7    1  0.6584658E-006  0.1361280E+03  0.7561462E-02  0.1218636E+00
          1   -1    0    0  501    0  0.00000000000E+00  0.00000000000E+00  0.21214011708E+03  0.21214011708E+03  0.00000000000E+00 0. -1.
         -1   -1    0    0    0  501 -0.00000000000E+00 -0.00000000000E+00 -0.16643147834E+03  0.16643147834E+03  0.00000000000E+00 0.  1.
         23    2    1    2    0    0  0.11816432655E+03  0.56487923376E+02  0.10125953928E+03  0.18913064842E+03  0.91450611381E+02 0.  0.
          5    1    1    2  502    0 -0.93554703729E+02 -0.20150218688E+02  0.23766118499E+02  0.98695565714E+02  0.41800000000E+01 0. -1.
         -5    1    1    2    0  502 -0.24609622819E+02 -0.36337704688E+02 -0.79317019033E+02  0.90745381291E+02  0.41800000000E+01 0. -1.
        -11    1    3    3    0    0  0.73944687972E+02  0.45474107343E+02  0.11259280430E+03  0.14217190615E+03  0.00000000000E+00 0. -1.
         11    1    3    3    0    0  0.44219638576E+02  0.11013816033E+02 -0.11333265026E+02  0.46958742270E+02  0.00000000000E+00 0.  1.
</event>
<event>
 7    1  0.6584658E-006  0.1422122E+03  0.7561462E-02  0.1210383E+00
          2   -1    0    0  501    0  0.00000000000E+00  0.00000000000E+00  0.14306597270E+03  0.14306597270E+03  0.00000000000E+00 0. -1.
         -2   -1    0    0    0  501 -0.00000000000E+00 -0.00000000000E+00 -0.36330749863E+03  0.36330749863E+03  0.00000000000E+00 0.  1.
         23    2    1    2    0    0 -0.97826847654E+02  0.97980309281E+02  0.59367270683E+02  0.17022103149E+03  0.79249565316E+02 0.  0.
          5    1    1    2  502    0  0.72302022549E+02 -0.71487748716E+02 -0.28124729498E+03  0.29909128041E+03  0.41800000000E+01 0. -1.
         -5    1    1    2    0  502  0.25524825105E+02 -0.26492560566E+02  0.16384983653E+01  0.37061159438E+02  0.41800000000E+01 0. -1.
        -11    1    3    3    0    0 -0.49589365529E+02  0.80069326658E+02  0.34691030540E+01  0.94245620169E+02  0.00000000000E+00 0.  1.
         11    1    3    3    0    0 -0.48237482125E+02  0.17910982623E+02  0.55898167629E+02  0.75975411316E+02  0.00000000000E+00 0. -1.
</event>
<event>
 7    1  0.6584658E-006  0.1012207E+03  0.7561462E-02  0.1277750E+00
          3   -1    0    0  501    0  0.00000000000E+00  0.00000000000E+00  0.85641726438E+02  0.85641726438E+02  0.00000000000E+00 0. -1.
         -3   -1    0    0    0  501 -0.00000000000E+00 -0.00000000000E+00 -0.13740565380E+03  0.13740565380E+03  0.00000000000E+00 0.  1.
         23    2    1    2    0    0 -0.53426541135E+01 -0.36308140683E+01 -0.35047498674E+02  0.96679222752E+02  0.89871119860E+02 0.  0.
          5    1    1    2  502    0 -0.42780566909E+02 -0.36956808259E+02  0.10507068333E+02  0.57652870411E+02  0.41800000000E+01 0. -1.
         -5    1    1    2    0  502  0.48123221022E+02  0.40587622327E+02 -0.27223497021E+02  0.68715287075E+02  0.41800000000E+01 0. -1.
        -11    1    3    3    0    0 -0.17791472022E+02 -0.40237778979E+02 -0.37677398460E+02  0.57924102830E+02  0.00000000000E+00 0.  1.
         11    1    3    3    0    0  0.12448817909E+02  0.36606964911E+02  0.26298997860E+01  0.38755119922E+02  0.00000000000E+00 0. -1.
</event>
<event>
 7    1  0.6584658E-006  0.1019446E+03  0.7561462E-02  0.1276259E+00
          1   -1    0    0  501    0  0.00000000000E+00  0.00000000000E+00  0.13380310972E+03  0.13380310972E+03  0.00000000000E+00 0. -1.
         -1   -1    0    0    0  501 -0.00000000000E+00 -0.00000000000E+00 -0.20639761514E+03  0.20639761514E+03  0.00000000000E+00 0.  1.
         23    2    1    2    0    0  0.24644276764E+02 -0.45220367371E+02  0.85520175725E+02  0.13635853039E+03  0.92885555136E+02 0.  0.
          5    1    1    2  502    0 -0.38583350537E+02 -0.14064927833E+02 -0.13044183796E+03  0.13681755233E+03  0.41800000000E+01 0. -1.
         -5    1    1    2    0  502  0.13939073773E+02  0.59285295204E+02 -0.27672843184E+02  0.67024642148E+02  0.41800000000E+01 0.  1.
        -11    1    3    3    0    0 -0.59205508378E+01  0.24623864457E+02  0.56610547210E+01  0.25950629348E+02  0.00000000000E+00 0.  1.
         11    1    3    3    0    0  0.30564827601E+02 -0.69844231828E+02  0.79859121004E+02  0.11040790105E+03  0.00000000000E+00 0. -1.
</event>
<event>
 7    1  0.6584658E-006  0.1213100E+03  0.7561462E-02  0.1240951E+00
         -1   -1    0    0    0  501 -0.00000000000E+00  0.00000000000E+00  0.28377302837E+03  0.28377302837E+03  0.00000000000E+00 0.  1.
          1   -1    0    0  501    0  0.00000000000E+00 -0.00000000000E+00 -0.60774759201E+02  0.60774759201E+02  0.00000000000E+00 0. -1.
         23    2    1    2    0    0 -0.31300799805E+02 -0.30028790718E+02  0.77785499143E+02  0.12931015799E+03  0.93750011952E+02 0.  0.
          5    1    1    2  502    0 -0.57121398665E+02 -0.11497276123E+02  0.35856178020E+02  0.68543266963E+02  0.41800000000E+01 0. -1.
         -5    1    1    2    0  502  0.88422198471E+02  0.41526066842E+02  0.10935659200E+03  0.14669436262E+03  0.41800000000E+01 0.  1.
        -11    1    3    3    0    0 -0.62437082743E+01  0.25102745109E+02  0.61320365855E+02  0.66553128955E+02  0.00000000000E+00 0.  1.
         11    1    3    3    0    0 -0.25057091531E+02 -0.55131535828E+02  0.16465133288E+02  0.62757029032E+02  0.00000000000E+00 0. -1.
</event>
<event>
 7    1  0.6584658E-006  0.8844873E+02  0.7561462E-02  0.1306652E+00
         -1   -1    0    0    0  501 -0.00000000000E+00  0.00000000000E+00  0.17658878978E+03  0.17658878978E+03  0.00000000000E+00 0.  1.
          1   -1    0    0  501    0  0.00000000000E+00 -0.00000000000E+00 -0.25918453303E+03  0.25918453303E+03  0.00000000000E+00 0. -1.
         23    2    1    2    0    0 -0.23460522083E+02 -0.20547461352E+02 -0.22918203566E+03  0.24878219279E+03  0.91627396091E+02 0.  0.
          5    1    1    2  502    0  0.49823196221E+02 -0.95392161153E+01  0.20895806985E+02  0.55022310705E+02  0.41800000000E+01 0. -1.
         -5    1    1    2    0  502 -0.26362674138E+02  0.30086677467E+02  0.12569048542E+03  0.13196881932E+03  0.41800000000E+01 0.  1.
        -11    1    3    3    0    0 -0.12720135559E+02  0.30797401096E+02 -0.38026318457E+02  0.50559694009E+02  0.00000000000E+00 0.  1.
         11    1    3    3    0    0 -0.10740386524E+02 -0.51344862448E+02 -0.19115571720E+03  0.19822249878E+03  0.00000000000E+00 0. -1.
</event>
<event>
 7    1  0.6584658E-006  0.1229786E+03  0.7561462E-02  0.1238263E+00
         -2   -1    0    0    0  501 -0.00000000000E+00  0.00000000000E+00  0.67012325316E+02  0.67012325316E+02  0.00000000000E+00 0.  1.
          2   -1    0    0  501    0  0.00000000000E+00 -0.00000000000E+00 -0.42373767677E+03  0.42373767677E+03  0.00000000000E+00 0. -1.
         23    2    1    2    0    0  0.60192507425E+02  0.14153407620E+02 -0.33106863310E+03  0.34886967495E+03  0.90995348124E+02 0.  0.
          5    1    1    2  502    0 -0.89650037702E+02  0.20247966196E+02 -0.28479226318E+02  0.96310166269E+02  0.41800000000E+01 0.  1.
         -5    1    1    2    0  502  0.29457530277E+02 -0.34401373816E+02  0.28225079622E+01  0.45570160869E+02  0.41800000000E+01 0.  1.
        -11    1    3    3    0    0 -0.19563492346E+02 -0.13819317995E+02 -0.51363181690E+02  0.56673452480E+02  0.00000000000E+00 0.  1.
         11    1    3    3    0    0  0.79755999772E+02  0.27972725615E+02 -0.27970545141E+03  0.29219622247E+03  0.00000000000E+00 0. -1.
</event>
<event>
 7    1  0.6584658E-006  0.1149322E+03  0.7561462E-02  0.1251700E+00
         -3   -1    0    0    0  501 -0.00000000000E+00  0.00000000000E+00  0.89872238248E+03  0.89872238248E+03  0.00000000000E+00 0.  1.
          3   -1    0    0  501    0  0.00000000000E+00 -0.00000000000E+00 -0.19615090898E+02  0.19615090898E+02  0.00000000000E+00 0. -1.
         23    2    1    2    0    0  0.29831137028E+02  0.27996101470E+02  0.16828072983E+03  0.19542862004E+03  0.90555303914E+02 0.  0.
          5    1    1    2  502    0  0.48844096078E+02 -0.17880475992E+02  0.28012873064E+03  0.28494742545E+03  0.41800000000E+01 0. -1.
         -5    1    1    2    0  502 -0.78675233107E+02 -0.10115625477E+02  0.43069783112E+03  0.43796142788E+03  0.41800000000E+01 0. -1.
        -11    1    3    3    0    0 -0.18046070414E+02 -0.22381571653E+02  0.36693586527E+02  0.46615605748E+02  0.00000000000E+00 0. -1.
         11    1    3    3    0    0  0.47877207443E+02  0.50377673123E+02  0.13158714330E+03  0.14881301430E+03  0.00000000000E+00 0.  1.
</event>
<event>
 7    1  0.6584658E-006  0.1346016E+03  0.7561462E-02  0.1220783E+00
         -4   -1    0    0    0  501 -0.00000000000E+00  0.00000000000E+00  0.60826449838E+02  0.60826449838E+02  0.00000000000E+00 0.  1.
          4   -1    0    0  501    0  0.00000000000E+00 -0.00000000000E+00 -0.32909769374E+03  0.32909769374E+03  0.00000000000E+00 0. -1.
         23    2    1    2    0    0 -0.60040623368E+02  0.65330992906E+02 -0.12706845427E+03  0.18145861704E+03  0.94381261580E+02 0.  0.
          5    1    1    2  502    0 -0.37065979094E+02 -0.39772599789E+01 -0.44942079078E+02  0.58540313247E+02  0.41800000000E+01 0.  1.
         -5    1    1    2    0  502  0.97106602462E+02 -0.61353732928E+02 -0.96260710558E+02  0.14992521330E+03  0.41800000000E+01 0.  1.
        -11    1    3    3    0    0  0.16794083872E+02  0.15015767783E+01  0.33414549932E+01  0.17188987969E+02  0.00000000000E+00 0.  1.
         11    1    3    3    0    0 -0.76834707239E+02  0.63829416128E+02 -0.13040990926E+03  0.16426962907E+03  0.00000000000E+00 0. -1.
</event>
<event>
 7    1  0.6584658E-006  0.1559682E+03  0.7561462E-02  0.1193325E+00
         -1   -1    0    0    0  501 -0.00000000000E+00  0.00000000000E+00  0.12300663559E+03  0.12300663559E+03  0.00000000000E+00 0.  1.
          1   -1    0    0  501    0  0.00000000000E+00 -0.00000000000E+00 -0.22001651550E+03  0.22001651550E+03  0.00000000000E+00 0. -1.
         23    2    1    2    0    0 -0.66309558216E+02  0.94161522001E+02 -0.88895130320E+02  0.17280134023E+03  0.93244888617E+02 0.  0.
          5    1    1    2  502    0 -0.15313358129E+02 -0.82719136798E+02 -0.20715368182E+02  0.86738419450E+02  0.41800000000E+01 0.  1.
         -5    1    1    2    0  502  0.81622916345E+02 -0.11442385203E+02  0.12600618593E+02  0.83483391406E+02  0.41800000000E+01 0.  1.
        -11    1    3    3    0    0  0.17824269892E+01 -0.15769543172E+02 -0.22240707476E+02  0.27322236490E+02  0.00000000000E+00 0.  1.
         11    1    3    3    0    0 -0.68091985205E+02  0.10993106517E+03 -0.66654422844E+02  0.14547910374E+03  0.00000000000E+00 0. -1.
</event>
<event>
 7    1  0.6584658E-006  0.2035082E+03  0.7561462E-02  0.1146812E+00
          1   -1    0    0  501    0  0.00000000000E+00  0.00000000000E+00  0.15781456898E+04  0.15781456898E+04  0.00000000000E+00 0. -1.
         -1   -1    0    0    0  501 -0.00000000000E+00 -0.00000000000E+00 -0.30939979925E+02  0.30939979925E+02  0.00000000000E+00 0.  1.
         23    2    1    2    0    0  0.74848832159E+02  0.17561699385E+03  0.67741140829E+03  0.70984491083E+03  0.92465697105E+02 0.  0.
          5    1    1    2  502    0 -0.54508280964E+02 -0.78600234514E+02  0.66300599986E+03  0.66988325685E+03  0.41800000000E+01 0.  1.
         -5    1    1    2    0  502 -0.20340551195E+02 -0.97016759341E+02  0.20678830176E+03  0.22935750208E+03  0.41800000000E+01 0.  1.
        -11    1    3    3    0    0  0.76436641889E+02  0.61969423650E+02  0.32256812646E+03  0.33724318510E+03  0.00000000000E+00 0.  1.
         11    1    3    3    0    0 -0.15878097303E+01  0.11364757020E+03  0.35484328184E+03  0.37260172573E+03  0.00000000000E+00 0. -1.
</event>
<event>
 7    1  0.6584658E-006  0.1031751E+03  0.7561462E-02  0.1273757E+00
          1   -1    0    0  501    0  0.00000000000E+00  0.00000000000E+00  0.45846022896E+03  0.45846022896E+03  0.00000000000E+00 0. -1.
         -1   -1    0    0    0  501 -0.00000000000E+00 -0.00000000000E+00 -0.28484428245E+02  0.28484428245E+02  0.00000000000E+00 0.  1.
         23    2    1    2    0    0 -0.23283229548E+02  0.39679832618E+01  0.21321980946E+03  0.23557146333E+03  0.97331256640E+02 0.  0.
          5    1    1    2  502    0  0.16108920897E+02  0.55689641747E+02  0.15298217654E+03  0.16365161860E+03  0.41800000000E+01 0. -1.
         -5    1    1    2    0  502  0.71743086509E+01 -0.59657625009E+02  0.63773814716E+02  0.87721575280E+02  0.41800000000E+01 0. -1.
        -11    1    3    3    0    0 -0.43659556677E+02  0.31431889558E+02  0.69771586359E+02  0.88103319083E+02  0.00000000000E+00 0.  1.
         11    1    3    3    0    0  0.20376327129E+02 -0.27463906296E+02  0.14344822310E+03  0.14746814424E+03  0.00000000000E+00 0. -1.
</event>
<event>
 7    1  0.6584658E-006  0.1345496E+03  0.7561462E-02  0.1220857E+00
         -2   -1    0    0    0  501 -0.00000000000E+00  0.00000000000E+00  0.94046389113E+02  0.94046389113E+02  0.00000000000E+00 0.  1.
          2   -1    0    0  501    0  0.00000000000E+00 -0.00000000000E+00 -0.26448272411E+03  0.26448272411E+03  0.00000000000E+00 0. -1.
         23    2    1    2    0    0 -0.10731036602E+03 -0.37647201464E+02 -0.66266018178E+02  0.15995450332E+03  0.90892417372E+02 0.  0.
          5    1    1    2  502    0  0.62649862151E+02  0.59266980449E+02 -0.36764838727E+01  0.86420883661E+02  0.41800000000E+01 0. -1.
         -5    1    1    2    0  502  0.44660503866E+02 -0.21619778985E+02 -0.10049383294E+03  0.11215372624E+03  0.41800000000E+01 0. -1.
        -11    1    3    3    0    0 -0.87252839721E+02  0.33549417287E+01 -0.10586612258E+02  0.87956750920E+02  0.00000000000E+00 0.  1.
         11    1    3    3    0    0 -0.20057526296E+02 -0.41002143192E+02 -0.55679405921E+02  0.71997752404E+02  0.00000000000E+00 0. -1.
</event>
<event>
 7    1  0.6584658E-006  0.1034345E+03  0.7561462E-02  0.1273235E+00
         -1   -1    0    0    0  501 -0.00000000000E+00  0.00000000000E+00  0.24390326203E+02  0.24390326203E+02  0.00000000000E+00 0.  1.
          1   -1    0    0  501    0  0.00000000000E+00 -0.00000000000E+00 -0.56750794976E+03  0.56750794976E+03  0.00000000000E+00 0. -1.
         23    2    1    2    0    0  0.33182371097E+02 -0.29312568406E+02 -0.25489460774E+03  0.27459824539E+03  0.92046938557E+02 0.  0.
          5    1    1    2  502    0 -0.42226094101E+02 -0.29470714859E+02 -0.22311236703E+03  0.22901564745E+03  0.41800000000E+01 0. -1.
         -5    1    1    2    0  502  0.90437230041E+01  0.58783283266E+02 -0.65110648791E+02  0.88284383122E+02  0.41800000000E+01 0. -1.
        -11    1    3    3    0    0  0.59274169125E+02 -0.35060912580E+02 -0.13257611802E+03  0.14939585599E+03  0.00000000000E+00 0.  1.
         11    1    3    3    0    0 -0.26091798029E+02  0.57483441738E+01 -0.12231848971E+03  0.12520238940E+03  0.00000000000E+00 0. -1.
</event>
<event>
 7    1  0.6584658E-006  0.1120236E+03  0.7561462E-02  0.1256868E+00
          2   -1    0    0  501    0  0.00000000000E+00  0.00000000000E+00  0.93876082138E+02  0.93876082138E+02  0.00000000000E+00 0. -1.
         -2   -1    0    0    0  501 -0.00000000000E+00 -0.00000000000E+00 -0.20771108776E+03  0.20771108776E+03  0.00000000000E+00 0.  1.
         23    2    1    2    0    0 -0.29713846288E+02  0.82531359723E+02 -0.58409015232E+02  0.13906574712E+03  0.90737704190E+02 0.  0.
          5    1    1    2  502    0  0.48426896257E+02 -0.72236338372E+02 -0.87709889146E+02  0.12358701354E+03  0.41800000000E+01 0. -1.
         -5    1    1    2    0  502 -0.18713049969E+02 -0.10295021352E+02  0.32283898757E+02  0.38934409238E+02  0.41800000000E+01 0. -1.
        -11    1    3    3    0    0 -0.10028018019E+02 -0.13708042590E+02  0.96741840135E+01  0.19546391313E+02  0.00000000000E+00 0. -1.
         11    1    3    3    0    0 -0.19685828269E+02  0.96239402313E+02 -0.68083199245E+02  0.11951935580E+03  0.00000000000E+00 0.  1.
</event>
<event>
 7    1  0.6584658E-006  0.1239682E+03  0.7561462E-02  0.1236691E+00
         -2   -1    0    0    0  501 -0.00000000000E+00  0.00000000000E+00  0.15595398830E+03  0.15595398830E+03  0.00000000000E+00 0.  1.
          2   -1    0    0  501    0  0.00000000000E+00 -0.00000000000E+00 -0.13705543614E+03  0.13705543614E+03  0.00000000000E+00 0. -1.
         23    2    1    2    0    0 -0.58071422578E+02  0.81190724419E+02 -0.23976751611E+02  0.13518078800E+03  0.87947353427E+02 0.  0.
          5    1    1    2  502    0  0.65812518500E+02 -0.29036954649E+02 -0.20852646604E+02  0.75011583086E+02  0.41800000000E+01 0. -1.
         -5    1    1    2    0  502 -0.77410959230E+01 -0.52153769770E+02  0.63727950378E+02  0.82817053357E+02  0.41800000000E+01 0.  1.
        -11    1    3    3    0    0  0.20335206483E+01  0.58824318848E+02 -0.37295722348E+02  0.69680747697E+02  0.00000000000E+00 0.  1.
         11    1    3    3    0    0 -0.60104943226E+02  0.22366405571E+02  0.13318970737E+02  0.65500040304E+02  0.00000000000E+00 0. -1.
</event>
<event>
 7    1  0.6584658E-006  0.2364689E+03  0.7561462E-02  0.1122168E+00
         -2   -1    0    0    0  501 -0.00000000000E+00  0.00000000000E+00  0.71435833152E+03  0.71435833152E+03  0.00000000000E+00 0.  1.
          2   -1    0    0  501    0  0.00000000000E+00 -0.00000000000E+00 -0.11593349020E+03  0.11593349020E+03  0.00000000000E+00 0. -1.
         23    2    1    2    0    0 -0.56375043532E+01 -0.21978546866E+03  0.79475351628E+02  0.25297551762E+03  0.96658405291E+02 0.  0.
          5    1    1    2  502    0  0.13008778382E+02 -0.21859570891E+01  0.11915387966E+03  0.11995468379E+03  0.41800000000E+01 0. -1.
         -5    1    1    2    0  502 -0.73712740286E+01  0.22197142575E+03  0.39979561003E+03  0.45736162031E+03  0.41800000000E+01 0. -1.
        -11    1    3    3    0    0  0.18987962023E+02 -0.35290477168E+01 -0.42469754729E+01  0.19774571557E+02  0.00000000000E+00 0. -1.
         11    1    3    3    0    0 -0.24625466376E+02 -0.21625642094E+03  0.83722327101E+02  0.23320094607E+03  0.00000000000E+00 0.  1.
</event>
<event>
 7    1  0.6584658E-006  0.1310240E+03  0.7561462E-02  0.1225944E+00
         -3   -1    0    0    0  501 -0.00000000000E+00  0.00000000000E+00  0.24892540423E+03  0.24892540423E+03  0.00000000000E+00 0.  1.
          3   -1    0    0  501    0  0.00000000000E+00 -0.00000000000E+00 -0.82716367430E+02  0.82716367430E+02  0.00000000000E+00 0. -1.
         23    2    1    2    0    0 -0.73465934849E+02  0.44349568582E+02  0.34085469406E+02  0.13047651390E+03  0.92185539199E+02 0.  0.
          5    1    1    2  502    0  0.93986144128E+02  0.73799121389E+01  0.96412147480E+02  0.13490972157E+03  0.41800000000E+01 0.  1.
         -5    1    1    2    0  502 -0.20520209279E+02 -0.51729480720E+02  0.35711419913E+02  0.66255536196E+02  0.41800000000E+01 0.  1.
        -11    1    3    3    0    0 -0.80801294785E+02  0.15717735123E+02 -0.38263775224E+01  0.82404718319E+02  0.00000000000E+00 0. -1.
         11    1    3    3    0    0  0.73353599353E+01  0.28631833459E+02  0.37911846928E+02  0.48071795578E+02  0.00000000000E+00 0.  1.
</event>
<event>
 7    1  0.6584658E-006  0.6177829E+02  0.7561462E-02  0.1390517E+00
         -1   -1    0    0    0  501 -0.00000000000E+00  0.00000000000E+00  0.38637851981E+02  0.38637851981E+02  0.00000000000E+00 0.  1.
          1   -1    0    0  501    0  0.00000000000E+00 -0.00000000000E+00 -0.31541892132E+03  0.31541892132E+03  0.00000000000E+00 0. -1.
         23    2    1    2    0    0  0.78045784202E+01 -0.82695549452E+01 -0.15225615190E+03  0.17718709452E+03  0.89911254522E+02 0.  0.
          5    1    1    2  502    0 -0.94687494555E+01 -0.11309669083E+02  0.23187467632E+02  0.27797425891E+02  0.41800000000E+01 0. -1.
         -5    1    1    2    0  502  0.16641710353E+01  0.19579224028E+02 -0.14771238507E+03  0.14907225289E+03  0.41800000000E+01 0. -1.
        -11    1    3    3    0    0 -0.33810106803E+02 -0.26249128953E+02 -0.53440245207E+02  0.68468970349E+02  0.00000000000E+00 0.  1.
         11    1    3    3    0    0  0.41614685223E+02  0.17979574008E+02 -0.98815906695E+02  0.10871812417E+03  0.00000000000E+00 0. -1.
</event>
<event>
 7    1  0.6584658E-006  0.7994771E+02  0.7561462E-02  0.1329200E+00
          2   -1    0    0  501    0  0.00000000000E+00  0.00000000000E+00  0.35693399614E+03  0.35693399614E+03  0.00000000000E+00 0. -1.
         -2   -1    0    0    0  501 -0.00000000000E+00 -0.00000000000E+00 -0.42474244021E+02  0.42474244021E+02  0.00000000000E+00 0.  1.
         23    2    1    2    0    0  0.12310964400E+02  0.11032471535E+02  0.25735559049E+03  0.27348105136E+03  0.91031369458E+02 0.  0.
          5    1    1    2  502    0 -0.18094567004E+02 -0.40080396021E+02  0.77861021938E+02  0.89519062984E+02  0.41800000000E+01 0. -1.
         -5    1    1    2    0  502  0.57836026034E+01  0.29047924487E+02 -0.20756860304E+02  0.36408125820E+02  0.41800000000E+01 0.  1.
        -11    1    3    3    0    0 -0.30241020405E+02 -0.17155777925E+02  0.57357561444E+02  0.67072571787E+02  0.00000000000E+00 0.  1.
         11    1    3    3    0    0  0.42551984805E+02  0.28188249460E+02  0.19999802904E+03  0.20640847957E+03  0.00000000000E+00 0. -1.
</event>
<event>
 7    1  0.6584658E-006  0.1530217E+03  0.7561462E-02  0.1196808E+00
          1   -1    0    0  501    0  0.00000000000E+00  0.00000000000E+00  0.36619855676E+02  0.36619855676E+02  0.00000000000E+00 0. -1.
         -1   -1    0    0    0  501 -0.00000000000E+00 -0.00000000000E+00 -0.16396466314E+04  0.16396466314E+04  0.00000000000E+00 0.  1.
         23    2    1    2    0    0  0.49597872138E+02 -0.11088004210E+03 -0.15013716396E+03  0.21295156653E+03  0.89737779278E+02 0.  0.
          5    1    1    2  502    0 -0.79265256938E+02  0.11731821047E+03 -0.10967222718E+04  0.11058317039E+04  0.41800000000E+01 0. -1.
         -5    1    1    2    0  502  0.29667384799E+02 -0.64381683681E+01 -0.35616733994E+03  0.35748321663E+03  0.41800000000E+01 0. -1.
        -11    1    3    3    0    0  0.14820907408E+02  0.26132843488E+01 -0.65395018135E+02  0.67104373542E+02  0.00000000000E+00 0.  1.
         11    1    3    3    0    0  0.34776964730E+02 -0.11349332645E+03 -0.84742145827E+02  0.14584719299E+03  0.00000000000E+00 0. -1.
</event>
<event>
 7    1  0.6584658E-006  0.1191493E+03  0.7561462E-02  0.1244507E+00
          1   -1    0    0  501    0  0.00000000000E+00  0.00000000000E+00  0.29192380338E+02  0.29192380338E+02  0.00000000000E+00 0. -1.
         -1   -1    0    0    0  501 -0.00000000000E+00 -0.00000000000E+00 -0.61580618137E+03  0.61580618137E+03  0.00000000000E+00 0.  1.
         23    2    1    2    0    0  0.49761500407E+02 -0.25448471779E+02 -0.13452982873E+03  0.17260982355E+03  0.92585337560E+02 0.  0.
          5    1    1    2  502    0 -0.28367493109E+02 -0.48812964001E+02 -0.24110502399E+03  0.24766211885E+03  0.41800000000E+01 0.  1.
         -5    1    1    2    0  502 -0.21394007297E+02  0.74261435780E+02 -0.21097894831E+03  0.22472661930E+03  0.41800000000E+01 0.  1.
        -11    1    3    3    0    0 -0.12133901899E+02 -0.39074054569E+02 -0.76132236087E+02  0.86429917780E+02  0.00000000000E+00 0.  1.
         11    1    3    3    0    0  0.61895402306E+02  0.13625582790E+02 -0.58397592639E+02  0.86179905773E+02  0.00000000000E+00 0. -1.
</event>
<event>
 7    1  0.6584658E-006  0.1061233E+03  0.7561462E-02  0.1267922E+00
          2   -1    0    0  501    0  0.00000000000E+00  0.00000000000E+00  0.92738829816E+02  0.92738829816E+02  0.00000000000E+00 0. -1.
         -2   -1    0    0    0  501 -0.00000000000E+00 -0.00000000000E+00 -0.14113117896E+03  0.14113117896E+03  0.00000000000E+00 0.  1.
         23    2    1    2    0    0 -0.19659931175E+02 -0.26295412643E+02 -0.22162139453E+01  0.96548922585E+02  0.90767952650E+02 0.  0.
          5    1    1    2  502    0  0.57397397369E+02  0.55543913106E+02 -0.18934081859E+02  0.82192209873E+02  0.41800000000E+01 0. -1.
         -5    1    1    2    0  502 -0.37737466194E+02 -0.29248500462E+02 -0.27242053340E+02  0.55128876319E+02  0.41800000000E+01 0. -1.
        -11    1    3    3    0    0 -0.38635139276E+02  0.12948013181E+02 -0.24549008632E+02  0.47570777343E+02  0.00000000000E+00 0.  1.
         11    1    3    3    0    0  0.18975208100E+02 -0.39243425825E+02  0.22332794686E+02  0.48978145243E+02  0.00000000000E+00 0. -1.
</event>
<event>
 7    1  0.6584658E-006  0.1034672E+03  0.7561462E-02  0.1273169E+00
         -2   -1    0    0    0  501 -0.00000000000E+00  0.00000000000E+00  0.13083398261E+03  0.13083398261E+03  0.00000000000E+00 0.  1.
          2   -1    0    0  501    0  0.00000000000E+00 -0.00000000000E+00 -0.13560393027E+03  0.13560393027E+03  0.00000000000E+00 0. -1.
         23    2    1    2    0    0 -0.20491087249E+02 -0.38441398828E+02 -0.66120787126E+02  0.12046165825E+03  0.90782304539E+02 0.  0.
          5    1    1    2  502    0  0.42726338225E+02  0.60807983571E+02 -0.26733130900E+01  0.74483352818E+02  0.41800000000E+01 0.  1.
         -5    1    1    2    0  502 -0.22235250976E+02 -0.22366584744E+02  0.64024152553E+02  0.71492901810E+02  0.41800000000E+01 0.  1.
        -11    1    3    3    0    0  0.36027573141E+02 -0.20151720723E+02 -0.26359696385E+02  0.48978683812E+02  0.00000000000E+00 0.  1.
         11    1    3    3    0    0 -0.56518660389E+02 -0.18289678105E+02 -0.39761090741E+02  0.71482974437E+02  0.00000000000E+00 0. -1.
</event>
<event>
 7    1  0.6584658E-006  0.8417607E+02  0.7561462E-02  0.1317601E+00
          1   -1    0    0  501    0  0.00000000000E+00  0.00000000000E+00  0.10886523042E+03  0.10886523042E+03  0.00000000000E+00 0. -1.
         -1   -1    0    0    0  501 -0.00000000000E+00 -0.00000000000E+00 -0.15022755996E+03  0.15022755996E+03  0.00000000000E+00 0.  1.
         23    2    1    2    0    0  0.34292282563E+02  0.45244698687E+02  0.17001516026E+02  0.10983850923E+03  0.92479203927E+02 0.  0.
          5    1    1    2  502    0 -0.13758958810E+02  0.10005593240E+02  0.34783032498E+02  0.38945508000E+02  0.41800000000E+01 0.  1.
         -5    1    1    2    0  502 -0.20533323753E+02 -0.55250291927E+02 -0.93146878067E+02  0.11030877316E+03  0.41800000000E+01 0.  1.
        -11    1    3    3    0    0  0.47688062977E+02  0.34027622419E+01  0.38068982235E+02  0.61114462689E+02  0.00000000000E+00 0. -1.
         11    1    3    3    0    0 -0.13395780414E+02  0.41841936445E+02 -0.21067466209E+02  0.48724046536E+02  0.00000000000E+00 0.  1.
</event>
<event>
 7    1  0.6584658E-006  0.1779662E+03  0.7561462E-02  0.1169786E+00
         -2   -1    0    0    0  501 -0.00000000000E+00  0.00000000000E+00  0.53503482836E+02  0.53503482836E+02  0.00000000000E+00 0. -1.
          2   -1    0    0  501    0  0.00000000000E+00 -0.00000000000E+00 -0.86763898011E+03  0.86763898011E+03  0.00000000000E+00 0.  1.
         23    2    1    2    0    0 -0.12911849549E+03 -0.77694739113E+02 -0.62094715918E+03  0.64604662406E+03  0.95356214291E+02 0.  0.
          5    1    1    2  502    0 -0.20982370992E+02 -0.74013212668E+01 -0.15870791267E+02  0.27647673761E+02  0.41800000000E+01 0. -1.
         -5    1    1    2    0  502  0.15010086648E+03  0.85096060380E+02 -0.17731754683E+03  0.24744816513E+03  0.41800000000E+01 0. -1.
        -11    1    3    3    0    0 -0.46803935043E+02  0.10062604931E+01 -0.75490847039E+02  0.88828423843E+02  0.00000000000E+00 0. -1.
         11    1    3    3    0    0 -0.82314560448E+02 -0.78700999606E+02 -0.54545631214E+03  0.55721820022E+03  0.00000000000E+00 0.  1.
</event>
<event>
 7    1  0.6584658E-006  0.1062611E+03  0.7561462E-02  0.1267655E+00
          2   -1    0    0  501    0  0.00000000000E+00  0.00000000000E+00  0.15161645744E+03  0.15161645744E+03  0.00000000000E+00 0. -1.
         -2   -1    0    0    0  501 -0.00000000000E+00 -0.00000000000E+00 -0.84221824559E+02  0.84221824559E+02  0.00000000000E+00 0.  1.
         23    2    1    2    0    0  0.79103984820E+01  0.14185852162E+02  0.45607455313E+02  0.10779306666E+03  0.96309357978E+02 0.  0.
          5    1    1    2  502    0  0.37838696824E+02  0.32547457222E+02  0.35118389680E+02  0.61170888850E+02  0.41800000000E+01 0.  1.
         -5    1    1    2    0  502 -0.45749095306E+02 -0.46733309384E+02 -0.13331212110E+02  0.66874326491E+02  0.41800000000E+01 0.  1.
        -11    1    3    3    0    0  0.45540897767E+02 -0.16407938872E+02  0.16049933842E+02  0.50997982350E+02  0.00000000000E+00 0.  1.
         11    1    3    3    0    0 -0.37630499285E+02  0.30593791034E+02  0.29557521471E+02  0.56795084310E+02  0.00000000000E+00 0. -1.
</event>
<event>
 7    1  0.6584658E-006  0.1299721E+03  0.7561462E-02  0.1227497E+00
         -2   -1    0    0    0  501 -0.00000000000E+00  0.00000000000E+00  0.22312179986E+03  0.22312179986E+03  0.00000000000E+00 0.  1.
          2   -1    0    0  501    0  0.00000000000E+00 -0.00000000000E+00 -0.92610970190E+02  0.92610970190E+02  0.00000000000E+00 0. -1.
         23    2    1    2    0    0 -0.39562663170E+02  0.86769253837E+02  0.54694777442E+02  0.14110802954E+03  0.88463832120E+02 0.  0.
          5    1    1    2  502    0 -0.34355627341E+02 -0.26665725572E+02  0.65462073240E+02  0.78702766680E+02  0.41800000000E+01 0. -1.
         -5    1    1    2    0  502  0.73918290511E+02 -0.60103528265E+02  0.10353978986E+02  0.95921973827E+02  0.41800000000E+01 0. -1.
        -11    1    3    3    0    0 -0.37833790985E+02  0.10032763248E+03  0.63720190280E+02  0.12472887488E+03  0.00000000000E+00 0. -1.
         11    1    3    3    0    0 -0.17288721850E+01 -0.13558378645E+02 -0.90254128376E+01  0.16379154661E+02  0.00000000000E+00 0.  1.
</event>
<event>
 7    1  0.6584658E-006  0.1009102E+03  0.7561462E-02  0.1278394E+00
         -3   -1    0    0    0  501 -0.00000000000E+00  0.00000000000E+00  0.53525918550E+02  0.53525918550E+02  0.00000000000E+00 0.  1.
          3   -1    0    0  501    0  0.00000000000E+00 -0.00000000000E+00 -0.24167166698E+03  0.24167166698E+03  0.00000000000E+00 0. -1.
         23    2    1    2    0    0 -0.47635944798E+01 -0.31467456359E+02 -0.72172847936E+02  0.12167525418E+03  0.92644777833E+02 0.  0.
          5    1    1    2  502    0 -0.10562042854E+02  0.65980509033E+02 -0.19339698984E+02  0.69688454412E+02  0.41800000000E+01 0.  1.
         -5    1    1    2    0  502  0.15325637334E+02 -0.34513052675E+02 -0.96633201510E+02  0.10383387693E+03  0.41800000000E+01 0.  1.
        -11    1    3    3    0    0 -0.45358194703E+02 -0.33253372513E+02 -0.32865871463E+02  0.65140756192E+02  0.00000000000E+00 0.  1.
         11    1    3    3    0    0  0.40594600224E+02  0.17859161544E+01 -0.39306976473E+02  0.56534497993E+02  0.00000000000E+00 0. -1.
</event>
<event>
 7    1  0.6584658E-006  0.1446504E+03  0.7561462E-02  0.1207205E+00
         -1   -1    0    0    0  501 -0.00000000000E+00  0.00000000000E+00  0.34495631764E+02  0.34495631764E+02  0.00000000000E+00 0.  1.
          1   -1    0    0  501    0  0.00000000000E+00 -0.00000000000E+00 -0.80192649800E+03  0.80192649800E+03  0.00000000000E+00 0. -1.
         23    2    1    2    0    0  0.11186362357E+03  0.56739419570E+02 -0.33920271871E+03  0.37300118782E+03  0.91315769272E+02 0.  0.
          5    1    1    2  502    0 -0.93206338802E+01 -0.59978649146E+02 -0.80850855049E+02  0.10118619338E+03  0.41800000000E+01 0.  1.
         -5    1    1    2    0  502 -0.10254298969E+03  0.32392295758E+01 -0.34737729248E+03  0.36223474857E+03  0.41800000000E+01 0.  1.
        -11    1    3    3    0    0  0.36546869378E+02  0.13685547131E+02 -0.23408748791E+02  0.45507553017E+02  0.00000000000E+00 0.  1.
         11    1    3    3    0    0  0.75316754189E+02  0.43053872439E+02 -0.31579396992E+03  0.32749363480E+03  0.00000000000E+00 0. -1.
</event>
<event>
 7    1  0.6584658E-006  0.3026292E+03  0.7561462E-02  0.1083934E+00
          2   -1    0    0  501    0  0.00000000000E+00  0.00000000000E+00  0.42107781566E+03  0.42107781566E+03  0.00000000000E+00 0. -1.
         -2   -1    0    0    0  501 -0.00000000000E+00 -0.00000000000E+00 -0.29100202924E+03  0.29100202924E+03  0.00000000000E+00 0.  1.
         23    2    1    2    0    0  0.28073379053E+03  0.80686929932E+02  0.22623180466E+03  0.38009366081E+03  0.89266565669E+02 0.  0.
          5    1    1    2  502    0 -0.17367938544E+03 -0.85517713299E+02 -0.90924950308E+01  0.19385033939E+03  0.41800000000E+01 0. -1.
         -5    1    1    2    0  502 -0.10705440508E+03  0.48307833671E+01 -0.87063523212E+02  0.13813584470E+03  0.41800000000E+01 0. -1.
        -11    1    3    3    0    0  0.17203586281E+03  0.92001681627E+02  0.12961487366E+03  0.23422353210E+03  0.00000000000E+00 0. -1.
         11    1    3    3    0    0  0.10869792771E+03 -0.11314751694E+02  0.96616930998E+02  0.14587012871E+03  0.00000000000E+00 0.  1.
</event>
<event>
 7    1  0.6584658E-006  0.1341601E+03  0.7561462E-02  0.1221410E+00
          1   -1    0    0  501    0  0.00000000000E+00  0.00000000000E+00  0.28147309314E+03  0.28147309314E+03  0.00000000000E+00 0. -1.
         -1   -1    0    0    0  501 -0.00000000000E+00 -0.00000000000E+00 -0.16023798609E+03  0.16023798609E+03  0.00000000000E+00 0.  1.
         23    2    1    2    0    0  0.88138622057E+02 -0.83756649842E+02  0.19970323531E+03  0.25042957025E+03  0.89721760862E+02 0.  0.
          5    1    1    2  502    0 -0.67733752104E+02  0.24520821931E+02  0.19656459966E+02  0.74786233363E+02  0.41800000000E+01 0.  1.
         -5    1    1    2    0  502 -0.20404869953E+02  0.59235827911E+02 -0.98124588221E+02  0.11649527561E+03  0.41800000000E+01 0.  1.
        -11    1    3    3    0    0  0.35006353675E+02 -0.70344493501E+02  0.55591576442E+02  0.96250797061E+02  0.00000000000E+00 0.  1.
         11    1    3    3    0    0  0.53132268382E+02 -0.13412156341E+02  0.14411165886E+03  0.15417877319E+03  0.00000000000E+00 0. -1.
</event>
<event>
 7    1  0.6584658E-006  0.9509394E+02  0.7561462E-02  0.1290965E+00
         -1   -1    0    0    0  501 -0.00000000000E+00  0.00000000000E+00  0.12565150734E+03  0.12565150734E+03  0.00000000000E+00 0.  1.
          1   -1    0    0  501    0  0.00000000000E+00 -0.00000000000E+00 -0.93435144119E+02  0.93435144119E+02  0.00000000000E+00 0. -1.
         23    2    1    2    0    0 -0.17372567873E+02  0.27466055124E+02  0.67255484128E+01  0.10088212128E+03  0.95266883511E+02 0.  0.
          5    1    1    2  502    0  0.36921247514E+02 -0.60528047864E+02  0.33846196760E+02  0.78675666704E+02  0.41800000000E+01 0. -1.
         -5    1    1    2    0  502 -0.19548679641E+02  0.33061992740E+02 -0.83553819569E+01  0.39528863470E+02  0.41800000000E+01 0.  1.
        -11    1    3    3    0    0 -0.21126747085E+02  0.51781448511E+02 -0.24560377242E+02  0.61080847919E+02  0.00000000000E+00 0. -1.
         11    1    3    3    0    0  0.37541792118E+01 -0.24315393387E+02  0.31285925655E+02  0.39801273361E+02  0.00000000000E+00 0.  1.
</event>
<event>
 7    1  0.6584658E-006  0.1817210E+03  0.7561462E-02  0.1166148E+00
         -1   -1    0    0    0  501 -0.00000000000E+00  0.00000000000E+00  0.38878997699E+03  0.38878997699E+03  0.00000000000E+00 0.  1.
          1   -1    0    0  501    0  0.00000000000E+00 -0.00000000000E+00 -0.10361297943E+03  0.10361297943E+03  0.00000000000E+00 0. -1.
         23    2    1    2    0    0 -0.50029015055E+02 -0.14882521442E+03  0.10795274421E+03  0.22461861483E+03  0.11894486265E+03 0.  0.
          5    1    1    2  502    0 -0.11808633535E+02  0.13707779887E+03  0.11988541583E+03  0.18253698830E+03  0.41800000000E+01 0. -1.
         -5    1    1    2    0  502  0.61837648590E+02  0.11747415549E+02  0.57338837520E+02  0.85247353292E+02  0.41800000000E+01 0. -1.
        -11    1    3    3    0    0 -0.26877728556E+02 -0.13034721929E+03  0.23534450679E+02  0.13515428309E+03  0.00000000000E+00 0. -1.
         11    1    3    3    0    0 -0.23151286499E+02 -0.18477995135E+02  0.84418293535E+02  0.89464331742E+02  0.00000000000E+00 0.  1.
</event>
<event>
 7    1  0.6584658E-006  0.1000737E+03  0.7561462E-02  0.1280141E+00
          1   -1    0    0  501    0  0.00000000000E+00  0.00000000000E+00  0.94214651420E+02  0.94214651420E+02  0.00000000000E+00 0. -1.
         -1   -1    0    0    0  501 -0.00000000000E+00 -0.00000000000E+00 -0.18788875919E+03  0.18788875919E+03  0.00000000000E+00 0.  1.
         23    2    1    2    0    0 -0.21480169201E+02 -0.32343073022E+02  0.28157328994E+02  0.10323690006E+03  0.91419638568E+02 0.  0.
          5    1    1    2  502    0  0.30800717269E+02  0.68267755162E+02 -0.11994660616E+03  0.14147024884E+03  0.41800000000E+01 0.  1.
         -5    1    1    2    0  502 -0.93205480681E+01 -0.35924682141E+02 -0.18848306037E+01  0.37396261706E+02  0.41800000000E+01 0.  1.
        -11    1    3    3    0    0 -0.46708624603E+02 -0.39922782121E+02 -0.41096218883E+01  0.61582571696E+02  0.00000000000E+00 0.  1.
         11    1    3    3    0    0  0.25228455402E+02  0.75797090993E+01  0.32266950883E+02  0.41654328361E+02  0.00000000000E+00 0. -1.
</event>
<event>
 7    1  0.6584658E-006  0.1082448E+03  0.7561462E-02  0.1263855E+00
          2   -1    0    0  501    0  0.00000000000E+00  0.00000000000E+00  0.24277381883E+03  0.24277381883E+03  0.00000000000E+00 0. -1.
         -2   -1    0    0    0  501 -0.00000000000E+00 -0.00000000000E+00 -0.50008998745E+02  0.50008998745E+02  0.00000000000E+00 0.  1.
         23    2    1    2    0    0 -0.61133116157E+01  0.21384426256E+02  0.10693694113E+03  0.13946882137E+03  0.86725869791E+02 0.  0.
          5    1    1    2  502    0  0.52245463973E+02  0.27884500889E+02  0.38078947176E+02  0.70530933027E+02  0.41800000000E+01 0.  1.
         -5    1    1    2    0  502 -0.46132152358E+02 -0.49268927145E+02  0.47748931780E+02  0.82783063179E+02  0.41800000000E+01 0.  1.
        -11    1    3    3    0    0 -0.40408905404E+02  0.34145747265E+02  0.61269928989E+02  0.80949465042E+02  0.00000000000E+00 0. -1.
         11    1    3    3    0    0  0.34295593789E+02 -0.12761321008E+02  0.45667012141E+02  0.58519356329E+02  0.00000000000E+00 0.  1.
</event>
<event>
 7    1  0.6584658E-006  0.1025222E+03  0.7561462E-02  0.1275080E+00
         -2   -1    0    0    0  501 -0.00000000000E+00  0.00000000000E+00  0.43271529043E+02  0.43271529043E+02  0.00000000000E+00 0.  1.
          2   -1    0    0  501    0  0.00000000000E+00 -0.00000000000E+00 -0.45761279094E+03  0.45761279094E+03  0.00000000000E+00 0. -1.
         23    2    1    2    0    0  0.22447200185E+02  0.25887233275E+02 -0.33601167832E+03  0.34936791203E+03  0.89331205902E+02 0.  0.
          5    1    1    2  502    0  0.41251649038E+02  0.26468321302E+01 -0.69590606439E+02  0.81049547644E+02  0.41800000000E+01 0. -1.
         -5    1    1    2    0  502 -0.63698849223E+02 -0.28534065405E+02 -0.87389771442E+01  0.70466860313E+02  0.41800000000E+01 0. -1.
        -11    1    3    3    0    0 -0.29674655465E+02  0.28824596241E+02 -0.11320987481E+03  0.12053181439E+03  0.00000000000E+00 0. -1.
         11    1    3    3    0    0  0.52121855650E+02 -0.29373629658E+01 -0.22280180351E+03  0.22883609764E+03  0.00000000000E+00 0.  1.
</event>
<event>
 7    1  0.6584658E-006  0.1180233E+03  0.7561462E-02  0.1246394E+00
          1   -1    0    0  501    0  0.00000000000E+00  0.00000000000E+00  0.22067119168E+03  0.22067119168E+03  0.00000000000E+00 0. -1.
         -1   -1    0    0    0  501 -0.00000000000E+00 -0.00000000000E+00 -0.94826360189E+02  0.94826360189E+02  0.00000000000E+00 0.  1.
         23    2    1    2    0    0 -0.25282571481E+02  0.91667082383E+02  0.67090264271E+02  0.14776258920E+03  0.91052824190E+02 0.  0.
          5    1    1    2  502    0  0.51972116031E+01  0.22095144288E+02  0.45962774250E+02  0.51432046687E+02  0.41800000000E+01 0.  1.
         -5    1    1    2    0  502  0.20085359878E+02 -0.11376222667E+03  0.12791792966E+02  0.11630291598E+03  0.41800000000E+01 0.  1.
        -11    1    3    3    0    0 -0.68041826441E+01  0.62313387941E+02 -0.97678270410E+01  0.63440252704E+02  0.00000000000E+00 0.  1.
         11    1    3    3    0    0 -0.18478388837E+02  0.29353694443E+02  0.76858091312E+02  0.84322336493E+02  0.00000000000E+00 0. -1.
</event>
<event>
 7    1  0.6584658E-006  0.1842061E+03  0.7561462E-02  0.1163793E+00
         -1   -1    0    0    0  501 -0.00000000000E+00  0.00000000000E+00  0.12913682015E+03  0.12913682015E+03  0.00000000000E+00 0.  1.
          1   -1    0    0  501    0  0.00000000000E+00 -0.00000000000E+00 -0.70090768196E+03  0.70090768196E+03  0.00000000000E+00 0. -1.
         23    2    1    2    0    0  0.16894505805E+03 -0.64824526935E+02 -0.57425243112E+03  0.61004710679E+03  0.98218969285E+02 0.  0.
          5    1    1    2  502    0 -0.71468921562E+02  0.15734428060E+02 -0.59506258912E+02  0.94413167648E+02  0.41800000000E+01 0.  1.
         -5    1    1    2    0  502 -0.97476136486E+02  0.49090098875E+02  0.61987828224E+02  0.12558422767E+03  0.41800000000E+01 0.  1.
        -11    1    3    3    0    0  0.78660370603E+02 -0.76593456135E+01 -0.12215463774E+03  0.14549183826E+03  0.00000000000E+00 0.  1.
         11    1    3    3    0    0  0.90284687445E+02 -0.57165181321E+02 -0.45209779338E+03  0.46455526854E+03  0.00000000000E+00 0. -1.
</event>
<event>
 7    1  0.6584658E-006  0.1785026E+03  0.7561462E-02  0.1169260E+00
         -1   -1    0    0    0  501 -0.00000000000E+00  0.00000000000E+00  0.10971005801E+03  0.10971005801E+03  0.00000000000E+00 0.  1.
          1   -1    0    0  501    0  0.00000000000E+00 -0.00000000000E+00 -0.32980310452E+03  0.32980310452E+03  0.00000000000E+00 0. -1.
         23    2    1    2    0    0 -0.56409194971E+02  0.12967714655E+03 -0.17558894816E+03  0.24553267554E+03  0.97245341414E+02 0.  0.
          5    1    1    2  502    0  0.45445506457E+02  0.11560850320E+02 -0.11560875052E+02  0.48477557171E+02  0.41800000000E+01 0. -1.
         -5    1    1    2    0  502  0.10963688514E+02 -0.14123799687E+03 -0.32943223297E+02  0.14550292983E+03  0.41800000000E+01 0. -1.
        -11    1    3    3    0    0  0.16093701524E+02  0.76792273741E+02 -0.57797365385E+02  0.97450479632E+02  0.00000000000E+00 0.  1.
         11    1    3    3    0    0 -0.72502896495E+02  0.52884872813E+02 -0.11779158278E+03  0.14808219591E+03  0.00000000000E+00 0. -1.
</event>
<event>
 7    1  0.6584658E-006  0.1739119E+03  0.7561462E-02  0.1173829E+00
         -2   -1    0    0    0  501 -0.00000000000E+00  0.00000000000E+00  0.77617010640E+02  0.77617010640E+02  0.00000000000E+00 0.  1.
          2   -1    0    0  501    0  0.00000000000E+00 -0.00000000000E+00 -0.46613328694E+03  0.46613328694E+03  0.00000000000E+00 0. -1.
         23    2    1    2    0    0 -0.11442899227E+03 -0.81902222194E+02 -0.28556254630E+03  0.32916148693E+03  0.83662108239E+02 0.  0.
          5    1    1    2  502    0  0.13618054900E+03  0.91514561451E+02 -0.89137708763E+02  0.18677007364E+03  0.41800000000E+01 0. -1.
         -5    1    1    2    0  502 -0.21751556728E+02 -0.96123392567E+01 -0.13816021233E+02  0.27818737009E+02  0.41800000000E+01 0. -1.
        -11    1    3    3    0    0 -0.11920546255E+02 -0.51163625043E+02 -0.61709093478E+02  0.81042138228E+02  0.00000000000E+00 0.  1.
         11    1    3    3    0    0 -0.10250844602E+03 -0.30738597150E+02 -0.22385345282E+03  0.24811934870E+03  0.00000000000E+00 0. -1.
</event>
<event>
 7    1  0.6584658E-006  0.9506507E+02  0.7561462E-02  0.1291030E+00
          2   -1    0    0  501    0  0.00000000000E+00  0.00000000000E+00  0.40560814903E+02  0.40560814903E+02  0.00000000000E+00 0. -1.
         -2   -1    0    0    0  501 -0.00000000000E+00 -0.00000000000E+00 -0.46796838280E+03  0.46796838280E+03  0.00000000000E+00 0.  1.
         23    2    1    2    0    0  0.87032034411E+01  0.83754842531E+01 -0.26565953819E+02  0.88449395796E+02  0.83496414461E+02 0.  0.
          5    1    1    2  502    0  0.32748542207E+02  0.35417245723E+02 -0.28826127389E+03  0.29229930335E+03  0.41800000000E+01 0.  1.
         -5    1    1    2    0  502 -0.41451745648E+02 -0.43792729976E+02 -0.11258034019E+03  0.12778049856E+03  0.41800000000E+01 0.  1.
        -11    1    3    3    0    0  0.27014741252E+02  0.37889790003E+02 -0.26830418254E+02  0.53715023737E+02  0.00000000000E+00 0.  1.
         11    1    3    3    0    0 -0.18311537811E+02 -0.29514305750E+02  0.26446443528E+00  0.34734372059E+02  0.00000000000E+00 0. -1.
</event>
<event>
 7    1  0.6584658E-006  0.1195926E+03  0.7561462E-02  0.1243771E+00
          2   -1    0    0  501    0  0.00000000000E+00  0.00000000000E+00  0.29559260568E+03  0.29559260568E+03  0.00000000000E+00 0. -1.
         -2   -1    0    0    0  501 -0.00000000000E+00 -0.00000000000E+00 -0.60440578409E+02  0.60440578409E+02  0.00000000000E+00 0.  1.
         23    2    1    2    0    0  0.62905539932E+00 -0.70789530852E+02  0.12310257306E+03  0.17370227333E+03  0.10003340881E+03 0.  0.
          5    1    1    2  502    0  0.60044789123E+02  0.53697810658E+02  0.62248379320E+02  0.10188800076E+03  0.41800000000E+01 0.  1.
         -5    1    1    2    0  502 -0.60673844523E+02  0.17091720193E+02  0.49801074893E+02  0.80442909997E+02  0.41800000000E+01 0.  1.
        -11    1    3    3    0    0  0.30766399329E+02 -0.21348956206E+02 -0.23601354968E+00  0.37448697722E+02  0.00000000000E+00 0.  1.
         11    1    3    3    0    0 -0.30137343929E+02 -0.49440574646E+02  0.12333858661E+03  0.13625357561E+03  0.00000000000E+00 0. -1.
</event>
<event>
 7    1  0.6584658E-006  0.1001576E+03  0.7561462E-02  0.1279965E+00
          1   -1    0    0  501    0  0.00000000000E+00  0.00000000000E+00  0.38037885037E+03  0.38037885037E+03  0.00000000000E+00 0. -1.
         -1   -1    0    0    0  501 -0.00000000000E+00 -0.00000000000E+00 -0.95210095797E+02  0.95210095797E+02  0.00000000000E+00 0.  1.
         23    2    1    2    0    0  0.30261380931E+02 -0.78601422147E+02  0.29919267149E+03  0.32413205837E+03  0.91931506312E+02 0.  0.
          5    1    1    2  502    0 -0.21244888507E+02  0.29936069886E+02 -0.68443182825E+02  0.77778244021E+02  0.41800000000E+01 0.  1.
         -5    1    1    2    0  502 -0.90164924242E+01  0.48665352261E+02  0.54419265913E+02  0.73678643777E+02  0.41800000000E+01 0.  1.
        -11    1    3    3    0    0  0.43130547496E+02 -0.10496402955E+02  0.18749200616E+03  0.19267503984E+03  0.00000000000E+00 0.  1.
         11    1    3    3    0    0 -0.12869166565E+02 -0.68105019192E+02  0.11170066532E+03  0.13145701853E+03  0.00000000000E+00 0. -1.
</event>
<event>
 7    1  0.6584658E-006  0.1021173E+03  0.7561462E-02  0.1275906E+00
          2   -1    0    0  501    0  0.00000000000E+00  0.00000000000E+00  0.25150052586E+03  0.25150052586E+03  0.00000000000E+00 0. -1.
         -2   -1    0    0    0  501 -0.00000000000E+00 -0.00000000000E+00 -0.13985749021E+03  0.13985749021E+03  0.00000000000E+00 0.  1.
         23    2    1    2    0    0  0.10581341991E+02  0.19571774624E+02  0.21003283469E+03  0.23066311268E+03  0.92718179133E+02 0.  0.
          5    1    1    2  502    0  0.50798485006E+02 -0.15253118991E+02 -0.11983736804E+02  0.54536465467E+02  0.41800000000E+01 0.  1.
         -5    1    1    2    0  502 -0.61379826996E+02 -0.43186556333E+01 -0.86406062248E+02  0.10615843792E+03  0.41800000000E+01 0.  1.
        -11    1    3    3    0    0 -0.20728763616E+02 -0.26505886296E+02  0.43097023352E+02  0.54677207968E+02  0.00000000000E+00 0. -1.
         11    1    3    3    0    0  0.31310105607E+02  0.46077660920E+02  0.16693581134E+03  0.17598590471E+03  0.00000000000E+00 0.  1.
</event>
<event>
 7    1  0.6584658E-006  0.9045513E+02  0.7561462E-02  0.1301753E+00
          2   -1    0    0  501    0  0.00000000000E+00  0.00000000000E+00  0.37953528637E+03  0.37953528637E+03  0.00000000000E+00 0. -1.
         -2   -1    0    0    0  501 -0.00000000000E+00 -0.00000000000E+00 -0.39667674855E+02  0.39667674855E+02  0.00000000000E+00 0.  1.
         23    2    1    2    0    0 -0.52445354952E+02  0.26104269673E+02  0.15740385056E+03  0.19035261081E+03  0.89589040175E+02 0.  0.
          5    1    1    2  502    0  0.50739580180E+02  0.10506720813E+02  0.18471776078E+03  0.19189325086E+03  0.41800000000E+01 0. -1.
         -5    1    1    2    0  502  0.17057747727E+01 -0.36610990487E+02 -0.22539998286E+01  0.36957099551E+02  0.41800000000E+01 0. -1.
        -11    1    3    3    0    0 -0.43788964649E+02 -0.17814456079E+02  0.12887198404E+03  0.13726913907E+03  0.00000000000E+00 0.  1.
         11    1    3    3    0    0 -0.86563903031E+01  0.43918725752E+02  0.28531866520E+02  0.53083471739E+02  0.00000000000E+00 0. -1.
</event>
<event>
 7    1  0.6584658E-006  0.8141116E+02  0.7561462E-02  0.1325094E+00
          2   -1    0    0  501    0  0.00000000000E+00  0.00000000000E+00  0.81042935705E+02  0.81042935705E+02  0.00000000000E+00 0. -1.
         -2   -1    0    0    0  501 -0.00000000000E+00 -0.00000000000E+00 -0.25869895989E+03  0.25869895989E+03  0.00000000000E+00 0.  1.
         23    2    1    2    0    0  0.23719648500E+01 -0.37392275931E+02  0.23239760377E+02  0.10014270432E+03  0.89914772146E+02 0.  0.
          5    1    1    2  502    0  0.63206409773E+01 -0.12537349834E+02 -0.18604704309E+03  0.18662290933E+03  0.41800000000E+01 0. -1.
         -5    1    1    2    0  502 -0.86926058273E+01  0.49929625765E+02 -0.14848741466E+02  0.52976281940E+02  0.41800000000E+01 0. -1.
        -11    1    3    3    0    0  0.25753450666E+02 -0.59691343295E+02  0.13504359794E+02  0.66397774202E+02  0.00000000000E+00 0.  1.
         11    1    3    3    0    0 -0.23381485816E+02  0.22299067364E+02  0.97354005829E+01  0.33744930120E+02  0.00000000000E+00 0. -1.
</event>
<event>
 6    1  0.6584658E-006  0.7641738E+02  0.7561462E-02  0.1339537E+00
          2   -1    0    0  501    0  0.00000000000E+00  0.00000000000E+00  0.58763734406E+03  0.58763734406E+03  0.00000000000E+00 0. -1.
         -2   -1    0    0    0  501 -0.00000000000E+00 -0.00000000000E+00 -0.14232717105E+02  0.14232717105E+02  0.00000000000E+00 0.  1.
          5    1    1    2  502    0  0.37808724294E+02  0.35766652759E+02  0.28861304855E+03  0.29329800081E+03  0.41800000000E+01 0. -1.
         -5    1    1    2    0  502 -0.43257260064E+02 -0.21959136185E+02  0.59416977491E+02  0.76819553659E+02  0.41800000000E+01 0. -1.
        -11    1    1    2    0    0 -0.22269752037E+02 -0.75433914704E+01  0.71230687694E+02  0.75011035721E+02  0.00000000000E+00 0.  1.
         11    1    1    2    0    0  0.27718287807E+02 -0.62641251036E+01  0.15414391322E+03  0.15674147098E+03  0.00000000000E+00 0. -1.
</event>
<event>
 7    1  0.6584658E-006  0.8945977E+02  0.7561462E-02  0.1304165E+00
         -4   -1    0    0    0  501 -0.00000000000E+00  0.00000000000E+00  0.17148111762E+03  0.17148111762E+03  0.00000000000E+00 0.  1.
          4   -1    0    0  501    0  0.00000000000E+00 -0.00000000000E+00 -0.10717178011E+03  0.10717178011E+03  0.00000000000E+00 0. -1.
         23    2    1    2    0    0  0.14661311936E+02  0.29247527925E+02 -0.46662718146E+02  0.10825942763E+03  0.92045219591E+02 0.  0.
          5    1    1    2  502    0  0.22580738548E+02  0.31092262464E+02  0.87379745462E+02  0.95547427257E+02  0.41800000000E+01 0. -1.
         -5    1    1    2    0  502 -0.37242050485E+02 -0.60339790389E+02  0.23592310192E+02  0.74846042839E+02  0.41800000000E+01 0. -1.
        -11    1    3    3    0    0  0.98804803034E+01 -0.18647037934E+02  0.17939510784E+02  0.27697688746E+02  0.00000000000E+00 0.  1.
         11    1    3    3    0    0  0.47808316328E+01  0.47894565859E+02 -0.64602228930E+02  0.80561738888E+02  0.00000000000E+00 0. -1.
</event>
<event>
 7    1  0.6584658E-006  0.1156996E+03  0.7561462E-02  0.1250365E+00
          1   -1    0    0  501    0  0.00000000000E+00  0.00000000000E+00  0.71319948171E+03  0.71319948171E+03  0.00000000000E+00 0. -1.
         -1   -1    0    0    0  501 -0.00000000000E+00 -0.00000000000E+00 -0.27058497969E+02  0.27058497969E+02  0.00000000000E+00 0.  1.
         23    2    1    2    0    0  0.13341884453E+02  0.74687024557E+02  0.37888720533E+03  0.39995624957E+03  0.10321496837E+03 0.  0.
          5    1    1    2  502    0 -0.43005920072E+02 -0.42098658080E+02  0.28392891601E+03  0.29026695974E+03  0.41800000000E+01 0. -1.
         -5    1    1    2    0  502  0.29664035619E+02 -0.32588366477E+02  0.23324862409E+02  0.50034770363E+02  0.41800000000E+01 0. -1.
        -11    1    3    3    0    0 -0.25379596872E+02  0.83350256531E+02  0.23259105233E+03  0.24837469039E+03  0.00000000000E+00 0. -1.
         11    1    3    3    0    0  0.38721481325E+02 -0.86632319734E+01  0.14629615300E+03  0.15158155919E+03  0.00000000000E+00 0.  1.
</event>
<event>
 7    1  0.6584658E-006  0.4455286E+02  0.7561462E-02  0.1477153E+00
          2   -1    0    0  501    0  0.00000000000E+00  0.00000000000E+00  0.13798515886E+03  0.13798515886E+03  0.00000000000E+00 0. -1.
         -2   -1    0    0    0  501 -0.00000000000E+00 -0.00000000000E+00 -0.11854079713E+03  0.11854079713E+03  0.00000000000E+00 0.  1.
         23    2    1    2    0    0  0.69236764724E+01 -0.41206842619E+02  0.61710088487E+02  0.11803395219E+03  0.91531074911E+02 0.  0.
          5    1    1    2  502    0 -0.12066002941E+02  0.33310381894E+02  0.41139146332E+02  0.54452472210E+02  0.41800000000E+01 0. -1.
         -5    1    1    2    0  502  0.51423264686E+01  0.78964607248E+01 -0.83404873089E+02  0.84039531581E+02  0.41800000000E+01 0. -1.
        -11    1    3    3    0    0 -0.16507750535E+01 -0.22317923235E+02  0.84384880197E+02  0.87301905830E+02  0.00000000000E+00 0. -1.
         11    1    3    3    0    0  0.85744515260E+01 -0.18888919383E+02 -0.22674791710E+02  0.30732046361E+02  0.00000000000E+00 0.  1.
</event>
<event>
 7    1  0.6584658E-006  0.1117818E+03  0.7561462E-02  0.1257305E+00
         -2   -1    0    0    0  501 -0.00000000000E+00  0.00000000000E+00  0.10253799272E+03  0.10253799272E+03  0.00000000000E+00 0.  1.
          2   -1    0    0  501    0  0.00000000000E+00 -0.00000000000E+00 -0.18413096596E+03  0.18413096596E+03  0.00000000000E+00 0. -1.
         23    2    1    2    0    0  0.10789122634E+02 -0.56809626700E+02 -0.10012951781E+03  0.14762115396E+03  0.91773339851E+02 0.  0.
          5    1    1    2  502    0 -0.19633754020E+01 -0.32989388313E+02 -0.22125002962E+02  0.39989282818E+02  0.41800000000E+01 0.  1.
         -5    1    1    2    0  502 -0.88257472316E+01  0.89799015013E+02  0.40661547532E+02  0.99058521891E+02  0.41800000000E+01 0.  1.
        -11    1    3    3    0    0 -0.20877446462E+02 -0.64112641039E+02 -0.37726270428E+02  0.77262992385E+02  0.00000000000E+00 0.  1.
         11    1    3    3    0    0  0.31666569096E+02  0.73030143396E+01 -0.62403247384E+02  0.70358161580E+02  0.00000000000E+00 0. -1.
</event>
<event>
 7    1  0.6584658E-006  0.9353353E+02  0.7561462E-02  0.1294514E+00
         -1   -1    0    0    0  501 -0.00000000000E+00  0.00000000000E+00  0.58007545427E+03  0.58007545427E+03  0.00000000000E+00 0.  1.
          1   -1    0    0  501    0  0.00000000000E+00 -0.00000000000E+00 -0.22636051285E+02  0.22636051285E+02  0.00000000000E+00 0. -1.
         23    2    1    2    0    0  0.23513051459E+02  0.21897626713E+02  0.17581557120E+03  0.19982707594E+03  0.89372118461E+02 0.  0.
          5    1    1    2  502    0  0.29617024555E+02 -0.26760552181E+02  0.31444255405E+03  0.31699351333E+03  0.41800000000E+01 0.  1.
         -5    1    1    2    0  502 -0.53130076014E+02  0.48629254686E+01  0.67181277727E+02  0.85890916274E+02  0.41800000000E+01 0.  1.
        -11    1    3    3    0    0  0.36960111387E+02  0.50050134707E+02  0.13316929861E+03  0.14698682904E+03  0.00000000000E+00 0.  1.
         11    1    3    3    0    0 -0.13447059928E+02 -0.28152507994E+02  0.42646272589E+02  0.52840246903E+02  0.00000000000E+00 0. -1.
</event>
<event>
 7    1  0.6584658E-006  0.2646830E+03  0.7561462E-02  0.1104362E+00
         -1   -1    0    0    0  501 -0.00000000000E+00  0.00000000000E+00  0.84327780655E+02  0.84327780655E+02  0.00000000000E+00 0.  1.
          1   -1    0    0  501    0  0.00000000000E+00 -0.00000000000E+00 -0.10318075298E+04  0.10318075298E+04  0.00000000000E+00 0. -1.
         23    2    1    2    0    0 -0.10516920102E+03 -0.23215036573E+03 -0.27498795560E+03  0.38617137744E+03  0.92496507386E+02 0.  0.
          5    1    1    2  502    0  0.11153070216E+03  0.20941322664E+03 -0.66298079597E+03  0.70416901752E+03  0.41800000000E+01 0. -1.
         -5    1    1    2    0  502 -0.63615011394E+01  0.22737139090E+02 -0.95109975923E+01  0.25794915506E+02  0.41800000000E+01 0. -1.
        -11    1    3    3    0    0  0.34534747209E+01 -0.85619834339E+02 -0.11592180748E+03  0.14415459746E+03  0.00000000000E+00 0.  1.
         11    1    3    3    0    0 -0.10862267574E+03 -0.14653053139E+03 -0.15906614812E+03  0.24201677998E+03  0.00000000000E+00 0. -1.
</event>
<event>
 7    1  0.6584658E-006  0.1850284E+03  0.7561462E-02  0.1163023E+00
         -1   -1    0    0    0  501 -0.00000000000E+00  0.00000000000E+00  0.29304373751E+02  0.29304373751E+02  0.00000000000E+00 0.  1.
          1   -1    0    0  501    0  0.00000000000E+00 -0.00000000000E+00 -0.12185260037E+04  0.12185260037E+04  0.00000000000E+00 0. -1.
         23    2    1    2    0    0 -0.99530934605E+02 -0.11825327771E+03 -0.56932304030E+03  0.59682218528E+03  0.90430923878E+02 0.  0.
          5    1    1    2  502    0  0.15067222591E+02  0.10886732213E+03 -0.41060662923E+03  0.42508162909E+03  0.41800000000E+01 0. -1.
         -5    1    1    2    0  502  0.84463712015E+02  0.93859555828E+01 -0.20929196046E+03  0.22592656312E+03  0.41800000000E+01 0. -1.
        -11    1    3    3    0    0 -0.81417739679E+01 -0.72183711101E+02 -0.17599210060E+03  0.19039431742E+03  0.00000000000E+00 0.  1.
         11    1    3    3    0    0 -0.91389160637E+02 -0.46069566613E+02 -0.39333093970E+03  0.40642786786E+03  0.00000000000E+00 0. -1.
</event>
<event>
 7    1  0.6584658E-006  0.1076662E+03  0.7561462E-02  0.1264954E+00
         -2   -1    0    0    0  501 -0.00000000000E+00  0.00000000000E+00  0.89926963508E+02  0.89926963508E+02  0.00000000000E+00 0.  1.
          2   -1    0    0  501    0  0.00000000000E+00 -0.00000000000E+00 -0.14992974086E+03  0.14992974086E+03  0.00000000000E+00 0. -1.
         23    2    1    2    0    0 -0.35948501920E+02  0.19255420097E+02 -0.18053583869E+02  0.10176106373E+03  0.91467569154E+02 0.  0.
          5    1    1    2  502    0  0.13801996466E+02  0.51394268779E+02 -0.10109995358E+01  0.53388767450E+02  0.41800000000E+01 0. -1.
         -5    1    1    2    0  502  0.22146505454E+02 -0.70649688875E+02 -0.40938193946E+02  0.84706873189E+02  0.41800000000E+01 0. -1.
        -11    1    3    3    0    0 -0.53734771186E+02  0.34928690636E+02 -0.34617571699E+02  0.72841027823E+02  0.00000000000E+00 0. -1.
         11    1    3    3    0    0  0.17786269266E+02 -0.15673270540E+02  0.16563987830E+02  0.28920035903E+02  0.00000000000E+00 0.  1.
</event>
<event>
 7    1  0.6584658E-006  0.1114647E+03  0.7561462E-02  0.1257881E+00
          3   -1    0    0  501    0  0.00000000000E+00  0.00000000000E+00  0.11943062202E+03  0.11943062202E+03  0.00000000000E+00 0. -1.
         -3   -1    0    0    0  501 -0.00000000000E+00 -0.00000000000E+00 -0.23095968435E+03  0.23095968435E+03  0.00000000000E+00 0.  1.
         23    2    1    2    0    0 -0.71178702410E+02  0.39673268367E+02  0.49070149764E+02  0.13112192900E+03  0.90248018083E+02 0.  0.
          5    1    1    2  502    0  0.12602294535E+02 -0.72810116444E+02 -0.11869515054E+03  0.13987902647E+03  0.41800000000E+01 0. -1.
         -5    1    1    2    0  502  0.58576407876E+02  0.33136848077E+02 -0.41904061555E+02  0.79389350891E+02  0.41800000000E+01 0. -1.
        -11    1    3    3    0    0 -0.57465277930E+02  0.32176291269E+02 -0.12985709167E+02  0.67128239437E+02  0.00000000000E+00 0.  1.
         11    1    3    3    0    0 -0.13713424480E+02  0.74969770987E+01  0.62055858931E+02  0.63993689566E+02  0.00000000000E+00 0. -1.
</event>
<event>
 7    1  0.6584658E-006  0.5559621E+03  0.7561462E-02  0.1000123E+00
          1   -1    0    0  501    0  0.00000000000E+00  0.00000000000E+00  0.36399518060E+03  0.36399518060E+03  0.00000000000E+00 0. -1.
         -1   -1    0    0    0  501 -0.00000000000E+00 -0.00000000000E+00 -0.10951275156E+04  0.10951275156E+04  0.00000000000E+00 0.  1.
         23    2    1    2    0    0 -0.55127629999E+03 -0.30905679745E+02 -0.34185785564E+02  0.56121929578E+03  0.94539462920E+02 0.  0.
          5    1    1    2  502    0  0.32609514484E+03  0.17410462850E+02 -0.50642840753E+03  0.60260133758E+03  0.41800000000E+01 0. -1.
         -5    1    1    2    0  502  0.22518115516E+03  0.13495216895E+02 -0.19051814190E+03  0.29530206283E+03  0.41800000000E+01 0. -1.
        -11    1    3    3    0    0 -0.64875719574E+02 -0.34123600844E+02  0.32080958178E+01  0.73372821968E+02  0.00000000000E+00 0. -1.
         11    1    3    3    0    0 -0.48640058042E+03  0.32179210988E+01 -0.37393881382E+02  0.48784647382E+03  0.00000000000E+00 0.  1.
</event>
<event>
 7    1  0.6584658E-006  0.1313390E+03  0.7561462E-02  0.1225482E+00
          2   -1    0    0  501    0  0.00000000000E+00  0.00000000000E+00  0.10961465647E+03  0.10961465647E+03  0.00000000000E+00 0. -1.
         -2   -1    0    0    0  501 -0.00000000000E+00 -0.00000000000E+00 -0.17211130019E+03  0.17211130019E+03  0.00000000000E+00 0.  1.
         23    2    1    2    0    0  0.18935414515E+02 -0.82414143318E+02 -0.34625254670E+02  0.12818526188E+03  0.89899455843E+02 0.  0.
          5    1    1    2  502    0  0.49073104261E+02  0.80047742773E+01 -0.55189480461E+01  0.50201366123E+02  0.41800000000E+01 0.  1.
         -5    1    1    2    0  502 -0.68008518776E+02  0.74409369040E+02 -0.22352441006E+02  0.10333932865E+03  0.41800000000E+01 0.  1.
        -11    1    3    3    0    0  0.39740878435E+02 -0.16963398786E+02 -0.40543688390E+02  0.59252721334E+02  0.00000000000E+00 0.  1.
         11    1    3    3    0    0 -0.20805463920E+02 -0.65450744532E+02  0.59184337195E+01  0.68932540548E+02  0.00000000000E+00 0. -1.
</event>
<event>
 7    1  0.6584658E-006  0.1683800E+03  0.7561462E-02  0.1179548E+00
         -1   -1    0    0    0  501 -0.00000000000E+00  0.00000000000E+00  0.60528254198E+03  0.60528254198E+03  0.00000000000E+00 0.  1.
          1   -1    0    0  501    0  0.00000000000E+00 -0.00000000000E+00 -0.79865729289E+02  0.79865729289E+02  0.00000000000E+00 0. -1.
         23    2    1    2    0    0 -0.10326862387E+03 -0.11925303227E+03  0.84377848704E+02  0.20033056595E+03  0.90149985682E+02 0.  0.
          5    1    1    2  502    0  0.75064855106E+02  0.93483985906E+02  0.42759196340E+03  0.44410173121E+03  0.41800000000E+01 0. -1.
         -5    1    1    2    0  502  0.28203768768E+02  0.25769046366E+02  0.13447000582E+02  0.40715974113E+02  0.41800000000E+01 0. -1.
        -11    1    3    3    0    0 -0.21863924169E+02 -0.88796502143E+02  0.24139698128E+02  0.94581049891E+02  0.00000000000E+00 0.  1.
         11    1    3    3    0    0 -0.81404699705E+02 -0.30456530130E+02  0.60238150575E+02  0.10574951606E+03  0.00000000000E+00 0. -1.
</event>
<event>
 7    1  0.6584658E-006  0.2372412E+03  0.7561462E-02  0.1121644E+00
         -1   -1    0    0    0  501 -0.00000000000E+00  0.00000000000E+00  0.10660775350E+03  0.10660775350E+03  0.00000000000E+00 0.  1.
          1   -1    0    0  501    0  0.00000000000E+00 -0.00000000000E+00 -0.61891835458E+03  0.61891835458E+03  0.00000000000E+00 0. -1.
         23    2    1    2    0    0  0.19531731566E+03 -0.12599060698E+03 -0.26465180012E+03  0.36357980526E+03  0.90151054591E+02 0.  0.
          5    1    1    2  502    0 -0.98512169356E+02  0.65771819796E+02 -0.40141610174E+02  0.12513752857E+03  0.41800000000E+01 0. -1.
         -5    1    1    2    0  502 -0.96805146309E+02  0.60218787183E+02 -0.20751719080E+03  0.23680877424E+03  0.41800000000E+01 0. -1.
        -11    1    3    3    0    0  0.15930180662E+03 -0.13003047392E+03 -0.18725301932E+03  0.27811631197E+03  0.00000000000E+00 0. -1.
         11    1    3    3    0    0  0.36015509048E+02  0.40398669408E+01 -0.77398780797E+02  0.85463493292E+02  0.00000000000E+00 0.  1.
</event>
<event>
 7    1  0.6584658E-006  0.9544403E+02  0.7561462E-02  0.1290179E+00
         -2   -1    0    0    0  501 -0.00000000000E+00  0.00000000000E+00  0.19413163862E+03  0.19413163862E+03  0.00000000000E+00 0.  1.
          2   -1    0    0  501    0  0.00000000000E+00 -0.00000000000E+00 -0.13266863262E+03  0.13266863262E+03  0.00000000000E+00 0. -1.
         23    2    1    2    0    0 -0.38674300713E+02 -0.58413554558E+02 -0.68238401456E+02  0.13346757591E+03  0.90825489230E+02 0.  0.
          5    1    1    2  502    0  0.54995287066E+02  0.61657006648E+02  0.14718302199E+03  0.16883833223E+03  0.41800000000E+01 0.  1.
         -5    1    1    2    0  502 -0.16320986353E+02 -0.32434520902E+01 -0.17481614536E+02  0.24494363103E+02  0.41800000000E+01 0.  1.
        -11    1    3    3    0    0 -0.53126759219E+02 -0.35436306622E+02 -0.81268654722E+02  0.10335752809E+03  0.00000000000E+00 0. -1.
         11    1    3    3    0    0  0.14452458507E+02 -0.22977247936E+02  0.13030253266E+02  0.30110047821E+02  0.00000000000E+00 0.  1.
</event>
<event>
 7    1  0.6584658E-006  0.3309476E+03  0.7561462E-02  0.1070718E+00
         -1   -1    0    0    0  501 -0.00000000000E+00  0.00000000000E+00  0.32968813765E+03  0.32968813765E+03  0.00000000000E+00 0.  1.
          1   -1    0    0  501    0  0.00000000000E+00 -0.00000000000E+00 -0.73601069347E+03  0.73601069347E+03  0.00000000000E+00 0. -1.
         23    2    1    2    0    0  0.59839590751E+02 -0.14546535678E+03 -0.42130590670E+03  0.45923167115E+03  0.93027491228E+02 0.  0.
          5    1    1    2  502    0 -0.25329049337E+03  0.13172707862E+03 -0.17504762716E+03  0.33491378211E+03  0.41800000000E+01 0. -1.
         -5    1    1    2    0  502  0.19345090262E+03  0.13738278160E+02  0.19003097804E+03  0.27155337786E+03  0.41800000000E+01 0.  1.
        -11    1    3    3    0    0  0.78469080020E+02 -0.71664958862E+02 -0.23117638273E+03  0.25443227543E+03  0.00000000000E+00 0.  1.
         11    1    3    3    0    0 -0.18629489269E+02 -0.73800397914E+02 -0.19012952397E+03  0.20479939573E+03  0.00000000000E+00 0. -1.
</event>
<event>
 7    1  0.6584658E-006  0.7168391E+02  0.7561462E-02  0.1354459E+00
          2   -1    0    0  501    0  0.00000000000E+00  0.00000000000E+00  0.17176928371E+03  0.17176928371E+03  0.00000000000E+00 0. -1.
         -2   -1    0    0    0  501 -0.00000000000E+00 -0.00000000000E+00 -0.76559183977E+02  0.76559183977E+02  0.00000000000E+00 0.  1.
         23    2    1    2    0    0  0.32757435100E+02  0.23913712014E+01  0.58556049021E+02  0.11390561901E+03  0.92015819045E+02 0.  0.
          5    1    1    2  502    0 -0.25569157653E+01  0.14035656624E+02 -0.44109369599E+02  0.46547248700E+02  0.41800000000E+01 0.  1.
         -5    1    1    2    0  502 -0.30200519335E+02 -0.16427027825E+02  0.80763420311E+02  0.87875599979E+02  0.41800000000E+01 0.  1.
        -11    1    3    3    0    0  0.51943795208E+02 -0.27175194766E+02  0.20671663816E+02  0.62160813670E+02  0.00000000000E+00 0.  1.
         11    1    3    3    0    0 -0.19186360108E+02  0.29566565967E+02  0.37884385205E+02  0.51744805340E+02  0.00000000000E+00 0. -1.
</event>
<event>
 7    1  0.6584658E-006  0.8630693E+02  0.7561462E-02  0.1312050E+00
         -2   -1    0    0    0  501 -0.00000000000E+00  0.00000000000E+00  0.72746436625E+02  0.72746436625E+02  0.00000000000E+00 0.  1.
          2   -1    0    0  501    0  0.00000000000E+00 -0.00000000000E+00 -0.25080497307E+03  0.25080497307E+03  0.00000000000E+00 0. -1.
         23    2    1    2    0    0 -0.43781134863E+02  0.29934312310E+02 -0.15165269703E+03  0.18513661962E+03  0.92000959696E+02 0.  0.
          5    1    1    2  502    0  0.59461665750E+02  0.21457883818E+02 -0.48885199954E+02  0.80021032524E+02  0.41800000000E+01 0. -1.
         -5    1    1    2    0  502 -0.15680530887E+02 -0.51392196128E+02  0.22479360530E+02  0.58393757557E+02  0.41800000000E+01 0. -1.
        -11    1    3    3    0    0 -0.15225004887E+02  0.18877532044E+01  0.10190351870E+02  0.18417590972E+02  0.00000000000E+00 0.  1.
         11    1    3    3    0    0 -0.28556129976E+02  0.28046559106E+02 -0.16184304890E+03  0.16671902865E+03  0.00000000000E+00 0. -1.
</event>
<event>
 7    1  0.6584658E-006  0.9341899E+02  0.7561462E-02  0.1294777E+00
          1   -1    0    0  501    0  0.00000000000E+00  0.00000000000E+00  0.54860823305E+03  0.54860823305E+03  0.00000000000E+00 0. -1.
         -1   -1    0    0    0  501 -0.00000000000E+00 -0.00000000000E+00 -0.44314328316E+02  0.44314328316E+02  0.00000000000E+00 0.  1.
         23    2    1    2    0    0 -0.35511392607E+02  0.16704920468E+02  0.43134811610E+03  0.44289462638E+03  0.92489672097E+02 0.  0.
          5    1    1    2  502    0  0.34659711892E+02 -0.47376686127E+02  0.95180949132E+02  0.11190501103E+03  0.41800000000E+01 0.  1.
         -5    1    1    2    0  502  0.85168071493E+00  0.30671765658E+02 -0.22235160492E+02  0.38122923953E+02  0.41800000000E+01 0.  1.
        -11    1    3    3    0    0  0.50717811303E+01 -0.32696487788E+02  0.96977895086E+02  0.10246704550E+03  0.00000000000E+00 0.  1.
         11    1    3    3    0    0 -0.40583173737E+02  0.49401408256E+02  0.33437022101E+03  0.34042758088E+03  0.00000000000E+00 0. -1.
</event>
<event>
 7    1  0.6584658E-006  0.9585768E+02  0.7561462E-02  0.1289256E+00
         -1   -1    0    0    0  501 -0.00000000000E+00  0.00000000000E+00  0.11239456190E+03  0.11239456190E+03  0.00000000000E+00 0. -1.
          1   -1    0    0  501    0  0.00000000000E+00 -0.00000000000E+00 -0.16707352086E+03  0.16707352086E+03  0.00000000000E+00 0.  1.
         23    2    1    2    0    0 -0.33971652007E+02 -0.59235172688E+02 -0.75930490385E+02  0.13538539190E+03  0.88886928997E+02 0.  0.
          5    1    1    2  502    0 -0.56340924052E+01 -0.21809070017E+02  0.45187554555E+02  0.50663261037E+02  0.41800000000E+01 0. -1.
         -5    1    1    2    0  502  0.39605744412E+02  0.81044242705E+02 -0.23936023129E+02  0.93419429828E+02  0.41800000000E+01 0. -1.
        -11    1    3    3    0    0 -0.33014841544E+02 -0.18669713444E+02 -0.85640166079E+02  0.93663098435E+02  0.00000000000E+00 0.  1.
         11    1    3    3    0    0 -0.95681046268E+00 -0.40565459244E+02  0.97096756943E+01  0.41722293466E+02  0.00000000000E+00 0. -1.
</event>
<event>
 7    1  0.6584658E-006  0.2629298E+03  0.7561462E-02  0.1105396E+00
         -1   -1    0    0    0  501 -0.00000000000E+00  0.00000000000E+00  0.13361767393E+03  0.13361767393E+03  0.00000000000E+00 0.  1.
          1   -1    0    0  501    0  0.00000000000E+00 -0.00000000000E+00 -0.80412388008E+03  0.80412388008E+03  0.00000000000E+00 0. -1.
         23    2    1    2    0    0 -0.25343544142E+03 -0.40219184412E+02 -0.57580148041E+03  0.63696685402E+03  0.91281556227E+02 0.  0.
          5    1    1    2  502    0  0.17495934034E+03  0.52370282670E+02 -0.76066211505E+01  0.18283530940E+03  0.41800000000E+01 0.  1.
         -5    1    1    2    0  502  0.78476101074E+02 -0.12151098258E+02 -0.87098104594E+02  0.11793939059E+03  0.41800000000E+01 0.  1.
        -11    1    3    3    0    0 -0.17636685883E+03 -0.55899872031E+02 -0.47024840374E+03  0.50533516186E+03  0.00000000000E+00 0.  1.
         11    1    3    3    0    0 -0.77068582583E+02  0.15680687619E+02 -0.10555307667E+03  0.13163169216E+03  0.00000000000E+00 0. -1.
</event>
<event>
 7    1  0.6584658E-006  0.1052148E+03  0.7561462E-02  0.1269697E+00
         -3   -1    0    0    0  501 -0.00000000000E+00  0.00000000000E+00  0.13171395008E+03  0.13171395008E+03  0.00000000000E+00 0.  1.
          3   -1    0    0  501    0  0.00000000000E+00 -0.00000000000E+00 -0.97005195090E+02  0.97005195090E+02  0.00000000000E+00 0. -1.
         23    2    1    2    0    0 -0.80489672427E+01 -0.29150132479E+02  0.36679836311E+02  0.10001038902E+03  0.87989496092E+02 0.  0.
          5    1    1    2  502    0  0.30884660095E+02  0.70029695113E+02  0.16134179188E+02  0.78331376631E+02  0.41800000000E+01 0. -1.
         -5    1    1    2    0  502 -0.22835692852E+02 -0.40879562634E+02 -0.18105260510E+02  0.50377379520E+02  0.41800000000E+01 0. -1.
        -11    1    3    3    0    0  0.11047260949E+02 -0.54173671128E+02  0.40168680140E+02  0.68339969872E+02  0.00000000000E+00 0.  1.
         11    1    3    3    0    0 -0.19096228191E+02  0.25023538648E+02 -0.34888438287E+01  0.31670419146E+02  0.00000000000E+00 0. -1.
</event>
<event>
 7    1  0.6584658E-006  0.1819820E+03  0.7561462E-02  0.1165899E+00
         -2   -1    0    0    0  501 -0.00000000000E+00  0.00000000000E+00  0.11192074898E+03  0.11192074898E+03  0.00000000000E+00 0.  1.
          2   -1    0    0  501    0  0.00000000000E+00 -0.00000000000E+00 -0.54232556188E+03  0.54232556188E+03  0.00000000000E+00 0. -1.
         23    2    1    2    0    0 -0.12478973788E+03  0.95107681354E+02 -0.41499367843E+03  0.45299346582E+03  0.91462436032E+02 0.  0.
          5    1    1    2  502    0  0.13414713252E+03 -0.39776729065E+02 -0.29911300373E+02  0.14314258495E+03  0.41800000000E+01 0. -1.
         -5    1    1    2    0  502 -0.93573946384E+01 -0.55330952289E+02  0.14500165900E+02  0.58110260082E+02  0.41800000000E+01 0. -1.
        -11    1    3    3    0    0 -0.49939283856E+02  0.75174199872E+02 -0.13429303068E+03  0.16180145391E+03  0.00000000000E+00 0.  1.
         11    1    3    3    0    0 -0.74850454022E+02  0.19933481481E+02 -0.28070064775E+03  0.29119201191E+03  0.00000000000E+00 0. -1.
</event>
<event>
 7    1  0.6584658E-006  0.9655687E+02  0.7561462E-02  0.1287708E+00
         -1   -1    0    0    0  501 -0.00000000000E+00  0.00000000000E+00  0.30504566537E+03  0.30504566537E+03  0.00000000000E+00 0.  1.
          1   -1    0    0  501    0  0.00000000000E+00 -0.00000000000E+00 -0.56444645620E+02  0.56444645620E+02  0.00000000000E+00 0. -1.
         23    2    1    2    0    0 -0.10959510024E+02  0.56157852091E+02  0.49102211529E+02  0.11916588578E+03  0.92280365977E+02 0.  0.
          5    1    1    2  502    0  0.53669614999E+01  0.28630891774E+02  0.47565456112E+01  0.29809887046E+02  0.41800000000E+01 0.  1.
         -5    1    1    2    0  502  0.55925485242E+01 -0.84788743866E+02  0.19474226261E+03  0.21251453816E+03  0.41800000000E+01 0.  1.
        -11    1    3    3    0    0 -0.26794238450E+02  0.80714303981E+01  0.61041893362E+02  0.67150517108E+02  0.00000000000E+00 0.  1.
         11    1    3    3    0    0  0.15834728426E+02  0.48086421693E+02 -0.11939681833E+02  0.52015368670E+02  0.00000000000E+00 0. -1.
</event>
<event>
 6    1  0.6584658E-006  0.1488506E+03  0.7561462E-02  0.1201893E+00
          2   -1    0    0  501    0  0.00000000000E+00  0.00000000000E+00  0.50948983015E+03  0.50948983015E+03  0.00000000000E+00 0. -1.
         -2   -1    0    0    0  501 -0.00000000000E+00 -0.00000000000E+00 -0.83178530533E+02  0.83178530533E+02  0.00000000000E+00 0.  1.
          5    1    1    2  502    0  0.38587584901E+02  0.74787506313E+01 -0.37043706496E+02  0.54172336210E+02  0.41800000000E+01 0. -1.
         -5    1    1    2    0  502 -0.71298846985E+02 -0.48567840679E+02  0.79045186675E+02  0.11708106024E+03  0.41800000000E+01 0.  1.
        -11    1    1    2    0    0 -0.60879140918E+02 -0.14990797228E+02  0.11802388052E+03  0.13364366866E+03  0.00000000000E+00 0.  1.
         11    1    1    2    0    0  0.93590403002E+02  0.56079887276E+02  0.26628593893E+03  0.28777129558E+03  0.00000000000E+00 0. -1.
</event>
<event>
 7    1  0.6584658E-006  0.3447340E+03  0.7561462E-02  0.1064797E+00
          1   -1    0    0  501    0  0.00000000000E+00  0.00000000000E+00  0.14134577112E+04  0.14134577112E+04  0.00000000000E+00 0. -1.
         -1   -1    0    0    0  501 -0.00000000000E+00 -0.00000000000E+00 -0.10461146215E+03  0.10461146215E+03  0.00000000000E+00 0.  1.
         23    2    1    2    0    0 -0.64016998568E+01 -0.33307743046E+03  0.87973675410E+03  0.94509829399E+03  0.91063013067E+02 0.  0.
          5    1    1    2  502    0  0.49159899630E+02  0.19603048234E+03  0.36161384883E+03  0.41427852201E+03  0.41800000000E+01 0. -1.
         -5    1    1    2    0  502 -0.42758199773E+02  0.13704694812E+03  0.67495646134E+02  0.15869235736E+03  0.41800000000E+01 0.  1.
        -11    1    3    3    0    0  0.39015556990E+02 -0.13824102001E+03  0.41400576309E+03  0.43821634517E+03  0.00000000000E+00 0.  1.
         11    1    3    3    0    0 -0.45417256847E+02 -0.19483641045E+03  0.46573099101E+03  0.50688194882E+03  0.00000000000E+00 0. -1.
</event>
<event>
 7    1  0.6584658E-006  0.1407041E+03  0.7561462E-02  0.1212385E+00
         -1   -1    0    0    0  501 -0.00000000000E+00  0.00000000000E+00  0.75909318691E+02  0.75909318691E+02  0.00000000000E+00 0.  1.
          1   -1    0    0  501    0  0.00000000000E+00 -0.00000000000E+00 -0.50160975941E+03  0.50160975941E+03  0.00000000000E+00 0. -1.
         23    2    1    2    0    0  0.96797893425E+02 -0.39060009326E+02 -0.38701712930E+03  0.41004925036E+03  0.86386415885E+02 0.  0.
          5    1    1    2  502    0  0.23986687730E+02 -0.26579898120E+01 -0.30829145388E+02  0.39374289878E+02  0.41800000000E+01 0.  1.
         -5    1    1    2    0  502 -0.12078458115E+03  0.41717999138E+02 -0.78541660331E+01  0.12809553786E+03  0.41800000000E+01 0.  1.
        -11    1    3    3    0    0  0.10651940570E+03 -0.21028012327E+02 -0.26592046057E+03  0.28723205330E+03  0.00000000000E+00 0. -1.
         11    1    3    3    0    0 -0.97215122720E+01 -0.18031996999E+02 -0.12109666872E+03  0.12281719706E+03  0.00000000000E+00 0.  1.
</event>
<event>
 7    1  0.6584658E-006  0.2634871E+03  0.7561462E-02  0.1105066E+00
          1   -1    0    0  501    0  0.00000000000E+00  0.00000000000E+00  0.13071616211E+04  0.13071616211E+04  0.00000000000E+00 0. -1.
         -1   -1    0    0    0  501 -0.00000000000E+00 -0.00000000000E+00 -0.78762183827E+02  0.78762183827E+02  0.00000000000E+00 0.  1.
         23    2    1    2    0    0  0.22317878744E+03 -0.99517113126E+02  0.98514644848E+03  0.10191276482E+04  0.91625385779E+02 0.  0.
          5    1    1    2  502    0  0.80954469407E+01  0.26589550829E+02  0.87670150342E+01  0.29442714329E+02  0.41800000000E+01 0.  1.
         -5    1    1    2    0  502 -0.23127423438E+03  0.72927562298E+02  0.23448597374E+03  0.33735344242E+03  0.41800000000E+01 0.  1.
        -11    1    3    3    0    0  0.75196481565E+02  0.46856024603E+01  0.20921734426E+03  0.22236987847E+03  0.00000000000E+00 0.  1.
         11    1    3    3    0    0  0.14798230588E+03 -0.10420271559E+03  0.77592910422E+03  0.79675776969E+03  0.00000000000E+00 0. -1.
</event>
<event>
 7    1  0.6584658E-006  0.1648917E+03  0.7561462E-02  0.1183282E+00
         -1   -1    0    0    0  501 -0.00000000000E+00  0.00000000000E+00  0.22793016977E+03  0.22793016977E+03  0.00000000000E+00 0.  1.
          1   -1    0    0  501    0  0.00000000000E+00 -0.00000000000E+00 -0.14460982616E+03  0.14460982616E+03  0.00000000000E+00 0. -1.
         23    2    1    2    0    0 -0.80764104442E+02  0.10846802013E+03 -0.18094387456E+02  0.16226461860E+03  0.87830789784E+02 0.  0.
          5    1    1    2  502    0 -0.31249339676E+02 -0.25684596428E+02  0.42989108288E+02  0.59175633121E+02  0.41800000000E+01 0. -1.
         -5    1    1    2    0  502  0.11201344412E+03 -0.82783423699E+02  0.58425622780E+02  0.15109974421E+03  0.41800000000E+01 0. -1.
        -11    1    3    3    0    0 -0.52167236681E+01  0.59529516728E+02  0.22062233484E+02  0.63700233233E+02  0.00000000000E+00 0.  1.
         11    1    3    3    0    0 -0.75547380773E+02  0.48938503400E+02 -0.40156620939E+02  0.98564385363E+02  0.00000000000E+00 0. -1.
</event>
<event>
 7    1  0.6913652E-006  0.1910675E+03  0.7561462E-02  0.1157502E+00
         -3   -1    0    0    0  501 -0.00000000000E+00  0.00000000000E+00  0.50861570424E+03  0.50861570424E+03  0.00000000000E+00 0.  1.
          3   -1    0    0  501    0  0.00000000000E+00 -0.00000000000E+00 -0.78867293409E+02  0.78867293409E+02  0.00000000000E+00 0. -1.
         23    2    1    2    0    0 -0.16992489553E+03  0.26971572014E-01  0.22302604512E+03  0.29209101450E+03  0.81866190217E+02 0.  0.
          5    1    1    2  502    0  0.11791446005E+03  0.59094967397E+02  0.13539701508E+03  0.18906575351E+03  0.41800000000E+01 0. -1.
         -5    1    1    2    0  502  0.52010435477E+02 -0.59121938969E+02  0.71325350632E+02  0.10632622964E+03  0.41800000000E+01 0. -1.
        -11    1    3    3    0    0 -0.96354739273E+02  0.10830968184E+02  0.62996238138E+02  0.11562902608E+03  0.00000000000E+00 0.  1.
         11    1    3    3    0    0 -0.73570156253E+02 -0.10803996612E+02  0.16002980698E+03  0.17646198842E+03  0.00000000000E+00 0. -1.
</event>
<event>
 7    1  0.6584658E-006  0.1561735E+03  0.7561462E-02  0.1193086E+00
         -1   -1    0    0    0  501 -0.00000000000E+00  0.00000000000E+00  0.36325558728E+03  0.36325558728E+03  0.00000000000E+00 0.  1.
          1   -1    0    0  501    0  0.00000000000E+00 -0.00000000000E+00 -0.82059598937E+02  0.82059598937E+02  0.00000000000E+00 0. -1.
         23    2    1    2    0    0 -0.93913981450E+02 -0.84316470351E+02  0.94552013215E+02  0.18760880860E+03  0.10162617171E+03 0.  0.
          5    1    1    2  502    0  0.87576902749E+01  0.67977764963E+02  0.22919097462E+02  0.72390821910E+02  0.41800000000E+01 0.  1.
         -5    1    1    2    0  502  0.85156291175E+02  0.16338705388E+02  0.16372487766E+03  0.18531555570E+03  0.41800000000E+01 0.  1.
        -11    1    3    3    0    0 -0.72339297486E+02 -0.26351680722E+01  0.67300761358E+02  0.98839822697E+02  0.00000000000E+00 0. -1.
         11    1    3    3    0    0 -0.21574683965E+02 -0.81681302279E+02  0.27251251857E+02  0.88768985901E+02  0.00000000000E+00 0.  1.
</event>
<event>
 7    1  0.6584658E-006  0.1527950E+03  0.7561462E-02  0.1197080E+00
          1   -1    0    0  501    0  0.00000000000E+00  0.00000000000E+00  0.91680839257E+02  0.91680839257E+02  0.00000000000E+00 0.  1.
         -1   -1    0    0    0  501 -0.00000000000E+00 -0.00000000000E+00 -0.41749039348E+03  0.41749039348E+03  0.00000000000E+00 0. -1.
         23    2    1    2    0    0 -0.23642779888E+02 -0.12363664926E+03 -0.20940447410E+02  0.15641409775E+03  0.90453665240E+02 0.  0.
          5    1    1    2  502    0 -0.33528969261E+02  0.82914810061E+02 -0.24345595411E+03  0.25939801753E+03  0.41800000000E+01 0.  1.
         -5    1    1    2    0  502  0.57171749148E+02  0.40721839197E+02 -0.61413152704E+02  0.93359117462E+02  0.41800000000E+01 0.  1.
        -11    1    3    3    0    0 -0.44607139334E+02 -0.11447699533E+03 -0.37174287260E+02  0.12836162578E+03  0.00000000000E+00 0.  1.
         11    1    3    3    0    0  0.20964359446E+02 -0.91596539235E+01  0.16233839849E+02  0.28052471963E+02  0.00000000000E+00 0. -1.
</event>
<event>
 7    1  0.6584658E-006  0.1085225E+03  0.7561462E-02  0.1263331E+00
          2   -1    0    0  501    0  0.00000000000E+00  0.00000000000E+00  0.22878989181E+03  0.22878989181E+03  0.00000000000E+00 0. -1.
         -2   -1    0    0    0  501 -0.00000000000E+00 -0.00000000000E+00 -0.61279261248E+02  0.61279261248E+02  0.00000000000E+00 0.  1.
         23    2    1    2    0    0 -0.18982306738E+02 -0.33699810668E+01  0.12447976406E+03  0.15638298063E+03  0.92675456453E+02 0.  0.
          5    1    1    2  502    0 -0.41340540475E+02  0.35879483632E+02  0.48040421230E+01  0.55108337420E+02  0.41800000000E+01 0.  1.
         -5    1    1    2    0  502  0.60322847213E+02 -0.32509502566E+02  0.38226824386E+02  0.78577835015E+02  0.41800000000E+01 0.  1.
        -11    1    3    3    0    0  0.76961879116E+01 -0.44120668446E+02  0.47471046312E+02  0.65263810266E+02  0.00000000000E+00 0. -1.
         11    1    3    3    0    0 -0.26678494650E+02  0.40750687379E+02  0.77008717745E+02  0.91119170361E+02  0.00000000000E+00 0.  1.
</event>
<event>
 7    1  0.6584658E-006  0.1666129E+03  0.7561462E-02  0.1181427E+00
          2   -1    0    0  501    0  0.00000000000E+00  0.00000000000E+00  0.46920266732E+03  0.46920266732E+03  0.00000000000E+00 0. -1.
         -2   -1    0    0    0  501 -0.00000000000E+00 -0.00000000000E+00 -0.61143275060E+02  0.61143275060E+02  0.00000000000E+00 0.  1.
         23    2    1    2    0    0  0.11492672424E+03  0.58541801963E+02  0.21143905738E+03  0.26399742621E+03  0.91394045412E+02 0.  0.
          5    1    1    2  502    0 -0.97354423276E+02  0.19203875309E+02  0.11917802607E+03  0.15513718722E+03  0.41800000000E+01 0. -1.
         -5    1    1    2    0  502 -0.17572300963E+02 -0.77745677272E+02  0.77442308808E+02  0.11121132896E+03  0.41800000000E+01 0. -1.
        -11    1    3    3    0    0  0.10069432887E+03  0.79818767393E+02  0.19515866229E+03  0.23366062347E+03  0.00000000000E+00 0.  1.
         11    1    3    3    0    0  0.14232395371E+02 -0.21276965430E+02  0.16280395089E+02  0.30336802734E+02  0.00000000000E+00 0. -1.
</event>
<event>
 7    1  0.6584658E-006  0.1056730E+03  0.7561462E-02  0.1268799E+00
         -3   -1    0    0    0  501 -0.00000000000E+00  0.00000000000E+00  0.63897633998E+03  0.63897633998E+03  0.00000000000E+00 0.  1.
          3   -1    0    0  501    0  0.00000000000E+00 -0.00000000000E+00 -0.53545483850E+02  0.53545483850E+02  0.00000000000E+00 0. -1.
         23    2    1    2    0    0 -0.27757129646E+02 -0.24809401925E+02  0.43809055376E+01  0.98893760946E+02  0.91514036905E+02 0.  0.
          5    1    1    2  502    0 -0.38312774301E+02 -0.17170863706E+02  0.24043960840E+03  0.24411346731E+03  0.41800000000E+01 0. -1.
         -5    1    1    2    0  502  0.66069903947E+02  0.41980265632E+02  0.34061034220E+03  0.34951459558E+03  0.41800000000E+01 0.  1.
        -11    1    3    3    0    0 -0.69959185671E+00 -0.52233603246E+02 -0.16871627061E+02  0.54895268799E+02  0.00000000000E+00 0. -1.
         11    1    3    3    0    0 -0.27057537789E+02  0.27424201321E+02  0.21252532599E+02  0.43998492147E+02  0.00000000000E+00 0.  1.
</event>
<event>
 7    1  0.6584658E-006  0.1365701E+03  0.7561462E-02  0.1218020E+00
         -2   -1    0    0    0  501 -0.00000000000E+00  0.00000000000E+00  0.18223366038E+03  0.18223366038E+03  0.00000000000E+00 0.  1.
          2   -1    0    0  501    0  0.00000000000E+00 -0.00000000000E+00 -0.11574137242E+03  0.11574137242E+03  0.00000000000E+00 0. -1.
         23    2    1    2    0    0 -0.14984600062E+02 -0.93500483033E+02  0.40404624037E+02  0.13893706118E+03  0.93295738168E+02 0.  0.
          5    1    1    2  502    0  0.24739947957E+02 -0.23100602776E+02  0.24413768758E+02  0.41942906177E+02  0.41800000000E+01 0.  1.
         -5    1    1    2    0  502 -0.97553478959E+01  0.11660108581E+03  0.16738951599E+01  0.11709506544E+03  0.41800000000E+01 0.  1.
        -11    1    3    3    0    0  0.50530554230E+01 -0.10057509162E+03  0.53444482305E+02  0.11400524160E+03  0.00000000000E+00 0.  1.
         11    1    3    3    0    0 -0.20037655485E+02  0.70746085889E+01 -0.13039858268E+02  0.24931819582E+02  0.00000000000E+00 0. -1.
</event>
<event>
 7    1  0.6584658E-006  0.1193199E+03  0.7561462E-02  0.1244223E+00
          2   -1    0    0  501    0  0.00000000000E+00  0.00000000000E+00  0.33352891867E+02  0.33352891867E+02  0.00000000000E+00 0. -1.
         -2   -1    0    0    0  501 -0.00000000000E+00 -0.00000000000E+00 -0.45774491361E+03  0.45774491361E+03  0.00000000000E+00 0.  1.
         23    2    1    2    0    0  0.47448680785E+02 -0.30514432802E+02 -0.14789077021E+03  0.18241893560E+03  0.90677892756E+02 0.  0.
          5    1    1    2  502    0 -0.50326601504E+02 -0.38861271913E+02 -0.16921592154E+03  0.18081611039E+03  0.41800000000E+01 0.  1.
         -5    1    1    2    0  502  0.28779207191E+01  0.69375704715E+02 -0.10728532999E+03  0.12786275949E+03  0.41800000000E+01 0.  1.
        -11    1    3    3    0    0  0.69782952550E+02 -0.40727491317E+02 -0.99685202651E+02  0.12831807606E+03  0.00000000000E+00 0. -1.
         11    1    3    3    0    0 -0.22334271765E+02  0.10213058515E+02 -0.48205567563E+02  0.54100859546E+02  0.00000000000E+00 0.  1.
</event>
<event>
 7    1  0.6584658E-006  0.1198671E+03  0.7561462E-02  0.1243316E+00
          2   -1    0    0  501    0  0.00000000000E+00  0.00000000000E+00  0.72277307542E+02  0.72277307542E+02  0.00000000000E+00 0. -1.
         -2   -1    0    0    0  501 -0.00000000000E+00 -0.00000000000E+00 -0.26090204984E+03  0.26090204984E+03  0.00000000000E+00 0.  1.
         23    2    1    2    0    0  0.41713218923E+02 -0.50036082532E+02 -0.22848111650E+02  0.11552575940E+03  0.92631326731E+02 0.  0.
          5    1    1    2  502    0 -0.55070516866E+01  0.79442189344E+02 -0.14692753050E+03  0.16717224855E+03  0.41800000000E+01 0. -1.
         -5    1    1    2    0  502 -0.36206167236E+02 -0.29406106812E+02 -0.18849100149E+02  0.50481349429E+02  0.41800000000E+01 0. -1.
        -11    1    3    3    0    0 -0.27979737335E+02 -0.29151857126E+02 -0.60517615251E+01  0.40857316270E+02  0.00000000000E+00 0.  1.
         11    1    3    3    0    0  0.69692956257E+02 -0.20884225406E+02 -0.16796350125E+02  0.74668443135E+02  0.00000000000E+00 0. -1.
</event>
<event>
 7    1  0.6584658E-006  0.2406994E+03  0.7561462E-02  0.1119328E+00
          2   -1    0    0  501    0  0.00000000000E+00  0.00000000000E+00  0.30337416657E+03  0.30337416657E+03  0.00000000000E+00 0. -1.
         -2   -1    0    0    0  501 -0.00000000000E+00 -0.00000000000E+00 -0.23523894231E+03  0.23523894231E+03  0.00000000000E+00 0.  1.
         23    2    1    2    0    0 -0.20973203814E+03 -0.59529095033E+02  0.14309897278E+03  0.27631735823E+03  0.91338521284E+02 0.  0.
          5    1    1    2  502    0  0.49118722641E+02 -0.38876120174E+02 -0.14635180210E+02  0.64464428435E+02  0.41800000000E+01 0. -1.
         -5    1    1    2    0  502  0.16061331550E+03  0.98405215207E+02 -0.60328568310E+02  0.19783132222E+03  0.41800000000E+01 0. -1.
        -11    1    3    3    0    0 -0.10874561626E+03 -0.68985187700E+02  0.48469556127E+02  0.13760037445E+03  0.00000000000E+00 0.  1.
         11    1    3    3    0    0 -0.10098642188E+03  0.94560926679E+01  0.94629416649E+02  0.13871698377E+03  0.00000000000E+00 0. -1.
</event>
<event>
 7    1  0.6584658E-006  0.1302749E+03  0.7561462E-02  0.1227048E+00
          1   -1    0    0  501    0  0.00000000000E+00  0.00000000000E+00  0.12390160983E+03  0.12390160983E+03  0.00000000000E+00 0. -1.
         -1   -1    0    0    0  501 -0.00000000000E+00 -0.00000000000E+00 -0.18028066968E+03  0.18028066968E+03  0.00000000000E+00 0.  1.
         23    2    1    2    0    0 -0.80697647600E+02  0.56124257184E+02 -0.24408798536E+02  0.13475683888E+03  0.88890795957E+02 0.  0.
          5    1    1    2  502    0  0.10651298222E+03 -0.64389085398E+02 -0.52519715437E+02  0.13515458783E+03  0.41800000000E+01 0. -1.
         -5    1    1    2    0  502 -0.25815334624E+02  0.82648282141E+01  0.20549454126E+02  0.34270852806E+02  0.41800000000E+01 0.  1.
        -11    1    3    3    0    0 -0.61284306163E+02  0.14968725821E+02 -0.51814563132E+02  0.81636865981E+02  0.00000000000E+00 0.  1.
         11    1    3    3    0    0 -0.19413341437E+02  0.41155531363E+02  0.27405764596E+02  0.53119972897E+02  0.00000000000E+00 0. -1.
</event>
<event>
 7    1  0.6584658E-006  0.1053391E+03  0.7561462E-02  0.1269453E+00
          1   -1    0    0  501    0  0.00000000000E+00  0.00000000000E+00  0.93252043021E+03  0.93252043021E+03  0.00000000000E+00 0. -1.
         -1   -1    0    0    0  501 -0.00000000000E+00 -0.00000000000E+00 -0.15807608380E+02  0.15807608380E+02  0.00000000000E+00 0.  1.
         23    2    1    2    0    0 -0.15277106128E+02  0.49668029299E+02  0.45857794666E+03  0.47058891696E+03  0.91977673915E+02 0.  0.
          5    1    1    2  502    0  0.32982276000E+02 -0.73626641953E+02  0.42650410386E+03  0.43408747499E+03  0.41800000000E+01 0. -1.
         -5    1    1    2    0  502 -0.17705169872E+02  0.23958612654E+02  0.31630771318E+02  0.43651646643E+02  0.41800000000E+01 0. -1.
        -11    1    3    3    0    0  0.35005203745E+02  0.28958425956E+02  0.13412371452E+03  0.14160905875E+03  0.00000000000E+00 0.  1.
         11    1    3    3    0    0 -0.50282309873E+02  0.20709603343E+02  0.32445423213E+03  0.32897985821E+03  0.00000000000E+00 0. -1.
</event>
<event>
 7    1  0.6584658E-006  0.1713304E+03  0.7561462E-02  0.1176468E+00
          1   -1    0    0  501    0  0.00000000000E+00  0.00000000000E+00  0.36343478567E+02  0.36343478567E+02  0.00000000000E+00 0. -1.
         -1   -1    0    0    0  501 -0.00000000000E+00 -0.00000000000E+00 -0.12879417304E+04  0.12879417304E+04  0.00000000000E+00 0.  1.
         23    2    1    2    0    0 -0.12824543935E+01  0.16831988264E+03 -0.36822244507E+03  0.41635732276E+03  0.97120665059E+02 0.  0.
          5    1    1    2  502    0 -0.81697627292E+00 -0.11985213511E+03 -0.30845719326E+03  0.33095092417E+03  0.41800000000E+01 0. -1.
         -5    1    1    2    0  502  0.20994306664E+01 -0.48467747532E+02 -0.57491861350E+03  0.57697696202E+03  0.41800000000E+01 0. -1.
        -11    1    3    3    0    0  0.18652305970E+02  0.39448637486E+02 -0.19336918628E+03  0.19823154572E+03  0.00000000000E+00 0.  1.
         11    1    3    3    0    0 -0.19934760363E+02  0.12887124515E+03 -0.17485325879E+03  0.21812577703E+03  0.00000000000E+00 0. -1.
</event>
<event>
 7    1  0.6584658E-006  0.1203655E+03  0.7561462E-02  0.1242495E+00
          2   -1    0    0  501    0  0.00000000000E+00  0.00000000000E+00  0.40782166801E+02  0.40782166801E+02  0.00000000000E+00 0. -1.
         -2   -1    0    0    0  501 -0.00000000000E+00 -0.00000000000E+00 -0.42134967145E+03  0.42134967145E+03  0.00000000000E+00 0.  1.
         23    2    1    2    0    0 -0.15089467190E+02  0.65313295396E+02 -0.97416102451E+02  0.14539067244E+03  0.84587422476E+02 0.  0.
          5    1    1    2  502    0 -0.27756405695E+02  0.22462956392E+02 -0.35647551741E+02  0.50628280754E+02  0.41800000000E+01 0.  1.
         -5    1    1    2    0  502  0.42845872884E+02 -0.87776251788E+02 -0.24750385046E+03  0.26611288505E+03  0.41800000000E+01 0.  1.
        -11    1    3    3    0    0 -0.49905480221E+02  0.36628328777E+02 -0.65543573428E+02  0.90156261252E+02  0.00000000000E+00 0.  1.
         11    1    3    3    0    0  0.34816013032E+02  0.28684966618E+02 -0.31872529023E+02  0.55234411191E+02  0.00000000000E+00 0. -1.
</event>
<event>
 7    1  0.6584658E-006  0.2680463E+03  0.7561462E-02  0.1102403E+00
          2   -1    0    0  501    0  0.00000000000E+00  0.00000000000E+00  0.21057894299E+04  0.21057894299E+04  0.00000000000E+00 0. -1.
         -2   -1    0    0    0  501 -0.00000000000E+00 -0.00000000000E+00 -0.34204357179E+02  0.34204357179E+02  0.00000000000E+00 0.  1.
         23    2    1    2    0    0 -0.23799598617E+03  0.37538641576E+02  0.10423888072E+04  0.10755960975E+04  0.11082102918E+03 0.  0.
          5    1    1    2  502    0 -0.14416351304E+02  0.27999683013E+01  0.75664241785E+02  0.77189512839E+02  0.41800000000E+01 0. -1.
         -5    1    1    2    0  502  0.25241233748E+03 -0.40338609878E+02  0.95353202381E+03  0.98720817683E+03  0.41800000000E+01 0. -1.
        -11    1    3    3    0    0 -0.80524404585E+02  0.67263361683E+02  0.42021162540E+03  0.43311239844E+03  0.00000000000E+00 0. -1.
         11    1    3    3    0    0 -0.15747158159E+03 -0.29724720107E+02  0.62217718176E+03  0.64248369902E+03  0.00000000000E+00 0.  1.
</event>
<event>
 7    1  0.6584658E-006  0.1385020E+03  0.7561462E-02  0.1215359E+00
          2   -1    0    0  501    0  0.00000000000E+00  0.00000000000E+00  0.12451367223E+03  0.12451367223E+03  0.00000000000E+00 0. -1.
         -2   -1    0    0    0  501 -0.00000000000E+00 -0.00000000000E+00 -0.21588410745E+03  0.21588410745E+03  0.00000000000E+00 0.  1.
         23    2    1    2    0    0 -0.10873833538E+03  0.15134081504E+02  0.13259040907E+02  0.14380878134E+03  0.91935289304E+02 0.  0.
          5    1    1    2  502    0  0.51113450775E+02  0.31187247348E+02 -0.10679307488E+03  0.12250494883E+03  0.41800000000E+01 0.  1.
         -5    1    1    2    0  502  0.57624884607E+02 -0.46321328852E+02  0.21635987505E+01  0.74084049512E+02  0.41800000000E+01 0.  1.
        -11    1    3    3    0    0 -0.55281219405E+02  0.53655529757E+02  0.27674738764E+01  0.77088183297E+02  0.00000000000E+00 0.  1.
         11    1    3    3    0    0 -0.53457115978E+02 -0.38521448253E+02  0.10491567030E+02  0.66720598041E+02  0.00000000000E+00 0. -1.
</event>
<event>
 7    1  0.6584658E-006  0.9338856E+02  0.7561462E-02  0.1294847E+00
          1   -1    0    0  501    0  0.00000000000E+00  0.00000000000E+00  0.23888181854E+03  0.23888181854E+03  0.00000000000E+00 0. -1.
         -1   -1    0    0    0  501 -0.00000000000E+00 -0.00000000000E+00 -0.66977001199E+02  0.66977001199E+02  0.00000000000E+00 0.  1.
         23    2    1    2    0    0 -0.56896358246E+02  0.26376301259E+02  0.97274758441E+02  0.14727080444E+03  0.91068141311E+02 0.  0.
          5    1    1    2  502    0 -0.12295786329E+02 -0.42600837596E+02  0.75194622255E+02  0.87394057816E+02  0.41800000000E+01 0.  1.
         -5    1    1    2    0  502  0.69192144575E+02  0.16224536337E+02 -0.56456335322E+00  0.71193957483E+02  0.41800000000E+01 0.  1.
        -11    1    3    3    0    0 -0.41472852985E+02  0.11591117719E+01 -0.40840370962E+01  0.41689572243E+02  0.00000000000E+00 0.  1.
         11    1    3    3    0    0 -0.15423505262E+02  0.25217189487E+02  0.10135879554E+03  0.10558123220E+03  0.00000000000E+00 0. -1.
</event>
<event>
 7    1  0.6584658E-006  0.8696001E+02  0.7561462E-02  0.1310385E+00
          3   -1    0    0  501    0  0.00000000000E+00  0.00000000000E+00  0.50176917144E+02  0.50176917144E+02  0.00000000000E+00 0. -1.
         -3   -1    0    0    0  501 -0.00000000000E+00 -0.00000000000E+00 -0.30514104163E+03  0.30514104163E+03  0.00000000000E+00 0.  1.
         23    2    1    2    0    0 -0.56875802616E+02 -0.15825861397E+02 -0.10014730696E+03  0.14770661646E+03  0.91117762494E+02 0.  0.
          5    1    1    2  502    0  0.44991522577E+02 -0.24598735371E+02 -0.15699853439E+03  0.16521303546E+03  0.41800000000E+01 0.  1.
         -5    1    1    2    0  502  0.11884280039E+02  0.40424596768E+02  0.21817168599E+01  0.42398306857E+02  0.41800000000E+01 0.  1.
        -11    1    3    3    0    0 -0.50813087586E+02 -0.33889025531E+02 -0.18429880787E+02  0.63797307367E+02  0.00000000000E+00 0. -1.
         11    1    3    3    0    0 -0.60627150308E+01  0.18063164134E+02 -0.81717426169E+02  0.83909309089E+02  0.00000000000E+00 0.  1.
</event>
<event>
 7    1  0.6584658E-006  0.1013788E+03  0.7561462E-02  0.1277423E+00
         -1   -1    0    0    0  501 -0.00000000000E+00  0.00000000000E+00  0.17979567181E+03  0.17979567181E+03  0.00000000000E+00 0.  1.
          1   -1    0    0  501    0  0.00000000000E+00 -0.00000000000E+00 -0.12348367693E+03  0.12348367693E+03  0.00000000000E+00 0. -1.
         23    2    1    2    0    0 -0.16451527919E+02  0.26767238487E+02 -0.77777727330E+02  0.12673175022E+03  0.94996967421E+02 0.  0.
          5    1    1    2  502    0 -0.34659737905E+02  0.13605036703E+02  0.90806713228E+02  0.98233019004E+02  0.41800000000E+01 0. -1.
         -5    1    1    2    0  502  0.51111265824E+02 -0.40372275190E+02  0.43283008983E+02  0.78314579516E+02  0.41800000000E+01 0.  1.
        -11    1    3    3    0    0  0.13304361128E+02 -0.31722241472E+02 -0.28353120014E+02  0.44578089277E+02  0.00000000000E+00 0.  1.
         11    1    3    3    0    0 -0.29755889047E+02  0.58489479959E+02 -0.49424607315E+02  0.82153660947E+02  0.00000000000E+00 0. -1.
</event>
<event>
 7    1  0.6584658E-006  0.1084958E+03  0.7561462E-02  0.1263381E+00
         -1   -1    0    0    0  501 -0.00000000000E+00  0.00000000000E+00  0.43826236394E+02  0.43826236394E+02  0.00000000000E+00 0.  1.
          1   -1    0    0  501    0  0.00000000000E+00 -0.00000000000E+00 -0.42690917559E+03  0.42690917559E+03  0.00000000000E+00 0. -1.
         23    2    1    2    0    0 -0.47920636076E+00 -0.76467950162E+02 -0.22899261079E+03  0.25804083120E+03  0.91103664733E+02 0.  0.
          5    1    1    2  502    0 -0.29882602281E+02  0.30470785287E+02  0.60285280532E+01  0.43304205634E+02  0.41800000000E+01 0. -1.
         -5    1    1    2    0  502  0.30361808642E+02  0.45997164875E+02 -0.16011885646E+03  0.16939037516E+03  0.41800000000E+01 0. -1.
        -11    1    3    3    0    0  0.16949033006E+02  0.16853265806E+02 -0.50557980047E+02  0.55923265594E+02  0.00000000000E+00 0.  1.
         11    1    3    3    0    0 -0.17428239367E+02 -0.93321215968E+02 -0.17843463074E+03  0.20211756560E+03  0.00000000000E+00 0. -1.
</event>
<event>
 7    1  0.6584658E-006  0.8718716E+02  0.7561462E-02  0.1309810E+00
          2   -1    0    0  501    0  0.00000000000E+00  0.00000000000E+00  0.15744923019E+03  0.15744923019E+03  0.00000000000E+00 0. -1.
         -2   -1    0    0    0  501 -0.00000000000E+00 -0.00000000000E+00 -0.97645306798E+02  0.97645306798E+02  0.00000000000E+00 0.  1.
         23    2    1    2    0    0  0.49760835704E+02  0.19043623617E+02  0.59719085448E+02  0.11913033096E+03  0.88243221931E+02 0.  0.
          5    1    1    2  502    0 -0.28996382632E+02 -0.35102463169E+02  0.57045448602E+02  0.73106967743E+02  0.41800000000E+01 0.  1.
         -5    1    1    2    0  502 -0.20764453072E+02  0.16058839552E+02 -0.56960610657E+02  0.62857238291E+02  0.41800000000E+01 0.  1.
        -11    1    3    3    0    0 -0.93382907227E+01 -0.26089549775E+02  0.90666354420E+01  0.29155996970E+02  0.00000000000E+00 0.  1.
         11    1    3    3    0    0  0.59099126426E+02  0.45133173392E+02  0.50652450006E+02  0.89974333987E+02  0.00000000000E+00 0. -1.
</event>
<event>
 7    1  0.6584658E-006  0.8976153E+02  0.7561462E-02  0.1303430E+00
         -1   -1    0    0    0  501 -0.00000000000E+00  0.00000000000E+00  0.21444955633E+02  0.21444955633E+02  0.00000000000E+00 0.  1.
          1   -1    0    0  501    0  0.00000000000E+00 -0.00000000000E+00 -0.56560232900E+03  0.56560232900E+03  0.00000000000E+00 0. -1.
         23    2    1    2    0    0  0.15775198660E+02 -0.61217615918E+01 -0.22554152052E+03  0.24433957955E+03  0.92447389364E+02 0.  0.
          5    1    1    2  502    0 -0.51287026666E+02 -0.91701884470E+01 -0.28935913468E+03  0.29404188933E+03  0.41800000000E+01 0. -1.
         -5    1    1    2    0  502  0.35511828005E+02  0.15291950039E+02 -0.29256718168E+02  0.48665815746E+02  0.41800000000E+01 0. -1.
        -11    1    3    3    0    0  0.51061997939E+02  0.51528964370E+01 -0.16999980528E+03  0.17757762745E+03  0.00000000000E+00 0.  1.
         11    1    3    3    0    0 -0.35286799278E+02 -0.11274658029E+02 -0.55541715237E+02  0.66761952102E+02  0.00000000000E+00 0. -1.
</event>
<event>
 7    1  0.6584658E-006  0.2591441E+03  0.7561462E-02  0.1107659E+00
          1   -1    0    0  501    0  0.00000000000E+00  0.00000000000E+00  0.23305682074E+04  0.23305682074E+04  0.00000000000E+00 0. -1.
         -1   -1    0    0    0  501 -0.00000000000E+00 -0.00000000000E+00 -0.31766974534E+02  0.31766974534E+02  0.00000000000E+00 0.  1.
         23    2    1    2    0    0 -0.21311161886E+03 -0.12153363378E+03  0.12969009433E+04  0.13232781011E+04  0.94476927344E+02 0.  0.
          5    1    1    2  502    0  0.18690550994E+03  0.13690429095E+03  0.95720055064E+03  0.98484862851E+03  0.41800000000E+01 0.  1.
         -5    1    1    2    0  502  0.26206108917E+02 -0.15370657172E+02  0.44699738879E+02  0.54208452314E+02  0.41800000000E+01 0.  1.
        -11    1    3    3    0    0 -0.12010820718E+02 -0.34944468520E+02  0.10208979158E+03  0.10857118052E+03  0.00000000000E+00 0. -1.
         11    1    3    3    0    0 -0.20110079814E+03 -0.86589165257E+02  0.11948111518E+04  0.12147069206E+04  0.00000000000E+00 0.  1.
</event>
<event>
 7    1  0.6584658E-006  0.4428588E+03  0.7561462E-02  0.1029873E+00
          2   -1    0    0  501    0  0.00000000000E+00  0.00000000000E+00  0.12224415640E+03  0.12224415640E+03  0.00000000000E+00 0. -1.
         -2   -1    0    0    0  501 -0.00000000000E+00 -0.00000000000E+00 -0.20262458630E+04  0.20262458630E+04  0.00000000000E+00 0.  1.
         23    2    1    2    0    0  0.39687416103E+03  0.17810508436E+03 -0.48156137102E+03  0.65576987179E+03  0.94351735154E+02 0.  0.
          5    1    1    2  502    0 -0.93074283773E+02  0.82954073558E+01 -0.23492253037E+03  0.25285905908E+03  0.41800000000E+01 0.  1.
         -5    1    1    2    0  502 -0.30379987726E+03 -0.18640049172E+03 -0.11875178052E+04  0.12398610885E+04  0.41800000000E+01 0.  1.
        -11    1    3    3    0    0  0.48596670221E+02  0.31118848044E+02 -0.11768519998E+03  0.13107183280E+03  0.00000000000E+00 0.  1.
         11    1    3    3    0    0  0.34827749081E+03  0.14698623632E+03 -0.36387617104E+03  0.52469803899E+03  0.00000000000E+00 0. -1.
</event>
<event>
 7    1  0.6584658E-006  0.1245476E+03  0.7561462E-02  0.1235778E+00
         -3   -1    0    0    0  501 -0.00000000000E+00  0.00000000000E+00  0.30505527555E+02  0.30505527555E+02  0.00000000000E+00 0.  1.
          3   -1    0    0  501    0  0.00000000000E+00 -0.00000000000E+00 -0.87976755751E+03  0.87976755751E+03  0.00000000000E+00 0. -1.
         23    2    1    2    0    0 -0.99840979930E+02 -0.63777553193E+02 -0.48300179686E+03  0.50551491813E+03  0.90657592754E+02 0.  0.
          5    1    1    2  502    0 -0.60430861715E+00  0.14620188309E+02  0.57595887140E+01  0.16271458363E+02  0.41800000000E+01 0.  1.
         -5    1    1    2    0  502  0.10044528855E+03  0.49157364884E+02 -0.37201982181E+03  0.38848670857E+03  0.41800000000E+01 0.  1.
        -11    1    3    3    0    0 -0.79939157115E+02 -0.63459945014E+02 -0.47171988891E+03  0.48263556340E+03  0.00000000000E+00 0. -1.
         11    1    3    3    0    0 -0.19901822815E+02 -0.31760817892E+00 -0.11281907949E+02  0.22879354739E+02  0.00000000000E+00 0.  1.
</event>
<event>
 7    1  0.6584658E-006  0.1065089E+03  0.7561462E-02  0.1267175E+00
          2   -1    0    0  501    0  0.00000000000E+00  0.00000000000E+00  0.21976840212E+03  0.21976840212E+03  0.00000000000E+00 0. -1.
         -2   -1    0    0    0  501 -0.00000000000E+00 -0.00000000000E+00 -0.96277430288E+02  0.96277430288E+02  0.00000000000E+00 0.  1.
         23    2    1    2    0    0 -0.89008134430E+01 -0.85447315888E+02  0.10864609612E+03  0.16357087104E+03  0.87011420955E+02 0.  0.
          5    1    1    2  502    0  0.33242300602E+02  0.50036354642E+02 -0.47461186832E+02  0.76672837372E+02  0.41800000000E+01 0.  1.
         -5    1    1    2    0  502 -0.24341487159E+02  0.35410961246E+02  0.62306062536E+02  0.75802123995E+02  0.41800000000E+01 0.  1.
        -11    1    3    3    0    0  0.12382599163E+02 -0.87382879645E+02  0.50637918862E+02  0.10175114370E+03  0.00000000000E+00 0.  1.
         11    1    3    3    0    0 -0.21283412606E+02  0.19355637565E+01  0.58008177263E+02  0.61819727341E+02  0.00000000000E+00 0. -1.
</event>
<event>
 6    1  0.6584658E-006  0.1189204E+03  0.7561462E-02  0.1244889E+00
          1   -1    0    0  501    0  0.00000000000E+00  0.00000000000E+00  0.63051385381E+03  0.63051385381E+03  0.00000000000E+00 0. -1.
         -1   -1    0    0    0  501 -0.00000000000E+00 -0.00000000000E+00 -0.33654570988E+02  0.33654570988E+02  0.00000000000E+00 0.  1.
          5    1    1    2  502    0  0.25165941882E+02 -0.36489817927E+02  0.14376271563E+03  0.15049924335E+03  0.41800000000E+01 0. -1.
         -5    1    1    2    0  502  0.16944558494E+02  0.67912310983E+02  0.50328289810E+02  0.86311118639E+02  0.41800000000E+01 0. -1.
        -11    1    1    2    0    0  0.32057027527E+02 -0.36838447223E+02  0.63886169709E+02  0.80412479677E+02  0.00000000000E+00 0.  1.
         11    1    1    2    0    0 -0.74167527903E+02  0.54159541668E+01  0.33888210767E+03  0.34694558313E+03  0.00000000000E+00 0. -1.
</event>
<event>
 7    1  0.6584658E-006  0.1098849E+03  0.7561462E-02  0.1260783E+00
         -1   -1    0    0    0  501 -0.00000000000E+00  0.00000000000E+00  0.22610743095E+03  0.22610743095E+03  0.00000000000E+00 0. -1.
          1   -1    0    0  501    0  0.00000000000E+00 -0.00000000000E+00 -0.12482753071E+03  0.12482753071E+03  0.00000000000E+00 0.  1.
         23    2    1    2    0    0  0.55789341311E+02  0.93776150154E+02 -0.22352387482E+02  0.14395845591E+03  0.91203020013E+02 0.  0.
          5    1    1    2  502    0 -0.46346809857E+02 -0.81933952145E+02  0.12865579517E+02  0.95100971784E+02  0.41800000000E+01 0. -1.
         -5    1    1    2    0  502 -0.94425314537E+01 -0.11842198009E+02  0.11076670821E+03  0.11187553397E+03  0.41800000000E+01 0. -1.
        -11    1    3    3    0    0  0.35946990833E+02  0.71302162294E+02 -0.57024519385E+02  0.98122272237E+02  0.00000000000E+00 0.  1.
         11    1    3    3    0    0  0.19842350478E+02  0.22473987860E+02  0.34672131903E+02  0.45836183671E+02  0.00000000000E+00 0. -1.
</event>
<event>
 7    1  0.6584658E-006  0.1247902E+03  0.7561462E-02  0.1235397E+00
         -1   -1    0    0    0  501 -0.00000000000E+00  0.00000000000E+00  0.16995704420E+03  0.16995704420E+03  0.00000000000E+00 0.  1.
          1   -1    0    0  501    0  0.00000000000E+00 -0.00000000000E+00 -0.12667187752E+03  0.12667187752E+03  0.00000000000E+00 0. -1.
         23    2    1    2    0    0  0.68648686025E+02 -0.36595623758E+02 -0.40982923816E+02  0.12691609449E+03  0.91521654398E+02 0.  0.
          5    1    1    2  502    0 -0.91776476307E+02 -0.10835503629E+02  0.66293616990E+02  0.11380969113E+03  0.41800000000E+01 0. -1.
         -5    1    1    2    0  502  0.23127790281E+02  0.47431127387E+02  0.17974473501E+02  0.55903136103E+02  0.41800000000E+01 0. -1.
        -11    1    3    3    0    0  0.39701017215E+02 -0.56466179821E+02  0.48311033925E+01  0.69194940505E+02  0.00000000000E+00 0.  1.
         11    1    3    3    0    0  0.28947668810E+02  0.19870556063E+02 -0.45814027208E+02  0.57721153980E+02  0.00000000000E+00 0. -1.
</event>
<event>
 7    1  0.6584658E-006  0.9200575E+02  0.7561462E-02  0.1298066E+00
          4   -1    0    0  501    0  0.00000000000E+00  0.00000000000E+00  0.31923427883E+03  0.31923427883E+03  0.00000000000E+00 0.  1.
         -4   -1    0    0    0  501 -0.00000000000E+00 -0.00000000000E+00 -0.47292684855E+02  0.47292684855E+02  0.00000000000E+00 0. -1.
         23    2    1    2    0    0  0.54209518185E+02 -0.26305217678E+02  0.13460817698E+03  0.17127410058E+03  0.87090871412E+02 0.  0.
          5    1    1    2  502    0 -0.86167008916E+02  0.29511863748E+02  0.13483380960E+03  0.16276772450E+03  0.41800000000E+01 0. -1.
         -5    1    1    2    0  502  0.31957490731E+02 -0.32066460702E+01  0.24996074010E+01  0.32485138602E+02  0.41800000000E+01 0. -1.
        -11    1    3    3    0    0  0.26767182567E+02 -0.10321764043E+02 -0.40973144335E+01  0.28979455845E+02  0.00000000000E+00 0. -1.
         11    1    3    3    0    0  0.27442335618E+02 -0.15983453635E+02  0.13870549141E+03  0.14229464474E+03  0.00000000000E+00 0.  1.
</event>
<event>
 7    1  0.6584658E-006  0.2721788E+03  0.7561462E-02  0.1100039E+00
          2   -1    0    0  501    0  0.00000000000E+00  0.00000000000E+00  0.47957362308E+03  0.47957362308E+03  0.00000000000E+00 0.  1.
         -2   -1    0    0    0  501 -0.00000000000E+00 -0.00000000000E+00 -0.17185203795E+03  0.17185203795E+03  0.00000000000E+00 0. -1.
         23    2    1    2    0    0 -0.46412557896E+02  0.25013736216E+03  0.23623906847E+03  0.35905528610E+03  0.91591350708E+02 0.  0.
          5    1    1    2  502    0  0.65084847005E+02 -0.50237373467E+02  0.27504989921E+02  0.86797625964E+02  0.41800000000E+01 0. -1.
         -5    1    1    2    0  502 -0.18672289109E+02 -0.19989998869E+03  0.43977526739E+02  0.20557274897E+03  0.41800000000E+01 0. -1.
        -11    1    3    3    0    0 -0.60756910143E+02  0.19492703920E+03  0.21911197390E+03  0.29949626016E+03  0.00000000000E+00 0.  1.
         11    1    3    3    0    0  0.14344352247E+02  0.55210322959E+02  0.17127094570E+02  0.59559025941E+02  0.00000000000E+00 0. -1.
</event>
<event>
 7    1  0.6584658E-006  0.1026666E+03  0.7561462E-02  0.1274786E+00
          2   -1    0    0  501    0  0.00000000000E+00  0.00000000000E+00  0.51658701469E+02  0.51658701469E+02  0.00000000000E+00 0. -1.
         -2   -1    0    0    0  501 -0.00000000000E+00 -0.00000000000E+00 -0.25226592181E+03  0.25226592181E+03  0.00000000000E+00 0.  1.
         23    2    1    2    0    0  0.24126594386E+02  0.13818544506E+02 -0.47434005468E+02  0.10421876806E+03  0.88535428006E+02 0.  0.
          5    1    1    2  502    0  0.20962924034E+02  0.39952730609E+02 -0.20872028916E+02  0.49887662384E+02  0.41800000000E+01 0. -1.
         -5    1    1    2    0  502 -0.45089518420E+02 -0.53771275114E+02 -0.13230118596E+03  0.14981819283E+03  0.41800000000E+01 0. -1.
        -11    1    3    3    0    0  0.14473610323E+02  0.50115897445E+02 -0.14187602077E+02  0.54059010582E+02  0.00000000000E+00 0. -1.
         11    1    3    3    0    0  0.96529840629E+01 -0.36297352939E+02 -0.33246403391E+02  0.50159757477E+02  0.00000000000E+00 0.  1.
</event>
<event>
 7    1  0.6584658E-006  0.1100750E+03  0.7561462E-02  0.1260431E+00
         -1   -1    0    0    0  501 -0.00000000000E+00  0.00000000000E+00  0.11523360424E+03  0.11523360424E+03  0.00000000000E+00 0.  1.
          1   -1    0    0  501    0  0.00000000000E+00 -0.00000000000E+00 -0.10688072401E+03  0.10688072401E+03  0.00000000000E+00 0. -1.
         23    2    1    2    0    0  0.29707920442E+02 -0.44659306808E+01 -0.33828054954E+01  0.92933043725E+02  0.87878337314E+02 0.  0.
          5    1    1    2  502    0  0.47804681351E+02 -0.82681475579E+01 -0.43589544819E+01  0.48888881223E+02  0.41800000000E+01 0. -1.
         -5    1    1    2    0  502 -0.77512601793E+02  0.12734078239E+02  0.16094640211E+02  0.80292403307E+02  0.41800000000E+01 0. -1.
        -11    1    3    3    0    0 -0.85470460223E+01 -0.39805604128E+02  0.41117625831E+00  0.40714950346E+02  0.00000000000E+00 0.  1.
         11    1    3    3    0    0  0.38254966464E+02  0.35339673448E+02 -0.37939817538E+01  0.52218093379E+02  0.00000000000E+00 0. -1.
</event>
<event>
 7    1  0.6584658E-006  0.1025950E+03  0.7561462E-02  0.1274932E+00
         -2   -1    0    0    0  501 -0.00000000000E+00  0.00000000000E+00  0.12870505045E+02  0.12870505045E+02  0.00000000000E+00 0.  1.
          2   -1    0    0  501    0  0.00000000000E+00 -0.00000000000E+00 -0.83804260190E+03  0.83804260190E+03  0.00000000000E+00 0. -1.
         23    2    1    2    0    0  0.12873093252E+01 -0.44071040240E+01 -0.31444197029E+03  0.32776422653E+03  0.92382659501E+02 0.  0.
          5    1    1    2  502    0 -0.52772879153E+02  0.23533607563E+02 -0.24289275948E+03  0.24970617227E+03  0.41800000000E+01 0. -1.
         -5    1    1    2    0  502  0.51485569828E+02 -0.19126503539E+02 -0.26783736708E+03  0.27344270815E+03  0.41800000000E+01 0.  1.
        -11    1    3    3    0    0  0.46640776432E+02 -0.37861867177E+00 -0.17277033504E+03  0.17895556445E+03  0.00000000000E+00 0.  1.
         11    1    3    3    0    0 -0.45353467107E+02 -0.40284853522E+01 -0.14167163525E+03  0.14880866207E+03  0.00000000000E+00 0. -1.
</event>
<event>
 7    1  0.6584658E-006  0.3584138E+03  0.7561462E-02  0.1059214E+00
          2   -1    0    0  501    0  0.00000000000E+00  0.00000000000E+00  0.32811058443E+03  0.32811058443E+03  0.00000000000E+00 0.  1.
         -2   -1    0    0    0  501 -0.00000000000E+00 -0.00000000000E+00 -0.54251839422E+03  0.54251839422E+03  0.00000000000E+00 0. -1.
         23    2    1    2    0    0  0.34164228127E+03  0.29287889375E+02  0.12025843493E+03  0.37542608969E+03  0.94368579672E+02 0.  0.
          5    1    1    2  502    0 -0.32853109416E+03 -0.57535181002E+02 -0.30732296205E+03  0.45355027537E+03  0.41800000000E+01 0.  1.
         -5    1    1    2    0  502 -0.13111187110E+02  0.28247291627E+02 -0.27343282674E+02  0.41652613593E+02  0.41800000000E+01 0.  1.
        -11    1    3    3    0    0  0.19566300580E+03 -0.22508016324E+02  0.94320251333E+02  0.21837337852E+03  0.00000000000E+00 0.  1.
         11    1    3    3    0    0  0.14597927548E+03  0.51795905699E+02  0.25938183595E+02  0.15705271117E+03  0.00000000000E+00 0. -1.
</event>
<event>
 7    1  0.6584658E-006  0.1375912E+03  0.7561462E-02  0.1216607E+00
         -2   -1    0    0    0  501 -0.00000000000E+00  0.00000000000E+00  0.19028007686E+03  0.19028007686E+03  0.00000000000E+00 0.  1.
          2   -1    0    0  501    0  0.00000000000E+00 -0.00000000000E+00 -0.13049827725E+03  0.13049827725E+03  0.00000000000E+00 0. -1.
         23    2    1    2    0    0  0.25469887488E+02  0.10396816337E+03  0.19043706903E+02  0.15119191441E+03  0.10506301941E+03 0.  0.
          5    1    1    2  502    0  0.11610845084E+02 -0.12221704230E+03  0.26405864933E+02  0.12564457511E+03  0.41800000000E+01 0. -1.
         -5    1    1    2    0  502 -0.37080732572E+02  0.18248878935E+02  0.14332227780E+02  0.43941864589E+02  0.41800000000E+01 0. -1.
        -11    1    3    3    0    0  0.19144975938E+02  0.24535737945E+02  0.55449054465E+02  0.63585613006E+02  0.00000000000E+00 0.  1.
         11    1    3    3    0    0  0.63249115495E+01  0.79432425423E+02 -0.36405347562E+02  0.87606301404E+02  0.00000000000E+00 0. -1.
</event>
<event>
 7    1  0.6584658E-006  0.1021351E+03  0.7561462E-02  0.1275869E+00
         -2   -1    0    0    0  501 -0.00000000000E+00  0.00000000000E+00  0.19194660345E+02  0.19194660345E+02  0.00000000000E+00 0.  1.
          2   -1    0    0  501    0  0.00000000000E+00 -0.00000000000E+00 -0.63404779356E+03  0.63404779356E+03  0.00000000000E+00 0. -1.
         23    2    1    2    0    0  0.11428239006E+02  0.16708626202E+02 -0.33219776153E+03  0.34348369305E+03  0.84946523113E+02 0.  0.
          5    1    1    2  502    0 -0.23428475058E+02  0.47274476597E+02 -0.72851765683E+02  0.90047885839E+02  0.41800000000E+01 0.  1.
         -5    1    1    2    0  502  0.12000236051E+02 -0.63983102799E+02 -0.20980360600E+03  0.21971087502E+03  0.41800000000E+01 0.  1.
        -11    1    3    3    0    0 -0.34786924094E+02 -0.48341216190E+01 -0.16440409153E+03  0.16811366432E+03  0.00000000000E+00 0.  1.
         11    1    3    3    0    0  0.46215163100E+02  0.21542747821E+02 -0.16779367000E+03  0.17537002873E+03  0.00000000000E+00 0. -1.
</event>
<event>
 7    1  0.1047699E-005  0.2719960E+03  0.7561462E-02  0.1100143E+00
          2   -1    0    0  501    0  0.00000000000E+00  0.00000000000E+00  0.65072923733E+03  0.65072923733E+03  0.00000000000E+00 0. -1.
         -2   -1    0    0    0  501 -0.00000000000E+00 -0.00000000000E+00 -0.12305557317E+03  0.12305557317E+03  0.00000000000E+00 0.  1.
         23    2    1    2    0    0  0.44748612781E+02  0.25787890286E+03  0.26215510892E+03  0.38052728816E+03  0.87015797501E+02 0.  0.
          5    1    1    2  502    0  0.29684293468E+02 -0.35486112677E+02  0.86526677048E+02  0.98207737539E+02  0.41800000000E+01 0. -1.
         -5    1    1    2    0  502 -0.74432906249E+02 -0.22239279018E+03  0.17899187819E+03  0.29504978481E+03  0.41800000000E+01 0. -1.
        -11    1    3    3    0    0  0.29493827618E+02  0.97053684535E+02  0.15982612331E+03  0.18929789550E+03  0.00000000000E+00 0. -1.
         11    1    3    3    0    0  0.15254785163E+02  0.16082521832E+03  0.10232898561E+03  0.19122939265E+03  0.00000000000E+00 0.  1.
</event>
<event>
 7    1  0.6584658E-006  0.1161552E+03  0.7561462E-02  0.1249578E+00
         -1   -1    0    0    0  501 -0.00000000000E+00  0.00000000000E+00  0.70195726303E+02  0.70195726303E+02  0.00000000000E+00 0.  1.
          1   -1    0    0  501    0  0.00000000000E+00 -0.00000000000E+00 -0.20422516558E+03  0.20422516558E+03  0.00000000000E+00 0. -1.
         23    2    1    2    0    0 -0.41379996875E+02 -0.28171925574E+02 -0.59900433557E+02  0.12063914205E+03  0.91977057588E+02 0.  0.
          5    1    1    2  502    0 -0.33794733991E+02 -0.19691960399E+02 -0.25835816641E+01  0.39420865593E+02  0.41800000000E+01 0. -1.
         -5    1    1    2    0  502  0.75174730865E+02  0.47863885973E+02 -0.71545424059E+02  0.11436088424E+03  0.41800000000E+01 0. -1.
        -11    1    3    3    0    0 -0.16556404035E+02 -0.60655623537E+02 -0.28215113002E+02  0.68915250728E+02  0.00000000000E+00 0.  1.
         11    1    3    3    0    0 -0.24823592840E+02  0.32483697963E+02 -0.31685320555E+02  0.51723891323E+02  0.00000000000E+00 0. -1.
</event>
<event>
 7    1  0.6584658E-006  0.1556696E+03  0.7561462E-02  0.1193674E+00
          2   -1    0    0  501    0  0.00000000000E+00  0.00000000000E+00  0.53701326697E+02  0.53701326697E+02  0.00000000000E+00 0. -1.
         -2   -1    0    0    0  501 -0.00000000000E+00 -0.00000000000E+00 -0.57913154088E+03  0.57913154088E+03  0.00000000000E+00 0.  1.
         23    2    1    2    0    0 -0.13961983990E+02 -0.37314212476E+02 -0.98478714682E+02  0.14064701702E+03  0.92175043811E+02 0.  0.
          5    1    1    2  502    0  0.21535115770E+02  0.12296801504E+03 -0.11934213858E+03  0.17275680124E+03  0.41800000000E+01 0. -1.
         -5    1    1    2    0  502 -0.75731317799E+01 -0.85653802567E+02 -0.30760936093E+03  0.31942904932E+03  0.41800000000E+01 0.  1.
        -11    1    3    3    0    0 -0.42172260050E+02 -0.53260359565E+02 -0.64080853767E+02  0.93389085220E+02  0.00000000000E+00 0.  1.
         11    1    3    3    0    0  0.28210276061E+02  0.15946147090E+02 -0.34397860915E+02  0.47257931799E+02  0.00000000000E+00 0. -1.
</event>
<event>
 7    1  0.6584658E-006  0.1179919E+03  0.7561462E-02  0.1246447E+00
          1   -1    0    0  501    0  0.00000000000E+00  0.00000000000E+00  0.83918239809E+03  0.83918239809E+03  0.00000000000E+00 0. -1.
         -1   -1    0    0    0  501 -0.00000000000E+00 -0.00000000000E+00 -0.18470056684E+02  0.18470056684E+02  0.00000000000E+00 0.  1.
         23    2    1    2    0    0  0.54180187245E+02  0.26336658458E+02  0.32511983501E+03  0.34298024009E+03  0.91123134847E+02 0.  0.
          5    1    1    2  502    0 -0.88298525834E+02 -0.59488936159E+00  0.40334880738E+03  0.41292216746E+03  0.41800000000E+01 0.  1.
         -5    1    1    2    0  502  0.34118338588E+02 -0.25741769097E+02  0.92243699010E+02  0.10175004723E+03  0.41800000000E+01 0.  1.
        -11    1    3    3    0    0  0.76390254937E+02  0.99409780360E+01  0.18913094368E+03  0.20421755054E+03  0.00000000000E+00 0.  1.
         11    1    3    3    0    0 -0.22210067692E+02  0.16395680422E+02  0.13598889133E+03  0.13876268955E+03  0.00000000000E+00 0. -1.
</event>
<event>
 7    1  0.6584658E-006  0.1434754E+03  0.7561462E-02  0.1208728E+00
          2   -1    0    0  501    0  0.00000000000E+00  0.00000000000E+00  0.41205355923E+03  0.41205355923E+03  0.00000000000E+00 0. -1.
         -2   -1    0    0    0  501 -0.00000000000E+00 -0.00000000000E+00 -0.94373702922E+02  0.94373702922E+02  0.00000000000E+00 0.  1.
         23    2    1    2    0    0  0.57412342208E+02 -0.84733721025E+02  0.31641358983E+03  0.34479796700E+03  0.91060955956E+02 0.  0.
          5    1    1    2  502    0  0.21774948462E+02  0.76846114682E+02  0.13164503852E+02  0.81057080406E+02  0.41800000000E+01 0. -1.
         -5    1    1    2    0  502 -0.79187290670E+02  0.78876063433E+01 -0.11898237373E+02  0.80572214752E+02  0.41800000000E+01 0. -1.
        -11    1    3    3    0    0 -0.62533760568E+01 -0.57825120585E+02  0.21001338373E+03  0.21791849538E+03  0.00000000000E+00 0. -1.
         11    1    3    3    0    0  0.63665718265E+02 -0.26908600440E+02  0.10640020610E+03  0.12687947162E+03  0.00000000000E+00 0.  1.
</event>
<event>
 7    1  0.6584658E-006  0.9749615E+02  0.7561462E-02  0.1285651E+00
         -1   -1    0    0    0  501 -0.00000000000E+00  0.00000000000E+00  0.34882818197E+02  0.34882818197E+02  0.00000000000E+00 0.  1.
          1   -1    0    0  501    0  0.00000000000E+00 -0.00000000000E+00 -0.41354441878E+03  0.41354441878E+03  0.00000000000E+00 0. -1.
         23    2    1    2    0    0 -0.16452801010E+02  0.16002813575E+02 -0.24928026808E+03  0.26700835204E+03  0.92876387198E+02 0.  0.
          5    1    1    2  502    0 -0.27576285687E+02  0.37179511642E+02 -0.91324152890E+02  0.10247117116E+03  0.41800000000E+01 0.  1.
         -5    1    1    2    0  502  0.44029086697E+02 -0.53182325216E+02 -0.38057179612E+02  0.78947713778E+02  0.41800000000E+01 0.  1.
        -11    1    3    3    0    0 -0.12579257123E+02 -0.30337822209E+02 -0.36053212849E+02  0.48769409704E+02  0.00000000000E+00 0.  1.
         11    1    3    3    0    0 -0.38735438874E+01  0.46340635784E+02 -0.21322705523E+03  0.21823894233E+03  0.00000000000E+00 0. -1.
</event>
<event>
 7    1  0.6584658E-006  0.1524760E+03  0.7561462E-02  0.1197463E+00
          1   -1    0    0  501    0  0.00000000000E+00  0.00000000000E+00  0.26211608917E+03  0.26211608917E+03  0.00000000000E+00 0. -1.
         -1   -1    0    0    0  501 -0.00000000000E+00 -0.00000000000E+00 -0.13151008077E+03  0.13151008077E+03  0.00000000000E+00 0.  1.
         23    2    1    2    0    0 -0.12353665014E+03 -0.81227709569E+02  0.89821292672E+02  0.19571057450E+03  0.91517865066E+02 0.  0.
          5    1    1    2  502    0  0.66008964715E+02  0.61286466319E+02  0.83921234619E+02  0.12318060073E+03  0.41800000000E+01 0. -1.
         -5    1    1    2    0  502  0.57527685420E+02  0.19941243251E+02 -0.43136518885E+02  0.74734994706E+02  0.41800000000E+01 0. -1.
        -11    1    3    3    0    0 -0.15026033599E+02 -0.30435689403E+02 -0.14440697128E+02  0.36886943607E+02  0.00000000000E+00 0. -1.
         11    1    3    3    0    0 -0.10851061654E+03 -0.50792020166E+02  0.10426198980E+03  0.15882363090E+03  0.00000000000E+00 0.  1.
</event>
<event>
 7    1  0.6584658E-006  0.2251978E+03  0.7561462E-02  0.1130066E+00
         -2   -1    0    0    0  501 -0.00000000000E+00  0.00000000000E+00  0.97228127380E+02  0.97228127380E+02  0.00000000000E+00 0.  1.
          2   -1    0    0  501    0  0.00000000000E+00 -0.00000000000E+00 -0.53309918047E+03  0.53309918047E+03  0.00000000000E+00 0. -1.
         23    2    1    2    0    0 -0.49913209248E+02 -0.19148600030E+03 -0.25022532944E+03  0.33155462044E+03  0.90319068150E+02 0.  0.
          5    1    1    2  502    0 -0.37599532653E+02  0.97808156024E+02 -0.70118624017E+02  0.12615171055E+03  0.41800000000E+01 0.  1.
         -5    1    1    2    0  502  0.87512741901E+02  0.93677844275E+02 -0.11552709963E+03  0.17262097686E+03  0.41800000000E+01 0.  1.
        -11    1    3    3    0    0  0.20818208922E+02 -0.97146890736E+02 -0.10639025796E+03  0.14556717759E+03  0.00000000000E+00 0.  1.
         11    1    3    3    0    0 -0.70731418170E+02 -0.94339109564E+02 -0.14383507148E+03  0.18598744285E+03  0.00000000000E+00 0. -1.
</event>
<event>
 7    1  0.6584658E-006  0.9698543E+02  0.7561462E-02  0.1286766E+00
          2   -1    0    0  501    0  0.00000000000E+00  0.00000000000E+00  0.29834086193E+03  0.29834086193E+03  0.00000000000E+00 0. -1.
         -2   -1    0    0    0  501 -0.00000000000E+00 -0.00000000000E+00 -0.38153227964E+02  0.38153227964E+02  0.00000000000E+00 0.  1.
         23    2    1    2    0    0 -0.10544273507E+02 -0.13289941165E+02  0.13641919091E+03  0.15970604251E+03  0.81289729524E+02 0.  0.
          5    1    1    2  502    0 -0.96333072657E+01  0.67352706160E+02  0.72038244599E+02  0.99177460751E+02  0.41800000000E+01 0. -1.
         -5    1    1    2    0  502  0.20177580773E+02 -0.54062764995E+02  0.51730198450E+02  0.77610586627E+02  0.41800000000E+01 0. -1.
        -11    1    3    3    0    0  0.35116725247E+01 -0.38726829058E+02  0.29229116882E+02  0.48646072878E+02  0.00000000000E+00 0.  1.
         11    1    3    3    0    0 -0.14055946032E+02  0.25436887893E+02  0.10719007403E+03  0.11105996964E+03  0.00000000000E+00 0. -1.
</event>
<event>
 7    1  0.6933429E-006  0.1938191E+03  0.7561462E-02  0.1155061E+00
          1   -1    0    0  501    0  0.00000000000E+00  0.00000000000E+00  0.19397077728E+03  0.19397077728E+03  0.00000000000E+00 0. -1.
         -1   -1    0    0    0  501 -0.00000000000E+00 -0.00000000000E+00 -0.25109951109E+03  0.25109951109E+03  0.00000000000E+00 0.  1.
         23    2    1    2    0    0 -0.13789688707E+03 -0.92390755111E+02  0.69018237375E+02  0.20194052250E+03  0.92004643602E+02 0.  0.
          5    1    1    2  502    0  0.88722841421E+02  0.11412907957E+03 -0.57014724678E+02  0.15545205249E+03  0.41800000000E+01 0. -1.
         -5    1    1    2    0  502  0.49174045652E+02 -0.21738324461E+02 -0.69132246507E+02  0.87677713378E+02  0.41800000000E+01 0. -1.
        -11    1    3    3    0    0 -0.53401226485E+02 -0.89894672910E+02  0.46677883718E+02  0.11450575547E+03  0.00000000000E+00 0.  1.
         11    1    3    3    0    0 -0.84495660588E+02 -0.24960822015E+01  0.22340353658E+02  0.87434767033E+02  0.00000000000E+00 0. -1.
</event>
<event>
 7    1  0.6584658E-006  0.9828734E+02  0.7561462E-02  0.1283939E+00
          1   -1    0    0  501    0  0.00000000000E+00  0.00000000000E+00  0.43792866949E+03  0.43792866949E+03  0.00000000000E+00 0. -1.
         -1   -1    0    0    0  501 -0.00000000000E+00 -0.00000000000E+00 -0.44959693858E+02  0.44959693858E+02  0.00000000000E+00 0.  1.
         23    2    1    2    0    0  0.83121412445E+02 -0.30728670891E+02  0.20536051281E+03  0.24061266391E+03  0.88702273876E+02 0.  0.
          5    1    1    2  502    0 -0.47119169365E+02  0.36623315677E+02  0.96858856993E+01  0.60603400520E+02  0.41800000000E+01 0. -1.
         -5    1    1    2    0  502 -0.36002243080E+02 -0.58946447860E+01  0.17792257712E+03  0.18167229892E+03  0.41800000000E+01 0. -1.
        -11    1    3    3    0    0  0.15984100296E+02 -0.28713216582E+02  0.10497400843E+02  0.34498343340E+02  0.00000000000E+00 0.  1.
         11    1    3    3    0    0  0.67137312149E+02 -0.20154543095E+01  0.19486311197E+03  0.20611432057E+03  0.00000000000E+00 0. -1.
</event>
<event>
 7    1  0.6584658E-006  0.1992887E+03  0.7561462E-02  0.1150341E+00
         -3   -1    0    0    0  501 -0.00000000000E+00  0.00000000000E+00  0.33029184315E+03  0.33029184315E+03  0.00000000000E+00 0.  1.
          3   -1    0    0  501    0  0.00000000000E+00 -0.00000000000E+00 -0.14487005567E+03  0.14487005567E+03  0.00000000000E+00 0. -1.
         23    2    1    2    0    0  0.18845591837E+03  0.24732077628E+02  0.67716311990E+02  0.21897951967E+03  0.85083619405E+02 0.  0.
          5    1    1    2  502    0 -0.14814652272E+02 -0.23841772561E+02 -0.19837442544E+02  0.34625143573E+02  0.41800000000E+01 0. -1.
         -5    1    1    2    0  502 -0.17364126610E+03 -0.89030506616E+00  0.13754291803E+03  0.22155723558E+03  0.41800000000E+01 0. -1.
        -11    1    3    3    0    0  0.11159016628E+03  0.39226678196E+02  0.44358372272E+01  0.11836711598E+03  0.00000000000E+00 0.  1.
         11    1    3    3    0    0  0.76865752095E+02 -0.14494600569E+02  0.63280474763E+02  0.10061240369E+03  0.00000000000E+00 0. -1.
</event>
<event>
 7    1  0.6584658E-006  0.1084263E+03  0.7561462E-02  0.1263512E+00
          4   -1    0    0  501    0  0.00000000000E+00  0.00000000000E+00  0.19685349561E+03  0.19685349561E+03  0.00000000000E+00 0. -1.
         -4   -1    0    0    0  501 -0.00000000000E+00 -0.00000000000E+00 -0.63608368861E+02  0.63608368861E+02  0.00000000000E+00 0.  1.
         23    2    1    2    0    0 -0.42357612887E+01  0.31013706163E+02  0.74062059219E+02  0.11859434382E+03  0.87175903362E+02 0.  0.
          5    1    1    2  502    0  0.98159549434E+01  0.46330571140E+02  0.39354649504E+02  0.61718195301E+02  0.41800000000E+01 0.  1.
         -5    1    1    2    0  502 -0.55801936547E+01 -0.77344277303E+02  0.19828418029E+02  0.80149325351E+02  0.41800000000E+01 0.  1.
        -11    1    3    3    0    0  0.36962910483E+02  0.34163141504E+02  0.49131350858E+02  0.70336808471E+02  0.00000000000E+00 0. -1.
         11    1    3    3    0    0 -0.41198671772E+02 -0.31494353409E+01  0.24930708361E+02  0.48257535350E+02  0.00000000000E+00 0.  1.
</event>
<event>
 7    1  0.6584658E-006  0.1211716E+03  0.7561462E-02  0.1241177E+00
         -2   -1    0    0    0  501 -0.00000000000E+00  0.00000000000E+00  0.68579501700E+02  0.68579501700E+02  0.00000000000E+00 0.  1.
          2   -1    0    0  501    0  0.00000000000E+00 -0.00000000000E+00 -0.29108012821E+03  0.29108012821E+03  0.00000000000E+00 0. -1.
         23    2    1    2    0    0  0.55006732735E+02  0.67569318388E+02 -0.82848731250E+02  0.15291503693E+03  0.94486733543E+02 0.  0.
          5    1    1    2  502    0  0.15766751663E+02  0.27905060888E+02 -0.41162284654E+02  0.52336306319E+02  0.41800000000E+01 0.  1.
         -5    1    1    2    0  502 -0.70773484398E+02 -0.95474379276E+02 -0.98489610602E+02  0.15440828666E+03  0.41800000000E+01 0.  1.
        -11    1    3    3    0    0  0.69933097624E+01  0.28071312690E+02  0.18267598459E+02  0.34214180262E+02  0.00000000000E+00 0.  1.
         11    1    3    3    0    0  0.48013422973E+02  0.39498005699E+02 -0.10111632971E+03  0.11870085667E+03  0.00000000000E+00 0. -1.
</event>
<event>
 7    1  0.6584658E-006  0.1019853E+03  0.7561462E-02  0.1276176E+00
          1   -1    0    0  501    0  0.00000000000E+00  0.00000000000E+00  0.85726622079E+03  0.85726622079E+03  0.00000000000E+00 0. -1.
         -1   -1    0    0    0  501 -0.00000000000E+00 -0.00000000000E+00 -0.20587873106E+02  0.20587873106E+02  0.00000000000E+00 0.  1.
         23    2    1    2    0    0  0.73606822190E+02  0.76672061758E+01  0.42347977991E+03  0.43983923182E+03  0.92987502040E+02 0.  0.
          5    1    1    2  502    0 -0.30706316876E+02  0.23688572082E+02  0.36203756648E+03  0.36413280309E+03  0.41800000000E+01 0.  1.
         -5    1    1    2    0  502 -0.42900505314E+02 -0.31355778258E+02  0.51161001303E+02  0.73882058991E+02  0.41800000000E+01 0.  1.
        -11    1    3    3    0    0  0.43523335562E+02 -0.37461704240E+02  0.14182219322E+03  0.15300717144E+03  0.00000000000E+00 0.  1.
         11    1    3    3    0    0  0.30083486628E+02  0.45128910416E+02  0.28165758669E+03  0.28683206038E+03  0.00000000000E+00 0. -1.
</event>
<event>
 7    1  0.6584658E-006  0.1250948E+03  0.7561462E-02  0.1234921E+00
         -1   -1    0    0    0  501 -0.00000000000E+00  0.00000000000E+00  0.85785135966E+03  0.85785135966E+03  0.00000000000E+00 0.  1.
          1   -1    0    0  501    0  0.00000000000E+00 -0.00000000000E+00 -0.27263918563E+02  0.27263918563E+02  0.00000000000E+00 0. -1.
         23    2    1    2    0    0 -0.71330497228E+02  0.23733747661E+02  0.26310021135E+03  0.28562259030E+03  0.81897571794E+02 0.  0.
          5    1    1    2  502    0  0.24479883193E+02 -0.76846219660E+02  0.10959329460E+03  0.13613511222E+03  0.41800000000E+01 0. -1.
         -5    1    1    2    0  502  0.46850614034E+02  0.53112471998E+02  0.45789393515E+03  0.46335757570E+03  0.41800000000E+01 0.  1.
        -11    1    3    3    0    0 -0.43709817522E+02 -0.18951621834E+02  0.61973438976E+02  0.78169170755E+02  0.00000000000E+00 0.  1.
         11    1    3    3    0    0 -0.27620679705E+02  0.42685369495E+02  0.20112677237E+03  0.20745341955E+03  0.00000000000E+00 0. -1.
</event>
<event>
 7    1  0.6584658E-006  0.9239604E+02  0.7561462E-02  0.1297151E+00
         -1   -1    0    0    0  501 -0.00000000000E+00  0.00000000000E+00  0.65518432211E+02  0.65518432211E+02  0.00000000000E+00 0.  1.
          1   -1    0    0  501    0  0.00000000000E+00 -0.00000000000E+00 -0.25813718557E+03  0.25813718557E+03  0.00000000000E+00 0. -1.
         23    2    1    2    0    0  0.59461318408E+02 -0.10903144977E+02 -0.13644089691E+03  0.17379187924E+03  0.89067232922E+02 0.  0.
          5    1    1    2  502    0 -0.60681429334E+02  0.22446336632E+02  0.23706054161E+02  0.69032769741E+02  0.41800000000E+01 0. -1.
         -5    1    1    2    0  502  0.12201109260E+01 -0.11543191655E+02 -0.79883910608E+02  0.80830968807E+02  0.41800000000E+01 0. -1.
        -11    1    3    3    0    0 -0.13241029718E+02  0.23665428274E+02 -0.32765763513E+02  0.42532018785E+02  0.00000000000E+00 0. -1.
         11    1    3    3    0    0  0.72702348126E+02 -0.34568573251E+02 -0.10367513340E+03  0.13125986045E+03  0.00000000000E+00 0.  1.
</event>
<event>
 7    1  0.6584658E-006  0.1914547E+03  0.7561462E-02  0.1157156E+00
          4   -1    0    0  501    0  0.00000000000E+00  0.00000000000E+00  0.20140704624E+03  0.20140704624E+03  0.00000000000E+00 0. -1.
         -4   -1    0    0    0  501 -0.00000000000E+00 -0.00000000000E+00 -0.40826281868E+03  0.40826281868E+03  0.00000000000E+00 0.  1.
         23    2    1    2    0    0  0.62676579096E+02 -0.16023032786E+03  0.11312404076E+03  0.22543444371E+03  0.91768885134E+02 0.  0.
          5    1    1    2  502    0 -0.66979679602E+02  0.61835608683E+02 -0.24171443688E+03  0.25836652526E+03  0.41800000000E+01 0. -1.
         -5    1    1    2    0  502  0.43031005053E+01  0.98394719181E+02 -0.78265376328E+02  0.12586889595E+03  0.41800000000E+01 0. -1.
        -11    1    3    3    0    0 -0.20760520462E+02 -0.54964304751E+02  0.20315546780E+02  0.62167479019E+02  0.00000000000E+00 0. -1.
         11    1    3    3    0    0  0.83437099559E+02 -0.10526602311E+03  0.92808493984E+02  0.16326696469E+03  0.00000000000E+00 0.  1.
</event>
<event>
 7    1  0.6584658E-006  0.9810542E+02  0.7561462E-02  0.1284331E+00
         -2   -1    0    0    0  501 -0.00000000000E+00  0.00000000000E+00  0.17589747405E+03  0.17589747405E+03  0.00000000000E+00 0.  1.
          2   -1    0    0  501    0  0.00000000000E+00 -0.00000000000E+00 -0.12227725536E+03  0.12227725536E+03  0.00000000000E+00 0. -1.
         23    2    1    2    0    0  0.51942883328E+02 -0.68492389154E+02 -0.25908241395E+02  0.12682168617E+03  0.89572499183E+02 0.  0.
          5    1    1    2  502    0 -0.48002106142E+02  0.67466925566E+02  0.11144866694E+03  0.13890380125E+03  0.41800000000E+01 0. -1.
         -5    1    1    2    0  502 -0.39407771862E+01  0.10254635877E+01 -0.31920206849E+02  0.32449241990E+02  0.41800000000E+01 0. -1.
        -11    1    3    3    0    0 -0.14372217003E+02 -0.38921999804E+01  0.18824887232E+02  0.24001796215E+02  0.00000000000E+00 0.  1.
         11    1    3    3    0    0  0.66315100331E+02 -0.64600189174E+02 -0.44733128627E+02  0.10281988995E+03  0.00000000000E+00 0. -1.
</event>
<event>
 7    1  0.6584658E-006  0.9196891E+02  0.7561462E-02  0.1298153E+00
          1   -1    0    0  501    0  0.00000000000E+00  0.00000000000E+00  0.11686812828E+03  0.11686812828E+03  0.00000000000E+00 0. -1.
         -1   -1    0    0    0  501 -0.00000000000E+00 -0.00000000000E+00 -0.11649756176E+03  0.11649756176E+03  0.00000000000E+00 0.  1.
         23    2    1    2    0    0  0.39503379459E+02  0.89693101586E+01  0.31377996439E+00  0.10188169548E+03  0.93481634043E+02 0.  0.
          5    1    1    2  502    0  0.36856199709E+02 -0.31975359662E+02  0.12792310714E+02  0.50615399790E+02  0.41800000000E+01 0.  1.
         -5    1    1    2    0  502 -0.76359579168E+02  0.23006049504E+02 -0.12735524162E+02  0.80868594770E+02  0.41800000000E+01 0.  1.
        -11    1    3    3    0    0  0.19262193489E+02  0.23355065349E+02 -0.42623559608E+02  0.52280579655E+02  0.00000000000E+00 0.  1.
         11    1    3    3    0    0  0.20241185970E+02 -0.14385755190E+02  0.42937339573E+02  0.49601115828E+02  0.00000000000E+00 0. -1.
</event>
<event>
 7    1  0.6584658E-006  0.1242843E+03  0.7561462E-02  0.1236192E+00
         -2   -1    0    0    0  501 -0.00000000000E+00  0.00000000000E+00  0.37643650897E+03  0.37643650897E+03  0.00000000000E+00 0.  1.
          2   -1    0    0  501    0  0.00000000000E+00 -0.00000000000E+00 -0.53026911293E+02  0.53026911293E+02  0.00000000000E+00 0. -1.
         23    2    1    2    0    0 -0.63992871563E+02  0.34069076343E+02  0.65256790193E+02  0.13357969617E+03  0.91264982276E+02 0.  0.
          5    1    1    2  502    0  0.89973779853E+02  0.32429786231E+01  0.11801247363E+03  0.14849314564E+03  0.41800000000E+01 0.  1.
         -5    1    1    2    0  502 -0.25980908290E+02 -0.37312054966E+02  0.14014033385E+03  0.14739057844E+03  0.41800000000E+01 0.  1.
        -11    1    3    3    0    0 -0.43983971560E+02 -0.24876969752E+02  0.46227201457E+02  0.68486550014E+02  0.00000000000E+00 0.  1.
         11    1    3    3    0    0 -0.20008900003E+02  0.58946046095E+02  0.19029588735E+02  0.65093146160E+02  0.00000000000E+00 0. -1.
</event>
<event>
 7    1  0.6584658E-006  0.8362826E+02  0.7561462E-02  0.1319059E+00
         -2   -1    0    0    0  501 -0.00000000000E+00  0.00000000000E+00  0.19403217932E+03  0.19403217932E+03  0.00000000000E+00 0.  1.
          2   -1    0    0  501    0  0.00000000000E+00 -0.00000000000E+00 -0.88968396109E+02  0.88968396109E+02  0.00000000000E+00 0. -1.
         23    2    1    2    0    0 -0.19320219161E+01 -0.54289735297E+02 -0.32359934822E+01  0.10885367843E+03  0.94273769349E+02 0.  0.
          5    1    1    2  502    0 -0.78719729113E+01  0.26253580174E+01 -0.27198609217E+02  0.28741906784E+02  0.41800000000E+01 0. -1.
         -5    1    1    2    0  502  0.98039948273E+01  0.51664377280E+02  0.13549838591E+03  0.14540499021E+03  0.41800000000E+01 0. -1.
        -11    1    3    3    0    0 -0.12989349210E+02 -0.77987714973E+02  0.97415349349E+01  0.79659929591E+02  0.00000000000E+00 0.  1.
         11    1    3    3    0    0  0.11057327294E+02  0.23697979676E+02 -0.12977528417E+02  0.29193748842E+02  0.00000000000E+00 0. -1.
</event>
<event>
 7    1  0.6584658E-006  0.1456219E+03  0.7561462E-02  0.1205958E+00
         -1   -1    0    0    0  501 -0.00000000000E+00  0.00000000000E+00  0.11508864899E+03  0.11508864899E+03  0.00000000000E+00 0.  1.
          1   -1    0    0  501    0  0.00000000000E+00 -0.00000000000E+00 -0.31069113989E+03  0.31069113989E+03  0.00000000000E+00 0. -1.
         23    2    1    2    0    0 -0.10120442229E+03 -0.62959340688E+02 -0.19895248069E+03  0.25296398697E+03  0.10100730399E+03 0.  0.
          5    1    1    2  502    0  0.81543414115E+02  0.11930975626E+02  0.53627903092E+02  0.98412910510E+02  0.41800000000E+01 0. -1.
         -5    1    1    2    0  502  0.19661008175E+02  0.51028365062E+02 -0.50277913309E+02  0.74402891409E+02  0.41800000000E+01 0. -1.
        -11    1    3    3    0    0 -0.95651019085E+02 -0.86945041483E+02 -0.14886846447E+03  0.19715571867E+03  0.00000000000E+00 0.  1.
         11    1    3    3    0    0 -0.55534032048E+01  0.23985700795E+02 -0.50084016219E+02  0.55808268298E+02  0.00000000000E+00 0. -1.
</event>
<event>
 7    1  0.6584658E-006  0.1578868E+03  0.7561462E-02  0.1191103E+00
          1   -1    0    0  501    0  0.00000000000E+00  0.00000000000E+00  0.77335063086E+03  0.77335063086E+03  0.00000000000E+00 0. -1.
         -1   -1    0    0    0  501 -0.00000000000E+00 -0.00000000000E+00 -0.41492369642E+02  0.41492369642E+02  0.00000000000E+00 0.  1.
         23    2    1    2    0    0  0.13130304683E+03  0.21195742013E+02  0.46173634026E+03  0.48879976680E+03  0.89638242507E+02 0.  0.
          5    1    1    2  502    0  0.25399443274E+01 -0.46120949384E+02  0.68491302764E+02  0.82717133918E+02  0.41800000000E+01 0.  1.
         -5    1    1    2    0  502 -0.13384299115E+03  0.24925207370E+02  0.20163061820E+03  0.24332609979E+03  0.41800000000E+01 0.  1.
        -11    1    3    3    0    0  0.90202815277E+02  0.17829065486E+02  0.42067087504E+03  0.43060237873E+03  0.00000000000E+00 0. -1.
         11    1    3    3    0    0  0.41100231550E+02  0.33666765273E+01  0.41065465219E+02  0.58197388068E+02  0.00000000000E+00 0.  1.
</event>
<event>
 7    1  0.6584658E-006  0.1521279E+03  0.7561462E-02  0.1197882E+00
          2   -1    0    0  501    0  0.00000000000E+00  0.00000000000E+00  0.10456499086E+04  0.10456499086E+04  0.00000000000E+00 0. -1.
         -2   -1    0    0    0  501 -0.00000000000E+00 -0.00000000000E+00 -0.25598487911E+02  0.25598487911E+02  0.00000000000E+00 0.  1.
         23    2    1    2    0    0 -0.29211195178E+02  0.11954380975E+03  0.55435289050E+03  0.57358616362E+03  0.80931721293E+02 0.  0.
          5    1    1    2  502    0  0.25339514680E+02  0.10248935762E+02  0.19999109311E+03  0.20189363886E+03  0.41800000000E+01 0. -1.
         -5    1    1    2    0  502  0.38716804979E+01 -0.12979274551E+03  0.26570743707E+03  0.29576859403E+03  0.41800000000E+01 0. -1.
        -11    1    3    3    0    0 -0.50579328206E+02  0.40471968049E+02  0.27080065593E+03  0.27844073677E+03  0.00000000000E+00 0. -1.
         11    1    3    3    0    0  0.21368133029E+02  0.79071841704E+02  0.28355223457E+03  0.29514542685E+03  0.00000000000E+00 0.  1.
</event>
<event>
 7    1  0.6584658E-006  0.4876369E+02  0.7561462E-02  0.1452126E+00
          3   -1    0    0  501    0  0.00000000000E+00  0.00000000000E+00  0.39707249764E+02  0.39707249764E+02  0.00000000000E+00 0. -1.
         -3   -1    0    0    0  501 -0.00000000000E+00 -0.00000000000E+00 -0.34029778609E+03  0.34029778609E+03  0.00000000000E+00 0.  1.
         23    2    1    2    0    0 -0.15786207931E+02  0.15341893026E+02 -0.73273686000E+02  0.11960897613E+03  0.91938545060E+02 0.  0.
          5    1    1    2  502    0 -0.95947052519E+00 -0.45501692733E+01 -0.23753667679E+03  0.23761895935E+03  0.41800000000E+01 0.  1.
         -5    1    1    2    0  502  0.16745678456E+02 -0.10791723753E+02  0.10219826462E+02  0.22777100374E+02  0.41800000000E+01 0.  1.
        -11    1    3    3    0    0 -0.12981878131E+02 -0.26222540847E+02 -0.72236034608E+02  0.77937125327E+02  0.00000000000E+00 0.  1.
         11    1    3    3    0    0 -0.28043298000E+01  0.41564433873E+02 -0.10376513919E+01  0.41671850801E+02  0.00000000000E+00 0. -1.
</event>
<event>
 7    1  0.3651589E-005  0.1891311E+03  0.7561462E-02  0.1159247E+00
          2   -1    0    0  501    0  0.00000000000E+00  0.00000000000E+00  0.14600460800E+04  0.14600460800E+04  0.00000000000E+00 0. -1.
         -2   -1    0    0    0  501 -0.00000000000E+00 -0.00000000000E+00 -0.24549973579E+02  0.24549973579E+02  0.00000000000E+00 0.  1.
         23    2    1    2    0    0  0.67533982006E+02  0.13886523023E+03  0.70171985428E+03  0.72438598270E+03  0.92086411265E+02 0.  0.
          5    1    1    2  502    0  0.34288741868E+02 -0.13904321843E+02  0.12355140284E+03  0.12904057319E+03  0.41800000000E+01 0.  1.
         -5    1    1    2    0  502 -0.10182272387E+03 -0.12496090838E+03  0.61022484927E+03  0.63116949767E+03  0.41800000000E+01 0.  1.
        -11    1    3    3    0    0  0.71177435484E+02  0.41593497095E+02  0.32564656587E+03  0.33591953230E+03  0.00000000000E+00 0.  1.
         11    1    3    3    0    0 -0.36434534781E+01  0.97271733130E+02  0.37607328842E+03  0.38846645039E+03  0.00000000000E+00 0. -1.
</event>
<event>
 7    1  0.6584658E-006  0.1600918E+03  0.7561462E-02  0.1188593E+00
         -1   -1    0    0    0  501 -0.00000000000E+00  0.00000000000E+00  0.25686836188E+03  0.25686836188E+03  0.00000000000E+00 0.  1.
          1   -1    0    0  501    0  0.00000000000E+00 -0.00000000000E+00 -0.11516468992E+03  0.11516468992E+03  0.00000000000E+00 0. -1.
         23    2    1    2    0    0 -0.11287250139E+03  0.70408053843E+02  0.48982110084E+02  0.16722841681E+03  0.88705133248E+02 0.  0.
          5    1    1    2  502    0  0.33676207807E+02 -0.93157270584E+02  0.61022061141E+02  0.11641962198E+03  0.41800000000E+01 0. -1.
         -5    1    1    2    0  502  0.79196293581E+02  0.22749216741E+02  0.31699500730E+02  0.88385013016E+02  0.41800000000E+01 0. -1.
        -11    1    3    3    0    0 -0.80408197742E+02  0.69136593639E+02 -0.28193522670E+01  0.10608155161E+03  0.00000000000E+00 0. -1.
         11    1    3    3    0    0 -0.32464303646E+02  0.12714602037E+01  0.51801462351E+02  0.61146865202E+02  0.00000000000E+00 0.  1.
</event>
<event>
 7    1  0.6584658E-006  0.2696551E+03  0.7561462E-02  0.1101477E+00
         -2   -1    0    0    0  501 -0.00000000000E+00  0.00000000000E+00  0.56569729682E+02  0.56569729682E+02  0.00000000000E+00 0.  1.
          2   -1    0    0  501    0  0.00000000000E+00 -0.00000000000E+00 -0.13498869768E+04  0.13498869768E+04  0.00000000000E+00 0. -1.
         23    2    1    2    0    0 -0.13802973518E+02  0.35474611196E+02 -0.35983066485E+03  0.37288613775E+03  0.90094363001E+02 0.  0.
          5    1    1    2  502    0 -0.21182409845E+03 -0.48245006495E+02 -0.43602430819E+03  0.48716701353E+03  0.41800000000E+01 0. -1.
         -5    1    1    2    0  502  0.22562707197E+03  0.12770395300E+02 -0.49746227403E+03  0.54640355515E+03  0.41800000000E+01 0.  1.
        -11    1    3    3    0    0  0.13705922059E+02 -0.25584594326E+02 -0.14432494299E+03  0.14721451334E+03  0.00000000000E+00 0.  1.
         11    1    3    3    0    0 -0.27508895577E+02  0.61059205521E+02 -0.21550572185E+03  0.22567162441E+03  0.00000000000E+00 0. -1.
</event>
<event>
 7    1  0.6584658E-006  0.1173835E+03  0.7561462E-02  0.1247477E+00
          1   -1    0    0  501    0  0.00000000000E+00  0.00000000000E+00  0.30718272487E+02  0.30718272487E+02  0.00000000000E+00 0. -1.
         -1   -1    0    0    0  501 -0.00000000000E+00 -0.00000000000E+00 -0.50818927242E+03  0.50818927242E+03  0.00000000000E+00 0.  1.
         23    2    1    2    0    0 -0.96358739706E+00  0.52389434152E+02 -0.18597455725E+03  0.21740550185E+03  0.99664612469E+02 0.  0.
          5    1    1    2  502    0 -0.45778774516E+02 -0.64945725487E+02 -0.22845144503E+03  0.24191150984E+03  0.41800000000E+01 0.  1.
         -5    1    1    2    0  502  0.46742361913E+02  0.12556291335E+02 -0.63044997645E+02  0.79590533214E+02  0.41800000000E+01 0.  1.
        -11    1    3    3    0    0 -0.27969828342E+02 -0.16604944905E+02 -0.27999571801E+02  0.42918661603E+02  0.00000000000E+00 0. -1.
         11    1    3    3    0    0  0.27006240945E+02  0.68994379057E+02 -0.15797498545E+03  0.17448684025E+03  0.00000000000E+00 0.  1.
</event>
<event>
 7    1  0.6584658E-006  0.1747538E+03  0.7561462E-02  0.1172979E+00
         -1   -1    0    0    0  501 -0.00000000000E+00  0.00000000000E+00  0.47117849520E+02  0.47117849520E+02  0.00000000000E+00 0.  1.
          1   -1    0    0  501    0  0.00000000000E+00 -0.00000000000E+00 -0.82025493715E+03  0.82025493715E+03  0.00000000000E+00 0. -1.
         23    2    1    2    0    0 -0.42309969259E+02  0.13683843864E+03 -0.53538057768E+03  0.56157619734E+03  0.90667362802E+02 0.  0.
          5    1    1    2  502    0 -0.35620458913E+02 -0.69669955318E+02 -0.15505094106E+03  0.17372675813E+03  0.41800000000E+01 0. -1.
         -5    1    1    2    0  502  0.77930428172E+02 -0.67168483323E+02 -0.82705568895E+02  0.13206983120E+03  0.41800000000E+01 0.  1.
        -11    1    3    3    0    0 -0.69980972117E+02  0.10180209184E+03 -0.36016690419E+03  0.38076397050E+03  0.00000000000E+00 0. -1.
         11    1    3    3    0    0  0.27671002858E+02  0.35036346804E+02 -0.17521367349E+03  0.18081222684E+03  0.00000000000E+00 0.  1.
</event>
<event>
 7    1  0.6584658E-006  0.1198554E+03  0.7561462E-02  0.1243336E+00
          2   -1    0    0  501    0  0.00000000000E+00  0.00000000000E+00  0.42253196623E+03  0.42253196623E+03  0.00000000000E+00 0. -1.
         -2   -1    0    0    0  501 -0.00000000000E+00 -0.00000000000E+00 -0.42706146674E+02  0.42706146674E+02  0.00000000000E+00 0.  1.
         23    2    1    2    0    0 -0.74917342351E+02  0.22678952622E+02  0.21655484777E+03  0.24516696138E+03  0.84165870656E+02 0.  0.
          5    1    1    2  502    0  0.55256300970E+02 -0.70859349082E+02  0.13026994280E+03  0.15830993824E+03  0.41800000000E+01 0.  1.
         -5    1    1    2    0  502  0.19661041382E+02  0.48180396460E+02  0.33001028979E+02  0.61761213273E+02  0.41800000000E+01 0.  1.
        -11    1    3    3    0    0 -0.93180339085E+01  0.30122666832E+02  0.18863008995E+02  0.36742535587E+02  0.00000000000E+00 0.  1.
         11    1    3    3    0    0 -0.65599308443E+02 -0.74437142105E+01  0.19769183878E+03  0.20842442580E+03  0.00000000000E+00 0. -1.
</event>
<event>
 7    1  0.6584658E-006  0.1579324E+03  0.7561462E-02  0.1191051E+00
          1   -1    0    0  501    0  0.00000000000E+00  0.00000000000E+00  0.14701168656E+03  0.14701168656E+03  0.00000000000E+00 0. -1.
         -1   -1    0    0    0  501 -0.00000000000E+00 -0.00000000000E+00 -0.23231995684E+03  0.23231995684E+03  0.00000000000E+00 0.  1.
         23    2    1    2    0    0  0.11350194577E+03  0.90519775261E+02 -0.94492801458E+01  0.17323053043E+03  0.94037260537E+02 0.  0.
          5    1    1    2  502    0 -0.80597969781E+02 -0.96833213900E+02 -0.10299623336E+03  0.16278329317E+03  0.41800000000E+01 0. -1.
         -5    1    1    2    0  502 -0.32903975992E+02  0.63134386396E+01  0.27137243228E+02  0.43317819816E+02  0.41800000000E+01 0. -1.
        -11    1    3    3    0    0  0.98394115337E+02  0.98271940341E+02 -0.34206824229E+02  0.14320922811E+03  0.00000000000E+00 0.  1.
         11    1    3    3    0    0  0.15107830436E+02 -0.77521650808E+01  0.24757544083E+02  0.30021302320E+02  0.00000000000E+00 0. -1.
</event>
<event>
 7    1  0.6584658E-006  0.1060433E+03  0.7561462E-02  0.1268078E+00
         -2   -1    0    0    0  501 -0.00000000000E+00  0.00000000000E+00  0.54500074971E+02  0.54500074971E+02  0.00000000000E+00 0.  1.
          2   -1    0    0  501    0  0.00000000000E+00 -0.00000000000E+00 -0.33049886455E+03  0.33049886455E+03  0.00000000000E+00 0. -1.
         23    2    1    2    0    0  0.69918272819E+02 -0.26245554539E+02 -0.18916405790E+03  0.21537630389E+03  0.70897936983E+02 0.  0.
          5    1    1    2  502    0 -0.16278422477E+02  0.57041890627E+02  0.40547832403E+01  0.59604345410E+02  0.41800000000E+01 0. -1.
         -5    1    1    2    0  502 -0.53639850341E+02 -0.30796336088E+02 -0.90889514918E+02  0.11001829022E+03  0.41800000000E+01 0. -1.
        -11    1    3    3    0    0  0.75543075029E+02 -0.13559504401E+02 -0.18590008426E+03  0.20112050535E+03  0.00000000000E+00 0. -1.
         11    1    3    3    0    0 -0.56248022099E+01 -0.12686050138E+02 -0.32639736374E+01  0.14255798536E+02  0.00000000000E+00 0.  1.
</event>
<event>
 7    1  0.6584658E-006  0.1104832E+03  0.7561462E-02  0.1259678E+00
         -3   -1    0    0    0  501 -0.00000000000E+00  0.00000000000E+00  0.24341301355E+03  0.24341301355E+03  0.00000000000E+00 0.  1.
          3   -1    0    0  501    0  0.00000000000E+00 -0.00000000000E+00 -0.11418713258E+03  0.11418713258E+03  0.00000000000E+00 0. -1.
         23    2    1    2    0    0 -0.17185013044E+02  0.64243797243E+02 -0.55500242445E+02  0.12480282449E+03  0.89849195496E+02 0.  0.
          5    1    1    2  502    0  0.21097487077E+01 -0.10084577862E+03  0.12007703191E+03  0.15687666524E+03  0.41800000000E+01 0. -1.
         -5    1    1    2    0  502  0.15075264336E+02  0.36601981379E+02  0.64649091504E+02  0.75920656399E+02  0.41800000000E+01 0. -1.
        -11    1    3    3    0    0 -0.30377525964E+02  0.26809191993E+02  0.15566577398E+02  0.43403285485E+02  0.00000000000E+00 0.  1.
         11    1    3    3    0    0  0.13192512920E+02  0.37434605250E+02 -0.71066819843E+02  0.81399539004E+02  0.00000000000E+00 0. -1.
</event>
<event>
 7    1  0.6584658E-006  0.1101491E+03  0.7561462E-02  0.1260294E+00
         -1   -1    0    0    0  501 -0.00000000000E+00  0.00000000000E+00  0.29448145443E+03  0.29448145443E+03  0.00000000000E+00 0.  1.
          1   -1    0    0  501    0  0.00000000000E+00 -0.00000000000E+00 -0.48045835032E+02  0.48045835032E+02  0.00000000000E+00 0. -1.
         23    2    1    2    0    0 -0.10121623239E+02  0.44535249485E+02  0.74259251129E+02  0.12485802366E+03  0.89382626894E+02 0.  0.
          5    1    1    2  502    0  0.60694798036E+02 -0.19255178824E+02  0.43992712009E+02  0.77507751419E+02  0.41800000000E+01 0.  1.
         -5    1    1    2    0  502 -0.50573174797E+02 -0.25280070662E+02  0.12818365626E+03  0.14016151438E+03  0.41800000000E+01 0.  1.
        -11    1    3    3    0    0 -0.16375694092E+02 -0.25048816101E+02  0.16275351078E+02  0.34066018225E+02  0.00000000000E+00 0.  1.
         11    1    3    3    0    0  0.62540708532E+01  0.69584065586E+02  0.57983900052E+02  0.90792005435E+02  0.00000000000E+00 0. -1.
</event>
<event>
 7    1  0.6584658E-006  0.1768132E+03  0.7561462E-02  0.1170923E+00
          1   -1    0    0  501    0  0.00000000000E+00  0.00000000000E+00  0.25397151935E+03  0.25397151935E+03  0.00000000000E+00 0. -1.
         -1   -1    0    0    0  501 -0.00000000000E+00 -0.00000000000E+00 -0.21241809361E+03  0.21241809361E+03  0.00000000000E+00 0.  1.
         23    2    1    2    0    0  0.15229511714E+03 -0.25177381887E+02  0.15541849275E+03  0.23739069761E+03  0.91497170231E+02 0.  0.
          5    1    1    2  502    0 -0.11359014767E+03  0.74443828016E+02 -0.76463535143E+02  0.15591263510E+03  0.41800000000E+01 0. -1.
         -5    1    1    2    0  502 -0.38704969468E+02 -0.49266446129E+02 -0.37401531856E+02  0.73086280251E+02  0.41800000000E+01 0. -1.
        -11    1    3    3    0    0  0.66174839072E+02 -0.41209143886E+01  0.99652280737E+01  0.67047722051E+02  0.00000000000E+00 0.  1.
         11    1    3    3    0    0  0.86120278066E+02 -0.21056467499E+02  0.14545326467E+03  0.17034297556E+03  0.00000000000E+00 0. -1.
</event>
<event>
 7    1  0.6584658E-006  0.2902556E+03  0.7561462E-02  0.1090216E+00
         -1   -1    0    0    0  501 -0.00000000000E+00  0.00000000000E+00  0.44830436074E+03  0.44830436074E+03  0.00000000000E+00 0.  1.
          1   -1    0    0  501    0  0.00000000000E+00 -0.00000000000E+00 -0.20912443398E+03  0.20912443398E+03  0.00000000000E+00 0. -1.
         23    2    1    2    0    0  0.20194402314E+03 -0.18700952879E+03  0.34173706160E+02  0.29215015557E+03  0.91814589611E+02 0.  0.
          5    1    1    2  502    0 -0.21376217563E+03  0.18405365716E+03  0.17338267179E+03  0.33113296381E+03  0.41800000000E+01 0. -1.
         -5    1    1    2    0  502  0.11818152497E+02  0.29558716333E+01  0.31623548806E+02  0.34145675343E+02  0.41800000000E+01 0. -1.
        -11    1    3    3    0    0  0.16392182575E+03 -0.10376896554E+03  0.47330058613E+02  0.19969601302E+03  0.00000000000E+00 0. -1.
         11    1    3    3    0    0  0.38022197384E+02 -0.83240563252E+02 -0.13156352454E+02  0.92454142548E+02  0.00000000000E+00 0.  1.
</event>
<event>
 7    1  0.6584658E-006  0.8809180E+02  0.7561462E-02  0.1307540E+00
          2   -1    0    0  501    0  0.00000000000E+00  0.00000000000E+00  0.13109813220E+03  0.13109813220E+03  0.00000000000E+00 0. -1.
         -2   -1    0    0    0  501 -0.00000000000E+00 -0.00000000000E+00 -0.10079194136E+03  0.10079194136E+03  0.00000000000E+00 0.  1.
         23    2    1    2    0    0 -0.44319404144E+01  0.22172458183E+01  0.49498078598E+02  0.10510482282E+03  0.92587287037E+02 0.  0.
          5    1    1    2  502    0 -0.34603660224E+02 -0.21678733193E+02  0.37182796313E+02  0.55384235261E+02  0.41800000000E+01 0. -1.
         -5    1    1    2    0  502  0.39035600639E+02  0.19461487375E+02 -0.56374684068E+02  0.71401015482E+02  0.41800000000E+01 0. -1.
        -11    1    3    3    0    0 -0.33548814006E+02 -0.32018532577E+02  0.34225642975E+02  0.57637695883E+02  0.00000000000E+00 0.  1.
         11    1    3    3    0    0  0.29116873591E+02  0.34235778396E+02  0.15272435623E+02  0.47467126940E+02  0.00000000000E+00 0. -1.
</event>
<event>
 7    1  0.9575645E-006  0.1284514E+03  0.7561462E-02  0.1229772E+00
         -3   -1    0    0    0  501 -0.00000000000E+00  0.00000000000E+00  0.41996415818E+03  0.41996415818E+03  0.00000000000E+00 0.  1.
          3   -1    0    0  501    0  0.00000000000E+00 -0.00000000000E+00 -0.54196665384E+02  0.54196665384E+02  0.00000000000E+00 0. -1.
         23    2    1    2    0    0 -0.43316388940E+02 -0.87662393687E+02  0.11297986378E+03  0.17564749184E+03  0.92339519997E+02 0.  0.
          5    1    1    2  502    0  0.50782968372E+02  0.98393443294E+02  0.26027461079E+03  0.28287899354E+03  0.41800000000E+01 0.  1.
         -5    1    1    2    0  502 -0.74665794317E+01 -0.10731049607E+02 -0.74869817843E+01  0.15634338179E+02  0.41800000000E+01 0.  1.
        -11    1    3    3    0    0 -0.67110459498E+02 -0.37556205894E+02  0.80674431004E+02  0.11145692528E+03  0.00000000000E+00 0.  1.
         11    1    3    3    0    0  0.23794070558E+02 -0.50106187793E+02  0.32305432778E+02  0.64190566564E+02  0.00000000000E+00 0. -1.
</event>
<event>
 7    1  0.6584658E-006  0.1048282E+03  0.7561462E-02  0.1270458E+00
         -1   -1    0    0    0  501 -0.00000000000E+00  0.00000000000E+00  0.45683437296E+02  0.45683437296E+02  0.00000000000E+00 0.  1.
          1   -1    0    0  501    0  0.00000000000E+00 -0.00000000000E+00 -0.31552474147E+03  0.31552474147E+03  0.00000000000E+00 0. -1.
         23    2    1    2    0    0 -0.34279897038E+02 -0.76885453546E+01 -0.20538691053E+03  0.22765745332E+03  0.91705550357E+02 0.  0.
          5    1    1    2  502    0  0.61077035132E+02 -0.31540777222E+02 -0.32556142152E+02  0.76174796620E+02  0.41800000000E+01 0. -1.
         -5    1    1    2    0  502 -0.26797138094E+02  0.39229322577E+02 -0.31898251493E+02  0.57375928822E+02  0.41800000000E+01 0.  1.
        -11    1    3    3    0    0 -0.63023823693E+01 -0.45570464814E+02 -0.13784116484E+03  0.14531542936E+03  0.00000000000E+00 0. -1.
         11    1    3    3    0    0 -0.27977514669E+02  0.37881919459E+02 -0.67545745686E+02  0.82342023956E+02  0.00000000000E+00 0.  1.
</event>
<event>
 7    1  0.6584658E-006  0.7984370E+02  0.7561462E-02  0.1329496E+00
          1   -1    0    0  501    0  0.00000000000E+00  0.00000000000E+00  0.15278775362E+03  0.15278775362E+03  0.00000000000E+00 0. -1.
         -1   -1    0    0    0  501 -0.00000000000E+00 -0.00000000000E+00 -0.12202452820E+03  0.12202452820E+03  0.00000000000E+00 0.  1.
         23    2    1    2    0    0 -0.29447122260E+02  0.71963817900E+01  0.90513379209E+02  0.13290920446E+03  0.92483857473E+02 0.  0.
          5    1    1    2  502    0  0.51998744480E+02  0.19122096216E+02 -0.83057412290E+02  0.99927624446E+02  0.41800000000E+01 0. -1.
         -5    1    1    2    0  502 -0.22551622220E+02 -0.26318478006E+02  0.23307258503E+02  0.41975452925E+02  0.41800000000E+01 0. -1.
        -11    1    3    3    0    0 -0.24420724987E+02  0.34047032276E+02  0.38889765581E+01  0.42079642992E+02  0.00000000000E+00 0.  1.
         11    1    3    3    0    0 -0.50263972729E+01 -0.26850650486E+02  0.86624402651E+02  0.90829561463E+02  0.00000000000E+00 0. -1.
</event>
<event>
 7    1  0.6584658E-006  0.1261268E+03  0.7561462E-02  0.1233319E+00
         -3   -1    0    0    0  501 -0.00000000000E+00  0.00000000000E+00  0.64165371278E+02  0.64165371278E+02  0.00000000000E+00 0.  1.
          3   -1    0    0  501    0  0.00000000000E+00 -0.00000000000E+00 -0.39272953757E+03  0.39272953757E+03  0.00000000000E+00 0. -1.
         23    2    1    2    0    0  0.28383816922E+02  0.78602232118E+01 -0.29707805513E+03  0.32458384987E+03  0.12740439783E+03 0.  0.
          5    1    1    2  502    0  0.21807934718E+02 -0.53749583590E+02 -0.26743773103E+02  0.64010198817E+02  0.41800000000E+01 0. -1.
         -5    1    1    2    0  502 -0.50191751640E+02  0.45889360378E+02 -0.47423380623E+01  0.68300860163E+02  0.41800000000E+01 0. -1.
        -11    1    3    3    0    0 -0.48650324411E+02  0.16595903292E+01 -0.74716433174E+02  0.89174848986E+02  0.00000000000E+00 0.  1.
         11    1    3    3    0    0  0.77034141333E+02  0.62006328827E+01 -0.22236162195E+03  0.23540900088E+03  0.00000000000E+00 0. -1.
</event>
<event>
 7    1  0.6584658E-006  0.8840622E+02  0.7561462E-02  0.1306758E+00
          4   -1    0    0  501    0  0.00000000000E+00  0.00000000000E+00  0.81722233731E+02  0.81722233731E+02  0.00000000000E+00 0. -1.
         -4   -1    0    0    0  501 -0.00000000000E+00 -0.00000000000E+00 -0.21699158072E+03  0.21699158072E+03  0.00000000000E+00 0.  1.
         23    2    1    2    0    0 -0.16486457665E+02  0.37859170501E+02  0.15312309988E+02  0.98650098932E+02  0.88273750939E+02 0.  0.
          5    1    1    2  502    0 -0.32026179336E+02 -0.79611345153E+01  0.56230866907E+01  0.33736439195E+02  0.41800000000E+01 0. -1.
         -5    1    1    2    0  502  0.48512637001E+02 -0.29898035986E+02 -0.15620474367E+03  0.16632727632E+03  0.41800000000E+01 0. -1.
        -11    1    3    3    0    0  0.30557154143E+02  0.16746065217E+02 -0.15979141425E+02  0.38334101401E+02  0.00000000000E+00 0.  1.
         11    1    3    3    0    0 -0.47043611807E+02  0.21113105284E+02  0.31291451413E+02  0.60315997531E+02  0.00000000000E+00 0. -1.
</event>
<event>
 7    1  0.6584658E-006  0.1113103E+03  0.7561462E-02  0.1258162E+00
         -1   -1    0    0    0  501 -0.00000000000E+00  0.00000000000E+00  0.50989751885E+02  0.50989751885E+02  0.00000000000E+00 0.  1.
          1   -1    0    0  501    0  0.00000000000E+00 -0.00000000000E+00 -0.37090764431E+03  0.37090764431E+03  0.00000000000E+00 0. -1.
         23    2    1    2    0    0 -0.65460058366E+02  0.12237982231E+02 -0.22506681798E+03  0.25137102457E+03  0.89986287768E+02 0.  0.
          5    1    1    2  502    0  0.37431377085E+02  0.50997821784E+02 -0.15672004150E+02  0.65306737258E+02  0.41800000000E+01 0.  1.
         -5    1    1    2    0  502  0.28028681281E+02 -0.63235804015E+02 -0.79179070293E+02  0.10521963437E+03  0.41800000000E+01 0.  1.
        -11    1    3    3    0    0 -0.23620282620E+02  0.35054822508E+02 -0.33414025211E+02  0.53881865344E+02  0.00000000000E+00 0.  1.
         11    1    3    3    0    0 -0.41839775745E+02 -0.22816840277E+02 -0.19165279277E+03  0.19748915923E+03  0.00000000000E+00 0. -1.
</event>
<event>
 7    1  0.6584658E-006  0.2348750E+03  0.7561462E-02  0.1123255E+00
         -2   -1    0    0    0  501 -0.00000000000E+00  0.00000000000E+00  0.27688959711E+03  0.27688959711E+03  0.00000000000E+00 0.  1.
          2   -1    0    0  501    0  0.00000000000E+00 -0.00000000000E+00 -0.23268649612E+03  0.23268649612E+03  0.00000000000E+00 0. -1.
         23    2    1    2    0    0 -0.14061294309E+03 -0.17854808951E+03 -0.87112181178E+01  0.24481374870E+03  0.90589547970E+02 0.  0.
          5    1    1    2  502    0  0.10349682736E+03  0.84003041764E+02 -0.26245883826E+02  0.13592065008E+03  0.41800000000E+01 0.  1.
         -5    1    1    2    0  502  0.37116115727E+02  0.94545047747E+02  0.79160202931E+02  0.12884169445E+03  0.41800000000E+01 0.  1.
        -11    1    3    3    0    0 -0.12206477686E+03 -0.11205003364E+03 -0.37712652919E+02  0.16993311619E+03  0.00000000000E+00 0. -1.
         11    1    3    3    0    0 -0.18548166231E+02 -0.66498055870E+02  0.29001434801E+02  0.74880632513E+02  0.00000000000E+00 0.  1.
</event>
<event>
 7    1  0.6584658E-006  0.1312037E+03  0.7561462E-02  0.1225680E+00
         -2   -1    0    0    0  501 -0.00000000000E+00  0.00000000000E+00  0.37908211229E+02  0.37908211229E+02  0.00000000000E+00 0.  1.
          2   -1    0    0  501    0  0.00000000000E+00 -0.00000000000E+00 -0.57639720720E+03  0.57639720720E+03  0.00000000000E+00 0. -1.
         23    2    1    2    0    0  0.49102566345E+02  0.83963244570E+02 -0.30060842655E+03  0.32848024825E+03  0.89849646199E+02 0.  0.
          5    1    1    2  502    0  0.70393273833E+01 -0.99147076648E+02 -0.16234098474E+03  0.19039895658E+03  0.41800000000E+01 0.  1.
         -5    1    1    2    0  502 -0.56141893729E+02  0.15183832079E+02 -0.75539584679E+02  0.95426213597E+02  0.41800000000E+01 0.  1.
        -11    1    3    3    0    0  0.22203466191E+02  0.71685463517E+02 -0.28564973367E+03  0.29534313931E+03  0.00000000000E+00 0. -1.
         11    1    3    3    0    0  0.26899100154E+02  0.12277781053E+02 -0.14958692875E+02  0.33137108945E+02  0.00000000000E+00 0.  1.
</event>
<event>
 7    1  0.6584658E-006  0.9377572E+02  0.7561462E-02  0.1293958E+00
          2   -1    0    0  501    0  0.00000000000E+00  0.00000000000E+00  0.18868758286E+03  0.18868758286E+03  0.00000000000E+00 0. -1.
         -2   -1    0    0    0  501 -0.00000000000E+00 -0.00000000000E+00 -0.71255213604E+02  0.71255213604E+02  0.00000000000E+00 0.  1.
         23    2    1    2    0    0  0.26702357766E+02  0.22703451088E+02  0.70147697205E+02  0.12169673806E+03  0.93064139329E+02 0.  0.
          5    1    1    2  502    0 -0.81716148106E+01  0.43147741378E+02 -0.14024863306E+02  0.46289005880E+02  0.41800000000E+01 0.  1.
         -5    1    1    2    0  502 -0.18530742956E+02 -0.65851192467E+02  0.61309535355E+02  0.91957052526E+02  0.41800000000E+01 0.  1.
        -11    1    3    3    0    0  0.45571758087E+02  0.30121315586E+02  0.66372243199E+01  0.55028461131E+02  0.00000000000E+00 0. -1.
         11    1    3    3    0    0 -0.18869400321E+02 -0.74178644979E+01  0.63510472885E+02  0.66668276926E+02  0.00000000000E+00 0.  1.
</event>
<event>
 7    1  0.6584658E-006  0.8734255E+02  0.7561462E-02  0.1309418E+00
          1   -1    0    0  501    0  0.00000000000E+00  0.00000000000E+00  0.19962134381E+03  0.19962134381E+03  0.00000000000E+00 0. -1.
         -1   -1    0    0    0  501 -0.00000000000E+00 -0.00000000000E+00 -0.83228155949E+02  0.83228155949E+02  0.00000000000E+00 0.  1.
         23    2    1    2    0    0 -0.27143081893E+02  0.38968354870E+02  0.10736636970E+03  0.14881413325E+03  0.91448506486E+02 0.  0.
          5    1    1    2  502    0  0.22847264709E+02  0.26048378680E+02 -0.39481842500E+02  0.52695387120E+02  0.41800000000E+01 0.  1.
         -5    1    1    2    0  502  0.42958171837E+01 -0.65016733549E+02  0.48508660661E+02  0.81339979382E+02  0.41800000000E+01 0.  1.
        -11    1    3    3    0    0  0.66627727292E+01  0.40118074680E+02  0.49635623178E+01  0.40969371576E+02  0.00000000000E+00 0.  1.
         11    1    3    3    0    0 -0.33805854622E+02 -0.11497198101E+01  0.10240280738E+03  0.10784476168E+03  0.00000000000E+00 0. -1.
</event>
<event>
 7    1  0.6584658E-006  0.8438103E+02  0.7561462E-02  0.1317059E+00
          2   -1    0    0  501    0  0.00000000000E+00  0.00000000000E+00  0.26702446970E+02  0.26702446970E+02  0.00000000000E+00 0. -1.
         -2   -1    0    0    0  501 -0.00000000000E+00 -0.00000000000E+00 -0.53690778804E+03  0.53690778804E+03  0.00000000000E+00 0.  1.
         23    2    1    2    0    0  0.39042287884E+02 -0.12288925617E+02 -0.13211980805E+03  0.16327269518E+03  0.86758350457E+02 0.  0.
          5    1    1    2  502    0  0.17648077313E+02 -0.32799151274E+01 -0.30890854014E+03  0.30945786635E+03  0.41800000000E+01 0. -1.
         -5    1    1    2    0  502 -0.56690365197E+02  0.15568840744E+02 -0.69176992873E+02  0.90879673477E+02  0.41800000000E+01 0. -1.
        -11    1    3    3    0    0  0.47632128025E+02 -0.40113860069E+02 -0.11108607079E+03  0.12735013355E+03  0.00000000000E+00 0.  1.
         11    1    3    3    0    0 -0.85898401416E+01  0.27824934452E+02 -0.21033737258E+02  0.35922561628E+02  0.00000000000E+00 0. -1.
</event>
<event>
 7    1  0.6584658E-006  0.1511587E+03  0.7561462E-02  0.1199056E+00
          2   -1    0    0  501    0  0.00000000000E+00  0.00000000000E+00  0.74343023554E+02  0.74343023554E+02  0.00000000000E+00 0. -1.
         -2   -1    0    0    0  501 -0.00000000000E+00 -0.00000000000E+00 -0.48254353581E+03  0.48254353581E+03  0.00000000000E+00 0.  1.
         23    2    1    2    0    0  0.40409116788E+02 -0.10039072401E+03 -0.31291618479E+02  0.14528179433E+03  0.91741158650E+02 0.  0.
          5    1    1    2  502    0 -0.83034204784E+02  0.49613330775E+02 -0.25519352188E+03  0.27294205935E+03  0.41800000000E+01 0. -1.
         -5    1    1    2    0  502  0.42625087996E+02  0.50777393233E+02 -0.12171537190E+03  0.13866270568E+03  0.41800000000E+01 0. -1.
        -11    1    3    3    0    0  0.56426754606E+02 -0.10760656528E+03 -0.17106686851E+02  0.12270203854E+03  0.00000000000E+00 0. -1.
         11    1    3    3    0    0 -0.16017637818E+02  0.72158412684E+01 -0.14184931627E+02  0.22579755794E+02  0.00000000000E+00 0.  1.
</event>
<event>
 7    1  0.6584658E-006  0.1026742E+03  0.7561462E-02  0.1274771E+00
         -1   -1    0    0    0  501 -0.00000000000E+00  0.00000000000E+00  0.81882705524E+02  0.81882705524E+02  0.00000000000E+00 0.  1.
          1   -1    0    0  501    0  0.00000000000E+00 -0.00000000000E+00 -0.21173340144E+03  0.21173340144E+03  0.00000000000E+00 0. -1.
         23    2    1    2    0    0 -0.37442394662E+02  0.34174830577E+02 -0.12061348709E+03  0.15832678642E+03  0.89162245745E+02 0.  0.
          5    1    1    2  502    0  0.68353302553E+01 -0.78599474338E+02 -0.16450854050E+02  0.80701314146E+02  0.41800000000E+01 0.  1.
         -5    1    1    2    0  502  0.30607064407E+02  0.44424643761E+02  0.72136452268E+01  0.54588006397E+02  0.41800000000E+01 0.  1.
        -11    1    3    3    0    0 -0.97954574648E+01  0.42297509080E+02 -0.10723545557E+02  0.44721635599E+02  0.00000000000E+00 0.  1.
         11    1    3    3    0    0 -0.27646937198E+02 -0.81226785028E+01 -0.10988994153E+03  0.11360515082E+03  0.00000000000E+00 0. -1.
</event>
<event>
 7    1  0.8417476E-006  0.1825083E+03  0.7561462E-02  0.1165397E+00
         -2   -1    0    0    0  501 -0.00000000000E+00  0.00000000000E+00  0.10706998237E+03  0.10706998237E+03  0.00000000000E+00 0. -1.
          2   -1    0    0  501    0  0.00000000000E+00 -0.00000000000E+00 -0.36602182809E+03  0.36602182809E+03  0.00000000000E+00 0.  1.
         23    2    1    2    0    0  0.14680048554E+03 -0.74610219310E+02 -0.10733507121E+03  0.21666950171E+03  0.91147068404E+02 0.  0.
          5    1    1    2  502    0 -0.10085955137E+03  0.23690115904E+01 -0.13585746193E+03  0.16927192231E+03  0.41800000000E+01 0.  1.
         -5    1    1    2    0  502 -0.45940934169E+02  0.72241207720E+02 -0.15759312579E+02  0.87150386448E+02  0.41800000000E+01 0.  1.
        -11    1    3    3    0    0  0.27458582371E+02 -0.49152085515E+02 -0.34436166991E+01  0.56407089557E+02  0.00000000000E+00 0.  1.
         11    1    3    3    0    0  0.11934190317E+03 -0.25458133795E+02 -0.10389145451E+03  0.16026241215E+03  0.00000000000E+00 0. -1.
</event>
<event>
 7    1  0.6584658E-006  0.1275652E+03  0.7561462E-02  0.1231114E+00
         -2   -1    0    0    0  501 -0.00000000000E+00  0.00000000000E+00  0.69546170246E+02  0.69546170246E+02  0.00000000000E+00 0.  1.
          2   -1    0    0  501    0  0.00000000000E+00 -0.00000000000E+00 -0.28831085145E+03  0.28831085145E+03  0.00000000000E+00 0. -1.
         23    2    1    2    0    0  0.48197918152E+01  0.89541179617E+02 -0.12607006397E+03  0.17819009859E+03  0.88414913704E+02 0.  0.
          5    1    1    2  502    0 -0.18421554007E+01 -0.11001013847E+03 -0.10750609517E+03  0.15388520722E+03  0.41800000000E+01 0.  1.
         -5    1    1    2    0  502 -0.29776364146E+01  0.20468958856E+02  0.14811477936E+02  0.25781715884E+02  0.41800000000E+01 0.  1.
        -11    1    3    3    0    0  0.31288675784E+02  0.92158356509E+02 -0.84769678277E+02  0.12906603838E+03  0.00000000000E+00 0.  1.
         11    1    3    3    0    0 -0.26468883969E+02 -0.26171768918E+01 -0.41300385691E+02  0.49124060211E+02  0.00000000000E+00 0. -1.
</event>
<event>
 7    1  0.6584658E-006  0.1036827E+03  0.7561462E-02  0.1272737E+00
         -1   -1    0    0    0  501 -0.00000000000E+00  0.00000000000E+00  0.81459281368E+03  0.81459281368E+03  0.00000000000E+00 0.  1.
          1   -1    0    0  501    0  0.00000000000E+00 -0.00000000000E+00 -0.26455165025E+02  0.26455165025E+02  0.00000000000E+00 0. -1.
         23    2    1    2    0    0  0.17002296455E+02 -0.73423304337E+02  0.17505900166E+03  0.21081557023E+03  0.90097119170E+02 0.  0.
          5    1    1    2  502    0  0.19035993880E+02  0.85027118010E+02  0.24270697041E+03  0.25790720375E+03  0.41800000000E+01 0.  1.
         -5    1    1    2    0  502 -0.36038290335E+02 -0.11603813673E+02  0.37037167658E+03  0.37232520473E+03  0.41800000000E+01 0.  1.
        -11    1    3    3    0    0 -0.92164879684E+01 -0.29322131265E+02  0.15109325528E+03  0.15418788157E+03  0.00000000000E+00 0.  1.
         11    1    3    3    0    0  0.26218784423E+02 -0.44101173072E+02  0.23965746384E+02  0.56627688657E+02  0.00000000000E+00 0. -1.
</event>
<event>
 7    1  0.6584658E-006  0.8052377E+02  0.7561462E-02  0.1327572E+00
          1   -1    0    0  501    0  0.00000000000E+00  0.00000000000E+00  0.20515688058E+03  0.20515688058E+03  0.00000000000E+00 0. -1.
         -1   -1    0    0    0  501 -0.00000000000E+00 -0.00000000000E+00 -0.94635676182E+02  0.94635676182E+02  0.00000000000E+00 0.  1.
         23    2    1    2    0    0  0.30316585411E+02  0.22908775812E+02  0.13278726119E+03  0.16717176126E+03  0.94180856170E+02 0.  0.
          5    1    1    2  502    0  0.14293180740E+02 -0.44383631235E+02  0.33773917732E+02  0.57726524720E+02  0.41800000000E+01 0.  1.
         -5    1    1    2    0  502 -0.44609766151E+02  0.21474855424E+02 -0.56039974521E+02  0.74894270781E+02  0.41800000000E+01 0.  1.
        -11    1    3    3    0    0  0.11881602342E+01  0.33523279472E+02  0.29379003596E+01  0.33672737486E+02  0.00000000000E+00 0.  1.
         11    1    3    3    0    0  0.29128425177E+02 -0.10614503660E+02  0.12984936083E+03  0.13349902377E+03  0.00000000000E+00 0. -1.
</event>
<event>
 7    1  0.6584658E-006  0.1257933E+03  0.7561462E-02  0.1233835E+00
         -4   -1    0    0    0  501 -0.00000000000E+00  0.00000000000E+00  0.34402452968E+03  0.34402452968E+03  0.00000000000E+00 0.  1.
          4   -1    0    0  501    0  0.00000000000E+00 -0.00000000000E+00 -0.65575215718E+02  0.65575215718E+02  0.00000000000E+00 0. -1.
         23    2    1    2    0    0  0.82503971291E+02  0.49993902658E+02  0.47501691449E+02  0.12979804776E+03  0.72696815122E+02 0.  0.
          5    1    1    2  502    0  0.71812541740E+01  0.19924681061E+02 -0.82123124885E+00  0.21603475361E+02  0.41800000000E+01 0.  1.
         -5    1    1    2    0  502 -0.89685225465E+02 -0.69918583719E+02  0.23176885376E+03  0.25819822229E+03  0.41800000000E+01 0.  1.
        -11    1    3    3    0    0  0.39447786509E+00  0.32180909880E+02 -0.20613174564E+01  0.32249272909E+02  0.00000000000E+00 0. -1.
         11    1    3    3    0    0  0.82109493426E+02  0.17812992778E+02  0.49563008905E+02  0.97548774847E+02  0.00000000000E+00 0.  1.
</event>
<event>
 7    1  0.6584658E-006  0.2170704E+03  0.7561462E-02  0.1136086E+00
          1   -1    0    0  501    0  0.00000000000E+00  0.00000000000E+00  0.65626157829E+03  0.65626157829E+03  0.00000000000E+00 0. -1.
         -1   -1    0    0    0  501 -0.00000000000E+00 -0.00000000000E+00 -0.80208552526E+02  0.80208552526E+02  0.00000000000E+00 0.  1.
         23    2    1    2    0    0  0.75606645554E+02 -0.18321398173E+03  0.34058586100E+03  0.40424143575E+03  0.90159202032E+02 0.  0.
          5    1    1    2  502    0 -0.10556247842E+03  0.12158140011E+03  0.13297208789E+03  0.20886484209E+03  0.41800000000E+01 0. -1.
         -5    1    1    2    0  502  0.29955832862E+02  0.61632581620E+02  0.10249507687E+03  0.12336385298E+03  0.41800000000E+01 0. -1.
        -11    1    3    3    0    0  0.76033770450E+02 -0.12572717019E+03  0.29943959190E+03  0.33354538637E+03  0.00000000000E+00 0. -1.
         11    1    3    3    0    0 -0.42712489587E+00 -0.57486811540E+02  0.41146269098E+02  0.70696049376E+02  0.00000000000E+00 0.  1.
</event>
<event>
 7    1  0.6584658E-006  0.7481570E+02  0.7561462E-02  0.1344443E+00
          4   -1    0    0  501    0  0.00000000000E+00  0.00000000000E+00  0.25741573383E+02  0.25741573383E+02  0.00000000000E+00 0. -1.
         -4   -1    0    0    0  501 -0.00000000000E+00 -0.00000000000E+00 -0.67295214499E+03  0.67295214499E+03  0.00000000000E+00 0.  1.
         23    2    1    2    0    0  0.12209128015E+01  0.27554447561E+02 -0.10471978714E+03  0.14128496977E+03  0.90743984128E+02 0.  0.
          5    1    1    2  502    0 -0.23949943058E+02 -0.81014130507E+01 -0.51769163431E+03  0.51832550901E+03  0.41800000000E+01 0. -1.
         -5    1    1    2    0  502  0.22729030257E+02 -0.19453034511E+02 -0.24799150165E+02  0.39083239592E+02  0.41800000000E+01 0. -1.
        -11    1    3    3    0    0 -0.20890462075E+02 -0.27461587956E+02 -0.48922624641E+02  0.59866296198E+02  0.00000000000E+00 0.  1.
         11    1    3    3    0    0  0.22111374876E+02  0.55016035517E+02 -0.55797162499E+02  0.81418673570E+02  0.00000000000E+00 0. -1.
</event>
<event>
 7    1  0.6584658E-006  0.1110666E+03  0.7561462E-02  0.1258607E+00
         -2   -1    0    0    0  501 -0.00000000000E+00  0.00000000000E+00  0.15721550253E+03  0.15721550253E+03  0.00000000000E+00 0.  1.
          2   -1    0    0  501    0  0.00000000000E+00 -0.00000000000E+00 -0.10381297534E+03  0.10381297534E+03  0.00000000000E+00 0. -1.
         23    2    1    2    0    0  0.37084985474E+02  0.46613791636E+02  0.19653165902E+01  0.11323928395E+03  0.96286713738E+02 0.  0.
          5    1    1    2  502    0  0.37636894235E+02 -0.48191829796E+02  0.96048771755E+01  0.62038007159E+02  0.41800000000E+01 0.  1.
         -5    1    1    2    0  502 -0.74721879710E+02  0.15780381601E+01  0.41832333422E+02  0.85751186763E+02  0.41800000000E+01 0.  1.
        -11    1    3    3    0    0  0.54119939785E+02  0.41506679053E+02  0.34295170359E+02  0.76340886806E+02  0.00000000000E+00 0.  1.
         11    1    3    3    0    0 -0.17034954310E+02  0.51071125824E+01 -0.32329853768E+02  0.36898397146E+02  0.00000000000E+00 0. -1.
</event>
<event>
 7    1  0.6584658E-006  0.1013872E+03  0.7561462E-02  0.1277406E+00
          2   -1    0    0  501    0  0.00000000000E+00  0.00000000000E+00  0.31907704250E+03  0.31907704250E+03  0.00000000000E+00 0. -1.
         -2   -1    0    0    0  501 -0.00000000000E+00 -0.00000000000E+00 -0.36840323880E+02  0.36840323880E+02  0.00000000000E+00 0.  1.
         23    2    1    2    0    0 -0.22993396906E+01  0.11231837513E+02  0.12370952678E+03  0.15365549438E+03  0.90413067636E+02 0.  0.
          5    1    1    2  502    0  0.63492018665E+02 -0.80092550005E+01  0.77771293711E+02  0.10080293213E+03  0.41800000000E+01 0.  1.
         -5    1    1    2    0  502 -0.61192678975E+02 -0.32225825123E+01  0.80755898128E+02  0.10145893987E+03  0.41800000000E+01 0.  1.
        -11    1    3    3    0    0 -0.26486432027E+02 -0.23155693241E+02  0.17224292611E+02  0.39171334761E+02  0.00000000000E+00 0.  1.
         11    1    3    3    0    0  0.24187092336E+02  0.34387530754E+02  0.10648523417E+03  0.11448415962E+03  0.00000000000E+00 0. -1.
</event>
<event>
 7    1  0.6584658E-006  0.1675308E+03  0.7561462E-02  0.1180448E+00
          2   -1    0    0  501    0  0.00000000000E+00  0.00000000000E+00  0.80310567414E+03  0.80310567414E+03  0.00000000000E+00 0.  1.
         -2   -1    0    0    0  501 -0.00000000000E+00 -0.00000000000E+00 -0.36831312853E+02  0.36831312853E+02  0.00000000000E+00 0. -1.
         23    2    1    2    0    0  0.48670881077E+02  0.11996918573E+03  0.34817580454E+03  0.38472783258E+03  0.10013817504E+03 0.  0.
          5    1    1    2  502    0 -0.66018247154E+02 -0.97260379298E+01  0.18569605438E+03  0.19736641503E+03  0.41800000000E+01 0.  1.
         -5    1    1    2    0  502  0.17347366077E+02 -0.11024314780E+03  0.23240250237E+03  0.25784273939E+03  0.41800000000E+01 0.  1.
        -11    1    3    3    0    0 -0.27364874694E+01  0.10204159343E+03  0.27634692518E+03  0.29459734929E+03  0.00000000000E+00 0. -1.
         11    1    3    3    0    0  0.51407368546E+02  0.17927592308E+02  0.71828879361E+02  0.90130483284E+02  0.00000000000E+00 0.  1.
</event>
<event>
 7    1  0.6584658E-006  0.1167837E+03  0.7561462E-02  0.1248499E+00
          1   -1    0    0  501    0  0.00000000000E+00  0.00000000000E+00  0.63326248540E+03  0.63326248540E+03  0.00000000000E+00 0. -1.
         -1   -1    0    0    0  501 -0.00000000000E+00 -0.00000000000E+00 -0.40914467255E+02  0.40914467255E+02  0.00000000000E+00 0.  1.
         23    2    1    2    0    0  0.78904361588E+02 -0.51589699597E+02  0.41797881093E+03  0.43978837519E+03  0.99096585159E+02 0.  0.
          5    1    1    2  502    0 -0.43927188352E+02  0.70050011144E+02  0.35752187324E+02  0.90179228407E+02  0.41800000000E+01 0.  1.
         -5    1    1    2    0  502 -0.34977173236E+02 -0.18460311547E+02  0.13861701989E+03  0.14420934905E+03  0.41800000000E+01 0.  1.
        -11    1    3    3    0    0  0.86769390843E+02 -0.36786642809E+02  0.41093849097E+03  0.42160719590E+03  0.00000000000E+00 0. -1.
         11    1    3    3    0    0 -0.78650292549E+01 -0.14803056787E+02  0.70403199617E+01  0.18181179296E+02  0.00000000000E+00 0.  1.
</event>
<event>
 7    1  0.6584658E-006  0.1130298E+03  0.7561462E-02  0.1255060E+00
         -1   -1    0    0    0  501 -0.00000000000E+00  0.00000000000E+00  0.58863528058E+03  0.58863528058E+03  0.00000000000E+00 0.  1.
          1   -1    0    0  501    0  0.00000000000E+00 -0.00000000000E+00 -0.32003632297E+02  0.32003632297E+02  0.00000000000E+00 0. -1.
         23    2    1    2    0    0 -0.78395903947E+02 -0.12524515479E+02  0.18293457429E+03  0.21864426215E+03  0.89651958486E+02 0.  0.
          5    1    1    2  502    0  0.11048958333E+03  0.68363118414E+01  0.32400612669E+03  0.34242097734E+03  0.41800000000E+01 0.  1.
         -5    1    1    2    0  502 -0.32093679384E+02  0.56882036373E+01  0.49690947303E+02  0.59573673388E+02  0.41800000000E+01 0.  1.
        -11    1    3    3    0    0 -0.14728735784E+02 -0.11594847565E+02 -0.56679923875E+01  0.19583214382E+02  0.00000000000E+00 0. -1.
         11    1    3    3    0    0 -0.63667168163E+02 -0.92966791399E+00  0.18860256667E+03  0.19906104777E+03  0.00000000000E+00 0.  1.
</event>
<event>
 7    1  0.6584658E-006  0.1250785E+03  0.7561462E-02  0.1234947E+00
         -1   -1    0    0    0  501 -0.00000000000E+00  0.00000000000E+00  0.13951887063E+03  0.13951887063E+03  0.00000000000E+00 0.  1.
          1   -1    0    0  501    0  0.00000000000E+00 -0.00000000000E+00 -0.17555592621E+03  0.17555592621E+03  0.00000000000E+00 0. -1.
         23    2    1    2    0    0 -0.39080277568E+02 -0.79009604607E+02 -0.79748702736E+02  0.15592660279E+03  0.10091315155E+03 0.  0.
          5    1    1    2  502    0  0.79483393002E+02  0.42633121784E+02  0.51690289938E+02  0.10404110394E+03  0.41800000000E+01 0. -1.
         -5    1    1    2    0  502 -0.40403115433E+02  0.36376482823E+02 -0.79786427822E+01  0.55107090106E+02  0.41800000000E+01 0. -1.
        -11    1    3    3    0    0  0.10256958511E+02  0.20356426127E+01  0.17292358042E+02  0.20208282594E+02  0.00000000000E+00 0.  1.
         11    1    3    3    0    0 -0.49337236079E+02 -0.81045247219E+02 -0.97041060778E+02  0.13571832020E+03  0.00000000000E+00 0. -1.
</event>
<event>
 7    1  0.6584658E-006  0.1480946E+03  0.7561462E-02  0.1202834E+00
          2   -1    0    0  501    0  0.00000000000E+00  0.00000000000E+00  0.94069100935E+03  0.94069100935E+03  0.00000000000E+00 0. -1.
         -2   -1    0    0    0  501 -0.00000000000E+00 -0.00000000000E+00 -0.27895761132E+02  0.27895761132E+02  0.00000000000E+00 0.  1.
         23    2    1    2    0    0  0.11003088233E+03 -0.49432031981E+02  0.43222584340E+03  0.45756493747E+03  0.89421314288E+02 0.  0.
          5    1    1    2  502    0 -0.86577355251E+01  0.64465045212E+02  0.25551943624E+03  0.26370125736E+03  0.41800000000E+01 0. -1.
         -5    1    1    2    0  502 -0.10137314681E+03 -0.15033013230E+02  0.22504996858E+03  0.24732057565E+03  0.41800000000E+01 0. -1.
        -11    1    3    3    0    0  0.10477225402E+02 -0.23255574610E+02  0.19255828632E+02  0.31959050970E+02  0.00000000000E+00 0.  1.
         11    1    3    3    0    0  0.99553656932E+02 -0.26176457371E+02  0.41297001477E+03  0.42560588650E+03  0.00000000000E+00 0. -1.
</event>
<event>
 7    1  0.6584658E-006  0.1511113E+03  0.7561462E-02  0.1199114E+00
         -2   -1    0    0    0  501 -0.00000000000E+00  0.00000000000E+00  0.27639004481E+03  0.27639004481E+03  0.00000000000E+00 0.  1.
          2   -1    0    0  501    0  0.00000000000E+00 -0.00000000000E+00 -0.25874522790E+03  0.25874522790E+03  0.00000000000E+00 0. -1.
         23    2    1    2    0    0 -0.32614006960E+00 -0.17592863435E+02 -0.72843057032E+02  0.11868351329E+03  0.92032875416E+02 0.  0.
          5    1    1    2  502    0 -0.20791626337E+02 -0.98833383298E+02 -0.13090332748E+03  0.16538888393E+03  0.41800000000E+01 0. -1.
         -5    1    1    2    0  502  0.21117766407E+02  0.11642624673E+03  0.22139120142E+03  0.25106287550E+03  0.41800000000E+01 0.  1.
        -11    1    3    3    0    0  0.23107430507E+02 -0.42603348259E+02 -0.68821945821E+02  0.84175167681E+02  0.00000000000E+00 0.  1.
         11    1    3    3    0    0 -0.23433570576E+02  0.25010484825E+02 -0.40211112110E+01  0.34508345607E+02  0.00000000000E+00 0. -1.
</event>
<event>
 7    1  0.6584658E-006  0.1482216E+03  0.7561462E-02  0.1202675E+00
          1   -1    0    0  501    0  0.00000000000E+00  0.00000000000E+00  0.44025980283E+03  0.44025980283E+03  0.00000000000E+00 0. -1.
         -1   -1    0    0    0  501 -0.00000000000E+00 -0.00000000000E+00 -0.53922159743E+02  0.53922159743E+02  0.00000000000E+00 0.  1.
         23    2    1    2    0    0  0.75694792205E+02 -0.45127023469E+02  0.12656344650E+03  0.17924412966E+03  0.91345510098E+02 0.  0.
          5    1    1    2  502    0 -0.12006988046E+03  0.32919470046E+02  0.22470612706E+03  0.25692563834E+03  0.41800000000E+01 0. -1.
         -5    1    1    2    0  502  0.44375088252E+02  0.12207553422E+02  0.35068069538E+02  0.58012194572E+02  0.41800000000E+01 0.  1.
        -11    1    3    3    0    0  0.12191247667E+01  0.24009179066E+02  0.14993187080E+02  0.28332359652E+02  0.00000000000E+00 0. -1.
         11    1    3    3    0    0  0.74475667438E+02 -0.69136202535E+02  0.11157025942E+03  0.15091177001E+03  0.00000000000E+00 0.  1.
</event>
<event>
 7    1  0.6584658E-006  0.1855058E+03  0.7561462E-02  0.1162578E+00
         -3   -1    0    0    0  501 -0.00000000000E+00  0.00000000000E+00  0.44322384902E+03  0.44322384902E+03  0.00000000000E+00 0.  1.
          3   -1    0    0  501    0  0.00000000000E+00 -0.00000000000E+00 -0.82470187313E+02  0.82470187313E+02  0.00000000000E+00 0. -1.
         23    2    1    2    0    0 -0.15220241457E+03  0.35876118251E+02  0.19551139268E+03  0.26607194300E+03  0.90093858384E+02 0.  0.
          5    1    1    2  502    0  0.15710699103E+03 -0.60405354090E+02  0.16269379174E+03  0.23413277366E+03  0.41800000000E+01 0. -1.
         -5    1    1    2    0  502 -0.49045764529E+01  0.24529235839E+02  0.25484772846E+01  0.25489319675E+02  0.41800000000E+01 0. -1.
        -11    1    3    3    0    0 -0.96314987095E+01 -0.21528728439E+02  0.45787759658E+02  0.51505056549E+02  0.00000000000E+00 0. -1.
         11    1    3    3    0    0 -0.14257091586E+03  0.57404846690E+02  0.14972363303E+03  0.21456688645E+03  0.00000000000E+00 0.  1.
</event>
<event>
 7    1  0.6584658E-006  0.9281413E+02  0.7561462E-02  0.1296176E+00
          2   -1    0    0  501    0  0.00000000000E+00  0.00000000000E+00  0.21296666403E+03  0.21296666403E+03  0.00000000000E+00 0. -1.
         -2   -1    0    0    0  501 -0.00000000000E+00 -0.00000000000E+00 -0.85424200061E+02  0.85424200061E+02  0.00000000000E+00 0.  1.
         23    2    1    2    0    0  0.74333551466E+02 -0.23789222893E+02  0.35200922440E+02  0.12441952114E+03  0.90275734841E+02 0.  0.
          5    1    1    2  502    0 -0.12742144138E+02  0.34911686839E+02  0.10368793736E+03  0.11022635288E+03  0.41800000000E+01 0.  1.
         -5    1    1    2    0  502 -0.61591407328E+02 -0.11122463946E+02 -0.11346395830E+02  0.63744990071E+02  0.41800000000E+01 0.  1.
        -11    1    3    3    0    0  0.10785568991E+02 -0.18907336181E+02  0.53791123910E+02  0.58028448811E+02  0.00000000000E+00 0.  1.
         11    1    3    3    0    0  0.63547982475E+02 -0.48818867120E+01 -0.18590201470E+02  0.66391072330E+02  0.00000000000E+00 0. -1.
</event>
<event>
 7    1  0.6584658E-006  0.1091607E+03  0.7561462E-02  0.1262132E+00
         -2   -1    0    0    0  501 -0.00000000000E+00  0.00000000000E+00  0.43813360776E+02  0.43813360776E+02  0.00000000000E+00 0.  1.
          2   -1    0    0  501    0  0.00000000000E+00 -0.00000000000E+00 -0.50033590303E+03  0.50033590303E+03  0.00000000000E+00 0. -1.
         23    2    1    2    0    0  0.12088055523E+02  0.94563543859E+02 -0.26597738856E+03  0.29707960054E+03  0.91781985824E+02 0.  0.
          5    1    1    2  502    0 -0.10020437018E+02 -0.32692123977E+02  0.11022519447E+02  0.36168390386E+02  0.41800000000E+01 0. -1.
         -5    1    1    2    0  502 -0.20676185043E+01 -0.61871419881E+02 -0.20156767314E+03  0.21090127287E+03  0.41800000000E+01 0. -1.
        -11    1    3    3    0    0 -0.27937534947E+02  0.68722484829E+02 -0.21437129076E+03  0.22684429921E+03  0.00000000000E+00 0. -1.
         11    1    3    3    0    0  0.40025590469E+02  0.25841059029E+02 -0.51606097798E+02  0.70235301339E+02  0.00000000000E+00 0.  1.
</event>
<event>
 7    1  0.6584658E-006  0.1085362E+03  0.7561462E-02  0.1263305E+00
          2   -1    0    0  501    0  0.00000000000E+00  0.00000000000E+00  0.10451753611E+04  0.10451753611E+04  0.00000000000E+00 0. -1.
         -2   -1    0    0    0  501 -0.00000000000E+00 -0.00000000000E+00 -0.15683958982E+02  0.15683958982E+02  0.00000000000E+00 0.  1.
         23    2    1    2    0    0 -0.63224500989E+02  0.93395989047E+01  0.55341278217E+03  0.56449066795E+03  0.91101268354E+02 0.  0.
          5    1    1    2  502    0  0.19611653691E+02  0.40005303568E+02  0.58732083651E+02  0.73837465585E+02  0.41800000000E+01 0. -1.
         -5    1    1    2    0  502  0.43612847298E+02 -0.49344902472E+02  0.41734653628E+03  0.42253118654E+03  0.41800000000E+01 0. -1.
        -11    1    3    3    0    0  0.11139838146E+02 -0.22758530403E+02  0.72393581978E+02  0.76699917938E+02  0.00000000000E+00 0.  1.
         11    1    3    3    0    0 -0.74364339136E+02  0.32098129308E+02  0.48101920019E+03  0.48779075001E+03  0.00000000000E+00 0. -1.
</event>
<event>
 7    1  0.6584658E-006  0.1583634E+03  0.7561462E-02  0.1190557E+00
          2   -1    0    0  501    0  0.00000000000E+00  0.00000000000E+00  0.70156011122E+03  0.70156011122E+03  0.00000000000E+00 0. -1.
         -2   -1    0    0    0  501 -0.00000000000E+00 -0.00000000000E+00 -0.49478185182E+02  0.49478185182E+02  0.00000000000E+00 0.  1.
         23    2    1    2    0    0  0.11275814273E+03 -0.54672897503E+02  0.48083305615E+03  0.50471131363E+03  0.88484788250E+02 0.  0.
          5    1    1    2  502    0 -0.76968116833E+02 -0.27015621068E+02  0.11409459031E+03  0.14031743558E+03  0.41800000000E+01 0. -1.
         -5    1    1    2    0  502 -0.35790025897E+02  0.81688518571E+02  0.57154279576E+02  0.10600954718E+03  0.41800000000E+01 0. -1.
        -11    1    3    3    0    0  0.35344921623E+02  0.17930655153E+02  0.21225982462E+03  0.21592824046E+03  0.00000000000E+00 0. -1.
         11    1    3    3    0    0  0.77413221106E+02 -0.72603552656E+02  0.26857323153E+03  0.28878307318E+03  0.00000000000E+00 0.  1.
</event>
<event>
 7    1  0.6584658E-006  0.1562246E+03  0.7561462E-02  0.1193026E+00
         -3   -1    0    0    0  501 -0.00000000000E+00  0.00000000000E+00  0.24617120478E+03  0.24617120478E+03  0.00000000000E+00 0.  1.
          3   -1    0    0  501    0  0.00000000000E+00 -0.00000000000E+00 -0.13750546792E+03  0.13750546792E+03  0.00000000000E+00 0. -1.
         23    2    1    2    0    0 -0.47507484380E+02  0.13211726055E+03 -0.22925227236E+00  0.16636931566E+03  0.89256736603E+02 0.  0.
          5    1    1    2  502    0  0.36983318788E+02 -0.11623991590E+02 -0.17123564249E+02  0.42586052901E+02  0.41800000000E+01 0. -1.
         -5    1    1    2    0  502  0.10524165592E+02 -0.12049326896E+03  0.12601855338E+03  0.17472130414E+03  0.41800000000E+01 0. -1.
        -11    1    3    3    0    0  0.14096016826E+02  0.30527096292E+02  0.28566259116E+02  0.44120657954E+02  0.00000000000E+00 0. -1.
         11    1    3    3    0    0 -0.61603501206E+02  0.10159016425E+03 -0.28795511388E+02  0.12224865770E+03  0.00000000000E+00 0.  1.
</event>
<event>
 7    1  0.6584658E-006  0.1405502E+03  0.7561462E-02  0.1212591E+00
         -3   -1    0    0    0  501 -0.00000000000E+00  0.00000000000E+00  0.47602469679E+02  0.47602469679E+02  0.00000000000E+00 0.  1.
          3   -1    0    0  501    0  0.00000000000E+00 -0.00000000000E+00 -0.50858895472E+03  0.50858895472E+03  0.00000000000E+00 0. -1.
         23    2    1    2    0    0 -0.96076005613E+02 -0.48131841810E+02 -0.24974438354E+03  0.28820656947E+03  0.95621632094E+02 0.  0.
          5    1    1    2  502    0  0.18510313744E+02  0.76061039594E+02 -0.13221333735E+03  0.15370670913E+03  0.41800000000E+01 0.  1.
         -5    1    1    2    0  502  0.77565691870E+02 -0.27929197784E+02 -0.79028764149E+02  0.11427814580E+03  0.41800000000E+01 0.  1.
        -11    1    3    3    0    0 -0.74704268969E+02 -0.59909089988E+02 -0.10784088842E+03  0.14422026238E+03  0.00000000000E+00 0.  1.
         11    1    3    3    0    0 -0.21371736644E+02  0.11777248178E+02 -0.14190349512E+03  0.14398630709E+03  0.00000000000E+00 0. -1.
</event>
<event>
 7    1  0.6584658E-006  0.1354596E+03  0.7561462E-02  0.1219572E+00
         -1   -1    0    0    0  501 -0.00000000000E+00  0.00000000000E+00  0.67685593988E+02  0.67685593988E+02  0.00000000000E+00 0.  1.
          1   -1    0    0  501    0  0.00000000000E+00 -0.00000000000E+00 -0.35915469037E+03  0.35915469037E+03  0.00000000000E+00 0. -1.
         23    2    1    2    0    0  0.84524722646E+02  0.65143646544E+02 -0.17944623486E+03  0.22788746878E+03  0.91343438713E+02 0.  0.
          5    1    1    2  502    0  0.24113241409E+02  0.15303446243E+02 -0.24478619653E+02  0.37845991839E+02  0.41800000000E+01 0. -1.
         -5    1    1    2    0  502 -0.10863796406E+03 -0.80447092787E+02 -0.87544241867E+02  0.16110682374E+03  0.41800000000E+01 0. -1.
        -11    1    3    3    0    0  0.38782780102E+02  0.27071386251E+02 -0.15751391189E+03  0.16446153479E+03  0.00000000000E+00 0. -1.
         11    1    3    3    0    0  0.45741942544E+02  0.38072260293E+02 -0.21932322973E+02  0.63425933990E+02  0.00000000000E+00 0.  1.
</event>
<event>
 7    1  0.6584658E-006  0.3869657E+03  0.7561462E-02  0.1048389E+00
          1   -1    0    0  501    0  0.00000000000E+00  0.00000000000E+00  0.25249023223E+03  0.25249023223E+03  0.00000000000E+00 0. -1.
         -1   -1    0    0    0  501 -0.00000000000E+00 -0.00000000000E+00 -0.75825930382E+03  0.75825930382E+03  0.00000000000E+00 0.  1.
         23    2    1    2    0    0 -0.76736032164E+02 -0.34547587667E+03 -0.15676933515E+02  0.36591934366E+03  0.91701689321E+02 0.  0.
          5    1    1    2  502    0 -0.78297856377E+02  0.87410202991E+02 -0.15274170642E+03  0.19266187786E+03  0.41800000000E+01 0. -1.
         -5    1    1    2    0  502  0.15503388854E+03  0.25806567368E+03 -0.33735043165E+03  0.45216831453E+03  0.41800000000E+01 0.  1.
        -11    1    3    3    0    0 -0.43735690486E+02 -0.12365468238E+03  0.35522793682E+02  0.13588657023E+03  0.00000000000E+00 0.  1.
         11    1    3    3    0    0 -0.33000341679E+02 -0.22182119429E+03 -0.51199727197E+02  0.23003277343E+03  0.00000000000E+00 0. -1.
</event>
<event>
 7    1  0.6584658E-006  0.8143300E+02  0.7561462E-02  0.1325033E+00
          1   -1    0    0  501    0  0.00000000000E+00  0.00000000000E+00  0.37784065150E+02  0.37784065150E+02  0.00000000000E+00 0. -1.
         -1   -1    0    0    0  501 -0.00000000000E+00 -0.00000000000E+00 -0.54730035646E+03  0.54730035646E+03  0.00000000000E+00 0.  1.
         23    2    1    2    0    0 -0.40179182750E+02 -0.53189125506E+02 -0.94725988524E+02  0.14674408477E+03  0.90096413439E+02 0.  0.
          5    1    1    2  502    0  0.37130668877E+02  0.69594421254E+02 -0.12387454454E+03  0.14691645662E+03  0.41800000000E+01 0. -1.
         -5    1    1    2    0  502  0.30485138732E+01 -0.16405295748E+02 -0.29091575825E+03  0.29142388022E+03  0.41800000000E+01 0. -1.
        -11    1    3    3    0    0 -0.29615553795E+02 -0.38182493552E+02 -0.11172624509E+03  0.12172813021E+03  0.00000000000E+00 0.  1.
         11    1    3    3    0    0 -0.10563628955E+02 -0.15006631954E+02  0.17000256571E+02  0.25015954565E+02  0.00000000000E+00 0. -1.
</event>
<event>
 7    1  0.6584658E-006  0.1432529E+03  0.7561462E-02  0.1209018E+00
         -2   -1    0    0    0  501 -0.00000000000E+00  0.00000000000E+00  0.52923454540E+03  0.52923454540E+03  0.00000000000E+00 0. -1.
          2   -1    0    0  501    0  0.00000000000E+00 -0.00000000000E+00 -0.66455088062E+02  0.66455088062E+02  0.00000000000E+00 0.  1.
         23    2    1    2    0    0  0.22893888977E+02  0.13168439605E+03  0.11586983141E+03  0.20344054542E+03  0.10048545853E+03 0.  0.
          5    1    1    2  502    0 -0.13903517187E+02 -0.68726878982E+02  0.31153636904E+03  0.31935728162E+03  0.41800000000E+01 0. -1.
         -5    1    1    2    0  502 -0.89903717906E+01 -0.62957517072E+02  0.35373256892E+02  0.72891806425E+02  0.41800000000E+01 0. -1.
        -11    1    3    3    0    0 -0.18980923027E+02  0.94938681836E+02  0.11133709227E+03  0.14754516889E+03  0.00000000000E+00 0. -1.
         11    1    3    3    0    0  0.41874812005E+02  0.36745714218E+02  0.45327391388E+01  0.55895376534E+02  0.00000000000E+00 0.  1.
</event>
<event>
 7    1  0.6584658E-006  0.8034464E+02  0.7561462E-02  0.1328076E+00
         -4   -1    0    0    0  501 -0.00000000000E+00  0.00000000000E+00  0.18334962412E+03  0.18334962412E+03  0.00000000000E+00 0.  1.
          4   -1    0    0  501    0  0.00000000000E+00 -0.00000000000E+00 -0.12414554198E+03  0.12414554198E+03  0.00000000000E+00 0. -1.
         23    2    1    2    0    0 -0.32460882450E+02  0.48888404471E+02 -0.52447152662E+02  0.12985280475E+03  0.10328243848E+03 0.  0.
          5    1    1    2  502    0 -0.10998212752E+02 -0.42613774060E+02 -0.12456426643E+02  0.45929613411E+02  0.41800000000E+01 0.  1.
         -5    1    1    2    0  502  0.43459095202E+02 -0.62746304112E+01  0.12410766144E+03  0.13171274794E+03  0.41800000000E+01 0.  1.
        -11    1    3    3    0    0 -0.16836857617E+02  0.53496457654E+02  0.16934678922E+02  0.58584418630E+02  0.00000000000E+00 0.  1.
         11    1    3    3    0    0 -0.15624024833E+02 -0.46080531834E+01 -0.69381831584E+02  0.71268386120E+02  0.00000000000E+00 0. -1.
</event>
<event>
 7    1  0.6584658E-006  0.1387292E+03  0.7561462E-02  0.1215049E+00
         -2   -1    0    0    0  501 -0.00000000000E+00  0.00000000000E+00  0.75364310197E+02  0.75364310197E+02  0.00000000000E+00 0. -1.
          2   -1    0    0  501    0  0.00000000000E+00 -0.00000000000E+00 -0.42151656570E+03  0.42151656570E+03  0.00000000000E+00 0.  1.
         23    2    1    2    0    0 -0.28042585599E+02  0.12087564504E+03 -0.25685350481E+03  0.29934722794E+03  0.90761951115E+02 0.  0.
          5    1    1    2  502    0  0.57185898804E+01 -0.52009657620E+02  0.28105309580E+02  0.59540638076E+02  0.41800000000E+01 0. -1.
         -5    1    1    2    0  502  0.22323995718E+02 -0.68865987419E+02 -0.11740406027E+03  0.13799300988E+03  0.41800000000E+01 0. -1.
        -11    1    3    3    0    0  0.27015177810E+02  0.10267928570E+02 -0.34811980509E+02  0.45245156384E+02  0.00000000000E+00 0.  1.
         11    1    3    3    0    0 -0.55057763409E+02  0.11060771647E+03 -0.22204152430E+03  0.25410207156E+03  0.00000000000E+00 0. -1.
</event>
<event>
 7    1  0.6584658E-006  0.1121017E+03  0.7561462E-02  0.1256727E+00
         -1   -1    0    0    0  501 -0.00000000000E+00  0.00000000000E+00  0.47399014823E+03  0.47399014823E+03  0.00000000000E+00 0.  1.
          1   -1    0    0  501    0  0.00000000000E+00 -0.00000000000E+00 -0.61931168345E+02  0.61931168345E+02  0.00000000000E+00 0. -1.
         23    2    1    2    0    0  0.29006131370E+02  0.34105198501E+02  0.30469987243E+01  0.99913344520E+02  0.89268538635E+02 0.  0.
          5    1    1    2  502    0 -0.12592428625E+02  0.55224103438E+02  0.11503083622E+03  0.12828809976E+03  0.41800000000E+01 0. -1.
         -5    1    1    2    0  502 -0.16413702745E+02 -0.89329301939E+02  0.29398114494E+03  0.30771987229E+03  0.41800000000E+01 0.  1.
        -11    1    3    3    0    0 -0.16462580847E+01 -0.16899880965E+02  0.30089491742E+02  0.34549872005E+02  0.00000000000E+00 0.  1.
         11    1    3    3    0    0  0.30652389455E+02  0.51005079466E+02 -0.27042493017E+02  0.65363472515E+02  0.00000000000E+00 0. -1.
</event>
<event>
 7    1  0.6584658E-006  0.1525690E+03  0.7561462E-02  0.1197351E+00
          1   -1    0    0  501    0  0.00000000000E+00  0.00000000000E+00  0.62912020661E+03  0.62912020661E+03  0.00000000000E+00 0. -1.
         -1   -1    0    0    0  501 -0.00000000000E+00 -0.00000000000E+00 -0.44239184269E+02  0.44239184269E+02  0.00000000000E+00 0.  1.
         23    2    1    2    0    0 -0.22337093489E+02 -0.12242073497E+03  0.23600467373E+03  0.28240257859E+03  0.92559323013E+02 0.  0.
          5    1    1    2  502    0 -0.42176952314E+02  0.12350397742E+02  0.13331110297E+03  0.14043058857E+03  0.41800000000E+01 0. -1.
         -5    1    1    2    0  502  0.64514045803E+02  0.11007033723E+03  0.21556524565E+03  0.25052622373E+03  0.41800000000E+01 0. -1.
        -11    1    3    3    0    0  0.13234854000E+02 -0.14148093642E+02 -0.10223762438E+01  0.19400390906E+02  0.00000000000E+00 0.  1.
         11    1    3    3    0    0 -0.35571947489E+02 -0.10827264132E+03  0.23702704997E+03  0.26300218768E+03  0.00000000000E+00 0. -1.
</event>
<event>
 7    1  0.6584658E-006  0.1445863E+03  0.7561462E-02  0.1207288E+00
         -2   -1    0    0    0  501 -0.00000000000E+00  0.00000000000E+00  0.45688054705E+02  0.45688054705E+02  0.00000000000E+00 0.  1.
          2   -1    0    0  501    0  0.00000000000E+00 -0.00000000000E+00 -0.87331984822E+03  0.87331984822E+03  0.00000000000E+00 0. -1.
         23    2    1    2    0    0 -0.98335050583E+02  0.73486324374E+02 -0.65786284078E+03  0.67543360060E+03  0.91416680582E+02 0.  0.
          5    1    1    2  502    0  0.14283304936E+02  0.10037811696E+02  0.15430385925E+02  0.23671494953E+02  0.41800000000E+01 0. -1.
         -5    1    1    2    0  502  0.84051745647E+02 -0.83524136070E+02 -0.18519933865E+03  0.21990280737E+03  0.41800000000E+01 0.  1.
        -11    1    3    3    0    0 -0.69299434422E+02 -0.44915735992E+01 -0.27495578275E+03  0.28358996511E+03  0.00000000000E+00 0.  1.
         11    1    3    3    0    0 -0.29035616160E+02  0.77977897973E+02 -0.38290705804E+03  0.39184363549E+03  0.00000000000E+00 0. -1.
</event>
<event>
 7    1  0.6584658E-006  0.1501254E+03  0.7561462E-02  0.1200319E+00
          1   -1    0    0  501    0  0.00000000000E+00  0.00000000000E+00  0.67440674734E+02  0.67440674734E+02  0.00000000000E+00 0. -1.
         -1   -1    0    0    0  501 -0.00000000000E+00 -0.00000000000E+00 -0.46262684711E+03  0.46262684711E+03  0.00000000000E+00 0.  1.
         23    2    1    2    0    0  0.10063669939E+03  0.66883313393E+02 -0.10862767769E+03  0.19486033373E+03  0.10756139841E+03 0.  0.
          5    1    1    2  502    0  0.61806312265E+01 -0.38666272504E+02 -0.15237574258E+02  0.42224837489E+02  0.41800000000E+01 0.  1.
         -5    1    1    2    0  502 -0.10681733062E+03 -0.28217040889E+02 -0.27132092042E+03  0.29298235062E+03  0.41800000000E+01 0.  1.
        -11    1    3    3    0    0  0.83655091203E+02  0.24647593577E+01 -0.95460024507E+02  0.12695221779E+03  0.00000000000E+00 0.  1.
         11    1    3    3    0    0  0.16981608186E+02  0.64418554035E+02 -0.13167653188E+02  0.67908115944E+02  0.00000000000E+00 0. -1.
</event>
<event>
 7    1  0.6584658E-006  0.1366966E+03  0.7561462E-02  0.1217844E+00
         -1   -1    0    0    0  501 -0.00000000000E+00  0.00000000000E+00  0.12620694601E+03  0.12620694601E+03  0.00000000000E+00 0.  1.
          1   -1    0    0  501    0  0.00000000000E+00 -0.00000000000E+00 -0.32369425873E+03  0.32369425873E+03  0.00000000000E+00 0. -1.
         23    2    1    2    0    0 -0.67350214873E+02 -0.76247781540E+02 -0.24623553071E+03  0.28145370184E+03  0.90744002898E+02 0.  0.
          5    1    1    2  502    0  0.94590812777E+02  0.73826348558E+02  0.64828977164E+02  0.13644786654E+03  0.41800000000E+01 0. -1.
         -5    1    1    2    0  502 -0.27240597904E+02  0.24214329826E+01 -0.16080759163E+02  0.31999636359E+02  0.41800000000E+01 0. -1.
        -11    1    3    3    0    0 -0.87010134787E+00 -0.56228604223E+02 -0.57836914430E+02  0.80669211475E+02  0.00000000000E+00 0.  1.
         11    1    3    3    0    0 -0.66480113525E+02 -0.20019177318E+02 -0.18839861628E+03  0.20078449037E+03  0.00000000000E+00 0. -1.
</event>
<event>
 7    1  0.6584658E-006  0.3175051E+03  0.7561462E-02  0.1076803E+00
         -2   -1    0    0    0  501 -0.00000000000E+00  0.00000000000E+00  0.61823738596E+02  0.61823738596E+02  0.00000000000E+00 0.  1.
          2   -1    0    0  501    0  0.00000000000E+00 -0.00000000000E+00 -0.19311217588E+04  0.19311217588E+04  0.00000000000E+00 0. -1.
         23    2    1    2    0    0 -0.88822746011E+02 -0.29112270325E+03 -0.12676407779E+04  0.13071794737E+04  0.95724218429E+02 0.  0.
          5    1    1    2  502    0 -0.18996251545E+01  0.15977522696E+03 -0.38291112204E+03  0.41493388812E+03  0.41800000000E+01 0. -1.
         -5    1    1    2    0  502  0.90722371166E+02  0.13134747629E+03 -0.21874612028E+03  0.27083213564E+03  0.41800000000E+01 0. -1.
        -11    1    3    3    0    0  0.95055010847E+00 -0.13784825311E+03 -0.45871438944E+03  0.47898009928E+03  0.00000000000E+00 0. -1.
         11    1    3    3    0    0 -0.89773296120E+02 -0.15327445014E+03 -0.80892638847E+03  0.82819937438E+03  0.00000000000E+00 0.  1.
</event>
<event>
 7    1  0.6584658E-006  0.1013898E+03  0.7561462E-02  0.1277400E+00
          2   -1    0    0  501    0  0.00000000000E+00  0.00000000000E+00  0.51594896396E+03  0.51594896396E+03  0.00000000000E+00 0. -1.
         -2   -1    0    0    0  501 -0.00000000000E+00 -0.00000000000E+00 -0.35077819278E+02  0.35077819278E+02  0.00000000000E+00 0.  1.
         23    2    1    2    0    0 -0.27835891426E+02 -0.39809337048E+01  0.36794776742E+03  0.38017481412E+03  0.91414687300E+02 0.  0.
          5    1    1    2  502    0 -0.38767735708E+02 -0.68293291724E+01  0.91884986499E+02  0.10004948882E+03  0.41800000000E+01 0. -1.
         -5    1    1    2    0  502  0.66603627134E+02  0.10810262877E+02  0.21038390757E+02  0.70802480299E+02  0.41800000000E+01 0. -1.
        -11    1    3    3    0    0 -0.27892143935E+02  0.41557899152E+02  0.19893907182E+03  0.20513845318E+03  0.00000000000E+00 0. -1.
         11    1    3    3    0    0  0.56252509774E-01 -0.45538832857E+02  0.16900869560E+03  0.17503636094E+03  0.00000000000E+00 0.  1.
</event>
<event>
 7    1  0.6584658E-006  0.1099698E+03  0.7561462E-02  0.1260626E+00
          1   -1    0    0  501    0  0.00000000000E+00  0.00000000000E+00  0.56444472751E+03  0.56444472751E+03  0.00000000000E+00 0. -1.
         -1   -1    0    0    0  501 -0.00000000000E+00 -0.00000000000E+00 -0.40127713647E+02  0.40127713647E+02  0.00000000000E+00 0.  1.
         23    2    1    2    0    0 -0.25753294873E+02 -0.71694953097E+02  0.38265882080E+03  0.40080987866E+03  0.91746319804E+02 0.  0.
          5    1    1    2  502    0 -0.18953671314E+02  0.57298623961E+02  0.14436837124E+03  0.15653138017E+03  0.41800000000E+01 0.  1.
         -5    1    1    2    0  502  0.44706966187E+02  0.14396329136E+02 -0.27101781767E+01  0.47231182327E+02  0.41800000000E+01 0.  1.
        -11    1    3    3    0    0 -0.55355096638E+02 -0.56175560577E+02  0.32236184072E+03  0.33186900531E+03  0.00000000000E+00 0. -1.
         11    1    3    3    0    0  0.29601801765E+02 -0.15519392520E+02  0.60296980080E+02  0.68940873353E+02  0.00000000000E+00 0.  1.
</event>
<event>
 7    1  0.6584658E-006  0.1578488E+03  0.7561462E-02  0.1191147E+00
         -1   -1    0    0    0  501 -0.00000000000E+00  0.00000000000E+00  0.14928821252E+03  0.14928821252E+03  0.00000000000E+00 0.  1.
          1   -1    0    0  501    0  0.00000000000E+00 -0.00000000000E+00 -0.25362547046E+03  0.25362547046E+03  0.00000000000E+00 0. -1.
         23    2    1    2    0    0 -0.64437140202E+02 -0.11643765730E+03 -0.14374622861E+03  0.21607405602E+03  0.91187424427E+02 0.  0.
          5    1    1    2  502    0  0.26831582750E+02 -0.22639156110E+02 -0.57059060749E+01  0.35811939159E+02  0.41800000000E+01 0. -1.
         -5    1    1    2    0  502  0.37605557452E+02  0.13907681341E+03  0.45114876735E+02  0.15102768780E+03  0.41800000000E+01 0. -1.
        -11    1    3    3    0    0 -0.51861391995E+01 -0.35647861480E+02  0.53752128742E+01  0.36421957407E+02  0.00000000000E+00 0.  1.
         11    1    3    3    0    0 -0.59251001002E+02 -0.80789795815E+02 -0.14912144148E+03  0.17965209862E+03  0.00000000000E+00 0. -1.
</event>
<event>
 7    1  0.6584658E-006  0.1046452E+03  0.7561462E-02  0.1270820E+00
         -1   -1    0    0    0  501 -0.00000000000E+00  0.00000000000E+00  0.85249028568E+02  0.85249028568E+02  0.00000000000E+00 0.  1.
          1   -1    0    0  501    0  0.00000000000E+00 -0.00000000000E+00 -0.23780097519E+03  0.23780097519E+03  0.00000000000E+00 0. -1.
         23    2    1    2    0    0  0.69897737420E+02 -0.46082218601E+02 -0.23864655450E+02  0.12501596996E+03  0.89722942426E+02 0.  0.
          5    1    1    2  502    0 -0.52869838091E+02  0.69130651843E+01 -0.14309678045E+03  0.15276508510E+03  0.41800000000E+01 0. -1.
         -5    1    1    2    0  502 -0.17027899328E+02  0.39169153417E+02  0.14409489279E+02  0.45268948698E+02  0.41800000000E+01 0. -1.
        -11    1    3    3    0    0 -0.14215216888E+02  0.42918920428E+01 -0.22505780707E+02  0.26962991187E+02  0.00000000000E+00 0. -1.
         11    1    3    3    0    0  0.84112954308E+02 -0.50374110644E+02 -0.13588747424E+01  0.98052978772E+02  0.00000000000E+00 0.  1.
</event>
<event>
 7    1  0.6584658E-006  0.1337824E+03  0.7561462E-02  0.1221949E+00
          2   -1    0    0  501    0  0.00000000000E+00  0.00000000000E+00  0.35387032272E+03  0.35387032272E+03  0.00000000000E+00 0. -1.
         -2   -1    0    0    0  501 -0.00000000000E+00 -0.00000000000E+00 -0.12780380000E+03  0.12780380000E+03  0.00000000000E+00 0.  1.
         23    2    1    2    0    0  0.74353025103E+02  0.68309021501E+02  0.28042479226E+03  0.31190883823E+03  0.91948705768E+02 0.  0.
          5    1    1    2  502    0 -0.70553101101E+02 -0.68593832003E+01 -0.76338795375E+02  0.10425869408E+03  0.41800000000E+01 0. -1.
         -5    1    1    2    0  502 -0.37999240022E+01 -0.61449638301E+02  0.21980525836E+02  0.65506590399E+02  0.41800000000E+01 0.  1.
        -11    1    3    3    0    0  0.82835326236E+02  0.19226776804E+02  0.19972778832E+03  0.21707728957E+03  0.00000000000E+00 0. -1.
         11    1    3    3    0    0 -0.84823011330E+01  0.49082244697E+02  0.80697003935E+02  0.94831548659E+02  0.00000000000E+00 0.  1.
</event>
<event>
 7    1  0.6584658E-006  0.1470548E+03  0.7561462E-02  0.1204139E+00
         -2   -1    0    0    0  501 -0.00000000000E+00  0.00000000000E+00  0.21336296367E+03  0.21336296367E+03  0.00000000000E+00 0.  1.
          2   -1    0    0  501    0  0.00000000000E+00 -0.00000000000E+00 -0.10255570408E+03  0.10255570408E+03  0.00000000000E+00 0. -1.
         23    2    1    2    0    0 -0.43129934298E+01  0.99956074925E+02  0.58827838024E+02  0.14751419690E+03  0.91048915064E+02 0.  0.
          5    1    1    2  502    0 -0.28096333024E+02  0.20392201741E+02  0.59222195420E+01  0.35465347955E+02  0.41800000000E+01 0. -1.
         -5    1    1    2    0  502  0.32409326454E+02 -0.12034827667E+03  0.46057202020E+02  0.13293912289E+03  0.41800000000E+01 0. -1.
        -11    1    3    3    0    0  0.36661831665E+02  0.14055832613E+02  0.98592785728E+01  0.40482856933E+02  0.00000000000E+00 0.  1.
         11    1    3    3    0    0 -0.40974825095E+02  0.85900242311E+02  0.48968559451E+02  0.10703133997E+03  0.00000000000E+00 0. -1.
</event>
<event>
 7    1  0.6584658E-006  0.9776340E+02  0.7561462E-02  0.1285071E+00
         -2   -1    0    0    0  501 -0.00000000000E+00  0.00000000000E+00  0.19336772645E+03  0.19336772645E+03  0.00000000000E+00 0.  1.
          2   -1    0    0  501    0  0.00000000000E+00 -0.00000000000E+00 -0.16043898982E+03  0.16043898982E+03  0.00000000000E+00 0. -1.
         23    2    1    2    0    0 -0.51049571538E+02 -0.36897890481E+02 -0.10953908481E+03  0.15404516767E+03  0.88111233703E+02 0.  0.
          5    1    1    2  502    0 -0.27295291952E+02  0.10924130743E+02  0.10482210792E+03  0.10894730976E+03  0.41800000000E+01 0. -1.
         -5    1    1    2    0  502  0.78344863490E+02  0.25973759738E+02  0.37645713520E+02  0.90814238842E+02  0.41800000000E+01 0. -1.
        -11    1    3    3    0    0 -0.21911012840E+02  0.12946739406E+02  0.48524780530E+01  0.25908629608E+02  0.00000000000E+00 0.  1.
         11    1    3    3    0    0 -0.29138558698E+02 -0.49844629887E+02 -0.11439156286E+03  0.12813653806E+03  0.00000000000E+00 0. -1.
</event>
<event>
 7    1  0.6584658E-006  0.8765523E+02  0.7561462E-02  0.1308631E+00
         -2   -1    0    0    0  501 -0.00000000000E+00  0.00000000000E+00  0.46229214877E+02  0.46229214877E+02  0.00000000000E+00 0.  1.
          2   -1    0    0  501    0  0.00000000000E+00 -0.00000000000E+00 -0.31352055855E+03  0.31352055855E+03  0.00000000000E+00 0. -1.
         23    2    1    2    0    0  0.12933062095E+02  0.25520923519E+02 -0.18236870466E+03  0.20587284214E+03  0.91141105208E+02 0.  0.
          5    1    1    2  502    0 -0.12594132555E+02 -0.52265170705E+02 -0.10642432346E+03  0.11930578053E+03  0.41800000000E+01 0. -1.
         -5    1    1    2    0  502 -0.33892954063E+00  0.26744247186E+02  0.21501684447E+02  0.34571150760E+02  0.41800000000E+01 0. -1.
        -11    1    3    3    0    0 -0.13235360886E+02 -0.30080965742E+02 -0.48655969049E+02  0.58714926568E+02  0.00000000000E+00 0.  1.
         11    1    3    3    0    0  0.26168422981E+02  0.55601889261E+02 -0.13371273561E+03  0.14715791557E+03  0.00000000000E+00 0. -1.
</event>
<event>
 7    1  0.6584658E-006  0.8778327E+02  0.7561462E-02  0.1308310E+00
          2   -1    0    0  501    0  0.00000000000E+00  0.00000000000E+00  0.22110407869E+03  0.22110407869E+03  0.00000000000E+00 0.  1.
         -2   -1    0    0    0  501 -0.00000000000E+00 -0.00000000000E+00 -0.63483579661E+02  0.63483579661E+02  0.00000000000E+00 0. -1.
         23    2    1    2    0    0 -0.12164246083E+02  0.21608665915E+02  0.11850076727E+03  0.15119903114E+03  0.90574896347E+02 0.  0.
          5    1    1    2  502    0 -0.53932496118E+02 -0.14600678326E+01  0.34141390258E+02  0.63984004753E+02  0.41800000000E+01 0.  1.
         -5    1    1    2    0  502  0.66096742200E+02 -0.20148598083E+02  0.49783414986E+01  0.69404622456E+02  0.41800000000E+01 0.  1.
        -11    1    3    3    0    0 -0.22824694687E+02  0.30673104099E+02  0.12845647631E+03  0.13402564049E+03  0.00000000000E+00 0.  1.
         11    1    3    3    0    0  0.10660448605E+02 -0.90644381833E+01 -0.99557090372E+01  0.17173390651E+02  0.00000000000E+00 0. -1.
</event>
<event>
 7    1  0.6584658E-006  0.3718840E+03  0.7561462E-02  0.1053975E+00
         -1   -1    0    0    0  501 -0.00000000000E+00  0.00000000000E+00  0.18606675239E+03  0.18606675239E+03  0.00000000000E+00 0.  1.
          1   -1    0    0  501    0  0.00000000000E+00 -0.00000000000E+00 -0.10801054858E+04  0.10801054858E+04  0.00000000000E+00 0. -1.
         23    2    1    2    0    0 -0.36960479060E+03 -0.17685642867E+02 -0.76452062960E+03  0.85465131365E+03  0.94955735092E+02 0.  0.
          5    1    1    2  502    0  0.96370241587E+02  0.15379582799E+02  0.20453505056E+02  0.99797661795E+02  0.41800000000E+01 0. -1.
         -5    1    1    2    0  502  0.27323454901E+03  0.23060600684E+01 -0.14997160889E+03  0.31172326278E+03  0.41800000000E+01 0. -1.
        -11    1    3    3    0    0 -0.23856969018E+03 -0.33174365743E+02 -0.57799164733E+03  0.62617120662E+03  0.00000000000E+00 0. -1.
         11    1    3    3    0    0 -0.13103510042E+03  0.15488722876E+02 -0.18652898227E+03  0.22848010702E+03  0.00000000000E+00 0.  1.
</event>
<event>
 7    1  0.6584658E-006  0.9274364E+02  0.7561462E-02  0.1296340E+00
          1   -1    0    0  501    0  0.00000000000E+00  0.00000000000E+00  0.31332282587E+03  0.31332282587E+03  0.00000000000E+00 0. -1.
         -1   -1    0    0    0  501 -0.00000000000E+00 -0.00000000000E+00 -0.61979322613E+02  0.61979322613E+02  0.00000000000E+00 0.  1.
         23    2    1    2    0    0  0.56588337548E+02  0.63033399239E+02  0.14213153312E+03  0.18889207635E+03  0.91122963265E+02 0.  0.
          5    1    1    2  502    0 -0.63186935012E+02 -0.40738676828E+02  0.13303122633E+03  0.15286271005E+03  0.41800000000E+01 0. -1.
         -5    1    1    2    0  502  0.65985974635E+01 -0.22294722411E+02 -0.23819256204E+02  0.33547362072E+02  0.41800000000E+01 0. -1.
        -11    1    3    3    0    0  0.14812362434E+02  0.29450109857E+02  0.12975989428E+03  0.13388183303E+03  0.00000000000E+00 0. -1.
         11    1    3    3    0    0  0.41775975114E+02  0.33583289383E+02  0.12371638840E+02  0.55010243320E+02  0.00000000000E+00 0.  1.
</event>
<event>
 7    1  0.6584658E-006  0.8236055E+02  0.7561462E-02  0.1322483E+00
          2   -1    0    0  501    0  0.00000000000E+00  0.00000000000E+00  0.45939203116E+03  0.45939203116E+03  0.00000000000E+00 0. -1.
         -2   -1    0    0    0  501 -0.00000000000E+00 -0.00000000000E+00 -0.27865550649E+02  0.27865550649E+02  0.00000000000E+00 0.  1.
         23    2    1    2    0    0 -0.13164573516E+02  0.25440628575E+02  0.22150725220E+03  0.24113717752E+03  0.90890835784E+02 0.  0.
          5    1    1    2  502    0  0.20826770647E+01 -0.57060982544E+02  0.20392473987E+03  0.21180903003E+03  0.41800000000E+01 0.  1.
         -5    1    1    2    0  502  0.11081896451E+02  0.31620353969E+02  0.60944884490E+01  0.34311374259E+02  0.41800000000E+01 0.  1.
        -11    1    3    3    0    0  0.20013890645E+02 -0.12269494626E+02  0.13350503166E+02  0.27006152113E+02  0.00000000000E+00 0.  1.
         11    1    3    3    0    0 -0.33178464161E+02  0.37710123202E+02  0.20815674903E+03  0.21413102541E+03  0.00000000000E+00 0. -1.
</event>
<event>
 7    1  0.6584658E-006  0.1443092E+03  0.7561462E-02  0.1207645E+00
          2   -1    0    0  501    0  0.00000000000E+00  0.00000000000E+00  0.46360508330E+03  0.46360508330E+03  0.00000000000E+00 0. -1.
         -2   -1    0    0    0  501 -0.00000000000E+00 -0.00000000000E+00 -0.45027058394E+02  0.45027058394E+02  0.00000000000E+00 0.  1.
         23    2    1    2    0    0 -0.86309841699E+02  0.41671942269E+02  0.18791767225E+03  0.22927591200E+03  0.89824566427E+02 0.  0.
          5    1    1    2  502    0 -0.13780079810E+02 -0.54568461128E+02  0.88650293690E+02  0.10509022086E+03  0.41800000000E+01 0.  1.
         -5    1    1    2    0  502  0.10008992151E+03  0.12896518859E+02  0.14201005896E+03  0.17426600883E+03  0.41800000000E+01 0.  1.
        -11    1    3    3    0    0 -0.10417623750E+03  0.25903553491E+02  0.15822298180E+03  0.19120197309E+03  0.00000000000E+00 0. -1.
         11    1    3    3    0    0  0.17866395800E+02  0.15768388778E+02  0.29694690451E+02  0.38073938915E+02  0.00000000000E+00 0.  1.
</event>
<event>
 7    1  0.6584658E-006  0.1102387E+03  0.7561462E-02  0.1260128E+00
         -4   -1    0    0    0  501 -0.00000000000E+00  0.00000000000E+00  0.30824793158E+03  0.30824793158E+03  0.00000000000E+00 0. -1.
          4   -1    0    0  501    0  0.00000000000E+00 -0.00000000000E+00 -0.44331558491E+02  0.44331558491E+02  0.00000000000E+00 0.  1.
         23    2    1    2    0    0 -0.21393087559E+02 -0.13785742036E+02  0.11403054259E+03  0.15570284337E+03  0.10292084294E+03 0.  0.
          5    1    1    2  502    0  0.29901420523E+02 -0.52049370929E+02  0.83308517264E+02  0.10276679139E+03  0.41800000000E+01 0.  1.
         -5    1    1    2    0  502 -0.85083329634E+01  0.65835112966E+02  0.66577313228E+02  0.94109855306E+02  0.41800000000E+01 0.  1.
        -11    1    3    3    0    0  0.34074928310E+02 -0.17293761993E+02  0.84561969806E+02  0.92794944263E+02  0.00000000000E+00 0. -1.
         11    1    3    3    0    0 -0.55468015869E+02  0.35080199565E+01  0.29468572788E+02  0.62907899112E+02  0.00000000000E+00 0.  1.
</event>
<event>
 7    1  0.6584658E-006  0.1175136E+03  0.7561462E-02  0.1247256E+00
         -1   -1    0    0    0  501 -0.00000000000E+00  0.00000000000E+00  0.47606451646E+02  0.47606451646E+02  0.00000000000E+00 0.  1.
          1   -1    0    0  501    0  0.00000000000E+00 -0.00000000000E+00 -0.35745463633E+03  0.35745463633E+03  0.00000000000E+00 0. -1.
         23    2    1    2    0    0 -0.64084921852E+02 -0.31716752095E+01 -0.18827164705E+03  0.21919701082E+03  0.92109607200E+02 0.  0.
          5    1    1    2  502    0  0.61486299852E+02  0.57386169745E+02 -0.58447918086E+02  0.10250545876E+03  0.41800000000E+01 0. -1.
         -5    1    1    2    0  502  0.25986219999E+01 -0.54214494535E+02 -0.63128619551E+02  0.83358618393E+02  0.41800000000E+01 0. -1.
        -11    1    3    3    0    0 -0.48874120020E+02 -0.35664753786E+02 -0.16668561122E+03  0.17732666821E+03  0.00000000000E+00 0. -1.
         11    1    3    3    0    0 -0.15210801832E+02  0.32493078577E+02 -0.21586035830E+02  0.41870342614E+02  0.00000000000E+00 0.  1.
</event>
<event>
 7    1  0.6584658E-006  0.1018868E+03  0.7561462E-02  0.1276377E+00
         -3   -1    0    0    0  501 -0.00000000000E+00  0.00000000000E+00  0.11438646762E+03  0.11438646762E+03  0.00000000000E+00 0.  1.
          3   -1    0    0  501    0  0.00000000000E+00 -0.00000000000E+00 -0.14936078926E+03  0.14936078926E+03  0.00000000000E+00 0. -1.
         23    2    1    2    0    0  0.85406153417E+01 -0.38665654483E+01 -0.86995074440E+02  0.12794460051E+03  0.93347658701E+02 0.  0.
          5    1    1    2  502    0  0.25546418372E+02 -0.45706034277E+02  0.54173597630E+02  0.75458015752E+02  0.41800000000E+01 0. -1.
         -5    1    1    2    0  502 -0.34087033713E+02  0.49572599725E+02 -0.21528448317E+01  0.60344640622E+02  0.41800000000E+01 0. -1.
        -11    1    3    3    0    0  0.26073611838E+02  0.37693668874E+02 -0.28102414073E+02  0.53762362152E+02  0.00000000000E+00 0. -1.
         11    1    3    3    0    0 -0.17532996496E+02 -0.41560234323E+02 -0.58892660367E+02  0.74182238361E+02  0.00000000000E+00 0.  1.
</event>
<event>
 7    1  0.6584658E-006  0.9550122E+02  0.7561462E-02  0.1290051E+00
          3   -1    0    0  501    0  0.00000000000E+00  0.00000000000E+00  0.93277373460E+02  0.93277373460E+02  0.00000000000E+00 0. -1.
         -3   -1    0    0    0  501 -0.00000000000E+00 -0.00000000000E+00 -0.16207888494E+03  0.16207888494E+03  0.00000000000E+00 0.  1.
         23    2    1    2    0    0  0.29824396286E+02 -0.44714985623E+02 -0.63851145895E+01  0.10558316707E+03  0.90653797091E+02 0.  0.
          5    1    1    2  502    0 -0.50062837959E+02  0.40803782791E+02  0.17573988029E+02  0.67063804617E+02  0.41800000000E+01 0. -1.
         -5    1    1    2    0  502  0.20238441672E+02  0.39112028318E+01 -0.79990384915E+02  0.82709286708E+02  0.41800000000E+01 0. -1.
        -11    1    3    3    0    0 -0.30862457143E+02 -0.29480068216E+02  0.82204678204E-01  0.42679883324E+02  0.00000000000E+00 0.  1.
         11    1    3    3    0    0  0.60686853429E+02 -0.15234917407E+02 -0.64673192677E+01  0.62903283746E+02  0.00000000000E+00 0. -1.
</event>
<event>
 7    1  0.6584658E-006  0.9810699E+02  0.7561462E-02  0.1284328E+00
         -1   -1    0    0    0  501 -0.00000000000E+00  0.00000000000E+00  0.42182855092E+02  0.42182855092E+02  0.00000000000E+00 0.  1.
          1   -1    0    0  501    0  0.00000000000E+00 -0.00000000000E+00 -0.38589738092E+03  0.38589738092E+03  0.00000000000E+00 0. -1.
         23    2    1    2    0    0 -0.15894916121E+02 -0.13553255005E+02 -0.25648340738E+03  0.27415488784E+03  0.94555936812E+02 0.  0.
          5    1    1    2  502    0  0.35023414605E+02 -0.33672751060E+02  0.44359510217E+01  0.48965741044E+02  0.41800000000E+01 0. -1.
         -5    1    1    2    0  502 -0.19128498484E+02  0.47226006065E+02 -0.91667069464E+02  0.10495960712E+03  0.41800000000E+01 0. -1.
        -11    1    3    3    0    0  0.21197526767E+02  0.31499642718E+02 -0.87643570439E+02  0.95514177334E+02  0.00000000000E+00 0.  1.
         11    1    3    3    0    0 -0.37092442888E+02 -0.45052897722E+02 -0.16883983694E+03  0.17864071051E+03  0.00000000000E+00 0. -1.
</event>
<event>
 7    1  0.6584658E-006  0.1896745E+03  0.7561462E-02  0.1158755E+00
          1   -1    0    0  501    0  0.00000000000E+00  0.00000000000E+00  0.12190220339E+04  0.12190220339E+04  0.00000000000E+00 0. -1.
         -1   -1    0    0    0  501 -0.00000000000E+00 -0.00000000000E+00 -0.36088358937E+02  0.36088358937E+02  0.00000000000E+00 0.  1.
         23    2    1    2    0    0 -0.14227606252E+03  0.41934716065E+02  0.81473496491E+03  0.83341780024E+03  0.93761230437E+02 0.  0.
          5    1    1    2  502    0 -0.13908512650E+01  0.38786648085E+02  0.93610045852E+02  0.10142313159E+03  0.41800000000E+01 0. -1.
         -5    1    1    2    0  502  0.14366691378E+03 -0.80721364150E+02  0.27458866419E+03  0.32026946100E+03  0.41800000000E+01 0.  1.
        -11    1    3    3    0    0  0.14008009370E+02  0.50566117783E+01  0.71407677266E+02  0.72944156872E+02  0.00000000000E+00 0.  1.
         11    1    3    3    0    0 -0.15628407189E+03  0.36878104287E+02  0.74332728764E+03  0.76047364336E+03  0.00000000000E+00 0. -1.
</event>
<event>
 7    1  0.6584658E-006  0.1086877E+03  0.7561462E-02  0.1263019E+00
          2   -1    0    0  501    0  0.00000000000E+00  0.00000000000E+00  0.67383891433E+03  0.67383891433E+03  0.00000000000E+00 0. -1.
         -2   -1    0    0    0  501 -0.00000000000E+00 -0.00000000000E+00 -0.27669711432E+02  0.27669711432E+02  0.00000000000E+00 0.  1.
         23    2    1    2    0    0  0.14967978990E+02  0.81751645606E+02  0.39561580472E+03  0.41507509717E+03  0.94170586671E+02 0.  0.
          5    1    1    2  502    0  0.10901182841E+02 -0.58614726191E+02  0.24355741211E+03  0.25078318785E+03  0.41800000000E+01 0. -1.
         -5    1    1    2    0  502 -0.25869161831E+02 -0.23136919415E+02  0.69959860662E+01  0.35650340740E+02  0.41800000000E+01 0.  1.
        -11    1    3    3    0    0 -0.49559557832E+01 -0.19160928669E+02  0.10358335642E+03  0.10545716862E+03  0.00000000000E+00 0.  1.
         11    1    3    3    0    0  0.19923934774E+02  0.10091257427E+03  0.29203244830E+03  0.30961792856E+03  0.00000000000E+00 0. -1.
</event>
<event>
 7    1  0.6584658E-006  0.1136546E+03  0.7561462E-02  0.1253948E+00
          1   -1    0    0  501    0  0.00000000000E+00  0.00000000000E+00  0.12454872384E+03  0.12454872384E+03  0.00000000000E+00 0. -1.
         -1   -1    0    0    0  501 -0.00000000000E+00 -0.00000000000E+00 -0.13936949244E+03  0.13936949244E+03  0.00000000000E+00 0.  1.
         23    2    1    2    0    0  0.65836667796E+02  0.31674348802E+02  0.43946400532E+01  0.11778250357E+03  0.92280410098E+02 0.  0.
          5    1    1    2  502    0 -0.99645739739E+02 -0.95255495004E+01  0.21850302205E+01  0.10021105876E+03  0.41800000000E+01 0. -1.
         -5    1    1    2    0  502  0.33809071943E+02 -0.22148799302E+02 -0.21400438876E+02  0.45924653948E+02  0.41800000000E+01 0. -1.
        -11    1    3    3    0    0  0.44557076339E+02 -0.42240177734E+01  0.42169538389E+02  0.61493457749E+02  0.00000000000E+00 0. -1.
         11    1    3    3    0    0  0.21279591457E+02  0.35898366575E+02 -0.37774898335E+02  0.56289045822E+02  0.00000000000E+00 0.  1.
</event>
<event>
 7    1  0.6584658E-006  0.1845000E+03  0.7561462E-02  0.1163518E+00
         -1   -1    0    0    0  501 -0.00000000000E+00  0.00000000000E+00  0.24151072740E+03  0.24151072740E+03  0.00000000000E+00 0.  1.
          1   -1    0    0  501    0  0.00000000000E+00 -0.00000000000E+00 -0.31735510418E+03  0.31735510418E+03  0.00000000000E+00 0. -1.
         23    2    1    2    0    0  0.11796135289E+03 -0.18087121906E+02 -0.22948308468E+03  0.27420634148E+03  0.91019815406E+02 0.  0.
          5    1    1    2  502    0 -0.60476038147E+02 -0.92058189559E+02  0.10155156452E+03  0.14987412756E+03  0.41800000000E+01 0. -1.
         -5    1    1    2    0  502 -0.57485314741E+02  0.11014531147E+03  0.52087143385E+02  0.13478536254E+03  0.41800000000E+01 0.  1.
        -11    1    3    3    0    0  0.28525355181E+02  0.22417739352E+02 -0.16852962093E+02  0.40003415569E+02  0.00000000000E+00 0.  1.
         11    1    3    3    0    0  0.89435997707E+02 -0.40504861258E+02 -0.21263012259E+03  0.23420292591E+03  0.00000000000E+00 0. -1.
</event>
<event>
 7    1  0.6584658E-006  0.8191197E+02  0.7561462E-02  0.1323711E+00
         -2   -1    0    0    0  501 -0.00000000000E+00  0.00000000000E+00  0.15117587170E+03  0.15117587170E+03  0.00000000000E+00 0.  1.
          2   -1    0    0  501    0  0.00000000000E+00 -0.00000000000E+00 -0.93046922112E+02  0.93046922112E+02  0.00000000000E+00 0. -1.
         23    2    1    2    0    0  0.19625933788E+02  0.29073435422E+02 -0.15147989880E+02  0.95294702471E+02  0.87299351644E+02 0.  0.
          5    1    1    2  502    0 -0.11263035491E+02 -0.77860029729E+02  0.54628700890E+02  0.95868699579E+02  0.41800000000E+01 0.  1.
         -5    1    1    2    0  502 -0.83628982970E+01  0.48786594307E+02  0.18648238575E+02  0.53059391760E+02  0.41800000000E+01 0.  1.
        -11    1    3    3    0    0  0.81802684022E+01  0.83206807529E+01  0.36580028610E+02  0.38395950469E+02  0.00000000000E+00 0.  1.
         11    1    3    3    0    0  0.11445665386E+02  0.20752754669E+02 -0.51728018490E+02  0.56898752002E+02  0.00000000000E+00 0. -1.
</event>
<event>
 7    1  0.6584658E-006  0.8430506E+02  0.7561462E-02  0.1317260E+00
         -2   -1    0    0    0  501 -0.00000000000E+00  0.00000000000E+00  0.21176273598E+03  0.21176273598E+03  0.00000000000E+00 0.  1.
          2   -1    0    0  501    0  0.00000000000E+00 -0.00000000000E+00 -0.56636955835E+02  0.56636955835E+02  0.00000000000E+00 0. -1.
         23    2    1    2    0    0 -0.13425188240E+02 -0.16058396750E+02  0.49502307417E+02  0.10334783555E+03  0.88273375872E+02 0.  0.
          5    1    1    2  502    0 -0.16664883697E+02  0.62595040408E+02  0.82210210781E+02  0.10474659225E+03  0.41800000000E+01 0. -1.
         -5    1    1    2    0  502  0.30090071937E+02 -0.46536643658E+02  0.23413261945E+02  0.60305264008E+02  0.41800000000E+01 0. -1.
        -11    1    3    3    0    0 -0.20568425483E+02  0.87179884894E+01  0.68024818758E+02  0.71599157937E+02  0.00000000000E+00 0.  1.
         11    1    3    3    0    0  0.71432372431E+01 -0.24776385239E+02 -0.18522511341E+02  0.31748677614E+02  0.00000000000E+00 0. -1.
</event>
<event>
 7    1  0.6584658E-006  0.1362810E+03  0.7561462E-02  0.1218423E+00
         -2   -1    0    0    0  501 -0.00000000000E+00  0.00000000000E+00  0.41374442542E+02  0.41374442542E+02  0.00000000000E+00 0.  1.
          2   -1    0    0  501    0  0.00000000000E+00 -0.00000000000E+00 -0.50826525451E+03  0.50826525451E+03  0.00000000000E+00 0. -1.
         23    2    1    2    0    0 -0.60580503777E+02 -0.74642152639E+02 -0.20625348818E+03  0.24497428404E+03  0.90721827961E+02 0.  0.
          5    1    1    2  502    0  0.77060741271E+02  0.98932597961E+01 -0.19899101634E+03  0.21366125391E+03  0.41800000000E+01 0.  1.
         -5    1    1    2    0  502 -0.16480237494E+02  0.64748892843E+02 -0.61646307441E+02  0.91004159099E+02  0.41800000000E+01 0.  1.
        -11    1    3    3    0    0 -0.81399822534E+02 -0.49904171342E+02 -0.12332829273E+03  0.15596866741E+03  0.00000000000E+00 0.  1.
         11    1    3    3    0    0  0.20819318757E+02 -0.24737981297E+02 -0.82925195450E+02  0.89005616635E+02  0.00000000000E+00 0. -1.
</event>
<event>
 7    1  0.6584658E-006  0.1203418E+03  0.7561462E-02  0.1242534E+00
         -1   -1    0    0    0  501 -0.00000000000E+00  0.00000000000E+00  0.13500517970E+03  0.13500517970E+03  0.00000000000E+00 0.  1.
          1   -1    0    0  501    0  0.00000000000E+00 -0.00000000000E+00 -0.10812426947E+03  0.10812426947E+03  0.00000000000E+00 0. -1.
         23    2    1    2    0    0  0.54479027669E+02 -0.14724580544E+02  0.78792056169E+01  0.10458755654E+03  0.87702322511E+02 0.  0.
          5    1    1    2  502    0 -0.54200652429E+02 -0.48635755571E+02  0.17561728623E+02  0.75026889552E+02  0.41800000000E+01 0. -1.
         -5    1    1    2    0  502 -0.27837524077E+00  0.63360336115E+02  0.14399759958E+01  0.63515003080E+02  0.41800000000E+01 0. -1.
        -11    1    3    3    0    0  0.40076320830E+01 -0.45138103283E+02  0.18516037239E+01  0.45353477477E+02  0.00000000000E+00 0.  1.
         11    1    3    3    0    0  0.50471395586E+02  0.30413522739E+02  0.60276018929E+01  0.59234079063E+02  0.00000000000E+00 0. -1.
</event>
<event>
 7    1  0.6584658E-006  0.8461968E+02  0.7561462E-02  0.1316430E+00
         -2   -1    0    0    0  501 -0.00000000000E+00  0.00000000000E+00  0.18125128272E+03  0.18125128272E+03  0.00000000000E+00 0. -1.
          2   -1    0    0  501    0  0.00000000000E+00 -0.00000000000E+00 -0.11934116138E+03  0.11934116138E+03  0.00000000000E+00 0.  1.
         23    2    1    2    0    0  0.44207075959E+02  0.15574475559E+02 -0.56543947696E+02  0.12205370619E+03  0.97483636166E+02 0.  0.
          5    1    1    2  502    0  0.15887452093E+00  0.36651808599E+02  0.10125127018E+03  0.10776211035E+03  0.41800000000E+01 0.  1.
         -5    1    1    2    0  502 -0.44365950480E+02 -0.52226284158E+02  0.17202798856E+02  0.70776627551E+02  0.41800000000E+01 0.  1.
        -11    1    3    3    0    0  0.43053235474E+02 -0.47714629353E+01 -0.80004391946E+02  0.90978297819E+02  0.00000000000E+00 0.  1.
         11    1    3    3    0    0  0.11538404847E+01  0.20345938495E+02  0.23460444250E+02  0.31075408372E+02  0.00000000000E+00 0. -1.
</event>
<event>
 7    1  0.1420383E-005  0.2092428E+03  0.7561462E-02  0.1142167E+00
         -2   -1    0    0    0  501 -0.00000000000E+00  0.00000000000E+00  0.26751531684E+03  0.26751531684E+03  0.00000000000E+00 0. -1.
          2   -1    0    0  501    0  0.00000000000E+00 -0.00000000000E+00 -0.18938649241E+03  0.18938649241E+03  0.00000000000E+00 0.  1.
         23    2    1    2    0    0  0.55636658750E+02 -0.17169654856E+03 -0.39267001888E+02  0.20789520359E+03  0.95411611724E+02 0.  0.
          5    1    1    2  502    0 -0.28283971624E+02  0.18262843564E+03  0.80528196190E+02  0.20163182124E+03  0.41800000000E+01 0.  1.
         -5    1    1    2    0  502 -0.27352687127E+02 -0.10931887074E+02  0.36867630127E+02  0.47374784424E+02  0.41800000000E+01 0.  1.
        -11    1    3    3    0    0 -0.26132815861E+02 -0.60081223130E+02 -0.17648130227E+02  0.67853768784E+02  0.00000000000E+00 0. -1.
         11    1    3    3    0    0  0.81769474612E+02 -0.11161532543E+03 -0.21618871661E+02  0.14004143480E+03  0.00000000000E+00 0.  1.
</event>
<event>
 7    1  0.6584658E-006  0.1662295E+03  0.7561462E-02  0.1181838E+00
         -1   -1    0    0    0  501 -0.00000000000E+00  0.00000000000E+00  0.51007549139E+03  0.51007549139E+03  0.00000000000E+00 0.  1.
          1   -1    0    0  501    0  0.00000000000E+00 -0.00000000000E+00 -0.73164834341E+02  0.73164834341E+02  0.00000000000E+00 0. -1.
         23    2    1    2    0    0 -0.34888243411E+02  0.13005550820E+03  0.79488074700E+02  0.18133225167E+03  0.91822691819E+02 0.  0.
          5    1    1    2  502    0 -0.24725160902E+02 -0.10208239766E+03  0.14244020398E+03  0.17702777636E+03  0.41800000000E+01 0. -1.
         -5    1    1    2    0  502  0.59613404313E+02 -0.27973110546E+02  0.21498237837E+03  0.22488029771E+03  0.41800000000E+01 0. -1.
        -11    1    3    3    0    0 -0.60530661184E+02  0.54070463663E+02  0.52739777765E+02  0.96793905504E+02  0.00000000000E+00 0. -1.
         11    1    3    3    0    0  0.25642417773E+02  0.75985044539E+02  0.26748296935E+02  0.84538346162E+02  0.00000000000E+00 0.  1.
</event>
<event>
 7    1  0.6584658E-006  0.2740812E+03  0.7561462E-02  0.1098966E+00
         -2   -1    0    0    0  501 -0.00000000000E+00  0.00000000000E+00  0.24244187685E+03  0.24244187685E+03  0.00000000000E+00 0.  1.
          2   -1    0    0  501    0  0.00000000000E+00 -0.00000000000E+00 -0.41086912096E+03  0.41086912096E+03  0.00000000000E+00 0. -1.
         23    2    1    2    0    0  0.70390608869E+01 -0.26682455176E+03 -0.20514628355E+03  0.35625697683E+03  0.11657249285E+03 0.  0.
          5    1    1    2  502    0 -0.86139586978E+00  0.23481336979E+03 -0.15487484932E+02  0.23536226381E+03  0.41800000000E+01 0. -1.
         -5    1    1    2    0  502 -0.61776650171E+01  0.32011181970E+02  0.52206524362E+02  0.61691757165E+02  0.41800000000E+01 0. -1.
        -11    1    3    3    0    0 -0.26845617154E+02 -0.22508145087E+03 -0.12249541580E+03  0.25765766742E+03  0.00000000000E+00 0. -1.
         11    1    3    3    0    0  0.33884678040E+02 -0.41743100889E+02 -0.82650867750E+02  0.98599309417E+02  0.00000000000E+00 0.  1.
</event>
<event>
 7    1  0.6584658E-006  0.1144220E+03  0.7561462E-02  0.1252593E+00
         -1   -1    0    0    0  501 -0.00000000000E+00  0.00000000000E+00  0.39750806030E+02  0.39750806030E+02  0.00000000000E+00 0.  1.
          1   -1    0    0  501    0  0.00000000000E+00 -0.00000000000E+00 -0.50530321894E+03  0.50530321894E+03  0.00000000000E+00 0. -1.
         23    2    1    2    0    0  0.32152078836E+02 -0.87393146400E+02 -0.21217770505E+03  0.24753626249E+03  0.87083319380E+02 0.  0.
          5    1    1    2  502    0  0.32483333676E+02  0.18237232453E+02 -0.16057363682E+03  0.16489126373E+03  0.41800000000E+01 0.  1.
         -5    1    1    2    0  502 -0.64635412512E+02  0.69155913947E+02 -0.92801071038E+02  0.13262649875E+03  0.41800000000E+01 0.  1.
        -11    1    3    3    0    0  0.34578475714E+02 -0.61135027822E+02 -0.57911413842E+02  0.91032381396E+02  0.00000000000E+00 0. -1.
         11    1    3    3    0    0 -0.24263968785E+01 -0.26258118579E+02 -0.15426629121E+03  0.15650388109E+03  0.00000000000E+00 0.  1.
</event>
<event>
 7    1  0.6584658E-006  0.1506903E+03  0.7561462E-02  0.1199627E+00
         -1   -1    0    0    0  501 -0.00000000000E+00  0.00000000000E+00  0.91497581277E+03  0.91497581277E+03  0.00000000000E+00 0.  1.
          1   -1    0    0  501    0  0.00000000000E+00 -0.00000000000E+00 -0.30532468458E+02  0.30532468458E+02  0.00000000000E+00 0. -1.
         23    2    1    2    0    0 -0.12211559995E+03 -0.33599670145E+02  0.40293985115E+03  0.43215251022E+03  0.91400825270E+02 0.  0.
          5    1    1    2  502    0  0.52800162403E+02  0.72777842655E+02  0.17680708707E+03  0.19840032754E+03  0.41800000000E+01 0. -1.
         -5    1    1    2    0  502  0.69315437542E+02 -0.39178172510E+02  0.30469640609E+03  0.31495544346E+03  0.41800000000E+01 0. -1.
        -11    1    3    3    0    0 -0.10364390643E+03 -0.13796592596E+02  0.38667661820E+03  0.40056361838E+03  0.00000000000E+00 0.  1.
         11    1    3    3    0    0 -0.18471693519E+02 -0.19803077549E+02  0.16263232957E+02  0.31588891846E+02  0.00000000000E+00 0. -1.
</event>
<event>
 7    1  0.6584658E-006  0.8256691E+02  0.7561462E-02  0.1321921E+00
          1   -1    0    0  501    0  0.00000000000E+00  0.00000000000E+00  0.14008740446E+03  0.14008740446E+03  0.00000000000E+00 0.  1.
         -1   -1    0    0    0  501 -0.00000000000E+00 -0.00000000000E+00 -0.76101035776E+02  0.76101035776E+02  0.00000000000E+00 0. -1.
         23    2    1    2    0    0  0.37745419662E+02 -0.31454967435E+01  0.42779155365E+02  0.83782681568E+02  0.61277000104E+02 0.  0.
          5    1    1    2  502    0  0.19643274811E+02 -0.46050079799E+02  0.25965330084E+02  0.56552089804E+02  0.41800000000E+01 0.  1.
         -5    1    1    2    0  502 -0.57388694473E+02  0.49195576543E+02 -0.47581167657E+01  0.75853668862E+02  0.41800000000E+01 0.  1.
        -11    1    3    3    0    0  0.27696845713E+02  0.22447791394E+01 -0.10192185841E+02  0.29597887561E+02  0.00000000000E+00 0. -1.
         11    1    3    3    0    0  0.10048573949E+02 -0.53902758829E+01  0.52971341206E+02  0.54184794007E+02  0.00000000000E+00 0.  1.
</event>
<event>
 7    1  0.6584658E-006  0.1091660E+03  0.7561462E-02  0.1262122E+00
          2   -1    0    0  501    0  0.00000000000E+00  0.00000000000E+00  0.35958560157E+03  0.35958560157E+03  0.00000000000E+00 0. -1.
         -2   -1    0    0    0  501 -0.00000000000E+00 -0.00000000000E+00 -0.39388039429E+02  0.39388039429E+02  0.00000000000E+00 0.  1.
         23    2    1    2    0    0  0.37464883751E+02  0.10691235624E+02  0.19561775277E+03  0.21818207060E+03  0.88426187864E+02 0.  0.
          5    1    1    2  502    0 -0.72878368320E+02 -0.37700578117E+02  0.57957060386E+02  0.10054393770E+03  0.41800000000E+01 0. -1.
         -5    1    1    2    0  502  0.35413484570E+02  0.27009342493E+02  0.66622748987E+02  0.80247632699E+02  0.41800000000E+01 0. -1.
        -11    1    3    3    0    0  0.15117333972E+02  0.46685597353E+02  0.69047753918E+02  0.84709333062E+02  0.00000000000E+00 0.  1.
         11    1    3    3    0    0  0.22347549779E+02 -0.35994361729E+02  0.12656999885E+03  0.13347273754E+03  0.00000000000E+00 0. -1.
</event>
<event>
 7    1  0.6584658E-006  0.1199347E+03  0.7561462E-02  0.1243205E+00
         -1   -1    0    0    0  501 -0.00000000000E+00  0.00000000000E+00  0.27816230451E+02  0.27816230451E+02  0.00000000000E+00 0.  1.
          1   -1    0    0  501    0  0.00000000000E+00 -0.00000000000E+00 -0.61466564423E+03  0.61466564423E+03  0.00000000000E+00 0. -1.
         23    2    1    2    0    0  0.26815073636E+02 -0.47028344255E+02 -0.37873230317E+03  0.39370235457E+03  0.92912179982E+02 0.  0.
          5    1    1    2  502    0 -0.62422833559E+02  0.69481401284E+02 -0.15289239135E+03  0.17921448325E+03  0.41800000000E+01 0.  1.
         -5    1    1    2    0  502  0.35607759923E+02 -0.22453057030E+02 -0.55224719259E+02  0.69565036865E+02  0.41800000000E+01 0.  1.
        -11    1    3    3    0    0 -0.30937346761E+02 -0.23021016546E+01 -0.72126882401E+02  0.78515643419E+02  0.00000000000E+00 0.  1.
         11    1    3    3    0    0  0.57752420397E+02 -0.44726242600E+02 -0.30660542077E+03  0.31518671115E+03  0.00000000000E+00 0. -1.
</event>
<event>
 7    1  0.6584658E-006  0.1035413E+03  0.7561462E-02  0.1273021E+00
          2   -1    0    0  501    0  0.00000000000E+00  0.00000000000E+00  0.66786161417E+02  0.66786161417E+02  0.00000000000E+00 0. -1.
         -2   -1    0    0    0  501 -0.00000000000E+00 -0.00000000000E+00 -0.48537508751E+03  0.48537508751E+03  0.00000000000E+00 0.  1.
         23    2    1    2    0    0 -0.44346411555E+02 -0.62312342837E+02 -0.21140773823E+02  0.12011631745E+03  0.90175191230E+02 0.  0.
          5    1    1    2  502    0 -0.32612417836E+01  0.32518505612E+02 -0.24353616891E+01  0.33037740415E+02  0.41800000000E+01 0. -1.
         -5    1    1    2    0  502  0.47607653338E+02  0.29793837226E+02 -0.39501279058E+03  0.39900719106E+03  0.41800000000E+01 0.  1.
        -11    1    3    3    0    0  0.24778774560E+02 -0.36319051787E+02 -0.12824188792E+02  0.45798700959E+02  0.00000000000E+00 0.  1.
         11    1    3    3    0    0 -0.69125186114E+02 -0.25993291050E+02 -0.83165850313E+01  0.74317616495E+02  0.00000000000E+00 0. -1.
</event>
<event>
 7    1  0.6584658E-006  0.1034889E+03  0.7561462E-02  0.1273126E+00
          1   -1    0    0  501    0  0.00000000000E+00  0.00000000000E+00  0.17014307041E+02  0.17014307041E+02  0.00000000000E+00 0. -1.
         -1   -1    0    0    0  501 -0.00000000000E+00 -0.00000000000E+00 -0.12959193075E+04  0.12959193075E+04  0.00000000000E+00 0.  1.
         23    2    1    2    0    0  0.38866229929E+02  0.87193657076E+02 -0.41921180941E+03  0.43895789718E+03  0.88499585808E+02 0.  0.
          5    1    1    2  502    0 -0.16357666728E+02 -0.30296372244E+02 -0.72664637349E+03  0.72747362010E+03  0.41800000000E+01 0. -1.
         -5    1    1    2    0  502 -0.22508563201E+02 -0.56897284833E+02 -0.13304681756E+03  0.14650209726E+03  0.41800000000E+01 0. -1.
        -11    1    3    3    0    0  0.48517163086E+02  0.40251267526E+02 -0.34433139147E+03  0.35005454832E+03  0.00000000000E+00 0.  1.
         11    1    3    3    0    0 -0.96509331575E+01  0.46942389550E+02 -0.74880417940E+02  0.88903348859E+02  0.00000000000E+00 0. -1.
</event>
<event>
 7    1  0.8516853E-006  0.8750017E+02  0.7561462E-02  0.1309021E+00
         -2   -1    0    0    0  501 -0.00000000000E+00  0.00000000000E+00  0.35705282544E+03  0.35705282544E+03  0.00000000000E+00 0.  1.
          2   -1    0    0  501    0  0.00000000000E+00 -0.00000000000E+00 -0.47404605944E+02  0.47404605944E+02  0.00000000000E+00 0. -1.
         23    2    1    2    0    0  0.60629621046E+02 -0.96031242130E+01  0.79244356101E+02  0.13519623101E+03  0.90720350316E+02 0.  0.
          5    1    1    2  502    0  0.22832938051E+02 -0.13478497941E+02  0.44010751164E+01  0.27200272589E+02  0.41800000000E+01 0.  1.
         -5    1    1    2    0  502 -0.83462559096E+02  0.23081622154E+02  0.22600278828E+03  0.24206092779E+03  0.41800000000E+01 0.  1.
        -11    1    3    3    0    0  0.19004318095E+02 -0.44579686674E+01 -0.19697688726E+02  0.27731507930E+02  0.00000000000E+00 0. -1.
         11    1    3    3    0    0  0.41625302950E+02 -0.51451555457E+01  0.98942044827E+02  0.10746472308E+03  0.00000000000E+00 0.  1.
</event>
<event>
 7    1  0.6584658E-006  0.4165266E+03  0.7561462E-02  0.1038203E+00
          2   -1    0    0  501    0  0.00000000000E+00  0.00000000000E+00  0.90889928341E+03  0.90889928341E+03  0.00000000000E+00 0. -1.
         -2   -1    0    0    0  501 -0.00000000000E+00 -0.00000000000E+00 -0.21908977955E+03  0.21908977955E+03  0.00000000000E+00 0.  1.
         23    2    1    2    0    0 -0.28545610743E+03 -0.30263997692E+03  0.49147442081E+03  0.65043095669E+03  0.91854113717E+02 0.  0.
          5    1    1    2  502    0  0.26611896133E+03  0.27765099488E+03  0.21600239848E+03  0.44111663433E+03  0.41800000000E+01 0. -1.
         -5    1    1    2    0  502  0.19337146101E+02  0.24988982039E+02 -0.17667315432E+02  0.36441471941E+02  0.41800000000E+01 0. -1.
        -11    1    3    3    0    0 -0.77113428808E+02 -0.95901692920E+02  0.87099119143E+02  0.15076429340E+03  0.00000000000E+00 0.  1.
         11    1    3    3    0    0 -0.20834267862E+03 -0.20673828400E+03  0.40437530167E+03  0.49966666329E+03  0.00000000000E+00 0. -1.
</event>
<event>
 7    1  0.6584658E-006  0.9227119E+02  0.7561462E-02  0.1297443E+00
         -2   -1    0    0    0  501 -0.00000000000E+00  0.00000000000E+00  0.15400343047E+02  0.15400343047E+02  0.00000000000E+00 0.  1.
          2   -1    0    0  501    0  0.00000000000E+00 -0.00000000000E+00 -0.71543565139E+03  0.71543565139E+03  0.00000000000E+00 0. -1.
         23    2    1    2    0    0 -0.29507527814E+02  0.36397951549E+02 -0.21068325185E+03  0.22357978173E+03  0.58352216032E+02 0.  0.
          5    1    1    2  502    0 -0.27585156110E+02  0.17960095079E+02 -0.44800958519E+02  0.55750373425E+02  0.41800000000E+01 0. -1.
         -5    1    1    2    0  502  0.57092683924E+02 -0.54358046628E+02 -0.44455109798E+03  0.45150583928E+03  0.41800000000E+01 0. -1.
        -11    1    3    3    0    0  0.15834667305E+02  0.30286393232E+01 -0.26839159580E+02  0.31308941723E+02  0.00000000000E+00 0.  1.
         11    1    3    3    0    0 -0.45342195119E+02  0.33369312226E+02 -0.18384409227E+03  0.19227084001E+03  0.00000000000E+00 0. -1.
</event>
<event>
 7    1  0.6584658E-006  0.9976273E+02  0.7561462E-02  0.1280796E+00
          2   -1    0    0  501    0  0.00000000000E+00  0.00000000000E+00  0.53065647001E+03  0.53065647001E+03  0.00000000000E+00 0. -1.
         -2   -1    0    0    0  501 -0.00000000000E+00 -0.00000000000E+00 -0.27708175492E+02  0.27708175492E+02  0.00000000000E+00 0.  1.
         23    2    1    2    0    0  0.36138322484E+02  0.95073058066E+01  0.31532003707E+03  0.32978521104E+03  0.89079697045E+02 0.  0.
          5    1    1    2  502    0 -0.61780011945E+02  0.19035868363E+02  0.40332069631E+02  0.76310434417E+02  0.41800000000E+01 0.  1.
         -5    1    1    2    0  502  0.25641689462E+02 -0.28543174169E+02  0.14729618781E+03  0.15226900005E+03  0.41800000000E+01 0.  1.
        -11    1    3    3    0    0  0.16481513856E+01  0.45945472410E+02  0.13492059063E+03  0.14253865656E+03  0.00000000000E+00 0.  1.
         11    1    3    3    0    0  0.34490171098E+02 -0.36438166604E+02  0.18039944644E+03  0.18724655448E+03  0.00000000000E+00 0. -1.
</event>
<event>
 7    1  0.6584658E-006  0.6774668E+02  0.7561462E-02  0.1367928E+00
         -3   -1    0    0    0  501 -0.00000000000E+00  0.00000000000E+00  0.24414520774E+03  0.24414520774E+03  0.00000000000E+00 0.  1.
          3   -1    0    0  501    0  0.00000000000E+00 -0.00000000000E+00 -0.66780143926E+02  0.66780143926E+02  0.00000000000E+00 0. -1.
         23    2    1    2    0    0  0.46238120754E+02 -0.47063040312E+02  0.54339983038E+02  0.12348222985E+03  0.89118649892E+02 0.  0.
          5    1    1    2  502    0 -0.24543848763E+02  0.34479935441E+02  0.14667657142E+03  0.15271789503E+03  0.41800000000E+01 0. -1.
         -5    1    1    2    0  502 -0.21694271990E+02  0.12583104872E+02 -0.23651490641E+02  0.34725226781E+02  0.41800000000E+01 0. -1.
        -11    1    3    3    0    0  0.24365400021E+02 -0.34742220680E+02 -0.18608168117E+02  0.46335283927E+02  0.00000000000E+00 0. -1.
         11    1    3    3    0    0  0.21872720733E+02 -0.12320819633E+02  0.72948151155E+02  0.77146945926E+02  0.00000000000E+00 0.  1.
</event>
<event>
 7    1  0.6584658E-006  0.1358631E+03  0.7561462E-02  0.1219006E+00
         -1   -1    0    0    0  501 -0.00000000000E+00  0.00000000000E+00  0.47459267436E+03  0.47459267436E+03  0.00000000000E+00 0.  1.
          1   -1    0    0  501    0  0.00000000000E+00 -0.00000000000E+00 -0.72740497318E+02  0.72740497318E+02  0.00000000000E+00 0. -1.
         23    2    1    2    0    0  0.80710308194E+02 -0.65520864038E+02  0.42749874060E+02  0.14448414432E+03  0.90779836715E+02 0.  0.
          5    1    1    2  502    0 -0.23605721780E+02  0.72426116039E+02  0.56847758181E+02  0.95141538749E+02  0.41800000000E+01 0. -1.
         -5    1    1    2    0  502 -0.57104586414E+02 -0.69052520010E+01  0.30225454480E+03  0.30770748861E+03  0.41800000000E+01 0.  1.
        -11    1    3    3    0    0  0.97946602545E+02 -0.37528564567E+02  0.36226538250E+02  0.11096978049E+03  0.00000000000E+00 0.  1.
         11    1    3    3    0    0 -0.17236294351E+02 -0.27992299471E+02  0.65233358103E+01  0.33514363827E+02  0.00000000000E+00 0. -1.
</event>
<event>
 7    1  0.6584658E-006  0.1166942E+03  0.7561462E-02  0.1248652E+00
         -4   -1    0    0    0  501 -0.00000000000E+00  0.00000000000E+00  0.82485216159E+03  0.82485216159E+03  0.00000000000E+00 0.  1.
          4   -1    0    0  501    0  0.00000000000E+00 -0.00000000000E+00 -0.32948433249E+02  0.32948433249E+02  0.00000000000E+00 0. -1.
         23    2    1    2    0    0 -0.90771074043E+02 -0.44765785393E+02  0.17587733994E+03  0.22110686584E+03  0.87818244084E+02 0.  0.
          5    1    1    2  502    0  0.19171958218E+02 -0.22105715239E+02  0.37945395594E+03  0.38060347306E+03  0.41800000000E+01 0.  1.
         -5    1    1    2    0  502  0.71599115825E+02  0.66871500632E+02  0.23657243247E+03  0.25609025594E+03  0.41800000000E+01 0.  1.
        -11    1    3    3    0    0 -0.22753043834E+02 -0.27313554219E+02  0.13554052910E+03  0.14012482391E+03  0.00000000000E+00 0.  1.
         11    1    3    3    0    0 -0.68018030209E+02 -0.17452231174E+02  0.40336810839E+02  0.80982041930E+02  0.00000000000E+00 0. -1.
</event>
<event>
 7    1  0.6584658E-006  0.5318921E+03  0.7561462E-02  0.1005774E+00
          1   -1    0    0  501    0  0.00000000000E+00  0.00000000000E+00  0.20236860807E+04  0.20236860807E+04  0.00000000000E+00 0. -1.
         -1   -1    0    0    0  501 -0.00000000000E+00 -0.00000000000E+00 -0.15569200611E+03  0.15569200611E+03  0.00000000000E+00 0.  1.
         23    2    1    2    0    0  0.20277952912E+03  0.47995866290E+03  0.12708950316E+04  0.13770968847E+04  0.98700522614E+02 0.  0.
          5    1    1    2  502    0 -0.21863957943E+03 -0.46389792553E+03  0.57322803390E+03  0.76916344313E+03  0.41800000000E+01 0.  1.
         -5    1    1    2    0  502  0.15860050310E+02 -0.16060737372E+02  0.23871009103E+02  0.33117758928E+02  0.41800000000E+01 0.  1.
        -11    1    3    3    0    0  0.19509376894E+02  0.14364969643E+03  0.29383898885E+03  0.32765408961E+03  0.00000000000E+00 0. -1.
         11    1    3    3    0    0  0.18327015223E+03  0.33630896647E+03  0.97705604273E+03  0.10494427951E+04  0.00000000000E+00 0.  1.
</event>
<event>
 7    1  0.6584658E-006  0.9940884E+02  0.7561462E-02  0.1281544E+00
          2   -1    0    0  501    0  0.00000000000E+00  0.00000000000E+00  0.47641905859E+02  0.47641905859E+02  0.00000000000E+00 0. -1.
         -2   -1    0    0    0  501 -0.00000000000E+00 -0.00000000000E+00 -0.53516992563E+03  0.53516992563E+03  0.00000000000E+00 0.  1.
         23    2    1    2    0    0 -0.67417738910E+02  0.47522810048E+02 -0.73125651011E+02  0.14215668697E+03  0.89764100948E+02 0.  0.
          5    1    1    2  502    0  0.54723664501E+02 -0.67826079564E+02 -0.40548217649E+03  0.41476297373E+03  0.41800000000E+01 0.  1.
         -5    1    1    2    0  502  0.12694074409E+02  0.20303269516E+02 -0.89201922669E+01  0.25892170790E+02  0.41800000000E+01 0.  1.
        -11    1    3    3    0    0 -0.27123556360E+02  0.36521381193E+02  0.12249076614E+02  0.47111978007E+02  0.00000000000E+00 0. -1.
         11    1    3    3    0    0 -0.40294182550E+02  0.11001428855E+02 -0.85374727625E+02  0.95044708960E+02  0.00000000000E+00 0.  1.
</event>
<event>
 7    1  0.6584658E-006  0.1074816E+03  0.7561462E-02  0.1265306E+00
          1   -1    0    0  501    0  0.00000000000E+00  0.00000000000E+00  0.63247439980E+02  0.63247439980E+02  0.00000000000E+00 0. -1.
         -1   -1    0    0    0  501 -0.00000000000E+00 -0.00000000000E+00 -0.24663835123E+03  0.24663835123E+03  0.00000000000E+00 0.  1.
         23    2    1    2    0    0 -0.21711907798E+02  0.50546654510E+02 -0.54094979769E+02  0.12175963013E+03  0.94195379242E+02 0.  0.
          5    1    1    2  502    0 -0.38048410710E+02 -0.55611133482E+02 -0.10147550346E+03  0.12188121236E+03  0.41800000000E+01 0.  1.
         -5    1    1    2    0  502  0.59760318509E+02  0.50644789712E+01 -0.27820428023E+02  0.66244948720E+02  0.41800000000E+01 0.  1.
        -11    1    3    3    0    0 -0.18166122086E+02 -0.13846457668E+02 -0.52495046682E+02  0.57249124951E+02  0.00000000000E+00 0.  1.
         11    1    3    3    0    0 -0.35457857120E+01  0.64393112179E+02 -0.15999330870E+01  0.64510505177E+02  0.00000000000E+00 0. -1.
</event>
<event>
 7    1  0.6584658E-006  0.2086234E+03  0.7561462E-02  0.1142661E+00
          2   -1    0    0  501    0  0.00000000000E+00  0.00000000000E+00  0.12152151479E+04  0.12152151479E+04  0.00000000000E+00 0. -1.
         -2   -1    0    0    0  501 -0.00000000000E+00 -0.00000000000E+00 -0.40250175573E+02  0.40250175573E+02  0.00000000000E+00 0.  1.
         23    2    1    2    0    0  0.84296770630E+02 -0.16948573120E+03  0.52867725510E+03  0.57051172175E+03  0.10076024006E+03 0.  0.
          5    1    1    2  502    0  0.24880080687E+02  0.25676944683E+00  0.81787874376E+02  0.85590964129E+02  0.41800000000E+01 0. -1.
         -5    1    1    2    0  502 -0.10917685132E+03  0.16922896175E+03  0.56449984280E+03  0.59936263755E+03  0.41800000000E+01 0. -1.
        -11    1    3    3    0    0  0.64292842514E+02 -0.10553519195E+03  0.20019011087E+03  0.23526012588E+03  0.00000000000E+00 0.  1.
         11    1    3    3    0    0  0.20003928116E+02 -0.63950539251E+02  0.32848714423E+03  0.33525159588E+03  0.00000000000E+00 0. -1.
</event>
<event>
 7    1  0.6584658E-006  0.1045096E+03  0.7561462E-02  0.1271089E+00
         -2   -1    0    0    0  501 -0.00000000000E+00  0.00000000000E+00  0.11562200612E+03  0.11562200612E+03  0.00000000000E+00 0.  1.
          2   -1    0    0  501    0  0.00000000000E+00 -0.00000000000E+00 -0.13471082853E+03  0.13471082853E+03  0.00000000000E+00 0. -1.
         23    2    1    2    0    0  0.58790376792E+02 -0.12020983601E+01 -0.27341437056E+02  0.11183767480E+03  0.91117275424E+02 0.  0.
          5    1    1    2  502    0 -0.84709140083E+02 -0.23923622699E+02 -0.22433690272E+02  0.90932507916E+02  0.41800000000E+01 0. -1.
         -5    1    1    2    0  502  0.25918763291E+02  0.25125721059E+02  0.30686304922E+02  0.47562651934E+02  0.41800000000E+01 0. -1.
        -11    1    3    3    0    0  0.71473789108E+02  0.19059504067E+01 -0.48907503300E+02  0.86626087615E+02  0.00000000000E+00 0. -1.
         11    1    3    3    0    0 -0.12683412316E+02 -0.31080487668E+01  0.21566066244E+02  0.25211587185E+02  0.00000000000E+00 0.  1.
</event>
<event>
 7    1  0.6584658E-006  0.7810337E+02  0.7561462E-02  0.1334522E+00
         -3   -1    0    0    0  501 -0.00000000000E+00  0.00000000000E+00  0.50340604507E+03  0.50340604507E+03  0.00000000000E+00 0.  1.
          3   -1    0    0  501    0  0.00000000000E+00 -0.00000000000E+00 -0.31254140905E+02  0.31254140905E+02  0.00000000000E+00 0. -1.
         23    2    1    2    0    0  0.18168969487E+02  0.55427830410E+02  0.14347377171E+03  0.17817892873E+03  0.88094560785E+02 0.  0.
          5    1    1    2  502    0  0.12060269389E+02 -0.95139895183E+01 -0.62081505465E+01  0.17087411375E+02  0.41800000000E+01 0. -1.
         -5    1    1    2    0  502 -0.30229238876E+02 -0.45913840891E+02  0.33488628300E+03  0.33939384587E+03  0.41800000000E+01 0. -1.
        -11    1    3    3    0    0  0.39215993187E+02  0.49767627417E+02  0.14296652063E+03  0.15637818544E+03  0.00000000000E+00 0.  1.
         11    1    3    3    0    0 -0.21047023700E+02  0.56602029924E+01  0.50725107981E+00  0.21800743294E+02  0.00000000000E+00 0. -1.
</event>
<event>
 7    1  0.6584658E-006  0.1363968E+03  0.7561462E-02  0.1218261E+00
         -2   -1    0    0    0  501 -0.00000000000E+00  0.00000000000E+00  0.24181166885E+03  0.24181166885E+03  0.00000000000E+00 0.  1.
          2   -1    0    0  501    0  0.00000000000E+00 -0.00000000000E+00 -0.16843452409E+03  0.16843452409E+03  0.00000000000E+00 0. -1.
         23    2    1    2    0    0 -0.24162965884E+02  0.58052055591E+01 -0.87888040889E+02  0.12840099986E+03  0.90249430486E+02 0.  0.
          5    1    1    2  502    0  0.68968550735E+02  0.66040115896E+02 -0.44731742451E+01  0.95684061295E+02  0.41800000000E+01 0. -1.
         -5    1    1    2    0  502 -0.44805584851E+02 -0.71845321455E+02  0.16573835989E+03  0.18616113179E+03  0.41800000000E+01 0.  1.
        -11    1    3    3    0    0 -0.25579751245E+01 -0.40899648785E+02 -0.49135688381E+02  0.63981562814E+02  0.00000000000E+00 0. -1.
         11    1    3    3    0    0 -0.21604990759E+02  0.46704854344E+02 -0.38752352508E+02  0.64419437050E+02  0.00000000000E+00 0.  1.
</event>
<event>
 7    1  0.6584658E-006  0.7041333E+02  0.7561462E-02  0.1358693E+00
         -3   -1    0    0    0  501 -0.00000000000E+00  0.00000000000E+00  0.16260910910E+03  0.16260910910E+03  0.00000000000E+00 0.  1.
          3   -1    0    0  501    0  0.00000000000E+00 -0.00000000000E+00 -0.95230673523E+02  0.95230673523E+02  0.00000000000E+00 0. -1.
         23    2    1    2    0    0  0.15585534743E+02 -0.48886274677E+01 -0.35259982178E+02  0.98673685411E+02  0.90699626668E+02 0.  0.
          5    1    1    2  502    0 -0.15418729894E-02 -0.51676304500E+02  0.15647505111E+02  0.54154937590E+02  0.41800000000E+01 0. -1.
         -5    1    1    2    0  502 -0.15583992870E+02  0.56564931968E+02  0.86990912643E+02  0.10501115962E+03  0.41800000000E+01 0.  1.
        -11    1    3    3    0    0  0.68759949784E+01 -0.15188133442E+02  0.28762827015E+02  0.33245434608E+02  0.00000000000E+00 0.  1.
         11    1    3    3    0    0  0.87095397647E+01  0.10299505974E+02 -0.64022809193E+02  0.65428250803E+02  0.00000000000E+00 0. -1.
</event>
<event>
 7    1  0.6584658E-006  0.7847176E+02  0.7561462E-02  0.1333445E+00
         -1   -1    0    0    0  501 -0.00000000000E+00  0.00000000000E+00  0.38546462904E+03  0.38546462904E+03  0.00000000000E+00 0.  1.
          1   -1    0    0  501    0  0.00000000000E+00 -0.00000000000E+00 -0.15322834560E+03  0.15322834560E+03  0.00000000000E+00 0. -1.
         23    2    1    2    0    0 -0.28783092279E+02  0.18064443265E+02 -0.12712491195E+03  0.16032996868E+03  0.91597844442E+02 0.  0.
          5    1    1    2  502    0 -0.68262654971E+01  0.30085520008E+02  0.28851426877E+02  0.42445419631E+02  0.41800000000E+01 0. -1.
         -5    1    1    2    0  502  0.35609357776E+02 -0.48149963273E+02  0.33050976851E+03  0.33591758633E+03  0.41800000000E+01 0.  1.
        -11    1    3    3    0    0  0.42194225519E+01  0.30291579923E+02 -0.23361860779E+01  0.30673133298E+02  0.00000000000E+00 0. -1.
         11    1    3    3    0    0 -0.33002514831E+02 -0.12227136659E+02 -0.12478872587E+03  0.12965683538E+03  0.00000000000E+00 0.  1.
</event>
<event>
 7    1  0.6584658E-006  0.1237222E+03  0.7561462E-02  0.1237080E+00
          2   -1    0    0  501    0  0.00000000000E+00  0.00000000000E+00  0.60144614436E+03  0.60144614436E+03  0.00000000000E+00 0. -1.
         -2   -1    0    0    0  501 -0.00000000000E+00 -0.00000000000E+00 -0.42590128181E+02  0.42590128181E+02  0.00000000000E+00 0.  1.
         23    2    1    2    0    0  0.11213678814E+03 -0.33178845929E+02  0.28677757735E+03  0.32255753726E+03  0.90147051540E+02 0.  0.
          5    1    1    2  502    0 -0.79976283535E+02  0.14882804398E+02  0.27232029155E+03  0.28424200496E+03  0.41800000000E+01 0.  1.
         -5    1    1    2    0  502 -0.32160504601E+02  0.18296041531E+02 -0.24185272515E+00  0.37236730316E+02  0.41800000000E+01 0.  1.
        -11    1    3    3    0    0  0.28495674115E+02 -0.34946892310E+02  0.18694263789E+03  0.19230402645E+03  0.00000000000E+00 0. -1.
         11    1    3    3    0    0  0.83641114021E+02  0.17680463811E+01  0.99834939462E+02  0.13025351082E+03  0.00000000000E+00 0.  1.
</event>
<event>
 7    1  0.6584658E-006  0.2446646E+03  0.7561462E-02  0.1116724E+00
         -1   -1    0    0    0  501 -0.00000000000E+00  0.00000000000E+00  0.15121542969E+03  0.15121542969E+03  0.00000000000E+00 0.  1.
          1   -1    0    0  501    0  0.00000000000E+00 -0.00000000000E+00 -0.44745515075E+03  0.44745515075E+03  0.00000000000E+00 0. -1.
         23    2    1    2    0    0 -0.17938755722E+03  0.14789131592E+03 -0.18983882840E+03  0.31402947952E+03  0.92325490671E+02 0.  0.
          5    1    1    2  502    0  0.14472567659E+03 -0.14488586377E+03 -0.12981062813E+03  0.24249887950E+03  0.41800000000E+01 0.  1.
         -5    1    1    2    0  502  0.34661880632E+02 -0.30054521491E+01  0.23409735466E+02  0.42142221419E+02  0.41800000000E+01 0.  1.
        -11    1    3    3    0    0 -0.15714579450E+03  0.15988979833E+03 -0.17727157110E+03  0.28580545527E+03  0.00000000000E+00 0. -1.
         11    1    3    3    0    0 -0.22241762713E+02 -0.11998482409E+02 -0.12567257298E+02  0.28224024248E+02  0.00000000000E+00 0.  1.
</event>
<event>
 7    1  0.6584658E-006  0.1397965E+03  0.7561462E-02  0.1213603E+00
         -2   -1    0    0    0  501 -0.00000000000E+00  0.00000000000E+00  0.25762904797E+02  0.25762904797E+02  0.00000000000E+00 0.  1.
          2   -1    0    0  501    0  0.00000000000E+00 -0.00000000000E+00 -0.85943915467E+03  0.85943915467E+03  0.00000000000E+00 0. -1.
         23    2    1    2    0    0  0.39803521528E+02  0.92592049211E+02 -0.34786458598E+03  0.37352107065E+03  0.91381683795E+02 0.  0.
          5    1    1    2  502    0 -0.41423717723E+01 -0.10569263985E+03 -0.43725689072E+03  0.44988793521E+03  0.41800000000E+01 0.  1.
         -5    1    1    2    0  502 -0.35661149756E+02  0.13100590643E+02 -0.48554773170E+02  0.61793053612E+02  0.41800000000E+01 0.  1.
        -11    1    3    3    0    0  0.63443483743E+02  0.92142288895E+02 -0.29881611064E+03  0.31907106577E+03  0.00000000000E+00 0.  1.
         11    1    3    3    0    0 -0.23639962215E+02  0.44976031597E+00 -0.49048475345E+02  0.54450004881E+02  0.00000000000E+00 0. -1.
</event>
<event>
 7    1  0.6584658E-006  0.8888903E+02  0.7561462E-02  0.1305565E+00
         -4   -1    0    0    0  501 -0.00000000000E+00  0.00000000000E+00  0.40793001448E+02  0.40793001448E+02  0.00000000000E+00 0.  1.
          4   -1    0    0  501    0  0.00000000000E+00 -0.00000000000E+00 -0.33356488017E+03  0.33356488017E+03  0.00000000000E+00 0. -1.
         23    2    1    2    0    0  0.27646606346E+01 -0.96226812745E+01 -0.19503462591E+03  0.21529633193E+03  0.90629828966E+02 0.  0.
          5    1    1    2  502    0 -0.42648018128E+02 -0.67340594664E+01 -0.10639255460E+03  0.11489581838E+03  0.41800000000E+01 0. -1.
         -5    1    1    2    0  502  0.39883357493E+02  0.16356740741E+02  0.86553017832E+01  0.44165731303E+02  0.41800000000E+01 0. -1.
        -11    1    3    3    0    0 -0.39911246343E+02 -0.23376112672E+02 -0.94230645054E+02  0.10497030388E+03  0.00000000000E+00 0.  1.
         11    1    3    3    0    0  0.42675906978E+02  0.13753431398E+02 -0.10080398085E+03  0.11032602806E+03  0.00000000000E+00 0. -1.
</event>
<event>
 7    1  0.6584658E-006  0.1114040E+03  0.7561462E-02  0.1257992E+00
         -1   -1    0    0    0  501 -0.00000000000E+00  0.00000000000E+00  0.15610972996E+03  0.15610972996E+03  0.00000000000E+00 0.  1.
          1   -1    0    0  501    0  0.00000000000E+00 -0.00000000000E+00 -0.10179677831E+03  0.10179677831E+03  0.00000000000E+00 0. -1.
         23    2    1    2    0    0 -0.33843795754E+02 -0.37770173916E+02 -0.14459692864E+02  0.10641552389E+03  0.92429391741E+02 0.  0.
          5    1    1    2  502    0 -0.32426517923E+02  0.48225145182E+02  0.44164133849E+01  0.58430478345E+02  0.41800000000E+01 0.  1.
         -5    1    1    2    0  502  0.66270313677E+02 -0.10454971266E+02  0.64356231128E+02  0.93060506038E+02  0.41800000000E+01 0.  1.
        -11    1    3    3    0    0 -0.40364933160E+02  0.15808845565E+02  0.13795800925E+02  0.45492543897E+02  0.00000000000E+00 0.  1.
         11    1    3    3    0    0  0.65211374053E+01 -0.53579019481E+02 -0.28255493789E+02  0.60922979990E+02  0.00000000000E+00 0. -1.
</event>
<event>
 7    1  0.6584658E-006  0.1439680E+03  0.7561462E-02  0.1208087E+00
         -2   -1    0    0    0  501 -0.00000000000E+00  0.00000000000E+00  0.23070324690E+02  0.23070324690E+02  0.00000000000E+00 0.  1.
          2   -1    0    0  501    0  0.00000000000E+00 -0.00000000000E+00 -0.15555502068E+04  0.15555502068E+04  0.00000000000E+00 0. -1.
         23    2    1    2    0    0  0.34801782596E+02 -0.68508344617E+02 -0.63333681385E+03  0.64460236476E+03  0.92152761868E+02 0.  0.
          5    1    1    2  502    0 -0.60773518221E+02 -0.30420181732E+02 -0.75023310701E+03  0.75331666331E+03  0.41800000000E+01 0. -1.
         -5    1    1    2    0  502  0.25971735625E+02  0.98928526349E+02 -0.14890996124E+03  0.18070150341E+03  0.41800000000E+01 0.  1.
        -11    1    3    3    0    0  0.83676537791E+01 -0.85595487407E+02 -0.51595016821E+03  0.52306900231E+03  0.00000000000E+00 0.  1.
         11    1    3    3    0    0  0.26434128817E+02  0.17087142789E+02 -0.11738664564E+03  0.12153336245E+03  0.00000000000E+00 0. -1.
</event>
<event>
 7    1  0.7783343E-006  0.1443679E+03  0.7561462E-02  0.1207570E+00
          1   -1    0    0  501    0  0.00000000000E+00  0.00000000000E+00  0.56034646916E+02  0.56034646916E+02  0.00000000000E+00 0. -1.
         -1   -1    0    0    0  501 -0.00000000000E+00 -0.00000000000E+00 -0.40279559324E+03  0.40279559324E+03  0.00000000000E+00 0.  1.
         23    2    1    2    0    0  0.85195648976E+02  0.59203483948E+02 -0.10694641639E+03  0.16913753524E+03  0.80041356390E+02 0.  0.
          5    1    1    2  502    0 -0.47164776833E+02 -0.97344262321E+02 -0.16729735917E+03  0.19926439814E+03  0.41800000000E+01 0. -1.
         -5    1    1    2    0  502 -0.38030872143E+02  0.38140778373E+02 -0.72517170774E+02  0.90428306785E+02  0.41800000000E+01 0. -1.
        -11    1    3    3    0    0  0.52078070493E+02 -0.68946672279E+01 -0.66890593112E+02  0.85053002942E+02  0.00000000000E+00 0.  1.
         11    1    3    3    0    0  0.33117578482E+02  0.66098151175E+02 -0.40055823273E+02  0.84084532296E+02  0.00000000000E+00 0. -1.
</event>
<event>
 7    1  0.6584658E-006  0.6185503E+02  0.7561462E-02  0.1390208E+00
         -2   -1    0    0    0  501 -0.00000000000E+00  0.00000000000E+00  0.11450936719E+03  0.11450936719E+03  0.00000000000E+00 0.  1.
          2   -1    0    0  501    0  0.00000000000E+00 -0.00000000000E+00 -0.11459653713E+03  0.11459653713E+03  0.00000000000E+00 0. -1.
         23    2    1    2    0    0 -0.56317338028E+01  0.12489639107E+02 -0.36262978925E+02  0.98171925736E+02  0.90194322723E+02 0.  0.
          5    1    1    2  502    0  0.37397373577E+02 -0.16286693905E+02  0.71916682445E+02  0.82784669854E+02  0.41800000000E+01 0. -1.
         -5    1    1    2    0  502 -0.31765639775E+02  0.37970547977E+01 -0.35740873465E+02  0.48149308733E+02  0.41800000000E+01 0. -1.
        -11    1    3    3    0    0  0.51967612892E+01 -0.17659377331E+02  0.23807076860E+02  0.30093800761E+02  0.00000000000E+00 0.  1.
         11    1    3    3    0    0 -0.10828495092E+02  0.30149016437E+02 -0.60070055785E+02  0.68078124975E+02  0.00000000000E+00 0. -1.
</event>
<event>
 7    1  0.6584658E-006  0.8187958E+02  0.7561462E-02  0.1323801E+00
         -2   -1    0    0    0  501 -0.00000000000E+00  0.00000000000E+00  0.81550267564E+02  0.81550267564E+02  0.00000000000E+00 0.  1.
          2   -1    0    0  501    0  0.00000000000E+00 -0.00000000000E+00 -0.18746202101E+03  0.18746202101E+03  0.00000000000E+00 0. -1.
         23    2    1    2    0    0 -0.23940304891E+02  0.54483478102E+02 -0.39187211869E+02  0.11525297054E+03  0.90587096535E+02 0.  0.
          5    1    1    2  502    0  0.31562676673E+02 -0.35388755107E+02 -0.10208771842E+03  0.11264076171E+03  0.41800000000E+01 0. -1.
         -5    1    1    2    0  502 -0.76223717811E+01 -0.19094722995E+02  0.35363176844E+02  0.41118556326E+02  0.41800000000E+01 0. -1.
        -11    1    3    3    0    0 -0.46967975269E+02  0.14711085860E+02 -0.47670019527E+02  0.68518884330E+02  0.00000000000E+00 0. -1.
         11    1    3    3    0    0  0.23027670378E+02  0.39772392242E+02  0.84828076580E+01  0.46734086205E+02  0.00000000000E+00 0.  1.
</event>
<event>
 7    1  0.6584658E-006  0.1565307E+03  0.7561462E-02  0.1192670E+00
          2   -1    0    0  501    0  0.00000000000E+00  0.00000000000E+00  0.50117037524E+03  0.50117037524E+03  0.00000000000E+00 0. -1.
         -2   -1    0    0    0  501 -0.00000000000E+00 -0.00000000000E+00 -0.61516670075E+02  0.61516670075E+02  0.00000000000E+00 0.  1.
         23    2    1    2    0    0  0.13586877400E+03 -0.14922504170E+02  0.18339218520E+03  0.24645568221E+03  0.91786190810E+02 0.  0.
          5    1    1    2  502    0 -0.81759369042E+02  0.58340782974E+02  0.85867023621E+02  0.13220763794E+03  0.41800000000E+01 0.  1.
         -5    1    1    2    0  502 -0.54109404957E+02 -0.43418278804E+02  0.17039449634E+03  0.18402372517E+03  0.41800000000E+01 0.  1.
        -11    1    3    3    0    0  0.72181741446E+02 -0.29032065628E+02  0.15863103178E+03  0.17668296148E+03  0.00000000000E+00 0. -1.
         11    1    3    3    0    0  0.63687032553E+02  0.14109561458E+02  0.24761153420E+02  0.69772720734E+02  0.00000000000E+00 0.  1.
</event>
<event>
 7    1  0.6584658E-006  0.6631469E+02  0.7561462E-02  0.1373093E+00
         -3   -1    0    0    0  501 -0.00000000000E+00  0.00000000000E+00  0.87396650352E+02  0.87396650352E+02  0.00000000000E+00 0.  1.
          3   -1    0    0  501    0  0.00000000000E+00 -0.00000000000E+00 -0.15397672979E+03  0.15397672979E+03  0.00000000000E+00 0. -1.
         23    2    1    2    0    0  0.74889044681E+01  0.11984100724E+02 -0.69585922959E+02  0.11548441570E+03  0.91075502939E+02 0.  0.
          5    1    1    2  502    0  0.46373376778E+01 -0.27868174496E+02 -0.56320716810E+02  0.63147728324E+02  0.41800000000E+01 0.  1.
         -5    1    1    2    0  502 -0.12126242146E+02  0.15884073772E+02  0.59326560333E+02  0.62741236114E+02  0.41800000000E+01 0.  1.
        -11    1    3    3    0    0  0.45028869995E+02  0.34804743080E+01 -0.12907193241E+02  0.46971357994E+02  0.00000000000E+00 0. -1.
         11    1    3    3    0    0 -0.37539965527E+02  0.85036264158E+01 -0.56678729718E+02  0.68513057707E+02  0.00000000000E+00 0.  1.
</event>
<event>
 7    1  0.6584658E-006  0.1301349E+03  0.7561462E-02  0.1227256E+00
         -1   -1    0    0    0  501 -0.00000000000E+00  0.00000000000E+00  0.28098192214E+02  0.28098192214E+02  0.00000000000E+00 0.  1.
          1   -1    0    0  501    0  0.00000000000E+00 -0.00000000000E+00 -0.64044435097E+03  0.64044435097E+03  0.00000000000E+00 0. -1.
         23    2    1    2    0    0  0.18960204714E+02 -0.75581386202E+02 -0.30754234731E+03  0.32997761305E+03  0.90724276909E+02 0.  0.
          5    1    1    2  502    0 -0.43577501374E+02 -0.19531159656E+02 -0.81211546025E+02  0.94304042498E+02  0.41800000000E+01 0.  1.
         -5    1    1    2    0  502  0.24617296660E+02  0.95112545857E+02 -0.22359226542E+03  0.24426088764E+03  0.41800000000E+01 0.  1.
        -11    1    3    3    0    0 -0.21571327035E+02 -0.69798087788E+02 -0.14507674456E+03  0.16243262302E+03  0.00000000000E+00 0.  1.
         11    1    3    3    0    0  0.40531531750E+02 -0.57832984139E+01 -0.16246560275E+03  0.16754499003E+03  0.00000000000E+00 0. -1.
</event>
<event>
 7    1  0.6584658E-006  0.1546181E+03  0.7561462E-02  0.1194910E+00
          2   -1    0    0  501    0  0.00000000000E+00  0.00000000000E+00  0.10499934113E+04  0.10499934113E+04  0.00000000000E+00 0. -1.
         -2   -1    0    0    0  501 -0.00000000000E+00 -0.00000000000E+00 -0.32337982449E+02  0.32337982449E+02  0.00000000000E+00 0.  1.
         23    2    1    2    0    0  0.95728066598E+02  0.10230256914E+03  0.62857124044E+03  0.65028578975E+03  0.90222644921E+02 0.  0.
          5    1    1    2  502    0 -0.48641954494E+02 -0.30818520925E+02  0.34511878670E+02  0.67263386313E+02  0.41800000000E+01 0. -1.
         -5    1    1    2    0  502 -0.47086112104E+02 -0.71484048218E+02  0.35457230970E+03  0.36478221764E+03  0.41800000000E+01 0. -1.
        -11    1    3    3    0    0  0.11309033989E+03  0.87585501339E+02  0.56257379018E+03  0.58047387057E+03  0.00000000000E+00 0.  1.
         11    1    3    3    0    0 -0.17362273290E+02  0.14717067804E+02  0.65997450263E+02  0.69811919181E+02  0.00000000000E+00 0. -1.
</event>
<event>
 7    1  0.6584658E-006  0.1216394E+03  0.7561462E-02  0.1240417E+00
          2   -1    0    0  501    0  0.00000000000E+00  0.00000000000E+00  0.22622174924E+03  0.22622174924E+03  0.00000000000E+00 0. -1.
         -2   -1    0    0    0  501 -0.00000000000E+00 -0.00000000000E+00 -0.10117485504E+03  0.10117485504E+03  0.00000000000E+00 0.  1.
         23    2    1    2    0    0 -0.64257248067E+02  0.53801092404E+02  0.12547496661E+03  0.17682771036E+03  0.92198266961E+02 0.  0.
          5    1    1    2  502    0 -0.26759255575E+02 -0.52183354694E+02  0.66478771677E+01  0.59167786310E+02  0.41800000000E+01 0. -1.
         -5    1    1    2    0  502  0.91016503642E+02 -0.16177377104E+01 -0.70759495760E+01  0.91401107613E+02  0.41800000000E+01 0. -1.
        -11    1    3    3    0    0 -0.28411382627E+02  0.49741562844E+02  0.12843582912E+03  0.14063140452E+03  0.00000000000E+00 0. -1.
         11    1    3    3    0    0 -0.35845865439E+02  0.40595295604E+01 -0.29608625038E+01  0.36196305835E+02  0.00000000000E+00 0.  1.
</event>
<event>
 7    1  0.6584658E-006  0.1423657E+03  0.7561462E-02  0.1210181E+00
          2   -1    0    0  501    0  0.00000000000E+00  0.00000000000E+00  0.91238148675E+03  0.91238148675E+03  0.00000000000E+00 0. -1.
         -2   -1    0    0    0  501 -0.00000000000E+00 -0.00000000000E+00 -0.29288651964E+02  0.29288651964E+02  0.00000000000E+00 0.  1.
         23    2    1    2    0    0  0.12128810306E+03  0.17696515283E+01  0.41129178741E+03  0.43871998404E+03  0.92738095721E+02 0.  0.
          5    1    1    2  502    0 -0.26415710504E+02 -0.22373886700E+02  0.32522257305E+03  0.32708649466E+03  0.41800000000E+01 0. -1.
         -5    1    1    2    0  502 -0.94872392557E+02  0.20604235171E+02  0.14657847433E+03  0.17586366001E+03  0.41800000000E+01 0. -1.
        -11    1    3    3    0    0  0.46063546184E+02  0.46267614708E+02  0.17691415272E+03  0.18857666847E+03  0.00000000000E+00 0. -1.
         11    1    3    3    0    0  0.75224556877E+02 -0.44497963180E+02  0.23437763469E+03  0.25014331557E+03  0.00000000000E+00 0.  1.
</event>
<event>
 7    1  0.6584658E-006  0.1326050E+03  0.7561462E-02  0.1223641E+00
         -1   -1    0    0    0  501 -0.00000000000E+00  0.00000000000E+00  0.56795490440E+03  0.56795490440E+03  0.00000000000E+00 0.  1.
          1   -1    0    0  501    0  0.00000000000E+00 -0.00000000000E+00 -0.37621553422E+02  0.37621553422E+02  0.00000000000E+00 0. -1.
         23    2    1    2    0    0  0.42942471786E+02  0.73882614350E+02  0.15465263132E+03  0.20050148921E+03  0.94766630272E+02 0.  0.
          5    1    1    2  502    0  0.18946232809E+02 -0.75650567446E+02  0.12979807144E+03  0.15148260574E+03  0.41800000000E+01 0. -1.
         -5    1    1    2    0  502 -0.61888704595E+02  0.17679530965E+01  0.24588264822E+03  0.25359236288E+03  0.41800000000E+01 0. -1.
        -11    1    3    3    0    0  0.62102806033E+02  0.83142206356E+02  0.14153214744E+03  0.17550137821E+03  0.00000000000E+00 0.  1.
         11    1    3    3    0    0 -0.19160334247E+02 -0.92595920066E+01  0.13120483888E+02  0.25000111000E+02  0.00000000000E+00 0. -1.
</event>
<event>
 7    1  0.6584658E-006  0.3090214E+03  0.7561462E-02  0.1080816E+00
          1   -1    0    0  501    0  0.00000000000E+00  0.00000000000E+00  0.92373422752E+03  0.92373422752E+03  0.00000000000E+00 0. -1.
         -1   -1    0    0    0  501 -0.00000000000E+00 -0.00000000000E+00 -0.10941775186E+03  0.10941775186E+03  0.00000000000E+00 0.  1.
         23    2    1    2    0    0 -0.28386984858E+03 -0.78534647908E+02  0.48885932175E+03  0.57673184998E+03  0.82984386883E+02 0.  0.
          5    1    1    2  502    0  0.24015467206E+03  0.21418356578E+02  0.20715067672E+03  0.31790232427E+03  0.41800000000E+01 0. -1.
         -5    1    1    2    0  502  0.43715176520E+02  0.57116291330E+02  0.11830647719E+03  0.13851780513E+03  0.41800000000E+01 0. -1.
        -11    1    3    3    0    0 -0.14148173391E+03  0.15441307170E+01  0.20212642081E+03  0.24672769476E+03  0.00000000000E+00 0.  1.
         11    1    3    3    0    0 -0.14238811467E+03 -0.80078778625E+02  0.28673290093E+03  0.33000415522E+03  0.00000000000E+00 0. -1.
</event>
<event>
 7    1  0.6584658E-006  0.1063984E+03  0.7561462E-02  0.1267389E+00
         -2   -1    0    0    0  501 -0.00000000000E+00  0.00000000000E+00  0.28634124084E+03  0.28634124084E+03  0.00000000000E+00 0.  1.
          2   -1    0    0  501    0  0.00000000000E+00 -0.00000000000E+00 -0.55338651816E+02  0.55338651816E+02  0.00000000000E+00 0. -1.
         23    2    1    2    0    0 -0.41981577948E+02  0.29719219027E+02  0.51023559391E+02  0.11654437328E+03  0.91288019278E+02 0.  0.
          5    1    1    2  502    0  0.70843548131E+02 -0.34805884237E+02  0.17881891132E+03  0.19550942007E+03  0.41800000000E+01 0. -1.
         -5    1    1    2    0  502 -0.28861970183E+02  0.50866652093E+01  0.11601183144E+01  0.29626099309E+02  0.41800000000E+01 0. -1.
        -11    1    3    3    0    0 -0.62126676983E+02 -0.67452184862E+01  0.24296748335E+02  0.67048892198E+02  0.00000000000E+00 0.  1.
         11    1    3    3    0    0  0.20145099035E+02  0.36464437514E+02  0.26726811056E+02  0.49495481082E+02  0.00000000000E+00 0. -1.
</event>
<event>
 7    1  0.6584658E-006  0.1099717E+03  0.7561462E-02  0.1260622E+00
         -1   -1    0    0    0  501 -0.00000000000E+00  0.00000000000E+00  0.99534175676E+02  0.99534175676E+02  0.00000000000E+00 0.  1.
          1   -1    0    0  501    0  0.00000000000E+00 -0.00000000000E+00 -0.14303594616E+03  0.14303594616E+03  0.00000000000E+00 0. -1.
         23    2    1    2    0    0 -0.28678528296E+02  0.24779723495E+01 -0.60135466735E+02  0.11314051615E+03  0.91410632331E+02 0.  0.
          5    1    1    2  502    0  0.20571364106E+02  0.58752566783E+02 -0.78005401398E+01  0.62875797818E+02  0.41800000000E+01 0. -1.
         -5    1    1    2    0  502  0.81071641905E+01 -0.61230539133E+02  0.24434236389E+02  0.66553807867E+02  0.41800000000E+01 0. -1.
        -11    1    3    3    0    0 -0.37732708751E+02 -0.38365879663E+02 -0.30296985154E+02  0.61754395320E+02  0.00000000000E+00 0. -1.
         11    1    3    3    0    0  0.90541804547E+01  0.40843852012E+02 -0.29838481581E+02  0.51386120830E+02  0.00000000000E+00 0.  1.
</event>
<event>
 7    1  0.6584658E-006  0.9862779E+02  0.7561462E-02  0.1283208E+00
         -1   -1    0    0    0  501 -0.00000000000E+00  0.00000000000E+00  0.22536989694E+03  0.22536989694E+03  0.00000000000E+00 0.  1.
          1   -1    0    0  501    0  0.00000000000E+00 -0.00000000000E+00 -0.74842798702E+02  0.74842798702E+02  0.00000000000E+00 0. -1.
         23    2    1    2    0    0 -0.18323759623E+02 -0.60156795068E+02  0.34209226426E+02  0.11819339910E+03  0.94046840765E+02 0.  0.
          5    1    1    2  502    0 -0.39018944113E+01 -0.30402787954E+02  0.72663348445E+02  0.78974609227E+02  0.41800000000E+01 0.  1.
         -5    1    1    2    0  502  0.22225654035E+02  0.90559583022E+02  0.43654523372E+02  0.10304468732E+03  0.41800000000E+01 0.  1.
        -11    1    3    3    0    0 -0.26037232019E+02 -0.22110348030E+02  0.61769054824E+02  0.70584850181E+02  0.00000000000E+00 0.  1.
         11    1    3    3    0    0  0.77134723957E+01 -0.38046447038E+02 -0.27559828398E+02  0.47608548917E+02  0.00000000000E+00 0. -1.
</event>
<event>
 7    1  0.6584658E-006  0.9380084E+02  0.7561462E-02  0.1293900E+00
          2   -1    0    0  501    0  0.00000000000E+00  0.00000000000E+00  0.66276455933E+02  0.66276455933E+02  0.00000000000E+00 0. -1.
         -2   -1    0    0    0  501 -0.00000000000E+00 -0.00000000000E+00 -0.24953676714E+03  0.24953676714E+03  0.00000000000E+00 0.  1.
         23    2    1    2    0    0  0.14402262169E+02 -0.50433265450E+02 -0.27391571486E+02  0.10918675146E+03  0.91763331932E+02 0.  0.
          5    1    1    2  502    0 -0.48100316339E+02 -0.23504142372E+02 -0.71482346417E+02  0.89405164224E+02  0.41800000000E+01 0.  1.
         -5    1    1    2    0  502  0.33698054171E+02  0.73937407822E+02 -0.84386393303E+02  0.11722130738E+03  0.41800000000E+01 0.  1.
        -11    1    3    3    0    0  0.98939130238E+01 -0.29082974187E+02  0.32933156118E+02  0.45036670330E+02  0.00000000000E+00 0. -1.
         11    1    3    3    0    0  0.45083491450E+01 -0.21350291263E+02 -0.60324727604E+02  0.64150081134E+02  0.00000000000E+00 0.  1.
</event>
<event>
 7    1  0.6584658E-006  0.8737579E+02  0.7561462E-02  0.1309334E+00
          2   -1    0    0  501    0  0.00000000000E+00  0.00000000000E+00  0.52201987293E+03  0.52201987293E+03  0.00000000000E+00 0. -1.
         -2   -1    0    0    0  501 -0.00000000000E+00 -0.00000000000E+00 -0.13500623869E+03  0.13500623869E+03  0.00000000000E+00 0.  1.
         23    2    1    2    0    0  0.38353865789E+02 -0.83485524070E+01  0.47392701724E+03  0.48447932115E+03  0.92588755289E+02 0.  0.
          5    1    1    2  502    0  0.12786826639E+02  0.20990619339E+02  0.33085256932E+02  0.41427233337E+02  0.41800000000E+01 0. -1.
         -5    1    1    2    0  502 -0.51140692428E+02 -0.12642066932E+02 -0.11999863993E+03  0.13111955713E+03  0.41800000000E+01 0.  1.
        -11    1    3    3    0    0 -0.16595542488E+02  0.26960260576E+02  0.10003315572E+03  0.10492330496E+03  0.00000000000E+00 0.  1.
         11    1    3    3    0    0  0.54949408278E+02 -0.35308812983E+02  0.37389386151E+03  0.37955601619E+03  0.00000000000E+00 0. -1.
</event>
<event>
 7    1  0.6584658E-006  0.5690307E+02  0.7561462E-02  0.1411308E+00
         -2   -1    0    0    0  501 -0.00000000000E+00  0.00000000000E+00  0.53140381280E+02  0.53140381280E+02  0.00000000000E+00 0.  1.
          2   -1    0    0  501    0  0.00000000000E+00 -0.00000000000E+00 -0.39696806452E+03  0.39696806452E+03  0.00000000000E+00 0. -1.
         23    2    1    2    0    0  0.13456292683E+02  0.12396388950E+02 -0.30392533244E+03  0.31753995288E+03  0.90145835760E+02 0.  0.
          5    1    1    2  502    0  0.72596497456E+01 -0.25366908316E+01 -0.83056441498E+02  0.83516358812E+02  0.41800000000E+01 0.  1.
         -5    1    1    2    0  502 -0.20715942428E+02 -0.98596981188E+01  0.43154090692E+02  0.49052134114E+02  0.41800000000E+01 0.  1.
        -11    1    3    3    0    0 -0.23162221907E+02 -0.21670050611E+02 -0.53723577800E+02  0.62388319650E+02  0.00000000000E+00 0.  1.
         11    1    3    3    0    0  0.36618514590E+02  0.34066439562E+02 -0.25020175464E+03  0.25515163323E+03  0.00000000000E+00 0. -1.
</event>
<event>
 7    1  0.6584658E-006  0.1041641E+03  0.7561462E-02  0.1271775E+00
         -1   -1    0    0    0  501 -0.00000000000E+00  0.00000000000E+00  0.32794892915E+03  0.32794892915E+03  0.00000000000E+00 0.  1.
          1   -1    0    0  501    0  0.00000000000E+00 -0.00000000000E+00 -0.38157890178E+02  0.38157890178E+02  0.00000000000E+00 0. -1.
         23    2    1    2    0    0 -0.88371900381E+01 -0.18014058465E+02  0.90861375477E+02  0.13026486722E+03  0.91162184315E+02 0.  0.
          5    1    1    2  502    0  0.60886468078E+02  0.17912864203E+02  0.15521742594E+03  0.16774371647E+03  0.41800000000E+01 0.  1.
         -5    1    1    2    0  502 -0.52049278040E+02  0.10119426217E+00  0.43712237557E+02  0.68098235638E+02  0.41800000000E+01 0.  1.
        -11    1    3    3    0    0 -0.49661773866E+02 -0.13294051794E+02  0.41754125162E+02  0.66230133358E+02  0.00000000000E+00 0.  1.
         11    1    3    3    0    0  0.40824583828E+02 -0.47200066707E+01  0.49107250315E+02  0.64034733866E+02  0.00000000000E+00 0. -1.
</event>
<event>
 7    1  0.6584658E-006  0.2290792E+03  0.7561462E-02  0.1127290E+00
          2   -1    0    0  501    0  0.00000000000E+00  0.00000000000E+00  0.50535743109E+03  0.50535743109E+03  0.00000000000E+00 0. -1.
         -2   -1    0    0    0  501 -0.00000000000E+00 -0.00000000000E+00 -0.19388549838E+03  0.19388549838E+03  0.00000000000E+00 0.  1.
         23    2    1    2    0    0  0.15183067114E+03 -0.10518821215E+02  0.32508057543E+03  0.36911091877E+03  0.86036570917E+02 0.  0.
          5    1    1    2  502    0 -0.10740148026E+03 -0.11265749971E+03  0.74133995908E+02  0.17245321671E+03  0.41800000000E+01 0. -1.
         -5    1    1    2    0  502 -0.44429190888E+02  0.12317632093E+03 -0.87742638634E+02  0.15767879399E+03  0.41800000000E+01 0.  1.
        -11    1    3    3    0    0  0.13322837270E+03  0.20970243559E+02  0.22225434675E+03  0.25997412382E+03  0.00000000000E+00 0. -1.
         11    1    3    3    0    0  0.18602298445E+02 -0.31489064774E+02  0.10282622868E+03  0.10913679495E+03  0.00000000000E+00 0.  1.
</event>
<event>
 7    1  0.6584658E-006  0.9994073E+02  0.7561462E-02  0.1280421E+00
         -1   -1    0    0    0  501 -0.00000000000E+00  0.00000000000E+00  0.52661903736E+02  0.52661903736E+02  0.00000000000E+00 0.  1.
          1   -1    0    0  501    0  0.00000000000E+00 -0.00000000000E+00 -0.24871459785E+03  0.24871459785E+03  0.00000000000E+00 0. -1.
         23    2    1    2    0    0  0.19402519170E+00 -0.37011413349E+02 -0.62079686442E+02  0.11438341862E+03  0.88655494039E+02 0.  0.
          5    1    1    2  502    0 -0.21935073269E+02 -0.27682245726E+02 -0.10824127747E+03  0.11393463352E+03  0.41800000000E+01 0.  1.
         -5    1    1    2    0  502  0.21741048077E+02  0.64693659074E+02 -0.25731730207E+02  0.73058449445E+02  0.41800000000E+01 0.  1.
        -11    1    3    3    0    0  0.17663355108E+02  0.25506763724E+02 -0.17295676049E+02  0.35520832188E+02  0.00000000000E+00 0. -1.
         11    1    3    3    0    0 -0.17469329916E+02 -0.62518177073E+02 -0.44784010393E+02  0.78862586434E+02  0.00000000000E+00 0.  1.
</event>
<event>
 7    1  0.6584658E-006  0.1068598E+03  0.7561462E-02  0.1266498E+00
          1   -1    0    0  501    0  0.00000000000E+00  0.00000000000E+00  0.64286710497E+03  0.64286710497E+03  0.00000000000E+00 0. -1.
         -1   -1    0    0    0  501 -0.00000000000E+00 -0.00000000000E+00 -0.34689618609E+02  0.34689618609E+02  0.00000000000E+00 0.  1.
         23    2    1    2    0    0 -0.65600153667E+02 -0.65559030044E+02  0.37457299920E+03  0.39680794782E+03  0.92467557227E+02 0.  0.
          5    1    1    2  502    0  0.23044525826E+02  0.40822086403E+02  0.22590123782E+03  0.23075167292E+03  0.41800000000E+01 0. -1.
         -5    1    1    2    0  502  0.42555627841E+02  0.24736943642E+02  0.77032493394E+01  0.49997102836E+02  0.41800000000E+01 0. -1.
        -11    1    3    3    0    0 -0.59667504963E+01 -0.56647107248E+02  0.27135746047E+03  0.27727128994E+03  0.00000000000E+00 0. -1.
         11    1    3    3    0    0 -0.59633403170E+02 -0.89119227963E+01  0.10321553873E+03  0.11953665788E+03  0.00000000000E+00 0.  1.
</event>
<event>
 7    1  0.6584658E-006  0.1546067E+03  0.7561462E-02  0.1194924E+00
         -1   -1    0    0    0  501 -0.00000000000E+00  0.00000000000E+00  0.36609818493E+02  0.36609818493E+02  0.00000000000E+00 0.  1.
          1   -1    0    0  501    0  0.00000000000E+00 -0.00000000000E+00 -0.87334221640E+03  0.87334221640E+03  0.00000000000E+00 0. -1.
         23    2    1    2    0    0 -0.45957262417E+02 -0.11832120195E+03 -0.55731375359E+03  0.57853883310E+03  0.89423624722E+02 0.  0.
          5    1    1    2  502    0 -0.18127122698E+02  0.73023036609E+02 -0.22098884308E+03  0.23348339902E+03  0.41800000000E+01 0.  1.
         -5    1    1    2    0  502  0.64084385115E+02  0.45298165340E+02 -0.58429801230E+02  0.97929802770E+02  0.41800000000E+01 0.  1.
        -11    1    3    3    0    0 -0.57523531127E+02 -0.27579582116E+02 -0.22852953883E+03  0.23726639058E+03  0.00000000000E+00 0. -1.
         11    1    3    3    0    0  0.11566268709E+02 -0.90741619832E+02 -0.32878421476E+03  0.34127244251E+03  0.00000000000E+00 0.  1.
</event>
<event>
 7    1  0.6584658E-006  0.1878723E+03  0.7561462E-02  0.1160395E+00
         -1   -1    0    0    0  501 -0.00000000000E+00  0.00000000000E+00  0.14487664820E+03  0.14487664820E+03  0.00000000000E+00 0.  1.
          1   -1    0    0  501    0  0.00000000000E+00 -0.00000000000E+00 -0.29309961937E+03  0.29309961937E+03  0.00000000000E+00 0. -1.
         23    2    1    2    0    0 -0.31249483291E+02  0.15739030641E+03 -0.14446093951E+03  0.23447826946E+03  0.91448657991E+02 0.  0.
          5    1    1    2  502    0  0.59348167492E+02 -0.15487224300E+03  0.19023783309E+02  0.16699399201E+03  0.41800000000E+01 0. -1.
         -5    1    1    2    0  502 -0.28098684201E+02 -0.25180634108E+01 -0.22785814972E+02  0.36504006097E+02  0.41800000000E+01 0. -1.
        -11    1    3    3    0    0 -0.58877979006E+02  0.81403591963E+02 -0.10193941009E+03  0.14312513590E+03  0.00000000000E+00 0.  1.
         11    1    3    3    0    0  0.27628495715E+02  0.75986714447E+02 -0.42521529421E+02  0.91353133565E+02  0.00000000000E+00 0. -1.
</event>
<event>
 7    1  0.6584658E-006  0.1114653E+03  0.7561462E-02  0.1257880E+00
         -1   -1    0    0    0  501 -0.00000000000E+00  0.00000000000E+00  0.52519143637E+02  0.52519143637E+02  0.00000000000E+00 0.  1.
          1   -1    0    0  501    0  0.00000000000E+00 -0.00000000000E+00 -0.27748258817E+03  0.27748258817E+03  0.00000000000E+00 0. -1.
         23    2    1    2    0    0 -0.20372357053E+02 -0.39837014445E+02 -0.12106480354E+03  0.16134469472E+03  0.96816337493E+02 0.  0.
          5    1    1    2  502    0 -0.42734375070E+02  0.39396172886E+02 -0.84229698688E+02  0.10242265273E+03  0.41800000000E+01 0.  1.
         -5    1    1    2    0  502  0.63106732123E+02  0.44084155855E+00 -0.19668942308E+02  0.66234384364E+02  0.41800000000E+01 0.  1.
        -11    1    3    3    0    0  0.35716195971E+02 -0.69320067596E+01 -0.21005706528E+02  0.42011178026E+02  0.00000000000E+00 0.  1.
         11    1    3    3    0    0 -0.56088553025E+02 -0.32905007685E+02 -0.10005909701E+03  0.11933351669E+03  0.00000000000E+00 0. -1.
</event>
<event>
 7    1  0.6584658E-006  0.8976179E+02  0.7561462E-02  0.1303430E+00
          2   -1    0    0  501    0  0.00000000000E+00  0.00000000000E+00  0.10897508036E+03  0.10897508036E+03  0.00000000000E+00 0.  1.
         -2   -1    0    0    0  501 -0.00000000000E+00 -0.00000000000E+00 -0.13509311309E+03  0.13509311309E+03  0.00000000000E+00 0. -1.
         23    2    1    2    0    0  0.28099355943E+02 -0.45469154562E+02  0.16710161469E+00  0.10552078973E+03  0.90981269070E+02 0.  0.
          5    1    1    2  502    0  0.46097098432E+01  0.55157678974E+02 -0.65860230422E+02  0.86131651127E+02  0.41800000000E+01 0.  1.
         -5    1    1    2    0  502 -0.32709065786E+02 -0.96885244123E+01  0.39575096079E+02  0.52415752589E+02  0.41800000000E+01 0.  1.
        -11    1    3    3    0    0  0.83091629050E+01  0.19784448289E+02  0.25004266856E+02  0.32949657711E+02  0.00000000000E+00 0.  1.
         11    1    3    3    0    0  0.19790193038E+02 -0.65253602851E+02 -0.24837165241E+02  0.72571132020E+02  0.00000000000E+00 0. -1.
</event>
<event>
 7    1  0.6584658E-006  0.1393800E+03  0.7561462E-02  0.1214166E+00
         -3   -1    0    0    0  501 -0.00000000000E+00  0.00000000000E+00  0.94320269506E+03  0.94320269506E+03  0.00000000000E+00 0.  1.
          3   -1    0    0  501    0  0.00000000000E+00 -0.00000000000E+00 -0.45567686630E+02  0.45567686630E+02  0.00000000000E+00 0. -1.
         23    2    1    2    0    0  0.71751817194E+02  0.70075765568E+02  0.86458039731E+02  0.16190000663E+03  0.93154083765E+02 0.  0.
          5    1    1    2  502    0 -0.53268674250E+02  0.14443494347E+02  0.52399484621E+03  0.52691008478E+03  0.41800000000E+01 0.  1.
         -5    1    1    2    0  502 -0.18483142944E+02 -0.84519259914E+02  0.28718212248E+03  0.29996029028E+03  0.41800000000E+01 0.  1.
        -11    1    3    3    0    0 -0.19439871044E+02  0.33105922255E+02  0.26921089867E+02  0.46889825700E+02  0.00000000000E+00 0.  1.
         11    1    3    3    0    0  0.91191688238E+02  0.36969843313E+02  0.59536949864E+02  0.11501018093E+03  0.00000000000E+00 0. -1.
</event>
<event>
 7    1  0.6584658E-006  0.1192568E+03  0.7561462E-02  0.1244328E+00
         -3   -1    0    0    0  501 -0.00000000000E+00  0.00000000000E+00  0.22555997318E+03  0.22555997318E+03  0.00000000000E+00 0.  1.
          3   -1    0    0  501    0  0.00000000000E+00 -0.00000000000E+00 -0.92814296117E+02  0.92814296117E+02  0.00000000000E+00 0. -1.
         23    2    1    2    0    0 -0.57431348434E+02  0.72466062359E+02  0.33976603640E+02  0.13411117972E+03  0.91003895276E+02 0.  0.
          5    1    1    2  502    0  0.41008119482E+02 -0.83514238731E+02  0.10520444239E+02  0.93725375866E+02  0.41800000000E+01 0.  1.
         -5    1    1    2    0  502  0.16423228952E+02  0.11048176371E+02  0.88248629185E+02  0.90537713707E+02  0.41800000000E+01 0.  1.
        -11    1    3    3    0    0 -0.69538467213E+02  0.21529762167E+02  0.37019435119E+02  0.81667421031E+02  0.00000000000E+00 0.  1.
         11    1    3    3    0    0  0.12107118780E+02  0.50936300192E+02 -0.30428314794E+01  0.52443758693E+02  0.00000000000E+00 0. -1.
</event>
<event>
 7    1  0.6584658E-006  0.1070762E+03  0.7561462E-02  0.1266082E+00
          3   -1    0    0  501    0  0.00000000000E+00  0.00000000000E+00  0.16872287558E+03  0.16872287558E+03  0.00000000000E+00 0. -1.
         -3   -1    0    0    0  501 -0.00000000000E+00 -0.00000000000E+00 -0.10834473352E+03  0.10834473352E+03  0.00000000000E+00 0.  1.
         23    2    1    2    0    0  0.67428315753E+01  0.22666995340E+02  0.10617649792E+03  0.14177333364E+03  0.90922884719E+02 0.  0.
          5    1    1    2  502    0  0.54490424491E+02  0.34951936463E+01 -0.70687945184E+00  0.54766730945E+02  0.41800000000E+01 0. -1.
         -5    1    1    2    0  502 -0.61233256066E+02 -0.26162188986E+02 -0.45091476410E+02  0.80527544516E+02  0.41800000000E+01 0. -1.
        -11    1    3    3    0    0  0.37816720655E+02  0.41650581955E+02  0.52763747292E+02  0.77129037117E+02  0.00000000000E+00 0. -1.
         11    1    3    3    0    0 -0.31073889080E+02 -0.18983586615E+02  0.53412750631E+02  0.64644296526E+02  0.00000000000E+00 0.  1.
</event>
<event>
 7    1  0.6892515E-006  0.2616893E+03  0.7561462E-02  0.1106132E+00
          3   -1    0    0  501    0  0.00000000000E+00  0.00000000000E+00  0.44334186918E+02  0.44334186918E+02  0.00000000000E+00 0. -1.
         -3   -1    0    0    0  501 -0.00000000000E+00 -0.00000000000E+00 -0.16658256597E+04  0.16658256597E+04  0.00000000000E+00 0.  1.
         23    2    1    2    0    0 -0.88889398631E+02  0.22932777299E+03 -0.66511749159E+03  0.71477486200E+03  0.89606211162E+02 0.  0.
          5    1    1    2  502    0  0.11849241378E+03 -0.17019304227E+03 -0.66630299675E+03  0.69784187295E+03  0.41800000000E+01 0. -1.
         -5    1    1    2    0  502 -0.29603015152E+02 -0.59134730729E+02 -0.29007098440E+03  0.29754311162E+03  0.41800000000E+01 0. -1.
        -11    1    3    3    0    0 -0.61637072411E+01  0.69073757566E+02 -0.10088745291E+03  0.12242325525E+03  0.00000000000E+00 0. -1.
         11    1    3    3    0    0 -0.82725691390E+02  0.16025401543E+03 -0.56423003867E+03  0.59235160675E+03  0.00000000000E+00 0.  1.
</event>
<event>
 7    1  0.6584658E-006  0.1074719E+03  0.7561462E-02  0.1265324E+00
          2   -1    0    0  501    0  0.00000000000E+00  0.00000000000E+00  0.86018206336E+02  0.86018206336E+02  0.00000000000E+00 0. -1.
         -2   -1    0    0    0  501 -0.00000000000E+00 -0.00000000000E+00 -0.22132448798E+03  0.22132448798E+03  0.00000000000E+00 0.  1.
         23    2    1    2    0    0  0.65912741484E+02 -0.24838490118E+02 -0.86348238446E+01  0.11584884529E+03  0.91569398217E+02 0.  0.
          5    1    1    2  502    0 -0.73907771682E+01  0.53900235473E+02 -0.69066425480E+01  0.55000300749E+02  0.41800000000E+01 0. -1.
         -5    1    1    2    0  502 -0.58521964316E+02 -0.29061745355E+02 -0.11976481525E+03  0.13649354828E+03  0.41800000000E+01 0. -1.
        -11    1    3    3    0    0  0.12447868212E+02  0.21044796530E+02 -0.33202752530E+02  0.41234156467E+02  0.00000000000E+00 0.  1.
         11    1    3    3    0    0  0.53464873272E+02 -0.45883286648E+02  0.24567928685E+02  0.74614688818E+02  0.00000000000E+00 0. -1.
</event>
<event>
 7    1  0.6584658E-006  0.1458179E+03  0.7561462E-02  0.1205708E+00
          1   -1    0    0  501    0  0.00000000000E+00  0.00000000000E+00  0.47560184911E+03  0.47560184911E+03  0.00000000000E+00 0. -1.
         -1   -1    0    0    0  501 -0.00000000000E+00 -0.00000000000E+00 -0.52858540989E+02  0.52858540989E+02  0.00000000000E+00 0.  1.
         23    2    1    2    0    0  0.10741044531E+03  0.40041716457E+02  0.16657579125E+03  0.22119787388E+03  0.89669740500E+02 0.  0.
          5    1    1    2  502    0 -0.12361984364E+03 -0.62524688891E+02  0.23203174237E+03  0.27027283314E+03  0.41800000000E+01 0. -1.
         -5    1    1    2    0  502  0.16209398327E+02  0.22482972434E+02  0.24135774494E+02  0.36989683075E+02  0.41800000000E+01 0. -1.
        -11    1    3    3    0    0  0.12947054582E+02  0.26615245855E+02  0.10144547385E+03  0.10567488680E+03  0.00000000000E+00 0. -1.
         11    1    3    3    0    0  0.94463390730E+02  0.13426470602E+02  0.65130317394E+02  0.11552298708E+03  0.00000000000E+00 0.  1.
</event>
<event>
 7    1  0.6584658E-006  0.1752201E+03  0.7561462E-02  0.1172511E+00
         -1   -1    0    0    0  501 -0.00000000000E+00  0.00000000000E+00  0.63869466913E+03  0.63869466913E+03  0.00000000000E+00 0.  1.
          1   -1    0    0  501    0  0.00000000000E+00 -0.00000000000E+00 -0.92834393086E+02  0.92834393086E+02  0.00000000000E+00 0. -1.
         23    2    1    2    0    0 -0.15327330217E+03 -0.53471116199E+01  0.31911324814E+02  0.18079221183E+03  0.90256270942E+02 0.  0.
          5    1    1    2  502    0  0.11398151757E+03 -0.53528741051E+02  0.35479218316E+03  0.37649977171E+03  0.41800000000E+01 0. -1.
         -5    1    1    2    0  502  0.39291784606E+02  0.58875852671E+02  0.15915676807E+03  0.17423707869E+03  0.41800000000E+01 0. -1.
        -11    1    3    3    0    0 -0.87945962575E+02 -0.66731796145E+01  0.63043723800E+02  0.10841372040E+03  0.00000000000E+00 0.  1.
         11    1    3    3    0    0 -0.65327339596E+02  0.13260679946E+01 -0.31132398986E+02  0.72378491430E+02  0.00000000000E+00 0. -1.
</event>
<event>
 7    1  0.6584658E-006  0.9824400E+02  0.7561462E-02  0.1284032E+00
         -1   -1    0    0    0  501 -0.00000000000E+00  0.00000000000E+00  0.23110007422E+02  0.23110007422E+02  0.00000000000E+00 0.  1.
          1   -1    0    0  501    0  0.00000000000E+00 -0.00000000000E+00 -0.46777822669E+03  0.46777822669E+03  0.00000000000E+00 0. -1.
         23    2    1    2    0    0 -0.85721862630E+01 -0.19814956502E+00 -0.22607385539E+03  0.24394521801E+03  0.91248888528E+02 0.  0.
          5    1    1    2  502    0 -0.25888810715E+02  0.47825513912E+02 -0.85960503417E+02  0.10180467007E+03  0.41800000000E+01 0. -1.
         -5    1    1    2    0  502  0.34460996978E+02 -0.47627364347E+02 -0.13263386045E+03  0.14513834602E+03  0.41800000000E+01 0.  1.
        -11    1    3    3    0    0  0.32069399640E+02 -0.20005462131E+02 -0.53220829793E+02  0.65277267346E+02  0.00000000000E+00 0. -1.
         11    1    3    3    0    0 -0.40641585903E+02  0.19807312566E+02 -0.17285302560E+03  0.17866795066E+03  0.00000000000E+00 0.  1.
</event>
<event>
 7    1  0.6584658E-006  0.1103097E+03  0.7561462E-02  0.1259997E+00
         -1   -1    0    0    0  501 -0.00000000000E+00  0.00000000000E+00  0.21276356725E+03  0.21276356725E+03  0.00000000000E+00 0.  1.
          1   -1    0    0  501    0  0.00000000000E+00 -0.00000000000E+00 -0.64154409863E+02  0.64154409863E+02  0.00000000000E+00 0. -1.
         23    2    1    2    0    0  0.17231088919E+02 -0.37492873386E+02  0.49686034844E+02  0.11218591504E+03  0.91729774308E+02 0.  0.
          5    1    1    2  502    0 -0.55018501436E+02  0.57304048453E+02  0.33061532437E+02  0.86147122973E+02  0.41800000000E+01 0. -1.
         -5    1    1    2    0  502  0.37787412516E+02 -0.19811175067E+02  0.65861590109E+02  0.78584939104E+02  0.41800000000E+01 0. -1.
        -11    1    3    3    0    0 -0.16177604126E+02 -0.57177677763E+02  0.17939061427E+02  0.62071020891E+02  0.00000000000E+00 0.  1.
         11    1    3    3    0    0  0.33408693045E+02  0.19684804377E+02  0.31746973417E+02  0.50114894148E+02  0.00000000000E+00 0. -1.
</event>
<event>
 7    1  0.6584658E-006  0.1288065E+03  0.7561462E-02  0.1229238E+00
          1   -1    0    0  501    0  0.00000000000E+00  0.00000000000E+00  0.11355570891E+03  0.11355570891E+03  0.00000000000E+00 0. -1.
         -1   -1    0    0    0  501 -0.00000000000E+00 -0.00000000000E+00 -0.19458907648E+03  0.19458907648E+03  0.00000000000E+00 0.  1.
         23    2    1    2    0    0  0.44212252933E+02  0.88219467955E+02 -0.39594587050E+02  0.14351826437E+03  0.96396903725E+02 0.  0.
          5    1    1    2  502    0 -0.58934441522E+02 -0.12941393657E+02 -0.60427080818E+02  0.85496506148E+02  0.41800000000E+01 0.  1.
         -5    1    1    2    0  502  0.14722188589E+02 -0.75278074298E+02  0.18988300300E+02  0.79130014881E+02  0.41800000000E+01 0.  1.
        -11    1    3    3    0    0  0.62893624905E+02  0.64080175621E+02  0.44873505932E+01  0.89900018224E+02  0.00000000000E+00 0. -1.
         11    1    3    3    0    0 -0.18681371972E+02  0.24139292334E+02 -0.44081937643E+02  0.53618246143E+02  0.00000000000E+00 0.  1.
</event>
<event>
 7    1  0.6584658E-006  0.1085402E+03  0.7561462E-02  0.1263297E+00
          2   -1    0    0  501    0  0.00000000000E+00  0.00000000000E+00  0.66857361876E+03  0.66857361876E+03  0.00000000000E+00 0. -1.
         -2   -1    0    0    0  501 -0.00000000000E+00 -0.00000000000E+00 -0.17987071263E+02  0.17987071263E+02  0.00000000000E+00 0.  1.
         23    2    1    2    0    0  0.77233442227E+01 -0.18696927526E+01  0.31874293951E+03  0.33181885809E+03  0.91888776779E+02 0.  0.
          5    1    1    2  502    0 -0.58674338954E+02 -0.28714207163E+02  0.18703336980E+03  0.19815685092E+03  0.41800000000E+01 0. -1.
         -5    1    1    2    0  502  0.50950994731E+02  0.30583899915E+02  0.14481023818E+03  0.15658498102E+03  0.41800000000E+01 0. -1.
        -11    1    3    3    0    0  0.48067895169E+02 -0.13745589076E+02  0.18341078618E+03  0.19010255193E+03  0.00000000000E+00 0.  1.
         11    1    3    3    0    0 -0.40344550946E+02  0.11875896324E+02  0.13533215333E+03  0.14171630615E+03  0.00000000000E+00 0. -1.
</event>
<event>
 7    1  0.6584658E-006  0.1212140E+03  0.7561462E-02  0.1241108E+00
          1   -1    0    0  501    0  0.00000000000E+00  0.00000000000E+00  0.53548577160E+03  0.53548577160E+03  0.00000000000E+00 0. -1.
         -1   -1    0    0    0  501 -0.00000000000E+00 -0.00000000000E+00 -0.33191758822E+02  0.33191758822E+02  0.00000000000E+00 0.  1.
         23    2    1    2    0    0 -0.15148531905E+02  0.51825700322E+02  0.34152583962E+03  0.35794322799E+03  0.92563891997E+02 0.  0.
          5    1    1    2  502    0 -0.40799519100E+02 -0.66260377161E+02  0.84297926172E+02  0.11479830616E+03  0.41800000000E+01 0. -1.
         -5    1    1    2    0  502  0.55948051006E+02  0.14434676839E+02  0.76470246981E+02  0.95935996269E+02  0.41800000000E+01 0. -1.
        -11    1    3    3    0    0 -0.90212344817E+01  0.78593907092E+02  0.26905185450E+03  0.28044123326E+03  0.00000000000E+00 0.  1.
         11    1    3    3    0    0 -0.61272974237E+01 -0.26768206770E+02  0.72473985119E+02  0.77501994725E+02  0.00000000000E+00 0. -1.
</event>
<event>
 7    1  0.6584658E-006  0.1545350E+03  0.7561462E-02  0.1195009E+00
          1   -1    0    0  501    0  0.00000000000E+00  0.00000000000E+00  0.86657442017E+02  0.86657442017E+02  0.00000000000E+00 0. -1.
         -1   -1    0    0    0  501 -0.00000000000E+00 -0.00000000000E+00 -0.29427150599E+03  0.29427150599E+03  0.00000000000E+00 0.  1.
         23    2    1    2    0    0  0.11822510442E+03  0.12770006944E+01 -0.72457408419E+02  0.16208179124E+03  0.83914390726E+02 0.  0.
          5    1    1    2  502    0  0.12996593170E+02  0.30359815704E+02 -0.10088819719E+02  0.34783423162E+02  0.41800000000E+01 0.  1.
         -5    1    1    2    0  502 -0.13122169759E+03 -0.31636816398E+02 -0.12506783584E+03  0.18406373361E+03  0.41800000000E+01 0.  1.
        -11    1    3    3    0    0  0.30658589109E+02  0.35332632684E+02 -0.63703034668E+01  0.47211489966E+02  0.00000000000E+00 0. -1.
         11    1    3    3    0    0  0.87566515307E+02 -0.34055631990E+02 -0.66087104952E+02  0.11487030127E+03  0.00000000000E+00 0.  1.
</event>
<event>
 7    1  0.6584658E-006  0.1208855E+03  0.7561462E-02  0.1241643E+00
          2   -1    0    0  501    0  0.00000000000E+00  0.00000000000E+00  0.26156676841E+02  0.26156676841E+02  0.00000000000E+00 0. -1.
         -2   -1    0    0    0  501 -0.00000000000E+00 -0.00000000000E+00 -0.60407102461E+03  0.60407102461E+03  0.00000000000E+00 0.  1.
         23    2    1    2    0    0 -0.36653345350E+02  0.52482821979E+02 -0.26206888392E+03  0.28453382214E+03  0.90451543338E+02 0.  0.
          5    1    1    2  502    0 -0.41106066819E+02 -0.44412504710E+02 -0.16390442491E+03  0.17476931140E+03  0.41800000000E+01 0.  1.
         -5    1    1    2    0  502  0.77759412169E+02 -0.80703172695E+01 -0.15194103894E+03  0.17092456791E+03  0.41800000000E+01 0.  1.
        -11    1    3    3    0    0  0.25165660163E+02  0.23933020833E+02 -0.14500862904E+03  0.14910936400E+03  0.00000000000E+00 0.  1.
         11    1    3    3    0    0 -0.61819005512E+02  0.28549801146E+02 -0.11706025489E+03  0.13542445814E+03  0.00000000000E+00 0. -1.
</event>
<event>
 7    1  0.6584658E-006  0.1644292E+03  0.7561462E-02  0.1183785E+00
         -2   -1    0    0    0  501 -0.00000000000E+00  0.00000000000E+00  0.15220289823E+03  0.15220289823E+03  0.00000000000E+00 0.  1.
          2   -1    0    0  501    0  0.00000000000E+00 -0.00000000000E+00 -0.33001805668E+03  0.33001805668E+03  0.00000000000E+00 0. -1.
         23    2    1    2    0    0 -0.30350464790E+02 -0.29372784490E+02 -0.13273902857E+03  0.16522416336E+03  0.88856419413E+02 0.  0.
          5    1    1    2  502    0  0.12846707086E+03  0.60351855355E+02 -0.12299782722E+03  0.18786184456E+03  0.41800000000E+01 0. -1.
         -5    1    1    2    0  502 -0.98116606068E+02 -0.30979070865E+02  0.77921697335E+02  0.12913494699E+03  0.41800000000E+01 0.  1.
        -11    1    3    3    0    0 -0.36484101944E+02 -0.50264931183E+02 -0.12894255936E+03  0.14312175452E+03  0.00000000000E+00 0. -1.
         11    1    3    3    0    0  0.61336371541E+01  0.20892146693E+02 -0.37964692066E+01  0.22102408842E+02  0.00000000000E+00 0.  1.
</event>
<event>
 7    1  0.6584658E-006  0.9281904E+02  0.7561462E-02  0.1296165E+00
         -2   -1    0    0    0  501 -0.00000000000E+00  0.00000000000E+00  0.34638595702E+03  0.34638595702E+03  0.00000000000E+00 0.  1.
          2   -1    0    0  501    0  0.00000000000E+00 -0.00000000000E+00 -0.34426050357E+02  0.34426050357E+02  0.00000000000E+00 0. -1.
         23    2    1    2    0    0  0.40145695296E+01 -0.56225669910E+01  0.12605538441E+03  0.15663483118E+03  0.92718824264E+02 0.  0.
          5    1    1    2  502    0  0.25929263167E+02 -0.52349063731E+02  0.71689947452E+02  0.92572523610E+02  0.41800000000E+01 0. -1.
         -5    1    1    2    0  502 -0.29943832697E+02  0.57971630722E+02  0.11421457481E+03  0.13160465259E+03  0.41800000000E+01 0. -1.
        -11    1    3    3    0    0 -0.13044044314E+02 -0.29550748667E+02  0.57713120639E+01  0.32813135811E+02  0.00000000000E+00 0. -1.
         11    1    3    3    0    0  0.17058613844E+02  0.23928181676E+02  0.12028407235E+03  0.12382169537E+03  0.00000000000E+00 0.  1.
</event>
<event>
 7    1  0.6584658E-006  0.7175650E+02  0.7561462E-02  0.1354220E+00
          2   -1    0    0  501    0  0.00000000000E+00  0.00000000000E+00  0.56594956505E+03  0.56594956505E+03  0.00000000000E+00 0. -1.
         -2   -1    0    0    0  501 -0.00000000000E+00 -0.00000000000E+00 -0.24318856891E+02  0.24318856891E+02  0.00000000000E+00 0.  1.
         23    2    1    2    0    0 -0.15737308268E+02 -0.40990627759E+02  0.20103449800E+03  0.22477790603E+03  0.90456305571E+02 0.  0.
          5    1    1    2  502    0 -0.29732070215E+02  0.30777409742E+02  0.32593615928E+02  0.53954250518E+02  0.41800000000E+01 0. -1.
         -5    1    1    2    0  502  0.45469378484E+02  0.10213218017E+02  0.30800259424E+03  0.31153626540E+03  0.41800000000E+01 0. -1.
        -11    1    3    3    0    0  0.27228683320E+01 -0.33809806347E+02  0.20211441703E+03  0.20494085631E+03  0.00000000000E+00 0. -1.
         11    1    3    3    0    0 -0.18460176600E+02 -0.71808214119E+01 -0.10799190273E+01  0.19837049714E+02  0.00000000000E+00 0.  1.
</event>
<event>
 7    1  0.6584658E-006  0.1319540E+03  0.7561462E-02  0.1224585E+00
         -2   -1    0    0    0  501 -0.00000000000E+00  0.00000000000E+00  0.29323021833E+02  0.29323021833E+02  0.00000000000E+00 0.  1.
          2   -1    0    0  501    0  0.00000000000E+00 -0.00000000000E+00 -0.84972138628E+03  0.84972138628E+03  0.00000000000E+00 0. -1.
         23    2    1    2    0    0  0.45067157050E+02 -0.65365874697E+02 -0.60988674211E+03  0.62162182058E+03  0.90266845482E+02 0.  0.
          5    1    1    2  502    0 -0.15381874574E+02 -0.35561208899E+02 -0.85634213535E+02  0.94084496977E+02  0.41800000000E+01 0. -1.
         -5    1    1    2    0  502 -0.29685282476E+02  0.10092708360E+03 -0.12487740880E+03  0.16333809056E+03  0.41800000000E+01 0. -1.
        -11    1    3    3    0    0  0.57739198624E+02 -0.49822529609E+01 -0.26545372878E+03  0.27170631209E+03  0.00000000000E+00 0.  1.
         11    1    3    3    0    0 -0.12672041574E+02 -0.60383621736E+02 -0.34443301333E+03  0.34991550849E+03  0.00000000000E+00 0. -1.
</event>
<event>
 7    1  0.7730322E-006  0.1624898E+03  0.7561462E-02  0.1185914E+00
         -2   -1    0    0    0  501 -0.00000000000E+00  0.00000000000E+00  0.65427138370E+02  0.65427138370E+02  0.00000000000E+00 0.  1.
          2   -1    0    0  501    0  0.00000000000E+00 -0.00000000000E+00 -0.51996890313E+03  0.51996890313E+03  0.00000000000E+00 0. -1.
         23    2    1    2    0    0 -0.60831866331E+02  0.11477918377E+03 -0.32988960271E+03  0.36616848323E+03  0.91528307911E+02 0.  0.
          5    1    1    2  502    0  0.12911887554E+02  0.26846270706E+02 -0.14027560195E+02  0.33191624486E+02  0.41800000000E+01 0. -1.
         -5    1    1    2    0  502  0.47919978778E+02 -0.14162545448E+03 -0.11062460186E+03  0.18603593378E+03  0.41800000000E+01 0. -1.
        -11    1    3    3    0    0 -0.94249245599E+01  0.85796000054E+02 -0.11789503099E+03  0.14611304241E+03  0.00000000000E+00 0. -1.
         11    1    3    3    0    0 -0.51406941772E+02  0.28983183718E+02 -0.21199457171E+03  0.22005544083E+03  0.00000000000E+00 0.  1.
</event>
<event>
 7    1  0.6584658E-006  0.1418461E+03  0.7561462E-02  0.1210866E+00
         -2   -1    0    0    0  501 -0.00000000000E+00  0.00000000000E+00  0.54406017785E+02  0.54406017785E+02  0.00000000000E+00 0.  1.
          2   -1    0    0  501    0  0.00000000000E+00 -0.00000000000E+00 -0.50998824141E+03  0.50998824141E+03  0.00000000000E+00 0. -1.
         23    2    1    2    0    0 -0.91054341265E+02 -0.29606961914E+02 -0.35146219816E+03  0.37556767756E+03  0.91421761288E+02 0.  0.
          5    1    1    2  502    0  0.62817735688E+02  0.75942922597E+02 -0.87668042165E+02  0.13197179027E+03  0.41800000000E+01 0.  1.
         -5    1    1    2    0  502  0.28236605577E+02 -0.46335960683E+02 -0.16451983304E+02  0.56854791369E+02  0.41800000000E+01 0.  1.
        -11    1    3    3    0    0  0.17932593001E+02 -0.10747663729E+01 -0.73019627275E+02  0.75197067641E+02  0.00000000000E+00 0.  1.
         11    1    3    3    0    0 -0.10898693427E+03 -0.28532195541E+02 -0.27844257088E+03  0.30037060992E+03  0.00000000000E+00 0. -1.
</event>
<event>
 7    1  0.6584658E-006  0.1421003E+03  0.7561462E-02  0.1210530E+00
         -3   -1    0    0    0  501 -0.00000000000E+00  0.00000000000E+00  0.16611114874E+03  0.16611114874E+03  0.00000000000E+00 0.  1.
          3   -1    0    0  501    0  0.00000000000E+00 -0.00000000000E+00 -0.13844237203E+03  0.13844237203E+03  0.00000000000E+00 0. -1.
         23    2    1    2    0    0 -0.63483664144E+02  0.80456930441E+02 -0.16875686344E+02  0.13681836128E+03  0.89056060577E+02 0.  0.
          5    1    1    2  502    0  0.90143995889E+02 -0.82757125272E+02  0.86205259708E+01  0.12274554023E+03  0.41800000000E+01 0.  1.
         -5    1    1    2    0  502 -0.26660331745E+02  0.23001948308E+01  0.35923937085E+02  0.44989619255E+02  0.41800000000E+01 0.  1.
        -11    1    3    3    0    0  0.20810117130E+02  0.29744937372E+02  0.31149832393E+01  0.36435221898E+02  0.00000000000E+00 0. -1.
         11    1    3    3    0    0 -0.84293781273E+02  0.50711993069E+02 -0.19990669584E+02  0.10038313938E+03  0.00000000000E+00 0.  1.
</event>
<event>
 7    1  0.6584658E-006  0.8368319E+02  0.7561462E-02  0.1318912E+00
          4   -1    0    0  501    0  0.00000000000E+00  0.00000000000E+00  0.12341519595E+02  0.12341519595E+02  0.00000000000E+00 0. -1.
         -4   -1    0    0    0  501 -0.00000000000E+00 -0.00000000000E+00 -0.10287097543E+04  0.10287097543E+04  0.00000000000E+00 0.  1.
         23    2    1    2    0    0 -0.87927445311E+01 -0.18795969194E+02 -0.32202656520E+03  0.33522510096E+03  0.90797350230E+02 0.  0.
          5    1    1    2  502    0 -0.15349669567E+02  0.39281233504E+02 -0.78945550930E+02  0.89601897709E+02  0.41800000000E+01 0. -1.
         -5    1    1    2    0  502  0.24142414098E+02 -0.20485264310E+02 -0.61539611859E+03  0.61622427523E+03  0.41800000000E+01 0. -1.
        -11    1    3    3    0    0 -0.49779098421E+02 -0.14443214595E+02 -0.17204979290E+03  0.17968777456E+03  0.00000000000E+00 0. -1.
         11    1    3    3    0    0  0.40986353889E+02 -0.43527545987E+01 -0.14997677229E+03  0.15553732640E+03  0.00000000000E+00 0.  1.
</event>
<event>
 7    1  0.6584658E-006  0.1257651E+03  0.7561462E-02  0.1233878E+00
         -1   -1    0    0    0  501 -0.00000000000E+00  0.00000000000E+00  0.92268678116E+02  0.92268678116E+02  0.00000000000E+00 0.  1.
          1   -1    0    0  501    0  0.00000000000E+00 -0.00000000000E+00 -0.25789324347E+03  0.25789324347E+03  0.00000000000E+00 0. -1.
         23    2    1    2    0    0  0.54919459824E+02 -0.92565609918E+02 -0.97443405579E+02  0.17161483811E+03  0.91498066447E+02 0.  0.
          5    1    1    2  502    0 -0.70446839645E+02  0.71782386519E+02  0.50045097375E+01  0.10078683321E+03  0.41800000000E+01 0. -1.
         -5    1    1    2    0  502  0.15527379821E+02  0.20783223399E+02 -0.73185669511E+02  0.77760250261E+02  0.41800000000E+01 0. -1.
        -11    1    3    3    0    0  0.68780087446E+02 -0.82768757534E+02 -0.45271501268E+02  0.11675134466E+03  0.00000000000E+00 0.  1.
         11    1    3    3    0    0 -0.13860627621E+02 -0.97968523838E+01 -0.52171904311E+02  0.54863493455E+02  0.00000000000E+00 0. -1.
</event>
<event>
 7    1  0.6584658E-006  0.1134495E+03  0.7561462E-02  0.1254312E+00
          1   -1    0    0  501    0  0.00000000000E+00  0.00000000000E+00  0.84836943663E+02  0.84836943663E+02  0.00000000000E+00 0. -1.
         -1   -1    0    0    0  501 -0.00000000000E+00 -0.00000000000E+00 -0.17573106175E+03  0.17573106175E+03  0.00000000000E+00 0.  1.
         23    2    1    2    0    0 -0.27241082196E+02 -0.41121918216E+02 -0.11472207937E+02  0.10439996540E+03  0.91294318024E+02 0.  0.
          5    1    1    2  502    0  0.74156613332E+02  0.15458856286E+02 -0.66754797298E+02  0.10105372285E+03  0.41800000000E+01 0. -1.
         -5    1    1    2    0  502 -0.46915531136E+02  0.25663061930E+02 -0.12667112856E+02  0.55114317174E+02  0.41800000000E+01 0. -1.
        -11    1    3    3    0    0 -0.40000192859E+02 -0.61492458579E+02 -0.24142820004E+02  0.77228321545E+02  0.00000000000E+00 0. -1.
         11    1    3    3    0    0  0.12759110664E+02  0.20370540362E+02  0.12670612068E+02  0.27171643854E+02  0.00000000000E+00 0.  1.
</event>
<event>
 7    1  0.6584658E-006  0.8770115E+02  0.7561462E-02  0.1308516E+00
          2   -1    0    0  501    0  0.00000000000E+00  0.00000000000E+00  0.33032236144E+03  0.33032236144E+03  0.00000000000E+00 0.  1.
         -2   -1    0    0    0  501 -0.00000000000E+00 -0.00000000000E+00 -0.63580593794E+02  0.63580593794E+02  0.00000000000E+00 0. -1.
         23    2    1    2    0    0 -0.62816292525E+02  0.38726481943E+02  0.20307828495E+03  0.23532936831E+03  0.93238912285E+02 0.  0.
          5    1    1    2  502    0  0.53247082670E+02 -0.44835572617E+02  0.99072933475E+02  0.12115444248E+03  0.41800000000E+01 0. -1.
         -5    1    1    2    0  502  0.95692098552E+01  0.61090906745E+01 -0.35409450778E+02  0.37419144439E+02  0.41800000000E+01 0. -1.
        -11    1    3    3    0    0 -0.31950401621E+02 -0.12050275234E+02  0.13606838987E+02  0.36758446161E+02  0.00000000000E+00 0. -1.
         11    1    3    3    0    0 -0.30865890904E+02  0.50776757177E+02  0.18947144596E+03  0.19857092215E+03  0.00000000000E+00 0.  1.
</event>
<event>
 7    1  0.6584658E-006  0.1451745E+03  0.7561462E-02  0.1206531E+00
          2   -1    0    0  501    0  0.00000000000E+00  0.00000000000E+00  0.62883011407E+03  0.62883011407E+03  0.00000000000E+00 0. -1.
         -2   -1    0    0    0  501 -0.00000000000E+00 -0.00000000000E+00 -0.35368909626E+02  0.35368909626E+02  0.00000000000E+00 0.  1.
         23    2    1    2    0    0  0.26205622175E+02  0.95702765888E+02  0.32413348710E+03  0.35109980738E+03  0.91448363847E+02 0.  0.
          5    1    1    2  502    0 -0.73087871113E+02 -0.32316920644E+02  0.12098582294E+03  0.14505606508E+03  0.41800000000E+01 0. -1.
         -5    1    1    2    0  502  0.46882248937E+02 -0.63385845244E+02  0.14834189440E+03  0.16804315123E+03  0.41800000000E+01 0. -1.
        -11    1    3    3    0    0  0.33332888116E+02 -0.20190061175E+01  0.12173330943E+03  0.12623056856E+03  0.00000000000E+00 0. -1.
         11    1    3    3    0    0 -0.71272659411E+01  0.97721772006E+02  0.20240017768E+03  0.22486923882E+03  0.00000000000E+00 0.  1.
</event>
<event>
 7    1  0.6584658E-006  0.9731049E+02  0.7561462E-02  0.1286055E+00
          2   -1    0    0  501    0  0.00000000000E+00  0.00000000000E+00  0.19505274909E+02  0.19505274909E+02  0.00000000000E+00 0. -1.
         -2   -1    0    0    0  501 -0.00000000000E+00 -0.00000000000E+00 -0.86614193020E+03  0.86614193020E+03  0.00000000000E+00 0.  1.
         23    2    1    2    0    0  0.26137094879E+02  0.43111332148E+02 -0.20526090020E+03  0.23024419631E+03  0.91316034159E+02 0.  0.
          5    1    1    2  502    0 -0.16071197609E+02  0.20367329444E+02 -0.27061049393E+02  0.37721138576E+02  0.41800000000E+01 0.  1.
         -5    1    1    2    0  502 -0.10065897270E+02 -0.63478661592E+02 -0.61431470570E+03  0.61768187023E+03  0.41800000000E+01 0.  1.
        -11    1    3    3    0    0  0.47977462408E+02 -0.77340189758E+01 -0.86295999895E+02  0.99038636635E+02  0.00000000000E+00 0.  1.
         11    1    3    3    0    0 -0.21840367529E+02  0.50845351124E+02 -0.11896490030E+03  0.13120555967E+03  0.00000000000E+00 0. -1.
</event>
<event>
 7    1  0.6584658E-006  0.9109244E+02  0.7561462E-02  0.1300228E+00
          1   -1    0    0  501    0  0.00000000000E+00  0.00000000000E+00  0.42405421435E+03  0.42405421435E+03  0.00000000000E+00 0. -1.
         -1   -1    0    0    0  501 -0.00000000000E+00 -0.00000000000E+00 -0.42603292499E+02  0.42603292499E+02  0.00000000000E+00 0.  1.
         23    2    1    2    0    0 -0.10914857096E+02 -0.33000898853E+02  0.29458498824E+03  0.31044687553E+03  0.91590140311E+02 0.  0.
          5    1    1    2  502    0 -0.38111974812E+02  0.28957765166E+01 -0.13247521029E+02  0.40667891009E+02  0.41800000000E+01 0.  1.
         -5    1    1    2    0  502  0.49026831908E+02  0.30105122336E+02  0.10011345465E+03  0.11554274031E+03  0.41800000000E+01 0.  1.
        -11    1    3    3    0    0  0.33921823349E+02 -0.19952002713E+02  0.63617937151E+02  0.74806513346E+02  0.00000000000E+00 0.  1.
         11    1    3    3    0    0 -0.44836680445E+02 -0.13048896140E+02  0.23096705109E+03  0.23564036219E+03  0.00000000000E+00 0. -1.
</event>
<event>
 7    1  0.6584658E-006  0.8168324E+02  0.7561462E-02  0.1324341E+00
          1   -1    0    0  501    0  0.00000000000E+00  0.00000000000E+00  0.67920603448E+02  0.67920603448E+02  0.00000000000E+00 0. -1.
         -1   -1    0    0    0  501 -0.00000000000E+00 -0.00000000000E+00 -0.20720232010E+03  0.20720232010E+03  0.00000000000E+00 0.  1.
         23    2    1    2    0    0 -0.61308707087E+01  0.44417302965E+02 -0.48026113391E+02  0.11391952637E+03  0.93062702215E+02 0.  0.
          5    1    1    2  502    0 -0.27374470484E+01  0.19964682661E+02 -0.93798335609E+02  0.96029590924E+02  0.41800000000E+01 0.  1.
         -5    1    1    2    0  502  0.88683177571E+01 -0.64381985626E+02  0.25427323500E+01  0.65173806247E+02  0.41800000000E+01 0.  1.
        -11    1    3    3    0    0  0.10418690201E+02 -0.13712823522E+02  0.17653552353E+02  0.24662492679E+02  0.00000000000E+00 0. -1.
         11    1    3    3    0    0 -0.16549560910E+02  0.58130126487E+02 -0.65679665745E+02  0.89257033695E+02  0.00000000000E+00 0.  1.
</event>
<event>
 7    1  0.6584658E-006  0.8514456E+02  0.7561462E-02  0.1315055E+00
         -1   -1    0    0    0  501 -0.00000000000E+00  0.00000000000E+00  0.13080959093E+03  0.13080959093E+03  0.00000000000E+00 0.  1.
          1   -1    0    0  501    0  0.00000000000E+00 -0.00000000000E+00 -0.14283657915E+03  0.14283657915E+03  0.00000000000E+00 0. -1.
         23    2    1    2    0    0  0.18003825918E+02  0.31977983918E+01 -0.87792344226E+02  0.12780609106E+03  0.91063371045E+02 0.  0.
          5    1    1    2  502    0  0.24457807342E+02 -0.22397718459E+02  0.90750806953E+02  0.96711030884E+02  0.41800000000E+01 0. -1.
         -5    1    1    2    0  502 -0.42461633260E+02  0.19199920067E+02 -0.14985450950E+02  0.49129048127E+02  0.41800000000E+01 0.  1.
        -11    1    3    3    0    0  0.22934688753E+02 -0.40262205750E+02 -0.29503790698E+02  0.54931947222E+02  0.00000000000E+00 0.  1.
         11    1    3    3    0    0 -0.49308628349E+01  0.43460004142E+02 -0.58288553528E+02  0.72874143842E+02  0.00000000000E+00 0. -1.
</event>
<event>
 7    1  0.6584658E-006  0.1352768E+03  0.7561462E-02  0.1219830E+00
          3   -1    0    0  501    0  0.00000000000E+00  0.00000000000E+00  0.23147066814E+03  0.23147066814E+03  0.00000000000E+00 0. -1.
         -3   -1    0    0    0  501 -0.00000000000E+00 -0.00000000000E+00 -0.91036170525E+02  0.91036170525E+02  0.00000000000E+00 0.  1.
         23    2    1    2    0    0 -0.27834275614E+02  0.89531710642E+02  0.87799270255E+02  0.15755635610E+03  0.91239352157E+02 0.  0.
          5    1    1    2  502    0 -0.33741427872E+02 -0.66829562854E+02 -0.81213883082E+01  0.75419518522E+02  0.41800000000E+01 0.  1.
         -5    1    1    2    0  502  0.61575703486E+02 -0.22702147788E+02  0.60756615664E+02  0.89530964034E+02  0.41800000000E+01 0.  1.
        -11    1    3    3    0    0 -0.55372796509E+02  0.85665527173E+02  0.76663428874E+02  0.12760098145E+03  0.00000000000E+00 0. -1.
         11    1    3    3    0    0  0.27538520895E+02  0.38661834683E+01  0.11135841381E+02  0.29955374659E+02  0.00000000000E+00 0.  1.
</event>
<event>
 7    1  0.6584658E-006  0.1093981E+03  0.7561462E-02  0.1261688E+00
         -1   -1    0    0    0  501 -0.00000000000E+00  0.00000000000E+00  0.39949856749E+02  0.39949856749E+02  0.00000000000E+00 0.  1.
          1   -1    0    0  501    0  0.00000000000E+00 -0.00000000000E+00 -0.31049151871E+03  0.31049151871E+03  0.00000000000E+00 0. -1.
         23    2    1    2    0    0  0.17527161948E+02 -0.13336737691E+02 -0.93651782652E+02  0.13267066704E+03  0.91355238061E+02 0.  0.
          5    1    1    2  502    0 -0.25992529663E+02 -0.52584303490E+02 -0.65790669379E+02  0.88241742668E+02  0.41800000000E+01 0. -1.
         -5    1    1    2    0  502  0.84653677150E+01  0.65921041181E+02 -0.11109920993E+03  0.12952896575E+03  0.41800000000E+01 0. -1.
        -11    1    3    3    0    0 -0.15880157018E+02  0.32795557691E+02 -0.29504723912E+02  0.46885570534E+02  0.00000000000E+00 0. -1.
         11    1    3    3    0    0  0.33407318966E+02 -0.46132295383E+02 -0.64147058740E+02  0.85785096507E+02  0.00000000000E+00 0.  1.
</event>
<event>
 7    1  0.6584658E-006  0.1059916E+03  0.7561462E-02  0.1268178E+00
         -1   -1    0    0    0  501 -0.00000000000E+00  0.00000000000E+00  0.47308758715E+02  0.47308758715E+02  0.00000000000E+00 0.  1.
          1   -1    0    0  501    0  0.00000000000E+00 -0.00000000000E+00 -0.40567855616E+03  0.40567855616E+03  0.00000000000E+00 0. -1.
         23    2    1    2    0    0  0.24739910809E+02 -0.75417024221E+02 -0.21300383194E+03  0.24543285133E+03  0.92557340947E+02 0.  0.
          5    1    1    2  502    0  0.18669334968E+02 -0.17565587302E+02  0.40088579433E+01  0.26279978451E+02  0.41800000000E+01 0. -1.
         -5    1    1    2    0  502 -0.43409245777E+02  0.92982611523E+02 -0.14937482345E+03  0.18127448509E+03  0.41800000000E+01 0. -1.
        -11    1    3    3    0    0  0.22996054059E+02 -0.29714517670E+02 -0.12227280669E+02  0.39513003622E+02  0.00000000000E+00 0.  1.
         11    1    3    3    0    0  0.17438567506E+01 -0.45702506552E+02 -0.20077655127E+03  0.20591984771E+03  0.00000000000E+00 0. -1.
</event>
<event>
 7    1  0.6584658E-006  0.1125569E+03  0.7561462E-02  0.1255907E+00
         -1   -1    0    0    0  501 -0.00000000000E+00  0.00000000000E+00  0.43257690517E+02  0.43257690517E+02  0.00000000000E+00 0.  1.
          1   -1    0    0  501    0  0.00000000000E+00 -0.00000000000E+00 -0.53379940222E+03  0.53379940222E+03  0.00000000000E+00 0. -1.
         23    2    1    2    0    0 -0.84338077388E+02 -0.46125569359E+02 -0.31082805234E+03  0.33792102892E+03  0.91302049349E+02 0.  0.
          5    1    1    2  502    0  0.44719139603E+02 -0.21019718784E+02 -0.76346350494E+01  0.50173599401E+02  0.41800000000E+01 0. -1.
         -5    1    1    2    0  502  0.39618937785E+02  0.67145288142E+02 -0.17207902431E+03  0.18896246442E+03  0.41800000000E+01 0. -1.
        -11    1    3    3    0    0 -0.30690238043E+02 -0.25754454983E+02 -0.26913436446E+02  0.48265056967E+02  0.00000000000E+00 0.  1.
         11    1    3    3    0    0 -0.53647839345E+02 -0.20371114375E+02 -0.28391461590E+03  0.28965597195E+03  0.00000000000E+00 0. -1.
</event>
<event>
 7    1  0.6584658E-006  0.8698182E+02  0.7561462E-02  0.1310330E+00
         -1   -1    0    0    0  501 -0.00000000000E+00  0.00000000000E+00  0.44147942610E+02  0.44147942610E+02  0.00000000000E+00 0.  1.
          1   -1    0    0  501    0  0.00000000000E+00 -0.00000000000E+00 -0.35749930674E+03  0.35749930674E+03  0.00000000000E+00 0. -1.
         23    2    1    2    0    0  0.22866330427E+02  0.23938498680E+02 -0.22731210585E+03  0.24628569007E+03  0.88825260365E+02 0.  0.
          5    1    1    2  502    0  0.37010179549E+02  0.11745945595E+02  0.63349024957E+01  0.39564175940E+02  0.41800000000E+01 0.  1.
         -5    1    1    2    0  502 -0.59876509975E+02 -0.35684444275E+02 -0.92374160768E+02  0.11579738334E+03  0.41800000000E+01 0.  1.
        -11    1    3    3    0    0 -0.15352799161E+02  0.21981231359E+02 -0.15346897414E+02  0.30893530623E+02  0.00000000000E+00 0.  1.
         11    1    3    3    0    0  0.38219129588E+02  0.19572673215E+01 -0.21196520844E+03  0.21539215945E+03  0.00000000000E+00 0. -1.
</event>
<event>
 7    1  0.6584658E-006  0.1019938E+03  0.7561462E-02  0.1276158E+00
         -4   -1    0    0    0  501 -0.00000000000E+00  0.00000000000E+00  0.42927491048E+03  0.42927491048E+03  0.00000000000E+00 0.  1.
          4   -1    0    0  501    0  0.00000000000E+00 -0.00000000000E+00 -0.38252638333E+02  0.38252638333E+02  0.00000000000E+00 0. -1.
         23    2    1    2    0    0 -0.17353137984E+02 -0.51716311952E+02  0.92003885941E+02  0.13883868612E+03  0.88519813681E+02 0.  0.
          5    1    1    2  502    0  0.55218910857E+02  0.69737868792E+02  0.15640744042E+03  0.17998127202E+03  0.41800000000E+01 0. -1.
         -5    1    1    2    0  502 -0.37865772873E+02 -0.18021556840E+02  0.14261094578E+03  0.14870759067E+03  0.41800000000E+01 0. -1.
        -11    1    3    3    0    0 -0.55107564766E+01  0.92070178262E+01 -0.13004953458E+02  0.16860202509E+02  0.00000000000E+00 0. -1.
         11    1    3    3    0    0 -0.11842381508E+02 -0.60923329778E+02  0.10500883940E+03  0.12197848361E+03  0.00000000000E+00 0.  1.
</event>
<event>
 7    1  0.6584658E-006  0.1130154E+03  0.7561462E-02  0.1255086E+00
          2   -1    0    0  501    0  0.00000000000E+00  0.00000000000E+00  0.37651701894E+03  0.37651701894E+03  0.00000000000E+00 0. -1.
         -2   -1    0    0    0  501 -0.00000000000E+00 -0.00000000000E+00 -0.36494746448E+02  0.36494746448E+02  0.00000000000E+00 0.  1.
         23    2    1    2    0    0  0.35890998150E+02 -0.39461161441E+01  0.19085475577E+03  0.21501279112E+03  0.92202098486E+02 0.  0.
          5    1    1    2  502    0  0.16278159649E+02 -0.51327169471E+02  0.58638690496E+02  0.79720920909E+02  0.41800000000E+01 0. -1.
         -5    1    1    2    0  502 -0.52169157799E+02  0.55273285616E+02  0.90528826227E+02  0.11827805336E+03  0.41800000000E+01 0. -1.
        -11    1    3    3    0    0  0.29958594871E+01 -0.43983036357E+02  0.11489260964E+03  0.12306012519E+03  0.00000000000E+00 0. -1.
         11    1    3    3    0    0  0.32895138663E+02  0.40036920213E+02  0.75962146131E+02  0.91952665935E+02  0.00000000000E+00 0.  1.
</event>
<event>
 7    1  0.6584658E-006  0.1239281E+03  0.7561462E-02  0.1236754E+00
          1   -1    0    0  501    0  0.00000000000E+00  0.00000000000E+00  0.12774288249E+03  0.12774288249E+03  0.00000000000E+00 0. -1.
         -1   -1    0    0    0  501 -0.00000000000E+00 -0.00000000000E+00 -0.14937251540E+03  0.14937251540E+03  0.00000000000E+00 0.  1.
         23    2    1    2    0    0  0.80057618069E+02  0.29118248147E+02 -0.10335138995E+02  0.12534844059E+03  0.91369151660E+02 0.  0.
          5    1    1    2  502    0 -0.89241908002E+02  0.27774938236E+02 -0.77068832110E+01  0.93874564109E+02  0.41800000000E+01 0. -1.
         -5    1    1    2    0  502  0.91842899333E+01 -0.56893186383E+02 -0.35876107108E+01  0.57892393188E+02  0.41800000000E+01 0. -1.
        -11    1    3    3    0    0  0.40586583086E+01  0.19493318177E+02 -0.38811423562E+02  0.43620966974E+02  0.00000000000E+00 0.  1.
         11    1    3    3    0    0  0.75998959760E+02  0.96249299693E+01  0.28476284566E+02  0.81727473620E+02  0.00000000000E+00 0. -1.
</event>
<event>
 7    1  0.6584658E-006  0.9922918E+02  0.7561462E-02  0.1281925E+00
          3   -1    0    0  501    0  0.00000000000E+00  0.00000000000E+00  0.17894417334E+03  0.17894417334E+03  0.00000000000E+00 0. -1.
         -3   -1    0    0    0  501 -0.00000000000E+00 -0.00000000000E+00 -0.84219535210E+02  0.84219535210E+02  0.00000000000E+00 0.  1.
         23    2    1    2    0    0  0.23686518379E+02  0.50227291461E+01  0.10231233381E+03  0.13552653606E+03  0.85518123032E+02 0.  0.
          5    1    1    2  502    0 -0.26860123468E+02  0.56652608446E+02 -0.16832892471E+02  0.65052309301E+02  0.41800000000E+01 0. -1.
         -5    1    1    2    0  502  0.31736050891E+01 -0.61675337592E+02  0.92451967940E+01  0.62584863187E+02  0.41800000000E+01 0. -1.
        -11    1    3    3    0    0  0.12507916296E+02  0.37418238471E+02  0.91415432351E+02  0.99565826528E+02  0.00000000000E+00 0. -1.
         11    1    3    3    0    0  0.11178602083E+02 -0.32395509324E+02  0.10896901458E+02  0.35960709536E+02  0.00000000000E+00 0.  1.
</event>
<event>
 7    1  0.6584658E-006  0.9027359E+02  0.7561462E-02  0.1302191E+00
         -2   -1    0    0    0  501 -0.00000000000E+00  0.00000000000E+00  0.19872819940E+03  0.19872819940E+03  0.00000000000E+00 0.  1.
          2   -1    0    0  501    0  0.00000000000E+00 -0.00000000000E+00 -0.67933213415E+02  0.67933213415E+02  0.00000000000E+00 0. -1.
         23    2    1    2    0    0 -0.34799768056E+02 -0.13371138710E+02  0.36476902558E+02  0.10562418439E+03  0.91848204673E+02 0.  0.
          5    1    1    2  502    0 -0.51410853706E+01 -0.26825095011E+02  0.10017547958E+03  0.10391638750E+03  0.41800000000E+01 0. -1.
         -5    1    1    2    0  502  0.39940853427E+02  0.40196233722E+02 -0.58573961556E+01  0.57120840922E+02  0.41800000000E+01 0. -1.
        -11    1    3    3    0    0 -0.78799736068E+01 -0.50012213382E+02  0.32098536567E+02  0.59946905852E+02  0.00000000000E+00 0.  1.
         11    1    3    3    0    0 -0.26919794449E+02  0.36641074672E+02  0.43783659906E+01  0.45677278543E+02  0.00000000000E+00 0. -1.
</event>
<event>
 7    1  0.6584658E-006  0.1751188E+03  0.7561462E-02  0.1172613E+00
          3   -1    0    0  501    0  0.00000000000E+00  0.00000000000E+00  0.56182083929E+02  0.56182083929E+02  0.00000000000E+00 0. -1.
         -3   -1    0    0    0  501 -0.00000000000E+00 -0.00000000000E+00 -0.63735522514E+03  0.63735522514E+03  0.00000000000E+00 0.  1.
         23    2    1    2    0    0 -0.86971391173E+02  0.10617076094E+03 -0.14534980640E+03  0.21980079174E+03  0.91375973128E+02 0.  0.
          5    1    1    2  502    0  0.11919173509E+03 -0.87741152868E+02 -0.35812512464E+03  0.38752581452E+03  0.41800000000E+01 0.  1.
         -5    1    1    2    0  502 -0.32220343921E+02 -0.18429608073E+02 -0.77698210166E+02  0.86210702810E+02  0.41800000000E+01 0.  1.
        -11    1    3    3    0    0  0.15652854930E+02  0.39378615174E+02 -0.39988447050E+02  0.58264595579E+02  0.00000000000E+00 0.  1.
         11    1    3    3    0    0 -0.10262424610E+03  0.66792145767E+02 -0.10536135935E+03  0.16153619616E+03  0.00000000000E+00 0. -1.
</event>
<event>
 7    1  0.6584658E-006  0.2717124E+03  0.7561462E-02  0.1100304E+00
         -2   -1    0    0    0  501 -0.00000000000E+00  0.00000000000E+00  0.24485392196E+03  0.24485392196E+03  0.00000000000E+00 0.  1.
          2   -1    0    0  501    0  0.00000000000E+00 -0.00000000000E+00 -0.32541503649E+03  0.32541503649E+03  0.00000000000E+00 0. -1.
         23    2    1    2    0    0  0.25493534802E+03  0.44058964768E+02 -0.14493226594E+02  0.27539741283E+03  0.93276242044E+02 0.  0.
          5    1    1    2  502    0 -0.14807840862E+03  0.33290786514E+02 -0.58374464325E+02  0.16266696669E+03  0.41800000000E+01 0.  1.
         -5    1    1    2    0  502 -0.10685693940E+03 -0.77349751282E+02 -0.76934236088E+01  0.13220457893E+03  0.41800000000E+01 0.  1.
        -11    1    3    3    0    0  0.14623293995E+03  0.36074758223E+02 -0.53195509890E+02  0.15973485274E+03  0.00000000000E+00 0. -1.
         11    1    3    3    0    0  0.10870240808E+03  0.79842065451E+01  0.38702283296E+02  0.11566256010E+03  0.00000000000E+00 0.  1.
</event>
<event>
 7    1  0.6584658E-006  0.1118206E+03  0.7561462E-02  0.1257235E+00
         -3   -1    0    0    0  501 -0.00000000000E+00  0.00000000000E+00  0.25255955419E+03  0.25255955419E+03  0.00000000000E+00 0.  1.
          3   -1    0    0  501    0  0.00000000000E+00 -0.00000000000E+00 -0.68790268840E+02  0.68790268840E+02  0.00000000000E+00 0. -1.
         23    2    1    2    0    0  0.13283091947E+02 -0.13736351933E+02  0.54148482134E+02  0.99247569115E+02  0.80949947262E+02 0.  0.
          5    1    1    2  502    0  0.71764232425E+02 -0.16174784995E+02  0.13297325872E+02  0.74873359752E+02  0.41800000000E+01 0. -1.
         -5    1    1    2    0  502 -0.85047324372E+02  0.29911136928E+02  0.11632347734E+03  0.14722889416E+03  0.41800000000E+01 0.  1.
        -11    1    3    3    0    0  0.32207550867E+02  0.55554671903E+01  0.62864179246E+02  0.70852625787E+02  0.00000000000E+00 0. -1.
         11    1    3    3    0    0 -0.18924458920E+02 -0.19291819123E+02 -0.87156971122E+01  0.28394943329E+02  0.00000000000E+00 0.  1.
</event>
<event>
 7    1  0.6584658E-006  0.2050310E+03  0.7561462E-02  0.1145562E+00
         -2   -1    0    0    0  501 -0.00000000000E+00  0.00000000000E+00  0.14559225215E+03  0.14559225215E+03  0.00000000000E+00 0.  1.
          2   -1    0    0  501    0  0.00000000000E+00 -0.00000000000E+00 -0.45397446807E+03  0.45397446807E+03  0.00000000000E+00 0. -1.
         23    2    1    2    0    0  0.32400863074E+02 -0.40353619328E+02 -0.53987108150E+02  0.11894135608E+03  0.92488960528E+02 0.  0.
          5    1    1    2  502    0  0.77565723848E+02  0.15080684667E+03 -0.27524476225E+03  0.32332073559E+03  0.41800000000E+01 0. -1.
         -5    1    1    2    0  502 -0.10996658692E+03 -0.11045322734E+03  0.20849654477E+02  0.15730462854E+03  0.41800000000E+01 0.  1.
        -11    1    3    3    0    0  0.53203276899E+02 -0.32042381709E+02 -0.17817281383E+01  0.62132740593E+02  0.00000000000E+00 0.  1.
         11    1    3    3    0    0 -0.20802413825E+02 -0.83112376184E+01 -0.52205380011E+02  0.56808615489E+02  0.00000000000E+00 0. -1.
</event>
<event>
 7    1  0.6584658E-006  0.1019257E+03  0.7561462E-02  0.1276298E+00
         -2   -1    0    0    0  501 -0.00000000000E+00  0.00000000000E+00  0.13017381092E+04  0.13017381092E+04  0.00000000000E+00 0.  1.
          2   -1    0    0  501    0  0.00000000000E+00 -0.00000000000E+00 -0.24073433434E+02  0.24073433434E+02  0.00000000000E+00 0. -1.
         23    2    1    2    0    0  0.60558976543E+01 -0.75045964660E+02  0.15687045566E+03  0.19554780037E+03  0.89230217214E+02 0.  0.
          5    1    1    2  502    0  0.20061799932E+02  0.42718274256E+02  0.12632589848E+03  0.13491861175E+03  0.41800000000E+01 0. -1.
         -5    1    1    2    0  502 -0.26117697586E+02  0.32327690404E+02  0.99446832159E+03  0.99534513047E+03  0.41800000000E+01 0. -1.
        -11    1    3    3    0    0 -0.10175055697E+02 -0.91221775945E+02  0.10917245188E+03  0.14263088170E+03  0.00000000000E+00 0. -1.
         11    1    3    3    0    0  0.16230953352E+02  0.16175811285E+02  0.47698003778E+02  0.52916918673E+02  0.00000000000E+00 0.  1.
</event>
<event>
 7    1  0.6584658E-006  0.8901453E+02  0.7561462E-02  0.1305256E+00
         -1   -1    0    0    0  501 -0.00000000000E+00  0.00000000000E+00  0.70334955759E+02  0.70334955759E+02  0.00000000000E+00 0.  1.
          1   -1    0    0  501    0  0.00000000000E+00 -0.00000000000E+00 -0.27404871460E+03  0.27404871460E+03  0.00000000000E+00 0. -1.
         23    2    1    2    0    0  0.38857051214E+02 -0.10816293839E+02 -0.18635587128E+03  0.21181346918E+03  0.92247343179E+02 0.  0.
          5    1    1    2  502    0 -0.19581967792E+02  0.38484101938E+02 -0.62493431025E+02  0.76074837403E+02  0.41800000000E+01 0. -1.
         -5    1    1    2    0  502 -0.19275083422E+02 -0.27667808100E+02  0.45135543456E+02  0.56495363784E+02  0.41800000000E+01 0. -1.
        -11    1    3    3    0    0 -0.30175242116E+02  0.28080585993E+01 -0.57500239184E+02  0.64997753315E+02  0.00000000000E+00 0. -1.
         11    1    3    3    0    0  0.69032293329E+02 -0.13624352438E+02 -0.12885563209E+03  0.14681571586E+03  0.00000000000E+00 0.  1.
</event>
<event>
 7    1  0.6584658E-006  0.8744091E+02  0.7561462E-02  0.1309170E+00
         -1   -1    0    0    0  501 -0.00000000000E+00  0.00000000000E+00  0.77921178541E+02  0.77921178541E+02  0.00000000000E+00 0.  1.
          1   -1    0    0  501    0  0.00000000000E+00 -0.00000000000E+00 -0.25275282534E+03  0.25275282534E+03  0.00000000000E+00 0. -1.
         23    2    1    2    0    0  0.27665829491E+02 -0.58655945748E+01 -0.17997603565E+03  0.20232089207E+03  0.87991855532E+02 0.  0.
          5    1    1    2  502    0 -0.15246230921E+02  0.46692767692E+02  0.47231147571E+02  0.68270900191E+02  0.41800000000E+01 0.  1.
         -5    1    1    2    0  502 -0.12419598570E+02 -0.40827173117E+02 -0.42086758729E+02  0.60082211625E+02  0.41800000000E+01 0.  1.
        -11    1    3    3    0    0 -0.27239073317E+02 -0.55615817654E+01 -0.23204165118E+02  0.36212312626E+02  0.00000000000E+00 0.  1.
         11    1    3    3    0    0  0.54904902808E+02 -0.30401280941E+00 -0.15677187053E+03  0.16610857944E+03  0.00000000000E+00 0. -1.
</event>
<event>
 7    1  0.6584658E-006  0.1445076E+03  0.7561462E-02  0.1207389E+00
         -1   -1    0    0    0  501 -0.00000000000E+00  0.00000000000E+00  0.37471421648E+02  0.37471421648E+02  0.00000000000E+00 0.  1.
          1   -1    0    0  501    0  0.00000000000E+00 -0.00000000000E+00 -0.62639225086E+03  0.62639225086E+03  0.00000000000E+00 0. -1.
         23    2    1    2    0    0 -0.10280814302E+03  0.60544696297E+01 -0.27548306556E+03  0.29906294624E+03  0.54236109081E+02 0.  0.
          5    1    1    2  502    0 -0.46748525783E+00 -0.66089391357E+02 -0.12923654236E+03  0.14521564128E+03  0.41800000000E+01 0. -1.
         -5    1    1    2    0  502  0.10327562828E+03  0.60034921727E+02 -0.18420122130E+03  0.21958508499E+03  0.41800000000E+01 0.  1.
        -11    1    3    3    0    0 -0.71593056522E+02  0.73606649199E+00 -0.11485230957E+03  0.13534090494E+03  0.00000000000E+00 0. -1.
         11    1    3    3    0    0 -0.31215086498E+02  0.53184031377E+01 -0.16063075599E+03  0.16372204130E+03  0.00000000000E+00 0.  1.
</event>
<event>
 7    1  0.6584658E-006  0.8927314E+02  0.7561462E-02  0.1304621E+00
          2   -1    0    0  501    0  0.00000000000E+00  0.00000000000E+00  0.86544997322E+02  0.86544997322E+02  0.00000000000E+00 0. -1.
         -2   -1    0    0    0  501 -0.00000000000E+00 -0.00000000000E+00 -0.18503035729E+03  0.18503035729E+03  0.00000000000E+00 0.  1.
         23    2    1    2    0    0  0.36902171860E+02  0.49447180485E+02 -0.16770152295E+02  0.10991799330E+03  0.89408798768E+02 0.  0.
          5    1    1    2  502    0  0.23138364299E+01 -0.20454355782E+02 -0.10526373305E+03  0.10733899759E+03  0.41800000000E+01 0.  1.
         -5    1    1    2    0  502 -0.39216008290E+02 -0.28992824703E+02  0.23548525369E+02  0.54318363723E+02  0.41800000000E+01 0.  1.
        -11    1    3    3    0    0 -0.29885760054E+02  0.14633039961E+02 -0.37963379769E+01  0.33491740691E+02  0.00000000000E+00 0. -1.
         11    1    3    3    0    0  0.66787931915E+02  0.34814140524E+02 -0.12973814318E+02  0.76426252609E+02  0.00000000000E+00 0.  1.
</event>
<event>
 7    1  0.6584658E-006  0.1013645E+03  0.7561462E-02  0.1277453E+00
          1   -1    0    0  501    0  0.00000000000E+00  0.00000000000E+00  0.27302336892E+03  0.27302336892E+03  0.00000000000E+00 0. -1.
         -1   -1    0    0    0  501 -0.00000000000E+00 -0.00000000000E+00 -0.57988744494E+02  0.57988744494E+02  0.00000000000E+00 0.  1.
         23    2    1    2    0    0  0.13990381907E+01 -0.37031190153E+02  0.14717567017E+03  0.17808653879E+03  0.93171192214E+02 0.  0.
          5    1    1    2  502    0 -0.27251538058E+02  0.65590713992E+02  0.84749098818E+02  0.11065563808E+03  0.41800000000E+01 0. -1.
         -5    1    1    2    0  502  0.25852499867E+02 -0.28559523839E+02 -0.16890144565E+02  0.42269936535E+02  0.41800000000E+01 0.  1.
        -11    1    3    3    0    0  0.23761261810E+02 -0.57686537440E+02  0.63388738976E+02  0.88940802748E+02  0.00000000000E+00 0.  1.
         11    1    3    3    0    0 -0.22362223619E+02  0.20655347287E+02  0.83786931191E+02  0.89145736046E+02  0.00000000000E+00 0. -1.
</event>
<event>
 7    1  0.6584658E-006  0.9254599E+02  0.7561462E-02  0.1296801E+00
         -2   -1    0    0    0  501 -0.00000000000E+00  0.00000000000E+00  0.58956483032E+02  0.58956483032E+02  0.00000000000E+00 0.  1.
          2   -1    0    0  501    0  0.00000000000E+00 -0.00000000000E+00 -0.19731825825E+03  0.19731825825E+03  0.00000000000E+00 0. -1.
         23    2    1    2    0    0  0.14621907889E+02  0.15676122251E+02 -0.54378119972E+02  0.10411078041E+03  0.86154127397E+02 0.  0.
          5    1    1    2  502    0 -0.37128826276E+02 -0.63357925879E+02 -0.42548724071E+02  0.84974365737E+02  0.41800000000E+01 0.  1.
         -5    1    1    2    0  502  0.22506918387E+02  0.47681803628E+02 -0.41434931175E+02  0.67189595132E+02  0.41800000000E+01 0.  1.
        -11    1    3    3    0    0  0.16916055080E+02 -0.18109939687E+02  0.13524939753E+02  0.28232017821E+02  0.00000000000E+00 0.  1.
         11    1    3    3    0    0 -0.22941471908E+01  0.33786061938E+02 -0.67903059725E+02  0.75878762593E+02  0.00000000000E+00 0. -1.
</event>
<event>
 7    1  0.6584658E-006  0.1011069E+03  0.7561462E-02  0.1277985E+00
          1   -1    0    0  501    0  0.00000000000E+00  0.00000000000E+00  0.15136863439E+03  0.15136863439E+03  0.00000000000E+00 0. -1.
         -1   -1    0    0    0  501 -0.00000000000E+00 -0.00000000000E+00 -0.86674624232E+02  0.86674624232E+02  0.00000000000E+00 0.  1.
         23    2    1    2    0    0 -0.44867363781E+01 -0.14957008662E+02  0.61306775169E+02  0.11193471736E+03  0.92341850524E+02 0.  0.
          5    1    1    2  502    0  0.59771120611E+02 -0.18112196148E+01  0.24080873229E+02  0.64600528102E+02  0.41800000000E+01 0. -1.
         -5    1    1    2    0  502 -0.55284384233E+02  0.16768228277E+02 -0.20693638236E+02  0.61508013161E+02  0.41800000000E+01 0. -1.
        -11    1    3    3    0    0  0.39260044383E+02 -0.74556624915E+01  0.50543350457E+01  0.40280073124E+02  0.00000000000E+00 0.  1.
         11    1    3    3    0    0 -0.43746780761E+02 -0.75013461709E+01  0.56252440123E+02  0.71654644239E+02  0.00000000000E+00 0. -1.
</event>
<event>
 7    1  0.6584658E-006  0.2163643E+03  0.7561462E-02  0.1136623E+00
          2   -1    0    0  501    0  0.00000000000E+00  0.00000000000E+00  0.10166825952E+04  0.10166825952E+04  0.00000000000E+00 0. -1.
         -2   -1    0    0    0  501 -0.00000000000E+00 -0.00000000000E+00 -0.78316817803E+02  0.78316817803E+02  0.00000000000E+00 0.  1.
         23    2    1    2    0    0  0.32947473523E+02 -0.20873582052E+02  0.34893348105E+03  0.36286717317E+03  0.91633884191E+02 0.  0.
          5    1    1    2  502    0  0.66564149368E+02  0.15555007082E+03  0.52676954938E+03  0.55329037681E+03  0.41800000000E+01 0. -1.
         -5    1    1    2    0  502 -0.99511622892E+02 -0.13467648877E+03  0.62662746992E+02  0.17884186305E+03  0.41800000000E+01 0.  1.
        -11    1    3    3    0    0 -0.13116629104E+02  0.26706210258E+02  0.67840932794E+02  0.74078740458E+02  0.00000000000E+00 0. -1.
         11    1    3    3    0    0  0.46064102627E+02 -0.47579792310E+02  0.28109254825E+03  0.28878843272E+03  0.00000000000E+00 0.  1.
</event>
<event>
 7    1  0.6584658E-006  0.7406440E+02  0.7561462E-02  0.1346793E+00
         -2   -1    0    0    0  501 -0.00000000000E+00  0.00000000000E+00  0.59863340719E+02  0.59863340719E+02  0.00000000000E+00 0.  1.
          2   -1    0    0  501    0  0.00000000000E+00 -0.00000000000E+00 -0.26723628172E+03  0.26723628172E+03  0.00000000000E+00 0. -1.
         23    2    1    2    0    0  0.38321694546E+02 -0.25685529751E+02 -0.14542324336E+03  0.18007979507E+03  0.95668773240E+02 0.  0.
          5    1    1    2  502    0 -0.10535988784E+02  0.20226241672E+02  0.37192847348E+02  0.43827938643E+02  0.41800000000E+01 0. -1.
         -5    1    1    2    0  502 -0.27785705762E+02  0.54592880791E+01 -0.99142544992E+02  0.10319188872E+03  0.41800000000E+01 0. -1.
        -11    1    3    3    0    0  0.16407593524E+02  0.31259072315E+02 -0.19932586760E+02  0.40541913401E+02  0.00000000000E+00 0.  1.
         11    1    3    3    0    0  0.21914101022E+02 -0.56944602067E+02 -0.12549065660E+03  0.13953788167E+03  0.00000000000E+00 0. -1.
</event>
<event>
 7    1  0.6584658E-006  0.2214709E+03  0.7561462E-02  0.1132791E+00
         -2   -1    0    0    0  501 -0.00000000000E+00  0.00000000000E+00  0.10673732425E+03  0.10673732425E+03  0.00000000000E+00 0.  1.
          2   -1    0    0  501    0  0.00000000000E+00 -0.00000000000E+00 -0.12959223396E+04  0.12959223396E+04  0.00000000000E+00 0. -1.
         23    2    1    2    0    0  0.19710417540E+02 -0.29864278801E+02 -0.27754493386E+03  0.29419699512E+03  0.90776130774E+02 0.  0.
          5    1    1    2  502    0 -0.12487668285E+03  0.14692787562E+03 -0.93016949302E+03  0.94995512773E+03  0.41800000000E+01 0. -1.
         -5    1    1    2    0  502  0.10516626531E+03 -0.11706359682E+03  0.18529411542E+02  0.15850754099E+03  0.41800000000E+01 0.  1.
        -11    1    3    3    0    0 -0.97814538944E+01  0.26931659100E+02 -0.13405077582E+03  0.13707881529E+03  0.00000000000E+00 0. -1.
         11    1    3    3    0    0  0.29491871435E+02 -0.56795937900E+02 -0.14349415803E+03  0.15711817983E+03  0.00000000000E+00 0.  1.
</event>
<event>
 7    1  0.6584658E-006  0.1130992E+03  0.7561462E-02  0.1254936E+00
          1   -1    0    0  501    0  0.00000000000E+00  0.00000000000E+00  0.34502828296E+03  0.34502828296E+03  0.00000000000E+00 0. -1.
         -1   -1    0    0    0  501 -0.00000000000E+00 -0.00000000000E+00 -0.55828153815E+02  0.55828153815E+02  0.00000000000E+00 0.  1.
         23    2    1    2    0    0  0.76138095730E+02  0.15392787284E+02  0.15818524619E+03  0.20375804854E+03  0.10227816341E+03 0.  0.
          5    1    1    2  502    0 -0.10982497627E+03 -0.19222340783E-01  0.94938955199E+02  0.14523223952E+03  0.41800000000E+01 0.  1.
         -5    1    1    2    0  502  0.33686880537E+02 -0.15373564944E+02  0.36075927759E+02  0.51866148721E+02  0.41800000000E+01 0.  1.
        -11    1    3    3    0    0  0.44128718447E+02  0.15521101429E+01  0.25130114919E+01  0.44227458263E+02  0.00000000000E+00 0.  1.
         11    1    3    3    0    0  0.32009377283E+02  0.13840677142E+02  0.15567223470E+03  0.15953059028E+03  0.00000000000E+00 0. -1.
</event>
<event>
 7    1  0.6584658E-006  0.1064324E+03  0.7561462E-02  0.1267323E+00
         -2   -1    0    0    0  501 -0.00000000000E+00  0.00000000000E+00  0.91622823401E+02  0.91622823401E+02  0.00000000000E+00 0.  1.
          2   -1    0    0  501    0  0.00000000000E+00 -0.00000000000E+00 -0.12887216221E+03  0.12887216221E+03  0.00000000000E+00 0. -1.
         23    2    1    2    0    0  0.62764996459E+01  0.67680110055E+01 -0.19233463354E+02  0.93776570316E+02  0.91317679596E+02 0.  0.
          5    1    1    2  502    0 -0.63432933584E+02 -0.23430472563E+01  0.70655848029E+01  0.64004857801E+02  0.41800000000E+01 0.  1.
         -5    1    1    2    0  502  0.57156433938E+02 -0.44249637491E+01 -0.25081460255E+02  0.62713557491E+02  0.41800000000E+01 0.  1.
        -11    1    3    3    0    0  0.45916063632E+02 -0.12656333977E+02 -0.92365286252E+01  0.48515782486E+02  0.00000000000E+00 0. -1.
         11    1    3    3    0    0 -0.39639563986E+02  0.19424344983E+02 -0.99969347289E+01  0.45260787830E+02  0.00000000000E+00 0.  1.
</event>
<event>
 7    1  0.6584658E-006  0.1705703E+03  0.7561462E-02  0.1177254E+00
         -2   -1    0    0    0  501 -0.00000000000E+00  0.00000000000E+00  0.16953373453E+03  0.16953373453E+03  0.00000000000E+00 0. -1.
          2   -1    0    0  501    0  0.00000000000E+00 -0.00000000000E+00 -0.19258462253E+03  0.19258462253E+03  0.00000000000E+00 0.  1.
         23    2    1    2    0    0  0.63909109104E+02 -0.12827861755E+03 -0.11771412408E+02  0.17155414772E+03  0.93554697918E+02 0.  0.
          5    1    1    2  502    0 -0.80310166500E+02  0.55620526401E+02 -0.46256046209E+02  0.10816866465E+03  0.41800000000E+01 0. -1.
         -5    1    1    2    0  502  0.16401057396E+02  0.72658091153E+02  0.34976570610E+02  0.82395544693E+02  0.41800000000E+01 0. -1.
        -11    1    3    3    0    0  0.75460133181E+02 -0.52077221430E+02 -0.20620422596E+02  0.93975903931E+02  0.00000000000E+00 0.  1.
         11    1    3    3    0    0 -0.11551024076E+02 -0.76201396124E+02  0.88490101882E+01  0.77578243791E+02  0.00000000000E+00 0. -1.
</event>
<event>
 7    1  0.6584658E-006  0.1507381E+03  0.7561462E-02  0.1199569E+00
          2   -1    0    0  501    0  0.00000000000E+00  0.00000000000E+00  0.15756105953E+03  0.15756105953E+03  0.00000000000E+00 0. -1.
         -2   -1    0    0    0  501 -0.00000000000E+00 -0.00000000000E+00 -0.15843567372E+03  0.15843567372E+03  0.00000000000E+00 0.  1.
         23    2    1    2    0    0 -0.10754865642E+03  0.20594107762E+02  0.35018884388E+02  0.14592338054E+03  0.89869238067E+02 0.  0.
          5    1    1    2  502    0  0.49420161570E+02  0.51481998336E+02 -0.24266949266E+01  0.71526986310E+02  0.41800000000E+01 0. -1.
         -5    1    1    2    0  502  0.58128494853E+02 -0.72076106098E+02 -0.33466803646E+02  0.98546366399E+02  0.41800000000E+01 0. -1.
        -11    1    3    3    0    0 -0.47661136320E+02 -0.32155933601E+02  0.32571302135E+02  0.66079328869E+02  0.00000000000E+00 0.  1.
         11    1    3    3    0    0 -0.59887520103E+02  0.52750041363E+02  0.24475822528E+01  0.79844051668E+02  0.00000000000E+00 0. -1.
</event>
<event>
 7    1  0.6584658E-006  0.6554712E+02  0.7561462E-02  0.1375925E+00
         -1   -1    0    0    0  501 -0.00000000000E+00  0.00000000000E+00  0.44155067933E+02  0.44155067933E+02  0.00000000000E+00 0.  1.
          1   -1    0    0  501    0  0.00000000000E+00 -0.00000000000E+00 -0.31307762263E+03  0.31307762263E+03  0.00000000000E+00 0. -1.
         23    2    1    2    0    0  0.12461851729E+02 -0.42293908229E+02 -0.14941881926E+03  0.17869973362E+03  0.87541640511E+02 0.  0.
          5    1    1    2  502    0 -0.26608810285E+02  0.86966630102E+01 -0.13555802031E+03  0.13848144281E+03  0.41800000000E+01 0.  1.
         -5    1    1    2    0  502  0.14146958556E+02  0.33597245219E+02  0.16054284866E+02  0.40051514144E+02  0.41800000000E+01 0.  1.
        -11    1    3    3    0    0  0.27164665432E+02 -0.43563784619E+02 -0.15472278383E+03  0.16301798126E+03  0.00000000000E+00 0. -1.
         11    1    3    3    0    0 -0.14702813703E+02  0.12698763899E+01  0.53039645678E+01  0.15681752357E+02  0.00000000000E+00 0.  1.
</event>
<event>
 7    1  0.6584658E-006  0.1882651E+03  0.7561462E-02  0.1160035E+00
         -1   -1    0    0    0  501 -0.00000000000E+00  0.00000000000E+00  0.23723921443E+03  0.23723921443E+03  0.00000000000E+00 0.  1.
          1   -1    0    0  501    0  0.00000000000E+00 -0.00000000000E+00 -0.18743821699E+03  0.18743821699E+03  0.00000000000E+00 0. -1.
         23    2    1    2    0    0  0.15462567900E+03  0.93386449996E+02  0.23229692456E+02  0.20335112287E+03  0.90454026506E+02 0.  0.
          5    1    1    2  502    0 -0.59616580514E+02 -0.38241344472E+02  0.73173940275E+02  0.10192367259E+03  0.41800000000E+01 0.  1.
         -5    1    1    2    0  502 -0.95009098484E+02 -0.55145105525E+02 -0.46602635292E+02  0.11940263596E+03  0.41800000000E+01 0.  1.
        -11    1    3    3    0    0  0.51223233917E+02 -0.67965518707E+01 -0.16062459053E+02  0.54111139344E+02  0.00000000000E+00 0.  1.
         11    1    3    3    0    0  0.10340244508E+03  0.10018300187E+03  0.39292151510E+02  0.14923998352E+03  0.00000000000E+00 0. -1.
</event>
<event>
 7    1  0.6584658E-006  0.1443048E+03  0.7561462E-02  0.1207651E+00
          1   -1    0    0  501    0  0.00000000000E+00  0.00000000000E+00  0.59756635443E+03  0.59756635443E+03  0.00000000000E+00 0. -1.
         -1   -1    0    0    0  501 -0.00000000000E+00 -0.00000000000E+00 -0.50065269639E+02  0.50065269639E+02  0.00000000000E+00 0.  1.
         23    2    1    2    0    0 -0.20524466698E+02 -0.12835830573E+03  0.32405084078E+03  0.36044642733E+03  0.89529722309E+02 0.  0.
          5    1    1    2  502    0 -0.69646641537E+01  0.74177531645E+02  0.21261534489E+03  0.22532991375E+03  0.41800000000E+01 0. -1.
         -5    1    1    2    0  502  0.27489130852E+02  0.54180774082E+02  0.10834899113E+02  0.61855282991E+02  0.41800000000E+01 0. -1.
        -11    1    3    3    0    0 -0.51972856030E+02 -0.81055280057E+02  0.24381363974E+03  0.26213780176E+03  0.00000000000E+00 0. -1.
         11    1    3    3    0    0  0.31448389332E+02 -0.47303025669E+02  0.80237201049E+02  0.98308625568E+02  0.00000000000E+00 0.  1.
</event>
<event>
 7    1  0.6584658E-006  0.6765804E+02  0.7561462E-02  0.1368243E+00
          1   -1    0    0  501    0  0.00000000000E+00  0.00000000000E+00  0.22985843777E+02  0.22985843777E+02  0.00000000000E+00 0. -1.
         -1   -1    0    0    0  501 -0.00000000000E+00 -0.00000000000E+00 -0.60538207321E+03  0.60538207321E+03  0.00000000000E+00 0.  1.
         23    2    1    2    0    0 -0.13755902451E+02  0.31684718907E+02 -0.17221010198E+03  0.19814159902E+03  0.91709474826E+02 0.  0.
          5    1    1    2  502    0 -0.27459114708E+02 -0.16331806450E+01 -0.14748566354E+02  0.31490679082E+02  0.41800000000E+01 0.  1.
         -5    1    1    2    0  502  0.41215017159E+02 -0.30051538262E+02 -0.39543756109E+03  0.39873563888E+03  0.41800000000E+01 0.  1.
        -11    1    3    3    0    0 -0.29448817767E+02  0.13803921298E+02 -0.17127188090E+03  0.17433255089E+03  0.00000000000E+00 0.  1.
         11    1    3    3    0    0  0.15692915316E+02  0.17880797609E+02 -0.93822108193E+00  0.23809048134E+02  0.00000000000E+00 0. -1.
</event>
<event>
 7    1  0.6584658E-006  0.7465600E+02  0.7561462E-02  0.1344940E+00
          4   -1    0    0  501    0  0.00000000000E+00  0.00000000000E+00  0.55814063918E+02  0.55814063918E+02  0.00000000000E+00 0. -1.
         -4   -1    0    0    0  501 -0.00000000000E+00 -0.00000000000E+00 -0.33527041848E+03  0.33527041848E+03  0.00000000000E+00 0.  1.
         23    2    1    2    0    0 -0.60974243666E+02  0.84571551709E+01 -0.47097134872E+02  0.12010935734E+03  0.91753668829E+02 0.  0.
          5    1    1    2  502    0  0.48087895336E+02  0.14038193714E+02 -0.15604371256E+02  0.52635400283E+02  0.41800000000E+01 0. -1.
         -5    1    1    2    0  502  0.12886348330E+02 -0.22495348885E+02 -0.21675484843E+03  0.21833972477E+03  0.41800000000E+01 0. -1.
        -11    1    3    3    0    0 -0.51116098736E+02  0.22316578663E+02  0.13320149890E+02  0.57343801987E+02  0.00000000000E+00 0. -1.
         11    1    3    3    0    0 -0.98581449300E+01 -0.13859423492E+02 -0.60417284761E+02  0.62765555354E+02  0.00000000000E+00 0.  1.
</event>
<event>
 7    1  0.6584658E-006  0.3496785E+03  0.7561462E-02  0.1062747E+00
         -1   -1    0    0    0  501 -0.00000000000E+00  0.00000000000E+00  0.32363120249E+03  0.32363120249E+03  0.00000000000E+00 0.  1.
          1   -1    0    0  501    0  0.00000000000E+00 -0.00000000000E+00 -0.53523911737E+03  0.53523911737E+03  0.00000000000E+00 0. -1.
         23    2    1    2    0    0  0.15927845816E+03 -0.30409266172E+03 -0.31984015589E+03  0.47781437715E+03  0.90370789207E+02 0.  0.
          5    1    1    2  502    0 -0.53785179404E+02  0.36282136262E+02  0.61357895015E+02  0.89395204659E+02  0.41800000000E+01 0. -1.
         -5    1    1    2    0  502 -0.10549327876E+03  0.26781052546E+03  0.46874345999E+02  0.29166073806E+03  0.41800000000E+01 0. -1.
        -11    1    3    3    0    0  0.12444303165E+02 -0.62764224066E+02 -0.22877574014E+02  0.67952865257E+02  0.00000000000E+00 0.  1.
         11    1    3    3    0    0  0.14683415500E+03 -0.24132843766E+03 -0.29696258187E+03  0.40986151189E+03  0.00000000000E+00 0. -1.
</event>
<event>
 7    1  0.6584658E-006  0.1111728E+03  0.7561462E-02  0.1258413E+00
          1   -1    0    0  501    0  0.00000000000E+00  0.00000000000E+00  0.14827754506E+03  0.14827754506E+03  0.00000000000E+00 0. -1.
         -1   -1    0    0    0  501 -0.00000000000E+00 -0.00000000000E+00 -0.13928737592E+03  0.13928737592E+03  0.00000000000E+00 0.  1.
         23    2    1    2    0    0 -0.60074255451E+02  0.61142936459E+02  0.33822596459E+02  0.13390550493E+03  0.97156272951E+02 0.  0.
          5    1    1    2  502    0  0.63096951502E+01  0.27854519061E+02  0.25088529891E+02  0.38243865091E+02  0.41800000000E+01 0.  1.
         -5    1    1    2    0  502  0.53764560301E+02 -0.88997455520E+02 -0.49920957204E+02  0.11541555095E+03  0.41800000000E+01 0.  1.
        -11    1    3    3    0    0 -0.52127633465E+02  0.36787849677E+02 -0.25947784192E+02  0.68876146516E+02  0.00000000000E+00 0.  1.
         11    1    3    3    0    0 -0.79466219862E+01  0.24355086782E+02  0.59770380651E+02  0.65029358418E+02  0.00000000000E+00 0. -1.
</event>
<event>
 7    1  0.6584658E-006  0.8217339E+02  0.7561462E-02  0.1322994E+00
         -2   -1    0    0    0  501 -0.00000000000E+00  0.00000000000E+00  0.20854889859E+03  0.20854889859E+03  0.00000000000E+00 0. -1.
          2   -1    0    0  501    0  0.00000000000E+00 -0.00000000000E+00 -0.67663359039E+02  0.67663359039E+02  0.00000000000E+00 0.  1.
         23    2    1    2    0    0 -0.13209345822E+02 -0.39803746555E+02  0.20368413387E+02  0.97520310800E+02  0.85653451172E+02 0.  0.
          5    1    1    2  502    0 -0.85898488204E+01 -0.28474625384E+02 -0.83510511299E+01  0.31173742934E+02  0.41800000000E+01 0.  1.
         -5    1    1    2    0  502  0.21799194643E+02  0.68278371939E+02  0.12886817730E+03  0.14751820390E+03  0.41800000000E+01 0.  1.
        -11    1    3    3    0    0 -0.28377249062E+02 -0.11929261689E+02  0.46938278142E+02  0.56131786928E+02  0.00000000000E+00 0. -1.
         11    1    3    3    0    0  0.15167903240E+02 -0.27874484866E+02 -0.26569864755E+02  0.41388523872E+02  0.00000000000E+00 0.  1.
</event>
<event>
 7    1  0.6584658E-006  0.1164146E+03  0.7561462E-02  0.1249132E+00
         -2   -1    0    0    0  501 -0.00000000000E+00  0.00000000000E+00  0.35377932296E+03  0.35377932296E+03  0.00000000000E+00 0.  1.
          2   -1    0    0  501    0  0.00000000000E+00 -0.00000000000E+00 -0.71882060525E+02  0.71882060525E+02  0.00000000000E+00 0. -1.
         23    2    1    2    0    0  0.82780308528E+02 -0.62054475390E+02  0.58150178689E+02  0.14922776692E+03  0.90466268530E+02 0.  0.
          5    1    1    2  502    0 -0.50951574204E+02  0.33836814984E+02  0.22547195318E+03  0.23365801298E+03  0.41800000000E+01 0. -1.
         -5    1    1    2    0  502 -0.31828734324E+02  0.28217660406E+02 -0.17248694303E+01  0.42775603585E+02  0.41800000000E+01 0. -1.
        -11    1    3    3    0    0  0.67766400080E+02 -0.80352096048E+02  0.66205905043E+02  0.12422546511E+03  0.00000000000E+00 0.  1.
         11    1    3    3    0    0  0.15013908448E+02  0.18297620658E+02 -0.80557263542E+01  0.25002301808E+02  0.00000000000E+00 0. -1.
</event>
<event>
 7    1  0.6584658E-006  0.1415223E+03  0.7561462E-02  0.1211295E+00
          1   -1    0    0  501    0  0.00000000000E+00  0.00000000000E+00  0.58309740199E+02  0.58309740199E+02  0.00000000000E+00 0. -1.
         -1   -1    0    0    0  501 -0.00000000000E+00 -0.00000000000E+00 -0.36877862768E+03  0.36877862768E+03  0.00000000000E+00 0.  1.
         23    2    1    2    0    0 -0.67991893126E+02 -0.69499701329E+02 -0.17144977826E+03  0.21630967618E+03  0.89116460491E+02 0.  0.
          5    1    1    2  502    0 -0.18534954920E+02 -0.20313929979E+02 -0.61217251846E+01  0.28480664043E+02  0.41800000000E+01 0. -1.
         -5    1    1    2    0  502  0.86526848046E+02  0.89813631308E+02 -0.13289738404E+03  0.18229802765E+03  0.41800000000E+01 0. -1.
        -11    1    3    3    0    0 -0.20521414344E+02 -0.79353392844E+02 -0.91815514928E+02  0.12307793541E+03  0.00000000000E+00 0.  1.
         11    1    3    3    0    0 -0.47470478782E+02  0.98536915147E+01 -0.79634263330E+02  0.93231740777E+02  0.00000000000E+00 0. -1.
</event>
<event>
 7    1  0.6584658E-006  0.9640873E+02  0.7561462E-02  0.1288034E+00
         -2   -1    0    0    0  501 -0.00000000000E+00  0.00000000000E+00  0.46984282523E+02  0.46984282523E+02  0.00000000000E+00 0.  1.
          2   -1    0    0  501    0  0.00000000000E+00 -0.00000000000E+00 -0.23008393357E+03  0.23008393357E+03  0.00000000000E+00 0. -1.
         23    2    1    2    0    0 -0.36319740609E+00 -0.20587494010E+00 -0.86457511678E+02  0.12736442348E+03  0.93523370049E+02 0.  0.
          5    1    1    2  502    0  0.47647261621E+02  0.15359976654E+02 -0.84678986208E+02  0.98459095710E+02  0.41800000000E+01 0. -1.
         -5    1    1    2    0  502 -0.47284064214E+02 -0.15154101714E+02 -0.11963153161E+02  0.51244696906E+02  0.41800000000E+01 0.  1.
        -11    1    3    3    0    0  0.46112620145E+02  0.26540241938E+01 -0.34893426035E+02  0.57887552734E+02  0.00000000000E+00 0.  1.
         11    1    3    3    0    0 -0.46475817551E+02 -0.28598991339E+01 -0.51564085642E+02  0.69476870743E+02  0.00000000000E+00 0. -1.
</event>
<event>
 7    1  0.6584658E-006  0.2330419E+03  0.7561462E-02  0.1124517E+00
         -1   -1    0    0    0  501 -0.00000000000E+00  0.00000000000E+00  0.40383720811E+03  0.40383720811E+03  0.00000000000E+00 0.  1.
          1   -1    0    0  501    0  0.00000000000E+00 -0.00000000000E+00 -0.19856186331E+03  0.19856186331E+03  0.00000000000E+00 0. -1.
         23    2    1    2    0    0  0.21144446397E+03 -0.40184496747E+02 -0.56697470330E+02  0.24101469761E+03  0.92465810985E+02 0.  0.
          5    1    1    2  502    0 -0.20564927848E+03 -0.21463869240E+01  0.20978924879E+03  0.29381156210E+03  0.41800000000E+01 0.  1.
         -5    1    1    2    0  502 -0.57951854900E+01  0.42330883671E+02  0.52183566342E+02  0.67572811718E+02  0.41800000000E+01 0.  1.
        -11    1    3    3    0    0  0.68086042147E+02  0.16741438123E+01 -0.61254956287E+02  0.91600663549E+02  0.00000000000E+00 0.  1.
         11    1    3    3    0    0  0.14335842182E+03 -0.41858640560E+02  0.45574859580E+01  0.14941403406E+03  0.00000000000E+00 0. -1.
</event>
<event>
 7    1  0.6584658E-006  0.1002150E+03  0.7561462E-02  0.1279845E+00
         -2   -1    0    0    0  501 -0.00000000000E+00  0.00000000000E+00  0.22506780162E+03  0.22506780162E+03  0.00000000000E+00 0. -1.
          2   -1    0    0  501    0  0.00000000000E+00 -0.00000000000E+00 -0.10561821080E+03  0.10561821080E+03  0.00000000000E+00 0.  1.
         23    2    1    2    0    0  0.58816079459E+02  0.39390500778E+02 -0.34461575732E+02  0.12009746848E+03  0.90691008259E+02 0.  0.
          5    1    1    2  502    0  0.17070061791E+02 -0.68768341404E+01 -0.13956025748E+02  0.23471704498E+02  0.41800000000E+01 0.  1.
         -5    1    1    2    0  502 -0.75886141250E+02 -0.32513666637E+02  0.16786719230E+03  0.18711683944E+03  0.41800000000E+01 0.  1.
        -11    1    3    3    0    0  0.67725909360E+02  0.50624668212E+02 -0.50576274769E+02  0.98527231767E+02  0.00000000000E+00 0.  1.
         11    1    3    3    0    0 -0.89098299013E+01 -0.11234167434E+02  0.16114699037E+02  0.21570236713E+02  0.00000000000E+00 0. -1.
</event>
<event>
 7    1  0.6584658E-006  0.1073616E+03  0.7561462E-02  0.1265535E+00
         -2   -1    0    0    0  501 -0.00000000000E+00  0.00000000000E+00  0.59019283274E+02  0.59019283274E+02  0.00000000000E+00 0.  1.
          2   -1    0    0  501    0  0.00000000000E+00 -0.00000000000E+00 -0.26339912027E+03  0.26339912027E+03  0.00000000000E+00 0. -1.
         23    2    1    2    0    0 -0.12025569259E+02  0.62218437913E+01 -0.16678199871E+03  0.19110059224E+03  0.92303172230E+02 0.  0.
          5    1    1    2  502    0 -0.54571154111E+02  0.10454429760E+02 -0.26302131041E+02  0.61616397655E+02  0.41800000000E+01 0.  1.
         -5    1    1    2    0  502  0.66596723370E+02 -0.16676273551E+02 -0.11295707246E+02  0.69701413654E+02  0.41800000000E+01 0.  1.
        -11    1    3    3    0    0 -0.65284038033E+01 -0.41588227806E+02 -0.10243366984E+03  0.11074681696E+03  0.00000000000E+00 0.  1.
         11    1    3    3    0    0 -0.54971654558E+01  0.47810071597E+02 -0.64348328867E+02  0.80353775283E+02  0.00000000000E+00 0. -1.
</event>
<event>
 7    1  0.6584658E-006  0.2215265E+03  0.7561462E-02  0.1132750E+00
         -2   -1    0    0    0  501 -0.00000000000E+00  0.00000000000E+00  0.31648989330E+02  0.31648989330E+02  0.00000000000E+00 0.  1.
          2   -1    0    0  501    0  0.00000000000E+00 -0.00000000000E+00 -0.17645591855E+04  0.17645591855E+04  0.00000000000E+00 0. -1.
         23    2    1    2    0    0 -0.18021055446E+03 -0.10583972403E+03 -0.77173477433E+03  0.80465206116E+03  0.90622770377E+02 0.  0.
          5    1    1    2  502    0  0.12952561118E+03  0.45909820931E+02 -0.80565421713E+03  0.81730091496E+03  0.41800000000E+01 0. -1.
         -5    1    1    2    0  502  0.50684943280E+02  0.59929903101E+02 -0.15552120470E+03  0.17425519869E+03  0.41800000000E+01 0. -1.
        -11    1    3    3    0    0 -0.99137108249E+02 -0.73608181215E+01 -0.30437575233E+03  0.32019829244E+03  0.00000000000E+00 0.  1.
         11    1    3    3    0    0 -0.81073446207E+02 -0.98478905910E+02 -0.46735902200E+03  0.48445376873E+03  0.00000000000E+00 0. -1.
</event>
<event>
 7    1  0.6584658E-006  0.1151213E+03  0.7561462E-02  0.1251370E+00
         -1   -1    0    0    0  501 -0.00000000000E+00  0.00000000000E+00  0.77570057090E+02  0.77570057090E+02  0.00000000000E+00 0.  1.
          1   -1    0    0  501    0  0.00000000000E+00 -0.00000000000E+00 -0.24629863876E+03  0.24629863876E+03  0.00000000000E+00 0. -1.
         23    2    1    2    0    0  0.76148238339E+02 -0.39236985604E+02 -0.86985894557E+02  0.15162343034E+03  0.89916758928E+02 0.  0.
          5    1    1    2  502    0 -0.10143225753E+03  0.49193956179E+01 -0.31895372020E+02  0.10652460033E+03  0.41800000000E+01 0.  1.
         -5    1    1    2    0  502  0.25284019187E+02  0.34317589986E+02 -0.49847315097E+02  0.65720665176E+02  0.41800000000E+01 0.  1.
        -11    1    3    3    0    0  0.62138445112E+02 -0.33888011063E+02 -0.80029152064E+01  0.71229420232E+02  0.00000000000E+00 0.  1.
         11    1    3    3    0    0  0.14009793227E+02 -0.53489745408E+01 -0.78982979350E+02  0.80394010112E+02  0.00000000000E+00 0. -1.
</event>
<event>
 7    1  0.6584658E-006  0.8583075E+02  0.7561462E-02  0.1313274E+00
         -2   -1    0    0    0  501 -0.00000000000E+00  0.00000000000E+00  0.13070631199E+03  0.13070631199E+03  0.00000000000E+00 0.  1.
          2   -1    0    0  501    0  0.00000000000E+00 -0.00000000000E+00 -0.13163039316E+03  0.13163039316E+03  0.00000000000E+00 0. -1.
         23    2    1    2    0    0 -0.61135095380E+02  0.40792988289E+02 -0.50817758066E+01  0.11719552359E+03  0.91144931426E+02 0.  0.
          5    1    1    2  502    0  0.33615059925E+02 -0.45093910335E+02  0.60155012292E+02  0.82459268169E+02  0.41800000000E+01 0.  1.
         -5    1    1    2    0  502  0.27520035455E+02  0.43009220457E+01 -0.55997317657E+02  0.62681913394E+02  0.41800000000E+01 0.  1.
        -11    1    3    3    0    0 -0.53699387661E+02  0.51272717997E+02 -0.36878321131E+02  0.82900702141E+02  0.00000000000E+00 0. -1.
         11    1    3    3    0    0 -0.74357077193E+01 -0.10479729708E+02  0.31796545324E+02  0.34294821454E+02  0.00000000000E+00 0.  1.
</event>
<event>
 7    1  0.6584658E-006  0.9747920E+02  0.7561462E-02  0.1285688E+00
          4   -1    0    0  501    0  0.00000000000E+00  0.00000000000E+00  0.25186024755E+03  0.25186024755E+03  0.00000000000E+00 0. -1.
         -4   -1    0    0    0  501 -0.00000000000E+00 -0.00000000000E+00 -0.12579955193E+03  0.12579955193E+03  0.00000000000E+00 0.  1.
         23    2    1    2    0    0  0.18724212162E+02  0.66183904611E+02  0.18891857258E+03  0.22167962715E+03  0.93384820376E+02 0.  0.
          5    1    1    2  502    0  0.12573431004E+02 -0.38162829444E+02  0.32400925649E+02  0.51785954672E+02  0.41800000000E+01 0.  1.
         -5    1    1    2    0  502 -0.31297643166E+02 -0.28021075167E+02 -0.95258802600E+02  0.10419421766E+03  0.41800000000E+01 0.  1.
        -11    1    3    3    0    0 -0.33890711223E+02  0.43255401303E+02  0.65000937345E+02  0.85115990888E+02  0.00000000000E+00 0.  1.
         11    1    3    3    0    0  0.52614923385E+02  0.22928503309E+02  0.12391763523E+03  0.13656363626E+03  0.00000000000E+00 0. -1.
</event>
<event>
 7    1  0.6584658E-006  0.9730848E+02  0.7561462E-02  0.1286060E+00
         -1   -1    0    0    0  501 -0.00000000000E+00  0.00000000000E+00  0.27575577467E+02  0.27575577467E+02  0.00000000000E+00 0.  1.
          1   -1    0    0  501    0  0.00000000000E+00 -0.00000000000E+00 -0.59755521781E+03  0.59755521781E+03  0.00000000000E+00 0. -1.
         23    2    1    2    0    0  0.29589975996E+02  0.54150217808E+02 -0.33848136601E+03  0.35485933218E+03  0.86877486925E+02 0.  0.
          5    1    1    2  502    0 -0.49233787496E+02 -0.34164844042E+02 -0.30659316355E+02  0.67443817204E+02  0.41800000000E+01 0. -1.
         -5    1    1    2    0  502  0.19643811500E+02 -0.19985373766E+02 -0.20083895798E+03  0.20282764589E+03  0.41800000000E+01 0. -1.
        -11    1    3    3    0    0  0.60095725930E+02  0.42276297236E+02 -0.24702227453E+03  0.25771842328E+03  0.00000000000E+00 0. -1.
         11    1    3    3    0    0 -0.30505749934E+02  0.11873920572E+02 -0.91459091476E+02  0.97140908903E+02  0.00000000000E+00 0.  1.
</event>
<event>
 7    1  0.6584658E-006  0.1179401E+03  0.7561462E-02  0.1246534E+00
         -1   -1    0    0    0  501 -0.00000000000E+00  0.00000000000E+00  0.74235244248E+02  0.74235244248E+02  0.00000000000E+00 0.  1.
          1   -1    0    0  501    0  0.00000000000E+00 -0.00000000000E+00 -0.21331680873E+03  0.21331680873E+03  0.00000000000E+00 0. -1.
         23    2    1    2    0    0  0.64785375654E+01 -0.52583078318E+02 -0.96150085467E+02  0.14509611915E+03  0.94874091731E+02 0.  0.
          5    1    1    2  502    0  0.51524538492E+02  0.44946776298E+01  0.64282352805E+01  0.52285512358E+02  0.41800000000E+01 0.  1.
         -5    1    1    2    0  502 -0.58003076057E+02  0.48088400689E+02 -0.49359714292E+02  0.90170421469E+02  0.41800000000E+01 0.  1.
        -11    1    3    3    0    0  0.44466688274E+02 -0.10116512893E+01 -0.42971540086E+02  0.61845477294E+02  0.00000000000E+00 0. -1.
         11    1    3    3    0    0 -0.37988150709E+02 -0.51571427029E+02 -0.53178545381E+02  0.83250641853E+02  0.00000000000E+00 0.  1.
</event>
<event>
 7    1  0.6584658E-006  0.1412987E+03  0.7561462E-02  0.1211592E+00
          1   -1    0    0  501    0  0.00000000000E+00  0.00000000000E+00  0.44294981543E+03  0.44294981543E+03  0.00000000000E+00 0. -1.
         -1   -1    0    0    0  501 -0.00000000000E+00 -0.00000000000E+00 -0.13703495736E+03  0.13703495736E+03  0.00000000000E+00 0.  1.
         23    2    1    2    0    0 -0.21144854973E+02 -0.10784475964E+03  0.37344118698E+03  0.40032370900E+03  0.93397830708E+02 0.  0.
          5    1    1    2  502    0  0.10122565856E+02 -0.19462443739E+02  0.15528715382E+02  0.27200486342E+02  0.41800000000E+01 0.  1.
         -5    1    1    2    0  502  0.11022289117E+02  0.12730720338E+03 -0.83055044301E+02  0.15246057744E+03  0.41800000000E+01 0.  1.
        -11    1    3    3    0    0  0.15736365531E+02 -0.90139129397E+02  0.17256452479E+03  0.19532335003E+03  0.00000000000E+00 0.  1.
         11    1    3    3    0    0 -0.36881220504E+02 -0.17705630247E+02  0.20087666219E+03  0.20500035898E+03  0.00000000000E+00 0. -1.
</event>
<event>
 6    1  0.6584658E-006  0.6806926E+02  0.7561462E-02  0.1366784E+00
          2   -1    0    0  501    0  0.00000000000E+00  0.00000000000E+00  0.19703823423E+03  0.19703823423E+03  0.00000000000E+00 0.  1.
         -2   -1    0    0    0  501 -0.00000000000E+00 -0.00000000000E+00 -0.11618346246E+03  0.11618346246E+03  0.00000000000E+00 0. -1.
          5    1    1    2  502    0  0.23770171232E+02  0.34350096798E+01 -0.87045193837E+02  0.90394460572E+02  0.41800000000E+01 0. -1.
         -5    1    1    2    0  502 -0.32999136164E+02 -0.51763016824E+02  0.17534069460E+02  0.63978659646E+02  0.41800000000E+01 0.  1.
        -11    1    1    2    0    0  0.11669350413E+01  0.32001705452E+02  0.10998998526E+03  0.11455683196E+03  0.00000000000E+00 0.  1.
         11    1    1    2    0    0  0.80620298900E+01  0.16326301692E+02  0.40375910882E+02  0.44291744518E+02  0.00000000000E+00 0. -1.
</event>
<event>
 7    1  0.6584658E-006  0.1601238E+03  0.7561462E-02  0.1188557E+00
          2   -1    0    0  501    0  0.00000000000E+00  0.00000000000E+00  0.29732449295E+03  0.29732449295E+03  0.00000000000E+00 0. -1.
         -2   -1    0    0    0  501 -0.00000000000E+00 -0.00000000000E+00 -0.10142781671E+03  0.10142781671E+03  0.00000000000E+00 0.  1.
         23    2    1    2    0    0  0.71613207998E+02  0.11395668782E+03  0.74129546239E+02  0.17832563045E+03  0.90500069558E+02 0.  0.
          5    1    1    2  502    0  0.34811249523E+02 -0.43925016220E+02  0.34463522868E+02  0.65927512859E+02  0.41800000000E+01 0.  1.
         -5    1    1    2    0  502 -0.10642445752E+03 -0.70031671604E+02  0.87303607135E+02  0.15449916636E+03  0.41800000000E+01 0.  1.
        -11    1    3    3    0    0  0.50993373324E+02  0.59581205894E+02 -0.67456132375E+01  0.78713070812E+02  0.00000000000E+00 0.  1.
         11    1    3    3    0    0  0.20619834674E+02  0.54375481930E+02  0.80875159476E+02  0.99612559637E+02  0.00000000000E+00 0. -1.
</event>
<event>
 7    1  0.6584658E-006  0.1083934E+03  0.7561462E-02  0.1263574E+00
         -1   -1    0    0    0  501 -0.00000000000E+00  0.00000000000E+00  0.66195798125E+02  0.66195798125E+02  0.00000000000E+00 0.  1.
          1   -1    0    0  501    0  0.00000000000E+00 -0.00000000000E+00 -0.24299835740E+03  0.24299835740E+03  0.00000000000E+00 0. -1.
         23    2    1    2    0    0  0.27918961856E+02  0.59264569835E+02 -0.95768651182E+02  0.14638765325E+03  0.89252186564E+02 0.  0.
          5    1    1    2  502    0  0.41934695834E+02 -0.51489357244E+02 -0.19600050516E+02  0.69363585579E+02  0.41800000000E+01 0. -1.
         -5    1    1    2    0  502 -0.69853657690E+02 -0.77752125909E+01 -0.61433857576E+02  0.93442916694E+02  0.41800000000E+01 0. -1.
        -11    1    3    3    0    0  0.19356961547E+02 -0.60077112685E+00 -0.82145750320E+02  0.84397732089E+02  0.00000000000E+00 0. -1.
         11    1    3    3    0    0  0.85620003094E+01  0.59865340962E+02 -0.13622900863E+02  0.61989921162E+02  0.00000000000E+00 0.  1.
</event>
<event>
 7    1  0.6584658E-006  0.1899715E+03  0.7561462E-02  0.1158487E+00
         -2   -1    0    0    0  501 -0.00000000000E+00  0.00000000000E+00  0.14254239507E+03  0.14254239507E+03  0.00000000000E+00 0.  1.
          2   -1    0    0  501    0  0.00000000000E+00 -0.00000000000E+00 -0.38579013757E+03  0.38579013757E+03  0.00000000000E+00 0. -1.
         23    2    1    2    0    0 -0.15686715841E+03  0.47952352942E+02 -0.26028482674E+03  0.32134166798E+03  0.92766066029E+02 0.  0.
          5    1    1    2  502    0  0.11374687168E+03  0.21780783506E+02  0.38535586903E+02  0.12212787235E+03  0.41800000000E+01 0. -1.
         -5    1    1    2    0  502  0.43120286728E+02 -0.69733136447E+02 -0.21498502659E+02  0.84862992305E+02  0.41800000000E+01 0. -1.
        -11    1    3    3    0    0 -0.60084576207E+02  0.59415108153E+02 -0.79804615233E+02  0.11622860228E+03  0.00000000000E+00 0.  1.
         11    1    3    3    0    0 -0.96782582203E+02 -0.11462755211E+02 -0.18048021151E+03  0.20511306570E+03  0.00000000000E+00 0. -1.
</event>
<event>
 7    1  0.6584658E-006  0.1109567E+03  0.7561462E-02  0.1258808E+00
         -1   -1    0    0    0  501 -0.00000000000E+00  0.00000000000E+00  0.64821855236E+02  0.64821855236E+02  0.00000000000E+00 0.  1.
          1   -1    0    0  501    0  0.00000000000E+00 -0.00000000000E+00 -0.25930904694E+03  0.25930904694E+03  0.00000000000E+00 0. -1.
         23    2    1    2    0    0 -0.33107753296E+02  0.20972284422E+02 -0.11293803516E+03  0.16975258954E+03  0.12051963254E+03 0.  0.
          5    1    1    2  502    0  0.61146890876E+02  0.16829003788E+02 -0.41463900881E+01  0.63693191026E+02  0.41800000000E+01 0.  1.
         -5    1    1    2    0  502 -0.28039137580E+02 -0.37801288210E+02 -0.77402766452E+02  0.90685121608E+02  0.41800000000E+01 0.  1.
        -11    1    3    3    0    0 -0.52984703628E+02  0.52011434012E+02 -0.32061792637E+02  0.80873522451E+02  0.00000000000E+00 0.  1.
         11    1    3    3    0    0  0.19876950332E+02 -0.31039149589E+02 -0.80876242527E+02  0.88879067091E+02  0.00000000000E+00 0. -1.
</event>
<event>
 7    1  0.6584658E-006  0.1152029E+03  0.7561462E-02  0.1251227E+00
          2   -1    0    0  501    0  0.00000000000E+00  0.00000000000E+00  0.73278972438E+02  0.73278972438E+02  0.00000000000E+00 0. -1.
         -2   -1    0    0    0  501 -0.00000000000E+00 -0.00000000000E+00 -0.25694756071E+03  0.25694756071E+03  0.00000000000E+00 0.  1.
         23    2    1    2    0    0  0.75718786741E+02  0.18031549160E+02 -0.80421184850E+02  0.15032076867E+03  0.10035085993E+03 0.  0.
          5    1    1    2  502    0 -0.10763367270E+03  0.43769616208E+01 -0.70472683530E+02  0.12879455274E+03  0.41800000000E+01 0.  1.
         -5    1    1    2    0  502  0.31914885960E+02 -0.22408510781E+02 -0.32774719889E+02  0.51111211735E+02  0.41800000000E+01 0.  1.
        -11    1    3    3    0    0  0.17100934849E+02  0.17911973602E+02 -0.87813370598E+02  0.91238527097E+02  0.00000000000E+00 0.  1.
         11    1    3    3    0    0  0.58617851893E+02  0.11957555758E+00  0.73921857479E+01  0.59082241570E+02  0.00000000000E+00 0. -1.
</event>
<event>
 7    1  0.6584658E-006  0.9886690E+02  0.7561462E-02  0.1282697E+00
         -2   -1    0    0    0  501 -0.00000000000E+00  0.00000000000E+00  0.16514704961E+02  0.16514704961E+02  0.00000000000E+00 0.  1.
          2   -1    0    0  501    0  0.00000000000E+00 -0.00000000000E+00 -0.65343777547E+03  0.65343777547E+03  0.00000000000E+00 0. -1.
         23    2    1    2    0    0 -0.67590892999E+01 -0.88691844930E+01 -0.33833983251E+03  0.34603306663E+03  0.71698627714E+02 0.  0.
          5    1    1    2  502    0  0.48524414076E+01  0.66795257009E+02 -0.17244847101E+03  0.18504350866E+03  0.41800000000E+01 0. -1.
         -5    1    1    2    0  502  0.19066478922E+01 -0.57926072516E+02 -0.12613476699E+03  0.13887590514E+03  0.41800000000E+01 0. -1.
        -11    1    3    3    0    0  0.32560012700E+02 -0.21093723423E+01 -0.15768513117E+03  0.16102547771E+03  0.00000000000E+00 0. -1.
         11    1    3    3    0    0 -0.39319102000E+02 -0.67598121507E+01 -0.18065470133E+03  0.18500758891E+03  0.00000000000E+00 0.  1.
</event>
<event>
 7    1  0.6584658E-006  0.1053716E+03  0.7561462E-02  0.1269389E+00
         -1   -1    0    0    0  501 -0.00000000000E+00  0.00000000000E+00  0.60499914025E+02  0.60499914025E+02  0.00000000000E+00 0.  1.
          1   -1    0    0  501    0  0.00000000000E+00 -0.00000000000E+00 -0.24089915558E+03  0.24089915558E+03  0.00000000000E+00 0. -1.
         23    2    1    2    0    0  0.46286723066E+02  0.12461669586E+02 -0.10788544866E+03  0.14907011410E+03  0.91021288403E+02 0.  0.
          5    1    1    2  502    0 -0.81853342556E+02 -0.13022960583E+02 -0.80518130000E+02  0.11562961925E+03  0.41800000000E+01 0.  1.
         -5    1    1    2    0  502  0.35566619490E+02  0.56129099663E+00  0.80043371021E+01  0.36699336261E+02  0.41800000000E+01 0.  1.
        -11    1    3    3    0    0 -0.59030939952E+01  0.34707598614E+02 -0.76551368209E+02  0.84258981094E+02  0.00000000000E+00 0.  1.
         11    1    3    3    0    0  0.52189817061E+02 -0.22245929028E+02 -0.31334080451E+02  0.64811133001E+02  0.00000000000E+00 0. -1.
</event>
<event>
 7    1  0.6584658E-006  0.1064008E+03  0.7561462E-02  0.1267384E+00
         -2   -1    0    0    0  501 -0.00000000000E+00  0.00000000000E+00  0.34687905467E+02  0.34687905467E+02  0.00000000000E+00 0. -1.
          2   -1    0    0  501    0  0.00000000000E+00 -0.00000000000E+00 -0.44944889684E+03  0.44944889684E+03  0.00000000000E+00 0.  1.
         23    2    1    2    0    0 -0.21365758840E+02  0.51404247979E+02 -0.18014732157E+03  0.21249371922E+03  0.97987911884E+02 0.  0.
          5    1    1    2  502    0  0.50629734713E+02 -0.54171886967E+02 -0.62728923160E+02  0.97212929055E+02  0.41800000000E+01 0. -1.
         -5    1    1    2    0  502 -0.29263975873E+02  0.27676389885E+01 -0.17188474664E+03  0.17443015404E+03  0.41800000000E+01 0. -1.
        -11    1    3    3    0    0  0.33172125900E+02  0.41971507479E+02 -0.11618035337E+03  0.12790571483E+03  0.00000000000E+00 0.  1.
         11    1    3    3    0    0 -0.54537884740E+02  0.94327405004E+01 -0.63966968207E+02  0.84588004391E+02  0.00000000000E+00 0. -1.
</event>
<event>
 7    1  0.6584658E-006  0.1514318E+03  0.7561462E-02  0.1198725E+00
          2   -1    0    0  501    0  0.00000000000E+00  0.00000000000E+00  0.40584934583E+03  0.40584934583E+03  0.00000000000E+00 0. -1.
         -2   -1    0    0    0  501 -0.00000000000E+00 -0.00000000000E+00 -0.60270113535E+02  0.60270113535E+02  0.00000000000E+00 0.  1.
         23    2    1    2    0    0  0.14259970689E+01  0.10582053939E+03  0.18839627507E+03  0.23906547459E+03  0.10226986191E+03 0.  0.
          5    1    1    2  502    0  0.40504271098E+02  0.71140096986E+01  0.25676098039E+02  0.48661478827E+02  0.41800000000E+01 0. -1.
         -5    1    1    2    0  502 -0.41930268166E+02 -0.11293454909E+03  0.13150685919E+03  0.17839250595E+03  0.41800000000E+01 0. -1.
        -11    1    3    3    0    0  0.40743509471E+02  0.89651070273E+02  0.96805483400E+02  0.13808928120E+03  0.00000000000E+00 0.  1.
         11    1    3    3    0    0 -0.39317512402E+02  0.16169469117E+02  0.91590791668E+02  0.10097619339E+03  0.00000000000E+00 0. -1.
</event>
<event>
 7    1  0.6584658E-006  0.1675479E+03  0.7561462E-02  0.1180429E+00
          2   -1    0    0  501    0  0.00000000000E+00  0.00000000000E+00  0.87889231256E+03  0.87889231256E+03  0.00000000000E+00 0. -1.
         -2   -1    0    0    0  501 -0.00000000000E+00 -0.00000000000E+00 -0.38500781956E+02  0.38500781956E+02  0.00000000000E+00 0.  1.
         23    2    1    2    0    0 -0.11097386134E+03 -0.90279000760E+02  0.49227211504E+03  0.52077747631E+03  0.91716131125E+02 0.  0.
          5    1    1    2  502    0  0.20172914664E+02  0.80138348183E+02  0.24591739121E+03  0.25946471250E+03  0.41800000000E+01 0. -1.
         -5    1    1    2    0  502  0.90800946677E+02  0.10140652576E+02  0.10220202436E+03  0.13715090570E+03  0.41800000000E+01 0. -1.
        -11    1    3    3    0    0 -0.16617106912E+02 -0.59291417692E+02  0.11266707014E+03  0.12839575207E+03  0.00000000000E+00 0.  1.
         11    1    3    3    0    0 -0.94356754429E+02 -0.30987583068E+02  0.37960504489E+03  0.39238172424E+03  0.00000000000E+00 0. -1.
</event>
<event>
 7    1  0.6584658E-006  0.1082992E+03  0.7561462E-02  0.1263752E+00
          1   -1    0    0  501    0  0.00000000000E+00  0.00000000000E+00  0.30355915534E+03  0.30355915534E+03  0.00000000000E+00 0. -1.
         -1   -1    0    0    0  501 -0.00000000000E+00 -0.00000000000E+00 -0.49165775642E+02  0.49165775642E+02  0.00000000000E+00 0.  1.
         23    2    1    2    0    0 -0.11606882464E+02 -0.51691225962E+02  0.13688969049E+03  0.17311148129E+03  0.91771973010E+02 0.  0.
          5    1    1    2  502    0  0.22870154980E+01 -0.37746179778E+02  0.65239090163E+02  0.75522286863E+02  0.41800000000E+01 0.  1.
         -5    1    1    2    0  502  0.93198669661E+01  0.89437405740E+02  0.52264599047E+02  0.10409116283E+03  0.41800000000E+01 0.  1.
        -11    1    3    3    0    0 -0.36515731377E+02 -0.52099105738E+02  0.45059199903E+02  0.77961830100E+02  0.00000000000E+00 0.  1.
         11    1    3    3    0    0  0.24908848913E+02  0.40787977593E+00  0.91830490589E+02  0.95149651192E+02  0.00000000000E+00 0. -1.
</event>
<event>
 7    1  0.6584658E-006  0.9321779E+02  0.7561462E-02  0.1295241E+00
         -2   -1    0    0    0  501 -0.00000000000E+00  0.00000000000E+00  0.26312689094E+02  0.26312689094E+02  0.00000000000E+00 0.  1.
          2   -1    0    0  501    0  0.00000000000E+00 -0.00000000000E+00 -0.54502830813E+03  0.54502830813E+03  0.00000000000E+00 0. -1.
         23    2    1    2    0    0  0.35620877241E+02 -0.29192940720E+02 -0.28132636461E+03  0.29908669322E+03  0.90483434694E+02 0.  0.
          5    1    1    2  502    0 -0.49707076228E+02  0.42338231832E+02 -0.24308224484E+03  0.25173352867E+03  0.41800000000E+01 0. -1.
         -5    1    1    2    0  502  0.14086198987E+02 -0.13145291112E+02  0.56929904129E+01  0.20520775330E+02  0.41800000000E+01 0. -1.
        -11    1    3    3    0    0  0.22057396420E+02 -0.61992227629E+02 -0.19230667529E+03  0.20325211533E+03  0.00000000000E+00 0. -1.
         11    1    3    3    0    0  0.13563480821E+02  0.32799286909E+02 -0.89019689315E+02  0.95834577891E+02  0.00000000000E+00 0.  1.
</event>
<event>
 7    1  0.6584658E-006  0.9481547E+02  0.7561462E-02  0.1291592E+00
          1   -1    0    0  501    0  0.00000000000E+00  0.00000000000E+00  0.27767744923E+02  0.27767744923E+02  0.00000000000E+00 0. -1.
         -1   -1    0    0    0  501 -0.00000000000E+00 -0.00000000000E+00 -0.54188606879E+03  0.54188606879E+03  0.00000000000E+00 0.  1.
         23    2    1    2    0    0  0.56250502095E+02 -0.14859409791E+02 -0.24477352208E+03  0.26703187978E+03  0.89481990702E+02 0.  0.
          5    1    1    2  502    0 -0.39252628987E+02 -0.19893575875E+02 -0.17104578441E+02  0.47397913954E+02  0.41800000000E+01 0. -1.
         -5    1    1    2    0  502 -0.16997873108E+02  0.34752985666E+02 -0.25224022335E+03  0.25522401999E+03  0.41800000000E+01 0. -1.
        -11    1    3    3    0    0  0.51989415990E+02  0.30951894138E+02 -0.13051570599E+03  0.14385850213E+03  0.00000000000E+00 0.  1.
         11    1    3    3    0    0  0.42610861051E+01 -0.45811303929E+02 -0.11425781609E+03  0.12317337764E+03  0.00000000000E+00 0. -1.
</event>
<event>
 7    1  0.6584658E-006  0.1183390E+03  0.7561462E-02  0.1245863E+00
          1   -1    0    0  501    0  0.00000000000E+00  0.00000000000E+00  0.30008310686E+03  0.30008310686E+03  0.00000000000E+00 0. -1.
         -1   -1    0    0    0  501 -0.00000000000E+00 -0.00000000000E+00 -0.72779873880E+02  0.72779873880E+02  0.00000000000E+00 0.  1.
         23    2    1    2    0    0  0.41184374085E+01  0.68110206435E+01  0.18295682339E+03  0.20468634071E+03  0.91432747520E+02 0.  0.
          5    1    1    2  502    0  0.92920468865E+01  0.68014737417E+02  0.59039082648E+02  0.90639022067E+02  0.41800000000E+01 0. -1.
         -5    1    1    2    0  502 -0.13410484295E+02 -0.74825758061E+02 -0.14692673056E+02  0.77537617967E+02  0.41800000000E+01 0.  1.
        -11    1    3    3    0    0  0.34458799478E+02 -0.28856100686E+02  0.88329416476E+02  0.99106857600E+02  0.00000000000E+00 0.  1.
         11    1    3    3    0    0 -0.30340362070E+02  0.35667121329E+02  0.94627406914E+02  0.10557948311E+03  0.00000000000E+00 0. -1.
</event>
<event>
 7    1  0.6584658E-006  0.1010762E+03  0.7561462E-02  0.1278049E+00
         -1   -1    0    0    0  501 -0.00000000000E+00  0.00000000000E+00  0.67947133784E+02  0.67947133784E+02  0.00000000000E+00 0.  1.
          1   -1    0    0  501    0  0.00000000000E+00 -0.00000000000E+00 -0.20540466774E+03  0.20540466774E+03  0.00000000000E+00 0. -1.
         23    2    1    2    0    0  0.76266463869E+00 -0.46812758094E+02 -0.62463195479E+02  0.12017212718E+03  0.91365602846E+02 0.  0.
          5    1    1    2  502    0 -0.55649906185E+02  0.13089591352E+02 -0.66932868520E+02  0.88123383665E+02  0.41800000000E+01 0.  1.
         -5    1    1    2    0  502  0.54887241546E+02  0.33723166743E+02 -0.80614699588E+01  0.65056290684E+02  0.41800000000E+01 0.  1.
        -11    1    3    3    0    0 -0.20798617569E+02 -0.53744233304E+02 -0.43390731141E+01  0.57791458380E+02  0.00000000000E+00 0.  1.
         11    1    3    3    0    0  0.21561282208E+02  0.69314752092E+01 -0.58124122365E+02  0.62380668798E+02  0.00000000000E+00 0. -1.
</event>
<event>
 7    1  0.6584658E-006  0.1165373E+03  0.7561462E-02  0.1248921E+00
          2   -1    0    0  501    0  0.00000000000E+00  0.00000000000E+00  0.42697935631E+03  0.42697935631E+03  0.00000000000E+00 0. -1.
         -2   -1    0    0    0  501 -0.00000000000E+00 -0.00000000000E+00 -0.52591329536E+02  0.52591329536E+02  0.00000000000E+00 0.  1.
         23    2    1    2    0    0 -0.40822458589E+02 -0.76199655410E+02  0.21544979745E+03  0.25961069886E+03  0.11621634623E+03 0.  0.
          5    1    1    2  502    0  0.28343747556E+02 -0.24189244673E+02  0.89923016965E+02  0.97427454875E+02  0.41800000000E+01 0.  1.
         -5    1    1    2    0  502  0.12478711033E+02  0.10038890008E+03  0.69015212361E+02  0.12253253211E+03  0.41800000000E+01 0.  1.
        -11    1    3    3    0    0 -0.38297879517E+02 -0.31577989234E+02  0.20856507742E+03  0.21439050468E+03  0.00000000000E+00 0. -1.
         11    1    3    3    0    0 -0.25245790724E+01 -0.44621666176E+02  0.68847200348E+01  0.45220194181E+02  0.00000000000E+00 0.  1.
</event>
<event>
 7    1  0.6584658E-006  0.1195905E+03  0.7561462E-02  0.1243774E+00
          3   -1    0    0  501    0  0.00000000000E+00  0.00000000000E+00  0.98847957196E+03  0.98847957196E+03  0.00000000000E+00 0. -1.
         -3   -1    0    0    0  501 -0.00000000000E+00 -0.00000000000E+00 -0.16516903063E+02  0.16516903063E+02  0.00000000000E+00 0.  1.
         23    2    1    2    0    0 -0.91360867291E+01 -0.51087979437E+02  0.59912668364E+03  0.60832592503E+03  0.91728939241E+02 0.  0.
          5    1    1    2  502    0  0.64599197261E+02  0.10790406903E+02  0.20765629929E+03  0.21777993526E+03  0.41800000000E+01 0.  1.
         -5    1    1    2    0  502 -0.55463110532E+02  0.40297572534E+02  0.16517968598E+03  0.17889061474E+03  0.41800000000E+01 0.  1.
        -11    1    3    3    0    0 -0.57498299188E+01  0.26546013345E+02  0.13003931492E+03  0.13284568038E+03  0.00000000000E+00 0.  1.
         11    1    3    3    0    0 -0.33862568103E+01 -0.77633992782E+02  0.46908736871E+03  0.47548024465E+03  0.00000000000E+00 0. -1.
</event>
<event>
 7    1  0.6584658E-006  0.9663949E+02  0.7561462E-02  0.1287526E+00
          1   -1    0    0  501    0  0.00000000000E+00  0.00000000000E+00  0.39701342996E+03  0.39701342996E+03  0.00000000000E+00 0. -1.
         -1   -1    0    0    0  501 -0.00000000000E+00 -0.00000000000E+00 -0.43051762791E+02  0.43051762791E+02  0.00000000000E+00 0.  1.
         23    2    1    2    0    0 -0.34343689271E+02 -0.24505313470E+02  0.25658136849E+03  0.27605402161E+03  0.92692096785E+02 0.  0.
          5    1    1    2  502    0  0.30207145398E+02 -0.37907270220E+02  0.54337541876E+00  0.48653883971E+02  0.41800000000E+01 0.  1.
         -5    1    1    2    0  502  0.41365438732E+01  0.62412583690E+02  0.96836923255E+02  0.11535728717E+03  0.41800000000E+01 0.  1.
        -11    1    3    3    0    0 -0.87505716644E+01 -0.47035120229E+02  0.61003269838E+02  0.77525956752E+02  0.00000000000E+00 0.  1.
         11    1    3    3    0    0 -0.25593117607E+02  0.22529806758E+02  0.19557809866E+03  0.19852806486E+03  0.00000000000E+00 0. -1.
</event>
<event>
 7    1  0.6584658E-006  0.1967174E+03  0.7561462E-02  0.1152538E+00
         -2   -1    0    0    0  501 -0.00000000000E+00  0.00000000000E+00  0.50169077136E+02  0.50169077136E+02  0.00000000000E+00 0.  1.
          2   -1    0    0  501    0  0.00000000000E+00 -0.00000000000E+00 -0.10466740704E+04  0.10466740704E+04  0.00000000000E+00 0. -1.
         23    2    1    2    0    0  0.10376253088E+03  0.13646961363E+03 -0.73423253986E+03  0.75945462633E+03  0.91012573932E+02 0.  0.
          5    1    1    2  502    0 -0.79802339918E+02 -0.15187313308E+03 -0.25554696398E+03  0.30782395165E+03  0.41800000000E+01 0.  1.
         -5    1    1    2    0  502 -0.23960190967E+02  0.15403519453E+02 -0.67254893753E+01  0.29564569505E+02  0.41800000000E+01 0.  1.
        -11    1    3    3    0    0  0.92849604723E+01 -0.13138977495E+02 -0.86793428010E+02  0.88271979509E+02  0.00000000000E+00 0.  1.
         11    1    3    3    0    0  0.94477570413E+02  0.14960859112E+03 -0.64743911185E+03  0.67118264683E+03  0.00000000000E+00 0. -1.
</event>
<event>
 7    1  0.6584658E-006  0.1045784E+03  0.7561462E-02  0.1270952E+00
          2   -1    0    0  501    0  0.00000000000E+00  0.00000000000E+00  0.56847742286E+03  0.56847742286E+03  0.00000000000E+00 0. -1.
         -2   -1    0    0    0  501 -0.00000000000E+00 -0.00000000000E+00 -0.29162562274E+02  0.29162562274E+02  0.00000000000E+00 0.  1.
         23    2    1    2    0    0 -0.62516619671E+02  0.22774341860E+02  0.28438929698E+03  0.30598910551E+03  0.91241778102E+02 0.  0.
          5    1    1    2  502    0  0.35152999230E+01  0.33757209042E+02  0.13546331249E+02  0.36781544097E+02  0.41800000000E+01 0. -1.
         -5    1    1    2    0  502  0.59001319748E+02 -0.56531550901E+02  0.24137923235E+03  0.25486933553E+03  0.41800000000E+01 0. -1.
        -11    1    3    3    0    0 -0.37582910296E+02  0.45769433417E+02  0.84169171519E+02  0.10291630394E+03  0.00000000000E+00 0.  1.
         11    1    3    3    0    0 -0.24933709374E+02 -0.22995091558E+02  0.20022012546E+03  0.20307280157E+03  0.00000000000E+00 0. -1.
</event>
<event>
 7    1  0.6584658E-006  0.8829210E+02  0.7561462E-02  0.1307041E+00
          3   -1    0    0  501    0  0.00000000000E+00  0.00000000000E+00  0.64157462918E+03  0.64157462918E+03  0.00000000000E+00 0. -1.
         -3   -1    0    0    0  501 -0.00000000000E+00 -0.00000000000E+00 -0.20481154814E+02  0.20481154814E+02  0.00000000000E+00 0.  1.
         23    2    1    2    0    0 -0.88574007698E+01  0.85955411978E+01  0.28879196953E+03  0.30331979461E+03  0.91922572104E+02 0.  0.
          5    1    1    2  502    0  0.41544062018E+02  0.16299305182E+02  0.30710177047E+03  0.31035551593E+03  0.41800000000E+01 0. -1.
         -5    1    1    2    0  502 -0.32686661248E+02 -0.24894846380E+02  0.25199734365E+02  0.48380473457E+02  0.41800000000E+01 0.  1.
        -11    1    3    3    0    0  0.30213587354E+02 -0.24780907246E+02  0.92541385736E+02  0.10045328416E+03  0.00000000000E+00 0.  1.
         11    1    3    3    0    0 -0.39070988124E+02  0.33376448444E+02  0.19625058379E+03  0.20286651045E+03  0.00000000000E+00 0. -1.
</event>
<event>
 7    1  0.6584658E-006  0.8962302E+02  0.7561462E-02  0.1303767E+00
          1   -1    0    0  501    0  0.00000000000E+00  0.00000000000E+00  0.12940892358E+03  0.12940892358E+03  0.00000000000E+00 0. -1.
         -1   -1    0    0    0  501 -0.00000000000E+00 -0.00000000000E+00 -0.11491076125E+03  0.11491076125E+03  0.00000000000E+00 0.  1.
         23    2    1    2    0    0  0.10701766080E+02 -0.57032907649E+01  0.62966923880E+02  0.10962937501E+03  0.88919688704E+02 0.  0.
          5    1    1    2  502    0  0.37165854006E+02  0.48308406189E+02 -0.18576232136E+02  0.63855709321E+02  0.41800000000E+01 0.  1.
         -5    1    1    2    0  502 -0.47867620086E+02 -0.42605115424E+02 -0.29892529411E+02  0.70834600497E+02  0.41800000000E+01 0.  1.
        -11    1    3    3    0    0  0.11340160455E+02  0.22778332150E+02 -0.12944358706E+02  0.28548346309E+02  0.00000000000E+00 0.  1.
         11    1    3    3    0    0 -0.63839437439E+00 -0.28481622915E+02  0.75911282586E+02  0.81081028700E+02  0.00000000000E+00 0. -1.
</event>
<event>
 7    1  0.6584658E-006  0.8346222E+02  0.7561462E-02  0.1319504E+00
          1   -1    0    0  501    0  0.00000000000E+00  0.00000000000E+00  0.14059304192E+03  0.14059304192E+03  0.00000000000E+00 0. -1.
         -1   -1    0    0    0  501 -0.00000000000E+00 -0.00000000000E+00 -0.10271042036E+03  0.10271042036E+03  0.00000000000E+00 0.  1.
         23    2    1    2    0    0  0.31596549893E+02  0.41329522711E+00  0.58150726379E+02  0.11270296612E+03  0.91224661220E+02 0.  0.
          5    1    1    2  502    0 -0.67249712718E+02 -0.23179560884E+02  0.17902658676E+02  0.73469677358E+02  0.41800000000E+01 0. -1.
         -5    1    1    2    0  502  0.35653162825E+02  0.22766265657E+02 -0.38170763500E+02  0.57130818807E+02  0.41800000000E+01 0. -1.
        -11    1    3    3    0    0  0.11066266675E+02 -0.20849747623E+02  0.75037252950E+02  0.78662338920E+02  0.00000000000E+00 0. -1.
         11    1    3    3    0    0  0.20530283218E+02  0.21263042850E+02 -0.16886526570E+02  0.34040627196E+02  0.00000000000E+00 0.  1.
</event>
<event>
 7    1  0.6584658E-006  0.1123813E+03  0.7561462E-02  0.1256223E+00
          1   -1    0    0  501    0  0.00000000000E+00  0.00000000000E+00  0.60430541097E+03  0.60430541097E+03  0.00000000000E+00 0. -1.
         -1   -1    0    0    0  501 -0.00000000000E+00 -0.00000000000E+00 -0.24648552793E+02  0.24648552793E+02  0.00000000000E+00 0.  1.
         23    2    1    2    0    0  0.24286068957E+02  0.35794766593E+02  0.29771019917E+03  0.31748529842E+03  0.10146168521E+03 0.  0.
          5    1    1    2  502    0  0.22880750241E+02  0.30062659700E+02  0.35474143038E+02  0.51992109634E+02  0.41800000000E+01 0.  1.
         -5    1    1    2    0  502 -0.47166819199E+02 -0.65857426294E+02  0.24647251598E+03  0.25947655571E+03  0.41800000000E+01 0.  1.
        -11    1    3    3    0    0 -0.22710366043E+02 -0.21679356007E+02  0.13553554747E+03  0.13912454790E+03  0.00000000000E+00 0. -1.
         11    1    3    3    0    0  0.46996435000E+02  0.57474122600E+02  0.16217465170E+03  0.17836075052E+03  0.00000000000E+00 0.  1.
</event>
<event>
 7    1  0.6584658E-006  0.1113248E+03  0.7561462E-02  0.1258136E+00
          2   -1    0    0  501    0  0.00000000000E+00  0.00000000000E+00  0.56242509940E+03  0.56242509940E+03  0.00000000000E+00 0. -1.
         -2   -1    0    0    0  501 -0.00000000000E+00 -0.00000000000E+00 -0.38108203859E+02  0.38108203859E+02  0.00000000000E+00 0.  1.
         23    2    1    2    0    0 -0.95145985017E+01 -0.96796843344E+02  0.25606763980E+03  0.28897532622E+03  0.92064903968E+02 0.  0.
          5    1    1    2  502    0  0.82939726901E+01  0.48573010597E+02  0.25717643556E+03  0.26188798893E+03  0.41800000000E+01 0. -1.
         -5    1    1    2    0  502  0.12206258116E+01  0.48223832747E+02  0.11072820184E+02  0.49669988112E+02  0.41800000000E+01 0. -1.
        -11    1    3    3    0    0 -0.29116520135E+02 -0.33647352132E+01  0.23472011302E+02  0.37550346236E+02  0.00000000000E+00 0.  1.
         11    1    3    3    0    0  0.19601921634E+02 -0.93432108131E+02  0.23259562850E+03  0.25142497998E+03  0.00000000000E+00 0. -1.
</event>
<event>
 7    1  0.6584658E-006  0.8794274E+02  0.7561462E-02  0.1307912E+00
         -1   -1    0    0    0  501 -0.00000000000E+00  0.00000000000E+00  0.13135382280E+03  0.13135382280E+03  0.00000000000E+00 0.  1.
          1   -1    0    0  501    0  0.00000000000E+00 -0.00000000000E+00 -0.96808819168E+02  0.96808819168E+02  0.00000000000E+00 0. -1.
         23    2    1    2    0    0  0.76637781235E+01 -0.27621527828E+02 -0.27510789521E+00  0.95191704201E+02  0.90772807436E+02 0.  0.
          5    1    1    2  502    0 -0.11033076264E+02 -0.25228730541E+02  0.65816557310E+02  0.71466840092E+02  0.41800000000E+01 0.  1.
         -5    1    1    2    0  502  0.33692981401E+01  0.52850258370E+02 -0.30996445782E+02  0.61504097675E+02  0.41800000000E+01 0.  1.
        -11    1    3    3    0    0  0.49142283417E+02 -0.11972833581E+02 -0.37820236478E+01  0.50720966732E+02  0.00000000000E+00 0.  1.
         11    1    3    3    0    0 -0.41478505293E+02 -0.15648694247E+02  0.35069157526E+01  0.44470737470E+02  0.00000000000E+00 0. -1.
</event>
<event>
 7    1  0.6584658E-006  0.1044700E+03  0.7561462E-02  0.1271167E+00
         -1   -1    0    0    0  501 -0.00000000000E+00  0.00000000000E+00  0.13393644507E+03  0.13393644507E+03  0.00000000000E+00 0.  1.
          1   -1    0    0  501    0  0.00000000000E+00 -0.00000000000E+00 -0.16428344418E+03  0.16428344418E+03  0.00000000000E+00 0. -1.
         23    2    1    2    0    0  0.16306583344E+02 -0.68490455183E+02 -0.83083212827E+02  0.14529595743E+03  0.96183407513E+02 0.  0.
          5    1    1    2  502    0  0.23684774992E+02  0.57753105524E+02 -0.22878144584E+02  0.66612849089E+02  0.41800000000E+01 0. -1.
         -5    1    1    2    0  502 -0.39991358336E+02  0.10737349658E+02  0.75614358302E+02  0.86311082722E+02  0.41800000000E+01 0. -1.
        -11    1    3    3    0    0 -0.26067782472E+02 -0.23005735652E+01  0.56396168926E+01  0.26769893545E+02  0.00000000000E+00 0.  1.
         11    1    3    3    0    0  0.42374365816E+02 -0.66189881617E+02 -0.88722829719E+02  0.11852606389E+03  0.00000000000E+00 0. -1.
</event>
<event>
 7    1  0.6584658E-006  0.1184855E+03  0.7561462E-02  0.1245617E+00
          2   -1    0    0  501    0  0.00000000000E+00  0.00000000000E+00  0.15742881030E+03  0.15742881030E+03  0.00000000000E+00 0.  1.
         -2   -1    0    0    0  501 -0.00000000000E+00 -0.00000000000E+00 -0.12344216263E+03  0.12344216263E+03  0.00000000000E+00 0. -1.
         23    2    1    2    0    0  0.21392016909E+02 -0.48800173197E+02  0.85336954733E+02  0.13553149014E+03  0.90814721735E+02 0.  0.
          5    1    1    2  502    0  0.38732343165E+02  0.61539662055E+02 -0.38608598154E+02  0.82434341535E+02  0.41800000000E+01 0. -1.
         -5    1    1    2    0  502 -0.60124360074E+02 -0.12739488859E+02 -0.12741708908E+02  0.62905141257E+02  0.41800000000E+01 0. -1.
        -11    1    3    3    0    0 -0.22390552122E+02 -0.53988052012E+02  0.33075185968E+02  0.67156641602E+02  0.00000000000E+00 0.  1.
         11    1    3    3    0    0  0.43782569031E+02  0.51878788154E+01  0.52261768765E+02  0.68374848534E+02  0.00000000000E+00 0. -1.
</event>
<event>
 7    1  0.6584658E-006  0.2250674E+03  0.7561462E-02  0.1130161E+00
          1   -1    0    0  501    0  0.00000000000E+00  0.00000000000E+00  0.57901665507E+03  0.57901665507E+03  0.00000000000E+00 0. -1.
         -1   -1    0    0    0  501 -0.00000000000E+00 -0.00000000000E+00 -0.94715465577E+02  0.94715465577E+02  0.00000000000E+00 0.  1.
         23    2    1    2    0    0  0.23117576092E+02  0.20518050829E+03  0.23493585315E+03  0.32665220311E+03  0.94198425650E+02 0.  0.
          5    1    1    2  502    0 -0.35265655008E+02 -0.12893463318E+02  0.87111278522E+01  0.38771948209E+02  0.41800000000E+01 0. -1.
         -5    1    1    2    0  502  0.12148078916E+02 -0.19228704497E+03  0.24065420849E+03  0.30830796933E+03  0.41800000000E+01 0. -1.
        -11    1    3    3    0    0  0.43512853043E+02  0.66531475132E+02  0.12672150689E+03  0.14959326814E+03  0.00000000000E+00 0. -1.
         11    1    3    3    0    0 -0.20395276951E+02  0.13864903316E+03  0.10821434626E+03  0.17705893497E+03  0.00000000000E+00 0.  1.
</event>
<event>
 7    1  0.6584658E-006  0.1684457E+03  0.7561462E-02  0.1179478E+00
          1   -1    0    0  501    0  0.00000000000E+00  0.00000000000E+00  0.12115463371E+04  0.12115463371E+04  0.00000000000E+00 0. -1.
         -1   -1    0    0    0  501 -0.00000000000E+00 -0.00000000000E+00 -0.27880963531E+02  0.27880963531E+02  0.00000000000E+00 0.  1.
         23    2    1    2    0    0 -0.99956760297E+02  0.81567182132E+02  0.80392361343E+03  0.81932073072E+03  0.91371354538E+02 0.  0.
          5    1    1    2  502    0  0.77312775812E+02 -0.11488284114E+03  0.27819121908E+03  0.31077831209E+03  0.41800000000E+01 0.  1.
         -5    1    1    2    0  502  0.22643984485E+02  0.33315659005E+02  0.10155054104E+03  0.10932825780E+03  0.41800000000E+01 0.  1.
        -11    1    3    3    0    0 -0.32033576100E+02 -0.18440051211E+02  0.16983530931E+03  0.17381086782E+03  0.00000000000E+00 0. -1.
         11    1    3    3    0    0 -0.67923184197E+02  0.10000723334E+03  0.63408830412E+03  0.64550986289E+03  0.00000000000E+00 0.  1.
</event>
<event>
 7    1  0.6584658E-006  0.1511513E+03  0.7561462E-02  0.1199065E+00
         -2   -1    0    0    0  501 -0.00000000000E+00  0.00000000000E+00  0.37057881725E+03  0.37057881725E+03  0.00000000000E+00 0.  1.
          2   -1    0    0  501    0  0.00000000000E+00 -0.00000000000E+00 -0.94084325528E+02  0.94084325528E+02  0.00000000000E+00 0. -1.
         23    2    1    2    0    0  0.15970133783E+02  0.93130596634E+02  0.40971549424E+00  0.13109332386E+03  0.90867697739E+02 0.  0.
          5    1    1    2  502    0  0.49216569580E+02 -0.95346294083E+02  0.10398566966E+03  0.14947801983E+03  0.41800000000E+01 0. -1.
         -5    1    1    2    0  502 -0.65186703362E+02  0.22156974491E+01  0.17209910657E+03  0.18409179909E+03  0.41800000000E+01 0.  1.
        -11    1    3    3    0    0 -0.32970304802E+02  0.65579466811E+02 -0.96641031866E+01  0.74034467354E+02  0.00000000000E+00 0.  1.
         11    1    3    3    0    0  0.48940438585E+02  0.27551129823E+02  0.10073818681E+02  0.57058856510E+02  0.00000000000E+00 0. -1.
</event>
<event>
 7    1  0.6584658E-006  0.1087312E+03  0.7561462E-02  0.1262938E+00
         -2   -1    0    0    0  501 -0.00000000000E+00  0.00000000000E+00  0.40962427162E+02  0.40962427162E+02  0.00000000000E+00 0.  1.
          2   -1    0    0  501    0  0.00000000000E+00 -0.00000000000E+00 -0.35223215410E+03  0.35223215410E+03  0.00000000000E+00 0. -1.
         23    2    1    2    0    0  0.48897017472E+02  0.14371189292E+01 -0.16929388763E+03  0.19775300762E+03  0.89737662133E+02 0.  0.
          5    1    1    2  502    0  0.42467867239E+02  0.26160208542E+01 -0.46346566962E+02  0.63054262204E+02  0.41800000000E+01 0.  1.
         -5    1    1    2    0  502 -0.91364884711E+02 -0.40531397834E+01 -0.95629272344E+02  0.13238731144E+03  0.41800000000E+01 0.  1.
        -11    1    3    3    0    0  0.51915548587E+02  0.26242063252E+02 -0.16137644620E+03  0.17154074576E+03  0.00000000000E+00 0. -1.
         11    1    3    3    0    0 -0.30185311157E+01 -0.24804944322E+02 -0.79174414337E+01  0.26212261860E+02  0.00000000000E+00 0.  1.
</event>
<event>
 7    1  0.6584658E-006  0.1123448E+03  0.7561462E-02  0.1256288E+00
          4   -1    0    0  501    0  0.00000000000E+00  0.00000000000E+00  0.10811750057E+03  0.10811750057E+03  0.00000000000E+00 0. -1.
         -4   -1    0    0    0  501 -0.00000000000E+00 -0.00000000000E+00 -0.12240173189E+03  0.12240173189E+03  0.00000000000E+00 0.  1.
         23    2    1    2    0    0  0.19077069162E+02  0.27728796804E+02  0.12991674241E+02  0.98140719149E+02  0.91268814036E+02 0.  0.
          5    1    1    2  502    0  0.53518026641E+02 -0.11771297133E+02 -0.14584038639E+02  0.56858677392E+02  0.41800000000E+01 0.  1.
         -5    1    1    2    0  502 -0.72595095803E+02 -0.15957499670E+02 -0.12691866922E+02  0.75519835913E+02  0.41800000000E+01 0.  1.
        -11    1    3    3    0    0 -0.23796672524E+02 -0.20032238847E+02 -0.49531381496E+01  0.31497710932E+02  0.00000000000E+00 0.  1.
         11    1    3    3    0    0  0.42873741686E+02  0.47761035650E+02  0.17944812390E+02  0.66643008217E+02  0.00000000000E+00 0. -1.
</event>
<event>
 7    1  0.6584658E-006  0.1296931E+03  0.7561462E-02  0.1227912E+00
         -2   -1    0    0    0  501 -0.00000000000E+00  0.00000000000E+00  0.30233856512E+03  0.30233856512E+03  0.00000000000E+00 0.  1.
          2   -1    0    0  501    0  0.00000000000E+00 -0.00000000000E+00 -0.65226945793E+02  0.65226945793E+02  0.00000000000E+00 0. -1.
         23    2    1    2    0    0  0.87028831733E+02  0.11136983809E+00  0.75085979627E+02  0.14513831057E+03  0.88618253779E+02 0.  0.
          5    1    1    2  502    0 -0.30302644019E+02  0.57932989306E+02  0.43219405850E+02  0.78484845203E+02  0.41800000000E+01 0. -1.
         -5    1    1    2    0  502 -0.56726187714E+02 -0.58044359145E+02  0.11880623385E+03  0.14394235514E+03  0.41800000000E+01 0. -1.
        -11    1    3    3    0    0  0.28038183689E+02  0.34395512380E+02  0.95250835332E+00  0.44385789264E+02  0.00000000000E+00 0.  1.
         11    1    3    3    0    0  0.58990648045E+02 -0.34284142542E+02  0.74133471274E+02  0.10075252131E+03  0.00000000000E+00 0. -1.
</event>
<event>
 7    1  0.6584658E-006  0.1953890E+03  0.7561462E-02  0.1153689E+00
         -1   -1    0    0    0  501 -0.00000000000E+00  0.00000000000E+00  0.31474507714E+02  0.31474507714E+02  0.00000000000E+00 0.  1.
          1   -1    0    0  501    0  0.00000000000E+00 -0.00000000000E+00 -0.14375388218E+04  0.14375388218E+04  0.00000000000E+00 0. -1.
         23    2    1    2    0    0 -0.16461879458E+03 -0.62159534820E+02 -0.84188899155E+03  0.86493954844E+03  0.91543394440E+02 0.  0.
          5    1    1    2  502    0  0.56105568412E+02 -0.37137976534E+02 -0.14738286407E+03  0.16206864326E+03  0.41800000000E+01 0. -1.
         -5    1    1    2    0  502  0.10851322617E+03  0.99297511354E+02 -0.41679245849E+03  0.44200513783E+03  0.41800000000E+01 0. -1.
        -11    1    3    3    0    0 -0.46613125935E+02 -0.22192441550E+02 -0.98770020630E+02  0.11144866507E+03  0.00000000000E+00 0.  1.
         11    1    3    3    0    0 -0.11800566865E+03 -0.39967093271E+02 -0.74311897092E+03  0.75349088337E+03  0.00000000000E+00 0. -1.
</event>
<event>
 7    1  0.6584658E-006  0.1541587E+03  0.7561462E-02  0.1195454E+00
          2   -1    0    0  501    0  0.00000000000E+00  0.00000000000E+00  0.17434422534E+03  0.17434422534E+03  0.00000000000E+00 0.  1.
         -2   -1    0    0    0  501 -0.00000000000E+00 -0.00000000000E+00 -0.16099036560E+03  0.16099036560E+03  0.00000000000E+00 0. -1.
         23    2    1    2    0    0  0.45213273757E+02  0.11556894545E+03  0.35643468714E+02  0.15772288287E+03  0.90584930542E+02 0.  0.
          5    1    1    2  502    0 -0.52937897188E+02 -0.13028138355E+02 -0.46624775669E+02  0.71857466236E+02  0.41800000000E+01 0. -1.
         -5    1    1    2    0  502  0.77246234310E+01 -0.10254080710E+03  0.24335166696E+02  0.10575424183E+03  0.41800000000E+01 0. -1.
        -11    1    3    3    0    0  0.48471958845E+02  0.15917062712E+02  0.26792352104E+02  0.57625635015E+02  0.00000000000E+00 0.  1.
         11    1    3    3    0    0 -0.32586850882E+01  0.99651882742E+02  0.88511166103E+01  0.10009724785E+03  0.00000000000E+00 0. -1.
</event>
<event>
 7    1  0.6584658E-006  0.3180496E+03  0.7561462E-02  0.1076550E+00
          2   -1    0    0  501    0  0.00000000000E+00  0.00000000000E+00  0.11387520333E+03  0.11387520333E+03  0.00000000000E+00 0. -1.
         -2   -1    0    0    0  501 -0.00000000000E+00 -0.00000000000E+00 -0.89813741959E+03  0.89813741959E+03  0.00000000000E+00 0.  1.
         23    2    1    2    0    0 -0.80616595733E+02 -0.11570297788E+02 -0.12613962880E+03  0.17559683840E+03  0.91050186177E+02 0.  0.
          5    1    1    2  502    0  0.20096427574E+03 -0.19172718483E+03 -0.39327680429E+03  0.48148735260E+03  0.41800000000E+01 0. -1.
         -5    1    1    2    0  502 -0.12034768000E+03  0.20329748262E+03 -0.26484578317E+03  0.35492843192E+03  0.41800000000E+01 0.  1.
        -11    1    3    3    0    0 -0.65099448328E+02  0.34316866070E+02 -0.79995523104E+02  0.10869622434E+03  0.00000000000E+00 0.  1.
         11    1    3    3    0    0 -0.15517147405E+02 -0.45887163858E+02 -0.46144105697E+02  0.66900614056E+02  0.00000000000E+00 0. -1.
</event>
<event>
 7    1  0.6584658E-006  0.1173470E+03  0.7561462E-02  0.1247539E+00
          1   -1    0    0  501    0  0.00000000000E+00  0.00000000000E+00  0.51876400649E+03  0.51876400649E+03  0.00000000000E+00 0. -1.
         -1   -1    0    0    0  501 -0.00000000000E+00 -0.00000000000E+00 -0.37038197334E+02  0.37038197334E+02  0.00000000000E+00 0.  1.
         23    2    1    2    0    0  0.49263731895E+02  0.71668462392E+02  0.21914190588E+03  0.25222526475E+03  0.89616546936E+02 0.  0.
          5    1    1    2  502    0 -0.74155682391E+02 -0.49181510100E+01  0.17782973642E+03  0.19278003267E+03  0.41800000000E+01 0. -1.
         -5    1    1    2    0  502  0.24891950496E+02 -0.66750311382E+02  0.84754166856E+02  0.11079690640E+03  0.41800000000E+01 0. -1.
        -11    1    3    3    0    0  0.27186665215E+02  0.23608077742E+02  0.18678526998E+03  0.19022406047E+03  0.00000000000E+00 0. -1.
         11    1    3    3    0    0  0.22077066679E+02  0.48060384650E+02  0.32356635904E+02  0.62001204286E+02  0.00000000000E+00 0.  1.
</event>
<event>
 7    1  0.6584658E-006  0.1205586E+03  0.7561462E-02  0.1242178E+00
         -2   -1    0    0    0  501 -0.00000000000E+00  0.00000000000E+00  0.68102423380E+02  0.68102423380E+02  0.00000000000E+00 0.  1.
          2   -1    0    0  501    0  0.00000000000E+00 -0.00000000000E+00 -0.32683627889E+03  0.32683627889E+03  0.00000000000E+00 0. -1.
         23    2    1    2    0    0 -0.32233818200E+01 -0.83480845263E+02 -0.19586437944E+03  0.23191012728E+03  0.91869528596E+02 0.  0.
          5    1    1    2  502    0  0.48976273279E+02 -0.26102741928E+01 -0.47581503747E+01  0.49453020845E+02  0.41800000000E+01 0. -1.
         -5    1    1    2    0  502 -0.45752891459E+02  0.86091119456E+02 -0.58111325698E+02  0.11357555415E+03  0.41800000000E+01 0. -1.
        -11    1    3    3    0    0  0.15272068162E+02 -0.93496994611E+01  0.36427183207E+01  0.18273542151E+02  0.00000000000E+00 0.  1.
         11    1    3    3    0    0 -0.18495449982E+02 -0.74131145802E+02 -0.19950709776E+03  0.21363658513E+03  0.00000000000E+00 0. -1.
</event>
<event>
 7    1  0.6584658E-006  0.1788084E+03  0.7561462E-02  0.1168961E+00
         -1   -1    0    0    0  501 -0.00000000000E+00  0.00000000000E+00  0.25406507880E+03  0.25406507880E+03  0.00000000000E+00 0.  1.
          1   -1    0    0  501    0  0.00000000000E+00 -0.00000000000E+00 -0.14986534085E+03  0.14986534085E+03  0.00000000000E+00 0. -1.
         23    2    1    2    0    0  0.35010127251E+02 -0.14383499550E+03 -0.19735407002E+02  0.17388318866E+03  0.89059879120E+02 0.  0.
          5    1    1    2  502    0 -0.62706647294E+02  0.15179778055E+03  0.99833907014E+02  0.19224716171E+03  0.41800000000E+01 0.  1.
         -5    1    1    2    0  502  0.27696520043E+02 -0.79627850505E+01  0.24101237934E+02  0.37800069288E+02  0.41800000000E+01 0.  1.
        -11    1    3    3    0    0 -0.22097228473E+02 -0.39174443300E+02  0.18561455156E+02  0.48656470603E+02  0.00000000000E+00 0.  1.
         11    1    3    3    0    0  0.57107355724E+02 -0.10466055220E+03 -0.38296862157E+02  0.12522671806E+03  0.00000000000E+00 0. -1.
</event>
<event>
 7    1  0.6584658E-006  0.1161378E+03  0.7561462E-02  0.1249608E+00
         -1   -1    0    0    0  501 -0.00000000000E+00  0.00000000000E+00  0.44393033587E+02  0.44393033587E+02  0.00000000000E+00 0.  1.
          1   -1    0    0  501    0  0.00000000000E+00 -0.00000000000E+00 -0.44287232763E+03  0.44287232763E+03  0.00000000000E+00 0. -1.
         23    2    1    2    0    0 -0.77356119236E+02 -0.14147841787E+02 -0.25206697619E+03  0.27925994959E+03  0.90907801368E+02 0.  0.
          5    1    1    2  502    0 -0.99614454159E+01 -0.39247231028E+02 -0.20162536376E+02  0.45426598060E+02  0.41800000000E+01 0. -1.
         -5    1    1    2    0  502  0.87317564652E+02  0.53395072815E+02 -0.12624978148E+03  0.16257881357E+03  0.41800000000E+01 0. -1.
        -11    1    3    3    0    0 -0.34381420996E+02  0.14681718592E+02 -0.20787282716E+03  0.21120782950E+03  0.00000000000E+00 0. -1.
         11    1    3    3    0    0 -0.42974698240E+02 -0.28829560378E+02 -0.44194149029E+02  0.68052120091E+02  0.00000000000E+00 0.  1.
</event>
<event>
 7    1  0.6584658E-006  0.1094841E+03  0.7561462E-02  0.1261528E+00
         -3   -1    0    0    0  501 -0.00000000000E+00  0.00000000000E+00  0.23641324436E+03  0.23641324436E+03  0.00000000000E+00 0.  1.
          3   -1    0    0  501    0  0.00000000000E+00 -0.00000000000E+00 -0.51209788245E+02  0.51209788245E+02  0.00000000000E+00 0. -1.
         23    2    1    2    0    0 -0.43536236003E+01 -0.16083561449E+02  0.67994728383E+02  0.11539501521E+03  0.91733807617E+02 0.  0.
          5    1    1    2  502    0 -0.59081511665E+02 -0.38470130086E+01  0.50217323794E+02  0.77747517895E+02  0.41800000000E+01 0. -1.
         -5    1    1    2    0  502  0.63435135266E+02  0.19930574457E+02  0.66991403938E+02  0.94480499501E+02  0.41800000000E+01 0. -1.
        -11    1    3    3    0    0 -0.56311565169E+01  0.38239790326E+02  0.32406519425E+02  0.50439805601E+02  0.00000000000E+00 0.  1.
         11    1    3    3    0    0  0.12775329166E+01 -0.54323351774E+02  0.35588208959E+02  0.64955209608E+02  0.00000000000E+00 0. -1.
</event>
<event>
 7    1  0.6584658E-006  0.2114606E+03  0.7561462E-02  0.1140415E+00
          1   -1    0    0  501    0  0.00000000000E+00  0.00000000000E+00  0.23313847190E+02  0.23313847190E+02  0.00000000000E+00 0. -1.
         -1   -1    0    0    0  501 -0.00000000000E+00 -0.00000000000E+00 -0.19865214992E+04  0.19865214992E+04  0.00000000000E+00 0.  1.
         23    2    1    2    0    0  0.15803620925E+03 -0.89290502501E+02 -0.76927242948E+03  0.79571956549E+03  0.91876650318E+02 0.  0.
          5    1    1    2  502    0 -0.15547975393E+03  0.11530375155E+03 -0.10714635997E+04  0.10888161584E+04  0.41800000000E+01 0. -1.
         -5    1    1    2    0  502 -0.25564553265E+01 -0.26013249046E+02 -0.12247162287E+03  0.12529962250E+03  0.41800000000E+01 0. -1.
        -11    1    3    3    0    0  0.32735513270E+02 -0.68367885396E+02 -0.31780079439E+03  0.32671566613E+03  0.00000000000E+00 0. -1.
         11    1    3    3    0    0  0.12530069598E+03 -0.20922617105E+02 -0.45147163509E+03  0.46900389936E+03  0.00000000000E+00 0.  1.
</event>
<event>
 7    1  0.6584658E-006  0.9592845E+02  0.7561462E-02  0.1289099E+00
         -2   -1    0    0    0  501 -0.00000000000E+00  0.00000000000E+00  0.83811529897E+02  0.83811529897E+02  0.00000000000E+00 0.  1.
          2   -1    0    0  501    0  0.00000000000E+00 -0.00000000000E+00 -0.24558206807E+03  0.24558206807E+03  0.00000000000E+00 0. -1.
         23    2    1    2    0    0 -0.58290857219E+02 -0.32876675655E+02 -0.14869279262E+03  0.18692578463E+03  0.91394762121E+02 0.  0.
          5    1    1    2  502    0  0.56701851405E+01  0.32191633947E+02  0.50206801153E+02  0.60055370932E+02  0.41800000000E+01 0.  1.
         -5    1    1    2    0  502  0.52620672079E+02  0.68504170758E+00 -0.63284546707E+02  0.82412442410E+02  0.41800000000E+01 0.  1.
        -11    1    3    3    0    0 -0.55943773088E+02  0.15205378325E+02 -0.47804777774E+02  0.75141240710E+02  0.00000000000E+00 0.  1.
         11    1    3    3    0    0 -0.23470841310E+01 -0.48082053980E+02 -0.10088801485E+03  0.11178454392E+03  0.00000000000E+00 0. -1.
</event>
<event>
 7    1  0.6584658E-006  0.1381284E+03  0.7561462E-02  0.1215870E+00
         -1   -1    0    0    0  501 -0.00000000000E+00  0.00000000000E+00  0.15011892976E+03  0.15011892976E+03  0.00000000000E+00 0.  1.
          1   -1    0    0  501    0  0.00000000000E+00 -0.00000000000E+00 -0.13612894672E+03  0.13612894672E+03  0.00000000000E+00 0. -1.
         23    2    1    2    0    0 -0.16195292053E+02 -0.77390047825E+02 -0.25084660066E+02  0.13319460112E+03  0.10421158578E+03 0.  0.
          5    1    1    2  502    0  0.36291601001E+02 -0.23998097821E+02  0.43011802045E+01  0.43919944824E+02  0.41800000000E+01 0. -1.
         -5    1    1    2    0  502 -0.20096308948E+02  0.10138814565E+03  0.34773462896E+02  0.10913333053E+03  0.41800000000E+01 0. -1.
        -11    1    3    3    0    0  0.31815387137E+02 -0.74495578042E+02 -0.52734910881E+01  0.81176472667E+02  0.00000000000E+00 0.  1.
         11    1    3    3    0    0 -0.48010679190E+02 -0.28944697837E+01 -0.19811168978E+02  0.52018128455E+02  0.00000000000E+00 0. -1.
</event>
<event>
 7    1  0.6584658E-006  0.4111780E+03  0.7561462E-02  0.1039976E+00
          2   -1    0    0  501    0  0.00000000000E+00  0.00000000000E+00  0.15038391420E+04  0.15038391420E+04  0.00000000000E+00 0. -1.
         -2   -1    0    0    0  501 -0.00000000000E+00 -0.00000000000E+00 -0.11453470086E+03  0.11453470086E+03  0.00000000000E+00 0.  1.
         23    2    1    2    0    0  0.22863589541E+03  0.32770881330E+03  0.64331224256E+03  0.76290971001E+03  0.92266706991E+02 0.  0.
          5    1    1    2  502    0 -0.10021357863E+03 -0.50855607855E+02  0.22834445973E+03  0.25453431769E+03  0.41800000000E+01 0. -1.
         -5    1    1    2    0  502 -0.12842231679E+03 -0.27685320544E+03  0.51764773880E+03  0.60092981512E+03  0.41800000000E+01 0. -1.
        -11    1    3    3    0    0  0.16709366431E+03  0.28287724751E+03  0.46830919455E+03  0.57206060126E+03  0.00000000000E+00 0.  1.
         11    1    3    3    0    0  0.61542231100E+02  0.44831565792E+02  0.17500304801E+03  0.19084910875E+03  0.00000000000E+00 0. -1.
</event>
<event>
 7    1  0.6584658E-006  0.1175499E+03  0.7561462E-02  0.1247194E+00
         -2   -1    0    0    0  501 -0.00000000000E+00  0.00000000000E+00  0.69764787113E+02  0.69764787113E+02  0.00000000000E+00 0. -1.
          2   -1    0    0  501    0  0.00000000000E+00 -0.00000000000E+00 -0.45476513600E+03  0.45476513600E+03  0.00000000000E+00 0.  1.
         23    2    1    2    0    0  0.94351733710E+02 -0.28851959274E+01 -0.33494656507E+03  0.36001785935E+03  0.92266373008E+02 0.  0.
          5    1    1    2  502    0 -0.78930328315E+02 -0.26466195187E+02 -0.82966930707E+02  0.11760714352E+03  0.41800000000E+01 0. -1.
         -5    1    1    2    0  502 -0.15421405394E+02  0.29351391114E+02  0.32913146893E+02  0.46904920244E+02  0.41800000000E+01 0. -1.
        -11    1    3    3    0    0  0.71083975476E+02 -0.34547680649E+02 -0.28875037298E+03  0.29937142767E+03  0.00000000000E+00 0.  1.
         11    1    3    3    0    0  0.23267758234E+02  0.31662484722E+02 -0.46196192089E+02  0.60646431680E+02  0.00000000000E+00 0. -1.
</event>
<event>
 7    1  0.6584658E-006  0.1636035E+03  0.7561462E-02  0.1184687E+00
         -1   -1    0    0    0  501 -0.00000000000E+00  0.00000000000E+00  0.16342085714E+02  0.16342085714E+02  0.00000000000E+00 0.  1.
          1   -1    0    0  501    0  0.00000000000E+00 -0.00000000000E+00 -0.17096643538E+04  0.17096643538E+04  0.00000000000E+00 0. -1.
         23    2    1    2    0    0  0.12461298339E+03  0.18165403757E+02 -0.79548465052E+03  0.81081991845E+03  0.93673547098E+02 0.  0.
          5    1    1    2  502    0 -0.40470596358E+02  0.50143426142E+02 -0.43779553790E+03  0.44253207541E+03  0.41800000000E+01 0. -1.
         -5    1    1    2    0  502 -0.84142387030E+02 -0.68308829899E+02 -0.46004207967E+03  0.47265444566E+03  0.41800000000E+01 0. -1.
        -11    1    3    3    0    0  0.86324010852E+02 -0.31121130991E+02 -0.54537145953E+03  0.55303742053E+03  0.00000000000E+00 0.  1.
         11    1    3    3    0    0  0.38288972536E+02  0.49286534748E+02 -0.25011319099E+03  0.25778249792E+03  0.00000000000E+00 0. -1.
</event>
<event>
 7    1  0.6584658E-006  0.1412400E+03  0.7561462E-02  0.1211670E+00
          1   -1    0    0  501    0  0.00000000000E+00  0.00000000000E+00  0.48032209639E+02  0.48032209639E+02  0.00000000000E+00 0. -1.
         -1   -1    0    0    0  501 -0.00000000000E+00 -0.00000000000E+00 -0.52080137776E+03  0.52080137776E+03  0.00000000000E+00 0.  1.
         23    2    1    2    0    0  0.34566569586E+02 -0.10938151175E+03 -0.22835837398E+03  0.27127057802E+03  0.91000091689E+02 0.  0.
          5    1    1    2  502    0 -0.38851792195E+01 -0.17529957820E+02  0.21228746937E+01  0.18557290635E+02  0.41800000000E+01 0.  1.
         -5    1    1    2    0  502 -0.30681390366E+02  0.12691146957E+03 -0.24653366883E+03  0.27900571874E+03  0.41800000000E+01 0.  1.
        -11    1    3    3    0    0  0.44908488477E+02 -0.31522786221E+02 -0.42193009665E+02  0.69214943856E+02  0.00000000000E+00 0. -1.
         11    1    3    3    0    0 -0.10341918891E+02 -0.77858725527E+02 -0.18616536431E+03  0.20205563416E+03  0.00000000000E+00 0.  1.
</event>
<event>
 7    1  0.6584658E-006  0.8232825E+02  0.7561462E-02  0.1322571E+00
         -4   -1    0    0    0  501 -0.00000000000E+00  0.00000000000E+00  0.33788516801E+03  0.33788516801E+03  0.00000000000E+00 0.  1.
          4   -1    0    0  501    0  0.00000000000E+00 -0.00000000000E+00 -0.37565792451E+02  0.37565792451E+02  0.00000000000E+00 0. -1.
         23    2    1    2    0    0 -0.93623215864E+01  0.25509780442E+00  0.74131840136E+02  0.12071164598E+03  0.94805345903E+02 0.  0.
          5    1    1    2  502    0 -0.53340165833E+02 -0.13252538980E-01  0.11927410001E+03  0.13072473675E+03  0.41800000000E+01 0. -1.
         -5    1    1    2    0  502  0.62702487419E+02 -0.24184526544E+00  0.10691343542E+03  0.12401457773E+03  0.41800000000E+01 0.  1.
        -11    1    3    3    0    0  0.18635063178E+02 -0.60868853861E+01  0.87051511895E+02  0.89231617023E+02  0.00000000000E+00 0.  1.
         11    1    3    3    0    0 -0.27997384765E+02  0.63419831906E+01 -0.12919671760E+02  0.31480028952E+02  0.00000000000E+00 0. -1.
</event>
<event>
 7    1  0.6584658E-006  0.1259230E+03  0.7561462E-02  0.1233634E+00
         -1   -1    0    0    0  501 -0.00000000000E+00  0.00000000000E+00  0.66776865477E+03  0.66776865477E+03  0.00000000000E+00 0.  1.
          1   -1    0    0  501    0  0.00000000000E+00 -0.00000000000E+00 -0.41010832839E+02  0.41010832839E+02  0.00000000000E+00 0. -1.
         23    2    1    2    0    0  0.85857391199E+02 -0.48907529678E+02  0.13113421259E+03  0.18816849127E+03  0.91911703888E+02 0.  0.
          5    1    1    2  502    0 -0.77771179903E+02  0.62986022301E+02  0.19229013041E+03  0.21681457996E+03  0.41800000000E+01 0. -1.
         -5    1    1    2    0  502 -0.80862112967E+01 -0.14078492624E+02  0.30333347893E+03  0.30379641638E+03  0.41800000000E+01 0. -1.
        -11    1    3    3    0    0  0.44182315500E+02  0.24487200542E+02  0.47089313480E+02  0.69058695596E+02  0.00000000000E+00 0. -1.
         11    1    3    3    0    0  0.41675075699E+02 -0.73394730220E+02  0.84044899110E+02  0.11910979567E+03  0.00000000000E+00 0.  1.
</event>
<event>
 7    1  0.6584658E-006  0.1478562E+03  0.7561462E-02  0.1203132E+00
         -1   -1    0    0    0  501 -0.00000000000E+00  0.00000000000E+00  0.69183150404E+02  0.69183150404E+02  0.00000000000E+00 0.  1.
          1   -1    0    0  501    0  0.00000000000E+00 -0.00000000000E+00 -0.34892813327E+03  0.34892813327E+03  0.00000000000E+00 0. -1.
         23    2    1    2    0    0 -0.81544016680E+02 -0.80574191927E+02 -0.97835389700E+02  0.17600350107E+03  0.90905675575E+02 0.  0.
          5    1    1    2  502    0  0.47937118303E+02  0.10662873660E+03 -0.13599083970E+03  0.17938404517E+03  0.41800000000E+01 0. -1.
         -5    1    1    2    0  502  0.33606898377E+02 -0.26054544675E+02 -0.45918753469E+02  0.62723737427E+02  0.41800000000E+01 0.  1.
        -11    1    3    3    0    0 -0.56133984387E+02 -0.51020558653E+01 -0.96547769320E+01  0.57186273658E+02  0.00000000000E+00 0. -1.
         11    1    3    3    0    0 -0.25410032292E+02 -0.75472136062E+02 -0.88180612768E+02  0.11881722742E+03  0.00000000000E+00 0.  1.
</event>
<event>
 7    1  0.6584658E-006  0.1112004E+03  0.7561462E-02  0.1258363E+00
         -1   -1    0    0    0  501 -0.00000000000E+00  0.00000000000E+00  0.54257270495E+02  0.54257270495E+02  0.00000000000E+00 0.  1.
          1   -1    0    0  501    0  0.00000000000E+00 -0.00000000000E+00 -0.36833465015E+03  0.36833465015E+03  0.00000000000E+00 0. -1.
         23    2    1    2    0    0 -0.67198666191E+02  0.15648067640E+02 -0.20653478365E+03  0.23674406473E+03  0.92901090231E+02 0.  0.
          5    1    1    2  502    0  0.82540765767E+02  0.23490771858E+01 -0.12927850413E+03  0.15345650917E+03  0.41800000000E+01 0. -1.
         -5    1    1    2    0  502 -0.15342099576E+02 -0.17997144826E+02  0.21735908134E+02  0.32391346741E+02  0.41800000000E+01 0.  1.
        -11    1    3    3    0    0 -0.23978979722E+02 -0.39152781228E+02 -0.80108403064E+02  0.92332486091E+02  0.00000000000E+00 0. -1.
         11    1    3    3    0    0 -0.43219686469E+02  0.54800848868E+02 -0.12642638059E+03  0.14441157864E+03  0.00000000000E+00 0.  1.
</event>
<event>
 7    1  0.6584658E-006  0.6382498E+02  0.7561462E-02  0.1382447E+00
         -1   -1    0    0    0  501 -0.00000000000E+00  0.00000000000E+00  0.12658657153E+03  0.12658657153E+03  0.00000000000E+00 0.  1.
          1   -1    0    0  501    0  0.00000000000E+00 -0.00000000000E+00 -0.10742193444E+03  0.10742193444E+03  0.00000000000E+00 0. -1.
         23    2    1    2    0    0  0.35843064020E+02  0.11799481302E+02 -0.18961702882E+01  0.10166398127E+03  0.94382289800E+02 0.  0.
          5    1    1    2  502    0  0.33298289013E+01  0.63156567806E+01  0.67966029478E+02  0.68467721183E+02  0.41800000000E+01 0.  1.
         -5    1    1    2    0  502 -0.39172892921E+02 -0.18115138083E+02 -0.46905222097E+02  0.63876803516E+02  0.41800000000E+01 0.  1.
        -11    1    3    3    0    0  0.43452869606E+02 -0.16674746219E+02  0.32199477919E+02  0.56595100642E+02  0.00000000000E+00 0.  1.
         11    1    3    3    0    0 -0.76098055864E+01  0.28474227522E+02 -0.34095648207E+02  0.45068880624E+02  0.00000000000E+00 0. -1.
</event>
<event>
 7    1  0.6584658E-006  0.7180333E+02  0.7561462E-02  0.1354066E+00
         -1   -1    0    0    0  501 -0.00000000000E+00  0.00000000000E+00  0.12102436758E+03  0.12102436758E+03  0.00000000000E+00 0.  1.
          1   -1    0    0  501    0  0.00000000000E+00 -0.00000000000E+00 -0.14279228695E+03  0.14279228695E+03  0.00000000000E+00 0. -1.
         23    2    1    2    0    0  0.30723190826E+02 -0.11503327135E+02 -0.76464113495E+02  0.12340310627E+03  0.91133555813E+02 0.  0.
          5    1    1    2  502    0  0.16611135447E+01 -0.40174471733E+02  0.66816656077E+02  0.78094080484E+02  0.41800000000E+01 0. -1.
         -5    1    1    2    0  502 -0.32384304371E+02  0.51677798867E+02 -0.12120461957E+02  0.62319467772E+02  0.41800000000E+01 0. -1.
        -11    1    3    3    0    0  0.30430691060E+02  0.11380904097E+00 -0.95980415062E+02  0.10068902615E+03  0.00000000000E+00 0. -1.
         11    1    3    3    0    0  0.29249976603E+00 -0.11617136175E+02  0.19516301567E+02  0.22714080124E+02  0.00000000000E+00 0.  1.
</event>
<event>
 7    1  0.6584658E-006  0.1922191E+03  0.7561462E-02  0.1156475E+00
          1   -1    0    0  501    0  0.00000000000E+00  0.00000000000E+00  0.26305615795E+03  0.26305615795E+03  0.00000000000E+00 0. -1.
         -1   -1    0    0    0  501 -0.00000000000E+00 -0.00000000000E+00 -0.29313931455E+03  0.29313931455E+03  0.00000000000E+00 0.  1.
         23    2    1    2    0    0  0.10811068849E+03  0.22951770242E+02  0.15965229368E+03  0.21498406092E+03  0.92274518966E+02 0.  0.
          5    1    1    2  502    0 -0.17700844508E+03 -0.31619556916E+02 -0.52522546087E+02  0.18737095895E+03  0.41800000000E+01 0. -1.
         -5    1    1    2    0  502  0.68897756590E+02  0.86677866738E+01 -0.13721290418E+03  0.15384045262E+03  0.41800000000E+01 0.  1.
        -11    1    3    3    0    0  0.51851058324E+02  0.50492010845E+02  0.47636744860E+02  0.86644300847E+02  0.00000000000E+00 0.  1.
         11    1    3    3    0    0  0.56259630170E+02 -0.27540240603E+02  0.11201554882E+03  0.12833976007E+03  0.00000000000E+00 0. -1.
</event>
<event>
 7    1  0.6584658E-006  0.9991174E+02  0.7561462E-02  0.1280482E+00
          2   -1    0    0  501    0  0.00000000000E+00  0.00000000000E+00  0.35833036349E+03  0.35833036349E+03  0.00000000000E+00 0. -1.
         -2   -1    0    0    0  501 -0.00000000000E+00 -0.00000000000E+00 -0.42814793840E+02  0.42814793840E+02  0.00000000000E+00 0.  1.
         23    2    1    2    0    0 -0.55675603380E+02 -0.30029096169E+00  0.17827164412E+03  0.20728234692E+03  0.89918458973E+02 0.  0.
          5    1    1    2  502    0  0.13077646266E+02 -0.48084881476E+02  0.11523309404E+03  0.12561575944E+03  0.41800000000E+01 0. -1.
         -5    1    1    2    0  502  0.42597957115E+02  0.48385172438E+02  0.22010831494E+02  0.68247050963E+02  0.41800000000E+01 0. -1.
        -11    1    3    3    0    0 -0.68790323494E+01  0.27982886675E+02  0.11146350067E+02  0.30896668955E+02  0.00000000000E+00 0.  1.
         11    1    3    3    0    0 -0.48796571031E+02 -0.28283177636E+02  0.16712529405E+03  0.17638567797E+03  0.00000000000E+00 0. -1.
</event>
<event>
 7    1  0.6584658E-006  0.1153828E+03  0.7561462E-02  0.1250914E+00
          2   -1    0    0  501    0  0.00000000000E+00  0.00000000000E+00  0.57967684664E+02  0.57967684664E+02  0.00000000000E+00 0. -1.
         -2   -1    0    0    0  501 -0.00000000000E+00 -0.00000000000E+00 -0.23770852381E+03  0.23770852381E+03  0.00000000000E+00 0.  1.
         23    2    1    2    0    0  0.37923611597E+02 -0.12896841757E+02 -0.53103433043E+02  0.11323013259E+03  0.91632742411E+02 0.  0.
          5    1    1    2  502    0  0.20375977654E+02 -0.44337118335E+02 -0.55697138608E+02  0.74166058118E+02  0.41800000000E+01 0.  1.
         -5    1    1    2    0  502 -0.58299589251E+02  0.57233960092E+02 -0.70940267494E+02  0.10828001776E+03  0.41800000000E+01 0.  1.
        -11    1    3    3    0    0 -0.30407992649E+02 -0.81995376888E+01 -0.17741188894E+02  0.36147312744E+02  0.00000000000E+00 0. -1.
         11    1    3    3    0    0  0.68331604246E+02 -0.46973040684E+01 -0.35362244149E+02  0.77082819847E+02  0.00000000000E+00 0.  1.
</event>
<event>
 7    1  0.6584658E-006  0.1282089E+03  0.7561462E-02  0.1230138E+00
          4   -1    0    0  501    0  0.00000000000E+00  0.00000000000E+00  0.12862482564E+03  0.12862482564E+03  0.00000000000E+00 0. -1.
         -4   -1    0    0    0  501 -0.00000000000E+00 -0.00000000000E+00 -0.21229968396E+03  0.21229968396E+03  0.00000000000E+00 0.  1.
         23    2    1    2    0    0  0.10784354783E+03  0.40726196244E+02  0.10607065985E+02  0.14643633692E+03  0.89678520576E+02 0.  0.
          5    1    1    2  502    0 -0.95327146853E+01 -0.17970698526E+02  0.28652358700E+02  0.35387126386E+02  0.41800000000E+01 0.  1.
         -5    1    1    2    0  502 -0.98310833148E+02 -0.22755497718E+02 -0.12293428301E+03  0.15910104629E+03  0.41800000000E+01 0.  1.
        -11    1    3    3    0    0  0.88583395788E+02 -0.11171434833E+01 -0.20400469824E+02  0.90908993988E+02  0.00000000000E+00 0.  1.
         11    1    3    3    0    0  0.19260152046E+02  0.41843339728E+02  0.31007535810E+02  0.55527342935E+02  0.00000000000E+00 0. -1.
</event>
<event>
 7    1  0.6584658E-006  0.1706876E+03  0.7561462E-02  0.1177133E+00
          2   -1    0    0  501    0  0.00000000000E+00  0.00000000000E+00  0.15910201798E+03  0.15910201798E+03  0.00000000000E+00 0. -1.
         -2   -1    0    0    0  501 -0.00000000000E+00 -0.00000000000E+00 -0.20048806050E+03  0.20048806050E+03  0.00000000000E+00 0.  1.
         23    2    1    2    0    0  0.41804037329E+02  0.13369367951E+03 -0.16341651773E+02  0.17012558776E+03  0.95152974458E+02 0.  0.
          5    1    1    2  502    0 -0.75681385042E+02 -0.44682092539E+02 -0.32604017437E+02  0.93833127352E+02  0.41800000000E+01 0. -1.
         -5    1    1    2    0  502  0.33877347713E+02 -0.89011586974E+02  0.75596266868E+01  0.95631363367E+02  0.41800000000E+01 0. -1.
        -11    1    3    3    0    0  0.13749821754E+02  0.12885692960E+03 -0.37213567024E+02  0.13482587094E+03  0.00000000000E+00 0.  1.
         11    1    3    3    0    0  0.28054215575E+02  0.48367499165E+01  0.20871915251E+02  0.35299716820E+02  0.00000000000E+00 0. -1.
</event>
<event>
 7    1  0.6584658E-006  0.1338313E+03  0.7561462E-02  0.1221879E+00
         -1   -1    0    0    0  501 -0.00000000000E+00  0.00000000000E+00  0.34356582548E+03  0.34356582548E+03  0.00000000000E+00 0.  1.
          1   -1    0    0  501    0  0.00000000000E+00 -0.00000000000E+00 -0.11139405621E+03  0.11139405621E+03  0.00000000000E+00 0. -1.
         23    2    1    2    0    0 -0.11254509616E+03  0.65857626631E+02 -0.26273676194E+01  0.15867131950E+03  0.90366248772E+02 0.  0.
          5    1    1    2  502    0  0.51711535573E+02 -0.35830939952E+02  0.13090775532E+02  0.64395496529E+02  0.41800000000E+01 0.  1.
         -5    1    1    2    0  502  0.60833560583E+02 -0.30026686679E+02  0.22170836136E+03  0.23189306566E+03  0.41800000000E+01 0.  1.
        -11    1    3    3    0    0 -0.44775469554E+02  0.41141767902E+01  0.37544298189E+02  0.58577670242E+02  0.00000000000E+00 0.  1.
         11    1    3    3    0    0 -0.67769626602E+02  0.61743449841E+02 -0.40171665809E+02  0.10009364926E+03  0.00000000000E+00 0. -1.
</event>
<event>
 7    1  0.6584658E-006  0.1026089E+03  0.7561462E-02  0.1274904E+00
         -3   -1    0    0    0  501 -0.00000000000E+00  0.00000000000E+00  0.11758109201E+04  0.11758109201E+04  0.00000000000E+00 0.  1.
          3   -1    0    0  501    0  0.00000000000E+00 -0.00000000000E+00 -0.16067773792E+02  0.16067773792E+02  0.00000000000E+00 0. -1.
         23    2    1    2    0    0  0.66013583017E+01 -0.73295595856E+02  0.34611142978E+03  0.36540455298E+03  0.91167665388E+02 0.  0.
          5    1    1    2  502    0 -0.24304195160E+02  0.62033826926E+02  0.79587965408E+03  0.79867439283E+03  0.41800000000E+01 0.  1.
         -5    1    1    2    0  502  0.17702836859E+02  0.11261768930E+02  0.17752062455E+02  0.27799748087E+02  0.41800000000E+01 0.  1.
        -11    1    3    3    0    0 -0.40850728498E+02 -0.48881159202E+02  0.19567159528E+03  0.20578027831E+03  0.00000000000E+00 0. -1.
         11    1    3    3    0    0  0.47452086800E+02 -0.24414436655E+02  0.15043983450E+03  0.15962427467E+03  0.00000000000E+00 0.  1.
</event>
<event>
 7    1  0.6584658E-006  0.6157033E+02  0.7561462E-02  0.1391357E+00
         -3   -1    0    0    0  501 -0.00000000000E+00  0.00000000000E+00  0.28259341457E+02  0.28259341457E+02  0.00000000000E+00 0.  1.
          3   -1    0    0  501    0  0.00000000000E+00 -0.00000000000E+00 -0.43482550383E+03  0.43482550383E+03  0.00000000000E+00 0. -1.
         23    2    1    2    0    0  0.11031976570E+02 -0.14047922004E+02 -0.22646028287E+03  0.24307334796E+03  0.86494763720E+02 0.  0.
          5    1    1    2  502    0 -0.23856226670E+02 -0.56231887127E+01  0.11167568509E+02  0.27256683375E+02  0.41800000000E+01 0.  1.
         -5    1    1    2    0  502  0.12824250100E+02  0.19671110717E+02 -0.19127344802E+03  0.19275481396E+03  0.41800000000E+01 0.  1.
        -11    1    3    3    0    0  0.25275362123E+02 -0.38542397344E+02 -0.19651393877E+03  0.20184669542E+03  0.00000000000E+00 0. -1.
         11    1    3    3    0    0 -0.14243385553E+02  0.24494475340E+02 -0.29946344101E+02  0.41226652535E+02  0.00000000000E+00 0.  1.
</event>
<event>
 7    1  0.6584658E-006  0.9354100E+02  0.7561462E-02  0.1294496E+00
          2   -1    0    0  501    0  0.00000000000E+00  0.00000000000E+00  0.46790980547E+02  0.46790980547E+02  0.00000000000E+00 0. -1.
         -2   -1    0    0    0  501 -0.00000000000E+00 -0.00000000000E+00 -0.31348817079E+03  0.31348817079E+03  0.00000000000E+00 0.  1.
         23    2    1    2    0    0 -0.30700099117E+02  0.33400569769E+02 -0.67514346584E+02  0.12074417638E+03  0.89234942638E+02 0.  0.
          5    1    1    2  502    0  0.74486317980E+02 -0.18868249659E+02 -0.16468498513E+03  0.18177689385E+03  0.41800000000E+01 0. -1.
         -5    1    1    2    0  502 -0.43786218863E+02 -0.14532320111E+02 -0.34497858527E+02  0.57758081106E+02  0.41800000000E+01 0. -1.
        -11    1    3    3    0    0  0.11830057227E+02  0.76231652123E+01 -0.69560534549E+02  0.70969929326E+02  0.00000000000E+00 0.  1.
         11    1    3    3    0    0 -0.42530156344E+02  0.25777404557E+02  0.20461879646E+01  0.49774247051E+02  0.00000000000E+00 0. -1.
</event>
<event>
 7    1  0.6584658E-006  0.1279318E+03  0.7561462E-02  0.1230557E+00
         -1   -1    0    0    0  501 -0.00000000000E+00  0.00000000000E+00  0.26471099786E+03  0.26471099786E+03  0.00000000000E+00 0.  1.
          1   -1    0    0  501    0  0.00000000000E+00 -0.00000000000E+00 -0.97130322181E+02  0.97130322181E+02  0.00000000000E+00 0. -1.
         23    2    1    2    0    0  0.56593725880E+02  0.75245220361E+02 -0.18156640085E+01  0.13117256898E+03  0.91314036274E+02 0.  0.
          5    1    1    2  502    0 -0.88774627766E+02 -0.84570023290E+02  0.13649773553E+03  0.18352691241E+03  0.41800000000E+01 0. -1.
         -5    1    1    2    0  502  0.32180901886E+02  0.93248029288E+01  0.32898604154E+02  0.47141838648E+02  0.41800000000E+01 0. -1.
        -11    1    3    3    0    0  0.23458215510E+02  0.56895411072E+02 -0.43109163877E+02  0.75138376919E+02  0.00000000000E+00 0. -1.
         11    1    3    3    0    0  0.33135510370E+02  0.18349809290E+02  0.41293499868E+02  0.56034192060E+02  0.00000000000E+00 0.  1.
</event>
<event>
 7    1  0.6584658E-006  0.9700498E+02  0.7561462E-02  0.1286723E+00
         -1   -1    0    0    0  501 -0.00000000000E+00  0.00000000000E+00  0.74369447969E+03  0.74369447969E+03  0.00000000000E+00 0.  1.
          1   -1    0    0  501    0  0.00000000000E+00 -0.00000000000E+00 -0.35013009413E+02  0.35013009413E+02  0.00000000000E+00 0. -1.
         23    2    1    2    0    0 -0.31227411744E+02 -0.48798927582E+02  0.78450826991E+02  0.13357261071E+03  0.91272249333E+02 0.  0.
          5    1    1    2  502    0  0.55907276522E+02  0.44743404817E+02  0.17406471306E+03  0.18826468754E+03  0.41800000000E+01 0. -1.
         -5    1    1    2    0  502 -0.24679864778E+02  0.40555227651E+01  0.45616593023E+03  0.45687019086E+03  0.41800000000E+01 0. -1.
        -11    1    3    3    0    0  0.10678579886E+02 -0.53681777732E+02  0.72688939573E+02  0.90991468090E+02  0.00000000000E+00 0.  1.
         11    1    3    3    0    0 -0.41905991630E+02  0.48828501496E+01  0.57618874179E+01  0.42581142618E+02  0.00000000000E+00 0. -1.
</event>
<event>
 7    1  0.6584658E-006  0.1146654E+03  0.7561462E-02  0.1252166E+00
         -1   -1    0    0    0  501 -0.00000000000E+00  0.00000000000E+00  0.55549085964E+03  0.55549085964E+03  0.00000000000E+00 0.  1.
          1   -1    0    0  501    0  0.00000000000E+00 -0.00000000000E+00 -0.46639796019E+02  0.46639796019E+02  0.00000000000E+00 0. -1.
         23    2    1    2    0    0  0.62622592501E+02 -0.61654725512E+02  0.85760146334E+02  0.15226781178E+03  0.90043264800E+02 0.  0.
          5    1    1    2  502    0 -0.61284073793E+02 -0.14844549609E+02  0.10394836458E+03  0.12165045521E+03  0.41800000000E+01 0. -1.
         -5    1    1    2    0  502 -0.13385187084E+01  0.76499275121E+02  0.31914255272E+03  0.32821238868E+03  0.41800000000E+01 0. -1.
        -11    1    3    3    0    0  0.44844405119E+02 -0.32573907705E+02 -0.46745708556E+01  0.55623122408E+02  0.00000000000E+00 0.  1.
         11    1    3    3    0    0  0.17778187382E+02 -0.29080817807E+02  0.90434717190E+02  0.96644689373E+02  0.00000000000E+00 0. -1.
</event>
<event>
 7    1  0.6584658E-006  0.8378804E+02  0.7561462E-02  0.1318633E+00
         -2   -1    0    0    0  501 -0.00000000000E+00  0.00000000000E+00  0.65872243275E+02  0.65872243275E+02  0.00000000000E+00 0.  1.
          2   -1    0    0  501    0  0.00000000000E+00 -0.00000000000E+00 -0.22070144512E+03  0.22070144512E+03  0.00000000000E+00 0. -1.
         23    2    1    2    0    0  0.33955472172E+02  0.33197232375E+02 -0.95714077535E+02  0.14029536078E+03  0.90920697817E+02 0.  0.
          5    1    1    2  502    0 -0.47079969892E+02  0.11647252931E+01 -0.87615737909E+02  0.99558375234E+02  0.41800000000E+01 0.  1.
         -5    1    1    2    0  502  0.13124497719E+02 -0.34361957668E+02  0.28500613594E+02  0.46719952381E+02  0.41800000000E+01 0.  1.
        -11    1    3    3    0    0 -0.15097152158E+02  0.30639991503E+02 -0.16722296565E+01  0.34198383509E+02  0.00000000000E+00 0.  1.
         11    1    3    3    0    0  0.49052624331E+02  0.25572408717E+01 -0.94041847878E+02  0.10609697728E+03  0.00000000000E+00 0. -1.
</event>
<event>
 7    1  0.6584658E-006  0.2493540E+03  0.7561462E-02  0.1113714E+00
         -2   -1    0    0    0  501 -0.00000000000E+00  0.00000000000E+00  0.14659294576E+03  0.14659294576E+03  0.00000000000E+00 0.  1.
          2   -1    0    0  501    0  0.00000000000E+00 -0.00000000000E+00 -0.51659704297E+03  0.51659704297E+03  0.00000000000E+00 0. -1.
         23    2    1    2    0    0 -0.17291211637E+03 -0.16235355464E+03 -0.28945103207E+03  0.38320527622E+03  0.82505194183E+02 0.  0.
          5    1    1    2  502    0  0.10963231936E+03  0.33466898487E+02 -0.73369953201E+02  0.13616130572E+03  0.41800000000E+01 0.  1.
         -5    1    1    2    0  502  0.63279797012E+02  0.12888665615E+03 -0.71831119415E+01  0.14382340679E+03  0.41800000000E+01 0.  1.
        -11    1    3    3    0    0 -0.70131882346E+02 -0.40638140340E+02 -0.15429662811E+03  0.17429110367E+03  0.00000000000E+00 0. -1.
         11    1    3    3    0    0 -0.10278023402E+03 -0.12171541430E+03 -0.13515440396E+03  0.20891417255E+03  0.00000000000E+00 0.  1.
</event>
<event>
 7    1  0.9869160E-006  0.1811734E+03  0.7561462E-02  0.1166672E+00
         -1   -1    0    0    0  501 -0.00000000000E+00  0.00000000000E+00  0.38298236848E+02  0.38298236848E+02  0.00000000000E+00 0.  1.
          1   -1    0    0  501    0  0.00000000000E+00 -0.00000000000E+00 -0.10277119759E+04  0.10277119759E+04  0.00000000000E+00 0. -1.
         23    2    1    2    0    0 -0.12560067930E+03 -0.97281837296E+02 -0.59872814094E+03  0.62609902445E+03  0.91023706540E+02 0.  0.
          5    1    1    2  502    0  0.42089654565E+02  0.93932136831E+02 -0.12850242200E+03  0.16469708623E+03  0.41800000000E+01 0. -1.
         -5    1    1    2    0  502  0.83511024737E+02  0.33497004646E+01 -0.26218317614E+03  0.27521410210E+03  0.41800000000E+01 0. -1.
        -11    1    3    3    0    0 -0.11453779137E+03 -0.46402864086E+02 -0.33016683610E+03  0.35253690744E+03  0.00000000000E+00 0.  1.
         11    1    3    3    0    0 -0.11062887933E+02 -0.50878973210E+02 -0.26856130485E+03  0.27356211702E+03  0.00000000000E+00 0. -1.
</event>
<event>
 7    1  0.6584658E-006  0.1139135E+03  0.7561462E-02  0.1253490E+00
          1   -1    0    0  501    0  0.00000000000E+00  0.00000000000E+00  0.25378461763E+03  0.25378461763E+03  0.00000000000E+00 0. -1.
         -1   -1    0    0    0  501 -0.00000000000E+00 -0.00000000000E+00 -0.65558175206E+02  0.65558175206E+02  0.00000000000E+00 0.  1.
         23    2    1    2    0    0  0.25927142546E+02 -0.27161533747E+02  0.15386340546E+03  0.18429613498E+03  0.94239865201E+02 0.  0.
          5    1    1    2  502    0 -0.25804075503E+01 -0.49746119719E+02  0.10226244285E+02  0.51023361340E+02  0.41800000000E+01 0.  1.
         -5    1    1    2    0  502 -0.23346734995E+02  0.76907653466E+02  0.24136792680E+02  0.84023296517E+02  0.41800000000E+01 0.  1.
        -11    1    3    3    0    0 -0.33043345675E+02 -0.15916191993E+01  0.78869572453E+02  0.85526635640E+02  0.00000000000E+00 0. -1.
         11    1    3    3    0    0  0.58970488220E+02 -0.25569914548E+02  0.74993833006E+02  0.98769499340E+02  0.00000000000E+00 0.  1.
</event>
<event>
 7    1  0.6584658E-006  0.1454230E+03  0.7561462E-02  0.1206213E+00
         -2   -1    0    0    0  501 -0.00000000000E+00  0.00000000000E+00  0.45106312381E+02  0.45106312381E+02  0.00000000000E+00 0. -1.
          2   -1    0    0  501    0  0.00000000000E+00 -0.00000000000E+00 -0.52634861891E+03  0.52634861891E+03  0.00000000000E+00 0.  1.
         23    2    1    2    0    0 -0.16267934110E+02 -0.10494315341E+03 -0.25753794669E+03  0.29402159210E+03  0.94048878284E+02 0.  0.
          5    1    1    2  502    0 -0.40078810399E+02  0.97804503086E+02 -0.12785196309E+03  0.16593862942E+03  0.41800000000E+01 0. -1.
         -5    1    1    2    0  502  0.56346744509E+02  0.71386503256E+01 -0.95852396752E+02  0.11149470978E+03  0.41800000000E+01 0. -1.
        -11    1    3    3    0    0 -0.44286320521E+02 -0.52739754221E+02 -0.73682327912E+02  0.10085556656E+03  0.00000000000E+00 0. -1.
         11    1    3    3    0    0  0.28018386411E+02 -0.52203399191E+02 -0.18385561878E+03  0.19316602554E+03  0.00000000000E+00 0.  1.
</event>
<event>
 7    1  0.6584658E-006  0.7383120E+02  0.7561462E-02  0.1347529E+00
         -2   -1    0    0    0  501 -0.00000000000E+00  0.00000000000E+00  0.47104458356E+03  0.47104458356E+03  0.00000000000E+00 0.  1.
          2   -1    0    0  501    0  0.00000000000E+00 -0.00000000000E+00 -0.63391604997E+02  0.63391604997E+02  0.00000000000E+00 0. -1.
         23    2    1    2    0    0  0.24178219507E+02  0.77447038537E+01  0.13148225437E+03  0.16256610196E+03  0.92171511626E+02 0.  0.
          5    1    1    2  502    0  0.10681247912E+02  0.23030975607E+02 -0.42562883174E+02  0.49735161792E+02  0.41800000000E+01 0. -1.
         -5    1    1    2    0  502 -0.34859467419E+02 -0.30775679461E+02  0.31873360737E+03  0.32213492481E+03  0.41800000000E+01 0.  1.
        -11    1    3    3    0    0  0.48864335955E+02 -0.14928099508E+01  0.12666485577E+03  0.13577163731E+03  0.00000000000E+00 0.  1.
         11    1    3    3    0    0 -0.24686116447E+02  0.92375138046E+01  0.48173985965E+01  0.26794464648E+02  0.00000000000E+00 0. -1.
</event>
<event>
 7    1  0.6584658E-006  0.1218769E+03  0.7561462E-02  0.1240033E+00
          1   -1    0    0  501    0  0.00000000000E+00  0.00000000000E+00  0.27000789223E+03  0.27000789223E+03  0.00000000000E+00 0. -1.
         -1   -1    0    0    0  501 -0.00000000000E+00 -0.00000000000E+00 -0.68945869336E+02  0.68945869336E+02  0.00000000000E+00 0.  1.
         23    2    1    2    0    0  0.59056167330E+01  0.16373507588E+01  0.66037035073E+02  0.11298794544E+03  0.91475836077E+02 0.  0.
          5    1    1    2  502    0  0.69481544892E+02  0.29054932511E+02  0.12199228538E+03  0.14342755759E+03  0.41800000000E+01 0. -1.
         -5    1    1    2    0  502 -0.75387161625E+02 -0.30692283270E+02  0.13032702442E+02  0.82538258542E+02  0.41800000000E+01 0.  1.
        -11    1    3    3    0    0  0.31792994712E+02  0.33222950054E+02  0.52890245692E+02  0.70085212509E+02  0.00000000000E+00 0. -1.
         11    1    3    3    0    0 -0.25887377979E+02 -0.31585599295E+02  0.13146789380E+02  0.42902732926E+02  0.00000000000E+00 0.  1.
</event>
<event>
 7    1  0.6584658E-006  0.6948700E+02  0.7561462E-02  0.1361846E+00
         -1   -1    0    0    0  501 -0.00000000000E+00  0.00000000000E+00  0.14989497673E+03  0.14989497673E+03  0.00000000000E+00 0.  1.
          1   -1    0    0  501    0  0.00000000000E+00 -0.00000000000E+00 -0.86707380589E+02  0.86707380589E+02  0.00000000000E+00 0. -1.
         23    2    1    2    0    0  0.10138669431E+02 -0.32573981651E+02  0.24234594201E+02  0.10121826222E+03  0.92162704780E+02 0.  0.
          5    1    1    2  502    0  0.25530848064E+02  0.28682855765E+02  0.74993284527E+02  0.84356360412E+02  0.41800000000E+01 0. -1.
         -5    1    1    2    0  502 -0.35669517495E+02  0.38911258857E+01 -0.36040282584E+02  0.51027734691E+02  0.41800000000E+01 0. -1.
        -11    1    3    3    0    0 -0.18171866986E+02  0.33573447338E+01 -0.26882602990E+02  0.32621509115E+02  0.00000000000E+00 0. -1.
         11    1    3    3    0    0  0.28310536417E+02 -0.35931326385E+02  0.51117197191E+02  0.68596753106E+02  0.00000000000E+00 0.  1.
</event>
<event>
 7    1  0.6584658E-006  0.1583404E+03  0.7561462E-02  0.1190583E+00
         -2   -1    0    0    0  501 -0.00000000000E+00  0.00000000000E+00  0.12203177260E+03  0.12203177260E+03  0.00000000000E+00 0.  1.
          2   -1    0    0  501    0  0.00000000000E+00 -0.00000000000E+00 -0.28743632576E+03  0.28743632576E+03  0.00000000000E+00 0. -1.
         23    2    1    2    0    0  0.11386563664E+03 -0.88137721527E+02 -0.13215964471E+03  0.21585394394E+03  0.91613930499E+02 0.  0.
          5    1    1    2  502    0 -0.34488542796E+02  0.13351943199E+02  0.45684294501E+02  0.58925895287E+02  0.41800000000E+01 0. -1.
         -5    1    1    2    0  502 -0.79377093849E+02  0.74785778328E+02 -0.78929202955E+02  0.13468825913E+03  0.41800000000E+01 0. -1.
        -11    1    3    3    0    0  0.10783161328E+03 -0.10615960620E+03 -0.12151600550E+03  0.19407127145E+03  0.00000000000E+00 0.  1.
         11    1    3    3    0    0  0.60340233675E+01  0.18021884673E+02 -0.10643639208E+02  0.21782672489E+02  0.00000000000E+00 0. -1.
</event>
<event>
 7    1  0.6584658E-006  0.8168716E+02  0.7561462E-02  0.1324331E+00
         -2   -1    0    0    0  501 -0.00000000000E+00  0.00000000000E+00  0.31906431971E+03  0.31906431971E+03  0.00000000000E+00 0.  1.
          2   -1    0    0  501    0  0.00000000000E+00 -0.00000000000E+00 -0.68818039060E+02  0.68818039060E+02  0.00000000000E+00 0. -1.
         23    2    1    2    0    0 -0.43712659292E+01 -0.10303346012E+02 -0.18038655978E+02  0.91655794025E+02  0.89163471018E+02 0.  0.
          5    1    1    2  502    0  0.41828439066E+02  0.15803062032E+02  0.27959287863E+02  0.52901316261E+02  0.41800000000E+01 0. -1.
         -5    1    1    2    0  502 -0.37457173137E+02 -0.54997160205E+01  0.24032564877E+03  0.24332524849E+03  0.41800000000E+01 0. -1.
        -11    1    3    3    0    0 -0.57493723490E+01  0.34790058473E+02 -0.28505839434E+02  0.45342985486E+02  0.00000000000E+00 0.  1.
         11    1    3    3    0    0  0.13781064198E+01 -0.45093404485E+02  0.10467183455E+02  0.46312808539E+02  0.00000000000E+00 0. -1.
</event>
<event>
 7    1  0.6584658E-006  0.5286236E+02  0.7561462E-02  0.1430487E+00
         -3   -1    0    0    0  501 -0.00000000000E+00  0.00000000000E+00  0.20116982392E+03  0.20116982392E+03  0.00000000000E+00 0.  1.
          3   -1    0    0  501    0  0.00000000000E+00 -0.00000000000E+00 -0.62033975787E+02  0.62033975787E+02  0.00000000000E+00 0. -1.
         23    2    1    2    0    0  0.95458797624E+01 -0.25735676059E+00  0.42448068339E+02  0.10481566860E+03  0.95358774247E+02 0.  0.
          5    1    1    2  502    0  0.16417849948E+02  0.15486379064E+02  0.11867786668E+03  0.12087713668E+03  0.41800000000E+01 0. -1.
         -5    1    1    2    0  502 -0.25963729711E+02 -0.15229022303E+02 -0.21990086888E+02  0.37510994417E+02  0.41800000000E+01 0. -1.
        -11    1    3    3    0    0  0.17633189363E+02 -0.22574463722E+02 -0.22010861223E+02  0.36124974619E+02  0.00000000000E+00 0. -1.
         11    1    3    3    0    0 -0.80873096009E+01  0.22317106961E+02  0.64458929562E+02  0.68690693984E+02  0.00000000000E+00 0.  1.
</event>
<event>
 7    1  0.6584658E-006  0.9746552E+02  0.7561462E-02  0.1285718E+00
         -1   -1    0    0    0  501 -0.00000000000E+00  0.00000000000E+00  0.32070251876E+03  0.32070251876E+03  0.00000000000E+00 0.  1.
          1   -1    0    0  501    0  0.00000000000E+00 -0.00000000000E+00 -0.44869158101E+02  0.44869158101E+02  0.00000000000E+00 0. -1.
         23    2    1    2    0    0 -0.47758796683E+02 -0.18920331004E+02  0.92192272460E+02  0.13751545384E+03  0.88160100706E+02 0.  0.
          5    1    1    2  502    0 -0.31782334438E+02 -0.16788272085E+02  0.10317758906E+03  0.10933915193E+03  0.41800000000E+01 0. -1.
         -5    1    1    2    0  502  0.79541131121E+02  0.35708603088E+02  0.80463499141E+02  0.11871707109E+03  0.41800000000E+01 0. -1.
        -11    1    3    3    0    0 -0.12415443104E+02  0.17008074406E+02 -0.10195578476E+02  0.23395889445E+02  0.00000000000E+00 0. -1.
         11    1    3    3    0    0 -0.35343353579E+02 -0.35928405409E+02  0.10238785094E+03  0.11411956439E+03  0.00000000000E+00 0.  1.
</event>
<event>
 7    1  0.6584658E-006  0.1157163E+03  0.7561462E-02  0.1250336E+00
          2   -1    0    0  501    0  0.00000000000E+00  0.00000000000E+00  0.99656981672E+01  0.99656981672E+01  0.00000000000E+00 0. -1.
         -2   -1    0    0    0  501 -0.00000000000E+00 -0.00000000000E+00 -0.14411803959E+04  0.14411803959E+04  0.00000000000E+00 0.  1.
         23    2    1    2    0    0 -0.19747653986E+02  0.37596782673E+02 -0.45097102632E+03  0.46204122196E+03  0.91124839142E+02 0.  0.
          5    1    1    2  502    0 -0.43748131548E+02 -0.50688837217E+02 -0.48467330668E+03  0.48929433252E+03  0.41800000000E+01 0. -1.
         -5    1    1    2    0  502  0.63495785533E+02  0.13092054544E+02 -0.49557036471E+03  0.49981053956E+03  0.41800000000E+01 0. -1.
        -11    1    3    3    0    0  0.22228025061E+02  0.50738818902E+02 -0.21607893150E+03  0.22306639702E+03  0.00000000000E+00 0. -1.
         11    1    3    3    0    0 -0.41975679047E+02 -0.13142036229E+02 -0.23489209482E+03  0.23897482494E+03  0.00000000000E+00 0.  1.
</event>
<event>
 7    1  0.6584658E-006  0.2212438E+03  0.7561462E-02  0.1132959E+00
          1   -1    0    0  501    0  0.00000000000E+00  0.00000000000E+00  0.26604765722E+03  0.26604765722E+03  0.00000000000E+00 0. -1.
         -1   -1    0    0    0  501 -0.00000000000E+00 -0.00000000000E+00 -0.20234657670E+03  0.20234657670E+03  0.00000000000E+00 0.  1.
         23    2    1    2    0    0 -0.14861282880E+03 -0.12407081085E+03  0.98588832505E+02  0.23527382259E+03  0.90303237556E+02 0.  0.
          5    1    1    2  502    0  0.13237219875E+03  0.32480715551E+02 -0.99470575766E+01  0.13672531674E+03  0.41800000000E+01 0.  1.
         -5    1    1    2    0  502  0.16240630054E+02  0.91590095302E+02 -0.24940694413E+02  0.96395094584E+02  0.41800000000E+01 0.  1.
        -11    1    3    3    0    0 -0.12212911908E+03 -0.45888234862E+02  0.68972875106E+02  0.14757543605E+03  0.00000000000E+00 0. -1.
         11    1    3    3    0    0 -0.26483709722E+02 -0.78182575991E+02  0.29615957399E+02  0.87698386541E+02  0.00000000000E+00 0.  1.
</event>
<event>
 7    1  0.6584658E-006  0.1664868E+03  0.7561462E-02  0.1181562E+00
         -1   -1    0    0    0  501 -0.00000000000E+00  0.00000000000E+00  0.17734872252E+03  0.17734872252E+03  0.00000000000E+00 0.  1.
          1   -1    0    0  501    0  0.00000000000E+00 -0.00000000000E+00 -0.16229623178E+03  0.16229623178E+03  0.00000000000E+00 0. -1.
         23    2    1    2    0    0  0.13032896969E+03 -0.18756127862E+02 -0.12380093925E+02  0.15596793891E+03  0.82675864490E+02 0.  0.
          5    1    1    2  502    0 -0.23347125588E+02  0.61509291241E+02  0.40689553717E+01  0.66049299618E+02  0.41800000000E+01 0. -1.
         -5    1    1    2    0  502 -0.10698184410E+03 -0.42753163379E+02  0.23363629295E+02  0.11762771578E+03  0.41800000000E+01 0. -1.
        -11    1    3    3    0    0  0.10069144708E+03  0.20320290229E+02 -0.24169445179E+02  0.10552650752E+03  0.00000000000E+00 0.  1.
         11    1    3    3    0    0  0.29637522611E+02 -0.39076418091E+02  0.11789351254E+02  0.50441431386E+02  0.00000000000E+00 0. -1.
</event>
<event>
 7    1  0.6584658E-006  0.1028892E+03  0.7561462E-02  0.1274335E+00
         -1   -1    0    0    0  501 -0.00000000000E+00  0.00000000000E+00  0.32052741379E+02  0.32052741379E+02  0.00000000000E+00 0.  1.
          1   -1    0    0  501    0  0.00000000000E+00 -0.00000000000E+00 -0.51443186171E+03  0.51443186171E+03  0.00000000000E+00 0. -1.
         23    2    1    2    0    0 -0.58868905745E+02  0.21663105415E+02 -0.25414745248E+03  0.27876949300E+03  0.95847088767E+02 0.  0.
          5    1    1    2  502    0 -0.95037191724E+01 -0.26683376589E+02  0.76255091898E+00  0.28642226662E+02  0.41800000000E+01 0.  1.
         -5    1    1    2    0  502  0.68372624917E+02  0.50202711739E+01 -0.22899421877E+03  0.23907288343E+03  0.41800000000E+01 0.  1.
        -11    1    3    3    0    0 -0.74652565394E+02 -0.77785496605E+01 -0.21258636172E+03  0.22544727220E+03  0.00000000000E+00 0.  1.
         11    1    3    3    0    0  0.15783659649E+02  0.29441655075E+02 -0.41561090764E+02  0.53322220800E+02  0.00000000000E+00 0. -1.
</event>
<event>
 7    1  0.6584658E-006  0.1168053E+03  0.7561462E-02  0.1248462E+00
          3   -1    0    0  501    0  0.00000000000E+00  0.00000000000E+00  0.11804083020E+03  0.11804083020E+03  0.00000000000E+00 0. -1.
         -3   -1    0    0    0  501 -0.00000000000E+00 -0.00000000000E+00 -0.20091030963E+03  0.20091030963E+03  0.00000000000E+00 0.  1.
         23    2    1    2    0    0  0.74685801895E+02 -0.91887157759E+01  0.40176044496E+02  0.12803225701E+03  0.95476399082E+02 0.  0.
          5    1    1    2  502    0 -0.89866821933E+02 -0.60139361164E+01 -0.29531794890E+02  0.94877881623E+02  0.41800000000E+01 0.  1.
         -5    1    1    2    0  502  0.15181020037E+02  0.15202651892E+02 -0.93513729029E+02  0.96041001197E+02  0.41800000000E+01 0.  1.
        -11    1    3    3    0    0  0.54111141622E+02 -0.51379657237E+02  0.25321956773E+02  0.78797755807E+02  0.00000000000E+00 0. -1.
         11    1    3    3    0    0  0.20574660274E+02  0.42190941461E+02  0.14854087724E+02  0.49234501204E+02  0.00000000000E+00 0.  1.
</event>
<event>
 7    1  0.6584658E-006  0.1980822E+03  0.7561462E-02  0.1151367E+00
          2   -1    0    0  501    0  0.00000000000E+00  0.00000000000E+00  0.10531540290E+04  0.10531540290E+04  0.00000000000E+00 0.  1.
         -2   -1    0    0    0  501 -0.00000000000E+00 -0.00000000000E+00 -0.48045876469E+02  0.48045876469E+02  0.00000000000E+00 0. -1.
         23    2    1    2    0    0 -0.14480840957E+03 -0.91422762089E+02  0.67351796022E+03  0.70085676822E+03  0.90808424217E+02 0.  0.
          5    1    1    2  502    0  0.13575100852E+03  0.12432619405E+03  0.23987546662E+03  0.30239552035E+03  0.41800000000E+01 0. -1.
         -5    1    1    2    0  502  0.90574010475E+01 -0.32903431957E+02  0.91714725721E+02  0.97947616931E+02  0.41800000000E+01 0.  1.
        -11    1    3    3    0    0 -0.17265736855E+02  0.47607622906E+01  0.15374082288E+02  0.23603663550E+02  0.00000000000E+00 0. -1.
         11    1    3    3    0    0 -0.12754267272E+03 -0.96183524380E+02  0.65814387793E+03  0.67725310467E+03  0.00000000000E+00 0.  1.
</event>
<event>
 7    1  0.6584658E-006  0.1113476E+03  0.7561462E-02  0.1258095E+00
         -1   -1    0    0    0  501 -0.00000000000E+00  0.00000000000E+00  0.19242292934E+03  0.19242292934E+03  0.00000000000E+00 0.  1.
          1   -1    0    0  501    0  0.00000000000E+00 -0.00000000000E+00 -0.78460577410E+02  0.78460577410E+02  0.00000000000E+00 0. -1.
         23    2    1    2    0    0 -0.11081819448E+02  0.63912819458E+02  0.40154529410E+02  0.11813208695E+03  0.90195058186E+02 0.  0.
          5    1    1    2  502    0 -0.35827020369E+02 -0.55774159185E+02  0.19483198767E+01  0.66449985491E+02  0.41800000000E+01 0. -1.
         -5    1    1    2    0  502  0.46908839818E+02 -0.81386602724E+01  0.71859502645E+02  0.86301434313E+02  0.41800000000E+01 0.  1.
        -11    1    3    3    0    0 -0.10260084696E+02  0.85883879898E+02  0.21083767377E+02  0.89027161087E+02  0.00000000000E+00 0. -1.
         11    1    3    3    0    0 -0.82173475220E+00 -0.21971060440E+02  0.19070762033E+02  0.29104925861E+02  0.00000000000E+00 0.  1.
</event>
<event>
 7    1  0.6584658E-006  0.1191222E+03  0.7561462E-02  0.1244552E+00
          2   -1    0    0  501    0  0.00000000000E+00  0.00000000000E+00  0.11065947623E+04  0.11065947623E+04  0.00000000000E+00 0. -1.
         -2   -1    0    0    0  501 -0.00000000000E+00 -0.00000000000E+00 -0.17371089675E+02  0.17371089675E+02  0.00000000000E+00 0.  1.
         23    2    1    2    0    0 -0.49008599977E+02 -0.70362636237E+02  0.57596171636E+03  0.58876657061E+03  0.86956497798E+02 0.  0.
          5    1    1    2  502    0  0.25426722678E+02 -0.13467724867E+02  0.33997576329E+03  0.34121677840E+03  0.41800000000E+01 0.  1.
         -5    1    1    2    0  502  0.23581877299E+02  0.83830361104E+02  0.17328619301E+03  0.19398250300E+03  0.41800000000E+01 0.  1.
        -11    1    3    3    0    0 -0.41744956952E+02 -0.90993692617E+02  0.48304424759E+03  0.49330947554E+03  0.00000000000E+00 0.  1.
         11    1    3    3    0    0 -0.72636430245E+01  0.20631056380E+02  0.92917468763E+02  0.95457095067E+02  0.00000000000E+00 0. -1.
</event>
<event>
 7    1  0.6584658E-006  0.8379675E+02  0.7561462E-02  0.1318609E+00
          3   -1    0    0  501    0  0.00000000000E+00  0.00000000000E+00  0.21502002220E+03  0.21502002220E+03  0.00000000000E+00 0. -1.
         -3   -1    0    0    0  501 -0.00000000000E+00 -0.00000000000E+00 -0.74676369733E+02  0.74676369733E+02  0.00000000000E+00 0.  1.
         23    2    1    2    0    0  0.36545829412E+01  0.37811015784E+02  0.12797054970E+03  0.15837739886E+03  0.85228574965E+02 0.  0.
          5    1    1    2  502    0 -0.21988590720E+02 -0.47951881155E+02  0.59468384986E+02  0.79604285317E+02  0.41800000000E+01 0. -1.
         -5    1    1    2    0  502  0.18334007779E+02  0.10140865371E+02 -0.47095282211E+02  0.51714707755E+02  0.41800000000E+01 0. -1.
        -11    1    3    3    0    0  0.44257523860E+02  0.24471153415E+02  0.69597741051E+02  0.86031455451E+02  0.00000000000E+00 0.  1.
         11    1    3    3    0    0 -0.40602940919E+02  0.13339862369E+02  0.58372808644E+02  0.72345943413E+02  0.00000000000E+00 0. -1.
</event>
<event>
 7    1  0.6584658E-006  0.1067928E+03  0.7561462E-02  0.1266627E+00
         -2   -1    0    0    0  501 -0.00000000000E+00  0.00000000000E+00  0.55450519190E+02  0.55450519190E+02  0.00000000000E+00 0.  1.
          2   -1    0    0  501    0  0.00000000000E+00 -0.00000000000E+00 -0.42133621016E+03  0.42133621016E+03  0.00000000000E+00 0. -1.
         23    2    1    2    0    0  0.24870503114E+02 -0.16381741165E+01 -0.17108206433E+03  0.19247823619E+03  0.84602441649E+02 0.  0.
          5    1    1    2  502    0  0.67824650176E+01 -0.67425675522E+02 -0.19681345000E+03  0.20819517298E+03  0.41800000000E+01 0. -1.
         -5    1    1    2    0  502 -0.31652968132E+02  0.69063849638E+02  0.20098233605E+01  0.76113320177E+02  0.41800000000E+01 0.  1.
        -11    1    3    3    0    0  0.31279334555E+01  0.30577915928E+02 -0.20464636999E+02  0.36926877443E+02  0.00000000000E+00 0. -1.
         11    1    3    3    0    0  0.21742569658E+02 -0.32216090044E+02 -0.15061742733E+03  0.15555135875E+03  0.00000000000E+00 0.  1.
</event>
<event>
 7    1  0.6584658E-006  0.1264301E+03  0.7561462E-02  0.1232851E+00
          2   -1    0    0  501    0  0.00000000000E+00  0.00000000000E+00  0.75641958327E+02  0.75641958327E+02  0.00000000000E+00 0. -1.
         -2   -1    0    0    0  501 -0.00000000000E+00 -0.00000000000E+00 -0.22824818148E+03  0.22824818148E+03  0.00000000000E+00 0.  1.
         23    2    1    2    0    0  0.52531401901E+02 -0.45909578053E+02 -0.96555902624E+02  0.15008419804E+03  0.91296147926E+02 0.  0.
          5    1    1    2  502    0 -0.11164156090E+02  0.82118441002E+02 -0.53259733426E+02  0.98600955058E+02  0.41800000000E+01 0. -1.
         -5    1    1    2    0  502 -0.41367245811E+02 -0.36208862949E+02 -0.27905871081E+01  0.55204986717E+02  0.41800000000E+01 0. -1.
        -11    1    3    3    0    0  0.21881075069E+02 -0.71527914285E+02 -0.66607138934E+02  0.10015755051E+03  0.00000000000E+00 0.  1.
         11    1    3    3    0    0  0.30650326832E+02  0.25618336232E+02 -0.29948763690E+02  0.49926647521E+02  0.00000000000E+00 0. -1.
</event>
<event>
 7    1  0.6584658E-006  0.1268363E+03  0.7561462E-02  0.1232227E+00
          1   -1    0    0  501    0  0.00000000000E+00  0.00000000000E+00  0.41072073238E+03  0.41072073238E+03  0.00000000000E+00 0. -1.
         -1   -1    0    0    0  501 -0.00000000000E+00 -0.00000000000E+00 -0.23196225781E+03  0.23196225781E+03  0.00000000000E+00 0.  1.
         23    2    1    2    0    0  0.19214733303E+02  0.77483820724E+02  0.38012466505E+03  0.39861821476E+03  0.89603413476E+02 0.  0.
          5    1    1    2  502    0 -0.37936060362E+02  0.14082771627E+02 -0.88956979693E+02  0.97817614817E+02  0.41800000000E+01 0. -1.
         -5    1    1    2    0  502  0.18721327059E+02 -0.91566592350E+02 -0.11240921078E+03  0.14624716062E+03  0.41800000000E+01 0.  1.
        -11    1    3    3    0    0 -0.17026984036E+01  0.93236320081E+02  0.31186209427E+03  0.32550557047E+03  0.00000000000E+00 0. -1.
         11    1    3    3    0    0  0.20917431706E+02 -0.15752499358E+02  0.68262570781E+02  0.73112644288E+02  0.00000000000E+00 0.  1.
</event>
<event>
 7    1  0.6584658E-006  0.1842726E+03  0.7561462E-02  0.1163731E+00
          1   -1    0    0  501    0  0.00000000000E+00  0.00000000000E+00  0.10767801736E+04  0.10767801736E+04  0.00000000000E+00 0. -1.
         -1   -1    0    0    0  501 -0.00000000000E+00 -0.00000000000E+00 -0.41666807015E+02  0.41666807015E+02  0.00000000000E+00 0.  1.
         23    2    1    2    0    0  0.15549811533E+02  0.16788622129E+03  0.67294304487E+03  0.69982794659E+03  0.92082752230E+02 0.  0.
          5    1    1    2  502    0  0.21081034631E+02 -0.77688597797E+02  0.58224822546E+02  0.99436062921E+02  0.41800000000E+01 0. -1.
         -5    1    1    2    0  502 -0.36630846164E+02 -0.90197623489E+02  0.30394549914E+03  0.31918297107E+03  0.41800000000E+01 0. -1.
        -11    1    3    3    0    0 -0.36430315080E+02  0.87354178416E+02  0.28911091864E+03  0.30420888156E+03  0.00000000000E+00 0.  1.
         11    1    3    3    0    0  0.51980126613E+02  0.80532042871E+02  0.38383212622E+03  0.39561906503E+03  0.00000000000E+00 0. -1.
</event>
<event>
 7    1  0.6584658E-006  0.1719860E+03  0.7561462E-02  0.1175792E+00
         -3   -1    0    0    0  501 -0.00000000000E+00  0.00000000000E+00  0.98425484433E+02  0.98425484433E+02  0.00000000000E+00 0.  1.
          3   -1    0    0  501    0  0.00000000000E+00 -0.00000000000E+00 -0.44513389644E+03  0.44513389644E+03  0.00000000000E+00 0. -1.
         23    2    1    2    0    0  0.13636909283E+02 -0.13742617927E+03 -0.31297463160E+03  0.35419809884E+03  0.91821855542E+02 0.  0.
          5    1    1    2  502    0  0.42013779786E+02  0.12092933185E+02  0.10599195783E+02  0.45179775079E+02  0.41800000000E+01 0. -1.
         -5    1    1    2    0  502 -0.55650689069E+02  0.12533324609E+03 -0.44332976191E+02  0.14418150695E+03  0.41800000000E+01 0. -1.
        -11    1    3    3    0    0 -0.70560615097E+01  0.10959797433E+02 -0.10827331553E+02  0.16945095820E+02  0.00000000000E+00 0. -1.
         11    1    3    3    0    0  0.20692970792E+02 -0.14838597670E+03 -0.30214730004E+03  0.33725300302E+03  0.00000000000E+00 0.  1.
</event>
<event>
 7    1  0.6584658E-006  0.9568492E+02  0.7561462E-02  0.1289641E+00
          1   -1    0    0  501    0  0.00000000000E+00  0.00000000000E+00  0.80911319729E+02  0.80911319729E+02  0.00000000000E+00 0. -1.
         -1   -1    0    0    0  501 -0.00000000000E+00 -0.00000000000E+00 -0.16490036855E+03  0.16490036855E+03  0.00000000000E+00 0.  1.
         23    2    1    2    0    0 -0.51811514581E+02  0.12723518658E+02 -0.46548879473E+02  0.10476415106E+03  0.77216631609E+02 0.  0.
          5    1    1    2  502    0 -0.36090146740E+02  0.10299468946E+02  0.91377982139E+01  0.38852921492E+02  0.41800000000E+01 0. -1.
         -5    1    1    2    0  502  0.87901661321E+02 -0.23022987604E+02 -0.46577967562E+02  0.10219461573E+03  0.41800000000E+01 0. -1.
        -11    1    3    3    0    0 -0.15603658645E+02  0.20347985266E+02 -0.60113684755E+02  0.65354187030E+02  0.00000000000E+00 0.  1.
         11    1    3    3    0    0 -0.36207855936E+02 -0.76244666080E+01  0.13564805282E+02  0.39409964030E+02  0.00000000000E+00 0. -1.
</event>
<event>
 7    1  0.6584658E-006  0.1069676E+03  0.7561462E-02  0.1266291E+00
          1   -1    0    0  501    0  0.00000000000E+00  0.00000000000E+00  0.41614640477E+03  0.41614640477E+03  0.00000000000E+00 0. -1.
         -1   -1    0    0    0  501 -0.00000000000E+00 -0.00000000000E+00 -0.58241866815E+02  0.58241866815E+02  0.00000000000E+00 0.  1.
         23    2    1    2    0    0  0.19820136139E+02 -0.90379227803E+02  0.26154449851E+03  0.29134582427E+03  0.88969781433E+02 0.  0.
          5    1    1    2  502    0 -0.25204873946E+02  0.97830364384E+02  0.16382819558E+02  0.10243014714E+03  0.41800000000E+01 0. -1.
         -5    1    1    2    0  502  0.53847378063E+01 -0.74511365804E+01  0.79977219891E+02  0.80612300172E+02  0.41800000000E+01 0. -1.
        -11    1    3    3    0    0 -0.13634775971E+02 -0.39903895780E+02  0.20223177729E+03  0.20658150876E+03  0.00000000000E+00 0. -1.
         11    1    3    3    0    0  0.33454912110E+02 -0.50475332023E+02  0.59312721216E+02  0.84764315518E+02  0.00000000000E+00 0.  1.
</event>
<event>
 7    1  0.6584658E-006  0.1067891E+03  0.7561462E-02  0.1266634E+00
          2   -1    0    0  501    0  0.00000000000E+00  0.00000000000E+00  0.56563803734E+02  0.56563803734E+02  0.00000000000E+00 0. -1.
         -2   -1    0    0    0  501 -0.00000000000E+00 -0.00000000000E+00 -0.24747351127E+03  0.24747351127E+03  0.00000000000E+00 0.  1.
         23    2    1    2    0    0 -0.22795881859E+02  0.10833202700E+02 -0.24734759583E+02  0.93380505427E+02  0.86435524824E+02 0.  0.
          5    1    1    2  502    0  0.55709431949E+02  0.35774359208E+02 -0.57270923931E+02  0.87640040580E+02  0.41800000000E+01 0. -1.
         -5    1    1    2    0  502 -0.32913550090E+02 -0.46607561909E+02 -0.10890402402E+03  0.12301676900E+03  0.41800000000E+01 0.  1.
        -11    1    3    3    0    0 -0.50269677566E+02  0.28089612676E+02 -0.14973298717E+02  0.59500138633E+02  0.00000000000E+00 0. -1.
         11    1    3    3    0    0  0.27473795707E+02 -0.17256409976E+02 -0.97614608662E+01  0.33880366793E+02  0.00000000000E+00 0.  1.
</event>
<event>
 7    1  0.6584658E-006  0.9153726E+02  0.7561462E-02  0.1299171E+00
         -2   -1    0    0    0  501 -0.00000000000E+00  0.00000000000E+00  0.11246588328E+03  0.11246588328E+03  0.00000000000E+00 0.  1.
          2   -1    0    0  501    0  0.00000000000E+00 -0.00000000000E+00 -0.17727606395E+03  0.17727606395E+03  0.00000000000E+00 0. -1.
         23    2    1    2    0    0  0.20346725891E+02 -0.86897623517E+02 -0.14913968205E+02  0.12824316983E+03  0.90877378555E+02 0.  0.
          5    1    1    2  502    0 -0.25187817960E+01  0.47785119669E+02  0.39518470337E+02  0.62200834571E+02  0.41800000000E+01 0. -1.
         -5    1    1    2    0  502 -0.17827944095E+02  0.39112503849E+02 -0.89414682804E+02  0.99297942823E+02  0.41800000000E+01 0. -1.
        -11    1    3    3    0    0 -0.30163510244E+01 -0.32654509588E+02 -0.49815765265E+02  0.59640806826E+02  0.00000000000E+00 0. -1.
         11    1    3    3    0    0  0.23363076916E+02 -0.54243113929E+02  0.34901797060E+02  0.68602363004E+02  0.00000000000E+00 0.  1.
</event>
<event>
 7    1  0.6584658E-006  0.1380584E+03  0.7561462E-02  0.1215966E+00
          1   -1    0    0  501    0  0.00000000000E+00  0.00000000000E+00  0.82511308362E+03  0.82511308362E+03  0.00000000000E+00 0. -1.
         -1   -1    0    0    0  501 -0.00000000000E+00 -0.00000000000E+00 -0.29117601959E+02  0.29117601959E+02  0.00000000000E+00 0.  1.
         23    2    1    2    0    0 -0.53588949886E+02 -0.87533001047E+02  0.36386466845E+03  0.39280041608E+03  0.10658737309E+03 0.  0.
          5    1    1    2  502    0 -0.77598824346E+01  0.90487599871E+02  0.17708425876E+03  0.19905910833E+03  0.41800000000E+01 0. -1.
         -5    1    1    2    0  502  0.61348832321E+02 -0.29545988247E+01  0.25504655444E+03  0.26237116117E+03  0.41800000000E+01 0. -1.
        -11    1    3    3    0    0 -0.59358703277E+02 -0.31289939987E+02  0.30040583959E+03  0.30780868159E+03  0.00000000000E+00 0.  1.
         11    1    3    3    0    0  0.57697533912E+01 -0.56243061060E+02  0.63458828858E+02  0.84991734490E+02  0.00000000000E+00 0. -1.
</event>
<event>
 7    1  0.6584658E-006  0.1069142E+03  0.7561462E-02  0.1266393E+00
          1   -1    0    0  501    0  0.00000000000E+00  0.00000000000E+00  0.59673113766E+03  0.59673113766E+03  0.00000000000E+00 0. -1.
         -1   -1    0    0    0  501 -0.00000000000E+00 -0.00000000000E+00 -0.21935392446E+02  0.21935392446E+02  0.00000000000E+00 0.  1.
         23    2    1    2    0    0 -0.13043715586E+02  0.32525542602E+02  0.25135985448E+03  0.27011765381E+03  0.92486328800E+02 0.  0.
          5    1    1    2  502    0 -0.49653521035E+02 -0.12593915939E+02  0.21975717030E+03  0.22568731725E+03  0.41800000000E+01 0. -1.
         -5    1    1    2    0  502  0.62697236621E+02 -0.19931626663E+02  0.10367872044E+03  0.12286155905E+03  0.41800000000E+01 0. -1.
        -11    1    3    3    0    0  0.38797476113E+02  0.10568265882E+02  0.76598139386E+02  0.86511313444E+02  0.00000000000E+00 0.  1.
         11    1    3    3    0    0 -0.51841191700E+02  0.21957276720E+02  0.17476171510E+03  0.18360634036E+03  0.00000000000E+00 0. -1.
</event>
<event>
 7    1  0.6584658E-006  0.1892833E+03  0.7561462E-02  0.1159109E+00
         -3   -1    0    0    0  501 -0.00000000000E+00  0.00000000000E+00  0.84942545916E+02  0.84942545916E+02  0.00000000000E+00 0.  1.
          3   -1    0    0  501    0  0.00000000000E+00 -0.00000000000E+00 -0.46348489485E+03  0.46348489485E+03  0.00000000000E+00 0. -1.
         23    2    1    2    0    0  0.47683838423E+02  0.15737678273E+03 -0.22385669393E+03  0.29032632693E+03  0.84476958407E+02 0.  0.
          5    1    1    2  502    0 -0.62323186737E+02 -0.16527187235E+03 -0.10497300255E+03  0.20551344253E+03  0.41800000000E+01 0. -1.
         -5    1    1    2    0  502  0.14639348315E+02  0.78950896239E+01 -0.49712652461E+02  0.52587671312E+02  0.41800000000E+01 0. -1.
        -11    1    3    3    0    0  0.45962624960E+01 -0.10476196810E+02 -0.11311653382E+02  0.16088189170E+02  0.00000000000E+00 0.  1.
         11    1    3    3    0    0  0.43087575927E+02  0.16785297954E+03 -0.21254504054E+03  0.27423813776E+03  0.00000000000E+00 0. -1.
</event>
<event>
 7    1  0.6584658E-006  0.1324140E+03  0.7561462E-02  0.1223917E+00
          1   -1    0    0  501    0  0.00000000000E+00  0.00000000000E+00  0.18218599985E+02  0.18218599985E+02  0.00000000000E+00 0. -1.
         -1   -1    0    0    0  501 -0.00000000000E+00 -0.00000000000E+00 -0.10447940159E+04  0.10447940159E+04  0.00000000000E+00 0.  1.
         23    2    1    2    0    0  0.35806253051E+02  0.69285237321E+02 -0.32584268460E+03  0.34694238875E+03  0.90072382745E+02 0.  0.
          5    1    1    2  502    0 -0.20982671476E+02 -0.10517168900E+03 -0.54901947430E+03  0.55941148739E+03  0.41800000000E+01 0.  1.
         -5    1    1    2    0  502 -0.14823581575E+02  0.35886451676E+02 -0.15171325703E+03  0.15665873976E+03  0.41800000000E+01 0.  1.
        -11    1    3    3    0    0  0.65916608425E+02  0.45843253094E+02 -0.20269878676E+03  0.21802156149E+03  0.00000000000E+00 0.  1.
         11    1    3    3    0    0 -0.30110355374E+02  0.23441984226E+02 -0.12314389784E+03  0.12892082726E+03  0.00000000000E+00 0. -1.
</event>
<event>
 7    1  0.6584658E-006  0.1166689E+03  0.7561462E-02  0.1248696E+00
         -2   -1    0    0    0  501 -0.00000000000E+00  0.00000000000E+00  0.43520805773E+02  0.43520805773E+02  0.00000000000E+00 0.  1.
          2   -1    0    0  501    0  0.00000000000E+00 -0.00000000000E+00 -0.35905641070E+03  0.35905641070E+03  0.00000000000E+00 0. -1.
         23    2    1    2    0    0 -0.47485392501E+02 -0.35583999227E+02 -0.13011082351E+03  0.17116737001E+03  0.94065714583E+02 0.  0.
          5    1    1    2  502    0 -0.27900538271E+01  0.69809843909E+02 -0.13590503035E+03  0.15286872924E+03  0.41800000000E+01 0.  1.
         -5    1    1    2    0  502  0.50275446328E+02 -0.34225844683E+02 -0.49519751067E+02  0.78541117216E+02  0.41800000000E+01 0.  1.
        -11    1    3    3    0    0 -0.11923180799E+02 -0.58746283648E+02 -0.10749099138E+03  0.12307559185E+03  0.00000000000E+00 0. -1.
         11    1    3    3    0    0 -0.35562211702E+02  0.23162284421E+02 -0.22619832137E+02  0.48091778161E+02  0.00000000000E+00 0.  1.
</event>
<event>
 7    1  0.6584658E-006  0.1309634E+03  0.7561462E-02  0.1226033E+00
         -2   -1    0    0    0  501 -0.00000000000E+00  0.00000000000E+00  0.26413287537E+02  0.26413287537E+02  0.00000000000E+00 0.  1.
          2   -1    0    0  501    0  0.00000000000E+00 -0.00000000000E+00 -0.10348885082E+04  0.10348885082E+04  0.00000000000E+00 0. -1.
         23    2    1    2    0    0  0.53905651376E+02  0.10791173854E+03 -0.56291027598E+03  0.58300979600E+03  0.92096041559E+02 0.  0.
          5    1    1    2  502    0 -0.13454425786E+02 -0.91786976406E+02 -0.13028948607E+03  0.15999591617E+03  0.41800000000E+01 0. -1.
         -5    1    1    2    0  502 -0.40451225590E+02 -0.16124762132E+02 -0.31527545861E+03  0.31829608355E+03  0.41800000000E+01 0. -1.
        -11    1    3    3    0    0  0.31040279843E+02  0.26683411779E+02 -0.57373445725E+02  0.70478476936E+02  0.00000000000E+00 0.  1.
         11    1    3    3    0    0  0.22865371533E+02  0.81228326759E+02 -0.50553683025E+03  0.51253131907E+03  0.00000000000E+00 0. -1.
</event>
<event>
 7    1  0.6584658E-006  0.1055485E+03  0.7561462E-02  0.1269043E+00
          2   -1    0    0  501    0  0.00000000000E+00  0.00000000000E+00  0.50893035568E+03  0.50893035568E+03  0.00000000000E+00 0. -1.
         -2   -1    0    0    0  501 -0.00000000000E+00 -0.00000000000E+00 -0.34672582468E+02  0.34672582468E+02  0.00000000000E+00 0.  1.
         23    2    1    2    0    0 -0.63444641689E+02  0.11605250061E+02  0.27879269237E+03  0.30274146092E+03  0.98828753176E+02 0.  0.
          5    1    1    2  502    0  0.53613134662E+02 -0.53341757288E+02  0.17965591987E+03  0.19497033934E+03  0.41800000000E+01 0.  1.
         -5    1    1    2    0  502  0.98315070271E+01  0.41736507227E+02  0.15809160978E+02  0.45891137889E+02  0.41800000000E+01 0.  1.
        -11    1    3    3    0    0 -0.39210371750E+02 -0.26347781783E+02  0.23579154060E+03  0.24047725355E+03  0.00000000000E+00 0. -1.
         11    1    3    3    0    0 -0.24234269939E+02  0.37953031844E+02  0.43001151765E+02  0.62264207365E+02  0.00000000000E+00 0.  1.
</event>
<event>
 7    1  0.6584658E-006  0.8735563E+02  0.7561462E-02  0.1309385E+00
         -4   -1    0    0    0  501 -0.00000000000E+00  0.00000000000E+00  0.16491329329E+03  0.16491329329E+03  0.00000000000E+00 0.  1.
          4   -1    0    0  501    0  0.00000000000E+00 -0.00000000000E+00 -0.89176144779E+02  0.89176144779E+02  0.00000000000E+00 0. -1.
         23    2    1    2    0    0  0.29566914211E+02 -0.40683293091E+02  0.10844893250E+02  0.10446622936E+03  0.90918912304E+02 0.  0.
          5    1    1    2  502    0  0.71110370388E+01  0.31783616624E+02 -0.31819074293E+02  0.45724074866E+02  0.41800000000E+01 0.  1.
         -5    1    1    2    0  502 -0.36677951249E+02  0.88996764669E+01  0.96711329555E+02  0.10389913384E+03  0.41800000000E+01 0.  1.
        -11    1    3    3    0    0  0.58169979041E+02 -0.46791415937E+02  0.77459787174E+01  0.75054535195E+02  0.00000000000E+00 0. -1.
         11    1    3    3    0    0 -0.28603064831E+02  0.61081228459E+01  0.30989145325E+01  0.29411694166E+02  0.00000000000E+00 0.  1.
</event>
<event>
 7    1  0.6584658E-006  0.7261801E+02  0.7561462E-02  0.1351410E+00
          2   -1    0    0  501    0  0.00000000000E+00  0.00000000000E+00  0.27329891117E+03  0.27329891117E+03  0.00000000000E+00 0. -1.
         -2   -1    0    0    0  501 -0.00000000000E+00 -0.00000000000E+00 -0.57942730246E+02  0.57942730246E+02  0.00000000000E+00 0.  1.
         23    2    1    2    0    0 -0.42464814618E+02  0.50930170909E+01  0.15790089069E+03  0.18709571738E+03  0.90790510941E+02 0.  0.
          5    1    1    2  502    0  0.31539631050E+02  0.92262808911E+01 -0.35975119038E+02  0.48903519052E+02  0.41800000000E+01 0.  1.
         -5    1    1    2    0  502  0.10925183568E+02 -0.14319297982E+02  0.93430409269E+02  0.95242404982E+02  0.41800000000E+01 0.  1.
        -11    1    3    3    0    0 -0.44889179448E+02 -0.32833883284E+02  0.12505532810E+03  0.13686466823E+03  0.00000000000E+00 0.  1.
         11    1    3    3    0    0  0.24243648300E+01  0.37926900375E+02  0.32845562592E+02  0.50231049152E+02  0.00000000000E+00 0. -1.
</event>
<event>
 7    1  0.6584658E-006  0.8460593E+02  0.7561462E-02  0.1316466E+00
         -1   -1    0    0    0  501 -0.00000000000E+00  0.00000000000E+00  0.28754893605E+02  0.28754893605E+02  0.00000000000E+00 0.  1.
          1   -1    0    0  501    0  0.00000000000E+00 -0.00000000000E+00 -0.42230477692E+03  0.42230477692E+03  0.00000000000E+00 0. -1.
         23    2    1    2    0    0  0.42476119956E+01  0.12261473339E+02 -0.19899006510E+03  0.21939087991E+03  0.91470903788E+02 0.  0.
          5    1    1    2  502    0  0.14606752246E+02 -0.43920062475E+02 -0.15774365969E+02  0.49077816992E+02  0.41800000000E+01 0. -1.
         -5    1    1    2    0  502 -0.18854364241E+02  0.31658589135E+02 -0.17878545224E+03  0.18259097363E+03  0.41800000000E+01 0. -1.
        -11    1    3    3    0    0 -0.11952387482E+02  0.46374439954E+02 -0.68744496194E+02  0.83780988324E+02  0.00000000000E+00 0.  1.
         11    1    3    3    0    0  0.16199999478E+02 -0.34112966614E+02 -0.13024556891E+03  0.13560989158E+03  0.00000000000E+00 0. -1.
</event>
<event>
 7    1  0.6584658E-006  0.1160491E+03  0.7561462E-02  0.1249761E+00
         -3   -1    0    0    0  501 -0.00000000000E+00  0.00000000000E+00  0.40373216361E+03  0.40373216361E+03  0.00000000000E+00 0.  1.
          3   -1    0    0  501    0  0.00000000000E+00 -0.00000000000E+00 -0.10824808636E+03  0.10824808636E+03  0.00000000000E+00 0. -1.
         23    2    1    2    0    0 -0.13619132137E+00  0.60114312438E+02 -0.64193128785E+02  0.12645648144E+03  0.90866576946E+02 0.  0.
          5    1    1    2  502    0 -0.12094136006E+02  0.32014133958E+02  0.41123738559E+02  0.53663834860E+02  0.41800000000E+01 0.  1.
         -5    1    1    2    0  502  0.12230327327E+02 -0.92128446396E+02  0.31855346747E+03  0.33185993368E+03  0.41800000000E+01 0.  1.
        -11    1    3    3    0    0  0.20611512875E+02  0.75818339315E+02 -0.31444223523E+02  0.84628566291E+02  0.00000000000E+00 0. -1.
         11    1    3    3    0    0 -0.20747704197E+02 -0.15704026877E+02 -0.32748905261E+02  0.41827915145E+02  0.00000000000E+00 0.  1.
</event>
<event>
 7    1  0.6584658E-006  0.1511243E+03  0.7561462E-02  0.1199098E+00
          1   -1    0    0  501    0  0.00000000000E+00  0.00000000000E+00  0.42504698971E+03  0.42504698971E+03  0.00000000000E+00 0. -1.
         -1   -1    0    0    0  501 -0.00000000000E+00 -0.00000000000E+00 -0.61850195627E+02  0.61850195627E+02  0.00000000000E+00 0.  1.
         23    2    1    2    0    0  0.97782226501E+02 -0.51506619555E+02  0.20934874700E+03  0.25989444862E+03  0.10725637917E+03 0.  0.
          5    1    1    2  502    0 -0.80286550055E+02  0.83061080871E+02  0.15155600123E+03  0.19060893784E+03  0.41800000000E+01 0. -1.
         -5    1    1    2    0  502 -0.17495676446E+02 -0.31554461316E+02  0.22920458569E+01  0.36393798887E+02  0.41800000000E+01 0. -1.
        -11    1    3    3    0    0 -0.21482731143E+02 -0.34979213695E+01  0.54154008720E+02  0.58364371424E+02  0.00000000000E+00 0.  1.
         11    1    3    3    0    0  0.11926495764E+03 -0.48008698186E+02  0.15519473828E+03  0.20153007719E+03  0.00000000000E+00 0. -1.
</event>
<event>
 7    1  0.6584658E-006  0.2637911E+03  0.7561462E-02  0.1104887E+00
          2   -1    0    0  501    0  0.00000000000E+00  0.00000000000E+00  0.45747759184E+03  0.45747759184E+03  0.00000000000E+00 0. -1.
         -2   -1    0    0    0  501 -0.00000000000E+00 -0.00000000000E+00 -0.22991615613E+03  0.22991615613E+03  0.00000000000E+00 0.  1.
         23    2    1    2    0    0 -0.86670635896E+02  0.24342161982E+03  0.28334482928E+03  0.39494647995E+03  0.94512145385E+02 0.  0.
          5    1    1    2  502    0  0.61514961528E+02 -0.78265788614E+02  0.30732951213E+02  0.10426701707E+03  0.41800000000E+01 0. -1.
         -5    1    1    2    0  502  0.25155674367E+02 -0.16515583121E+03 -0.86516344777E+02  0.18818025095E+03  0.41800000000E+01 0. -1.
        -11    1    3    3    0    0 -0.69480013383E+02  0.14339134298E+03  0.23133687337E+03  0.28090086949E+03  0.00000000000E+00 0.  1.
         11    1    3    3    0    0 -0.17190622513E+02  0.10003027684E+03  0.52007955905E+02  0.11404561046E+03  0.00000000000E+00 0. -1.
</event>
<event>
 7    1  0.6584658E-006  0.1048022E+03  0.7561462E-02  0.1270510E+00
          1   -1    0    0  501    0  0.00000000000E+00  0.00000000000E+00  0.34768767165E+03  0.34768767165E+03  0.00000000000E+00 0. -1.
         -1   -1    0    0    0  501 -0.00000000000E+00 -0.00000000000E+00 -0.46626567958E+02  0.46626567958E+02  0.00000000000E+00 0.  1.
         23    2    1    2    0    0  0.53782819030E+02  0.22254019694E+02  0.18249403045E+03  0.21239621342E+03  0.91761905547E+02 0.  0.
          5    1    1    2  502    0  0.44465272014E+01  0.37985228866E+02  0.22905684908E+01  0.38540476388E+02  0.41800000000E+01 0. -1.
         -5    1    1    2    0  502 -0.58229346232E+02 -0.60239248560E+02  0.11627650475E+03  0.14337754980E+03  0.41800000000E+01 0. -1.
        -11    1    3    3    0    0  0.30288972569E+02  0.45197025775E+02  0.16783722933E+03  0.17643562153E+03  0.00000000000E+00 0. -1.
         11    1    3    3    0    0  0.23493846461E+02 -0.22943006081E+02  0.14656801124E+02  0.35960591886E+02  0.00000000000E+00 0.  1.
</event>
<event>
 7    1  0.6584658E-006  0.1059448E+03  0.7561462E-02  0.1268269E+00
          1   -1    0    0  501    0  0.00000000000E+00  0.00000000000E+00  0.34406206657E+02  0.34406206657E+02  0.00000000000E+00 0. -1.
         -1   -1    0    0    0  501 -0.00000000000E+00 -0.00000000000E+00 -0.78789134051E+03  0.78789134051E+03  0.00000000000E+00 0.  1.
         23    2    1    2    0    0 -0.26062684092E+02  0.57463227452E+02 -0.87735723815E+02  0.14196580191E+03  0.92062183695E+02 0.  0.
          5    1    1    2  502    0  0.42283506831E+02  0.15482890197E+01 -0.52595314249E+03  0.52766890438E+03  0.41800000000E+01 0.  1.
         -5    1    1    2    0  502 -0.16220822739E+02 -0.59011516471E+02 -0.13979626754E+03  0.15266284088E+03  0.41800000000E+01 0.  1.
        -11    1    3    3    0    0 -0.20852491507E+02 -0.20881941868E+02 -0.91990924020E+01  0.30911247132E+02  0.00000000000E+00 0. -1.
         11    1    3    3    0    0 -0.52101925851E+01  0.78345169320E+02 -0.78536631413E+02  0.11105455477E+03  0.00000000000E+00 0.  1.
</event>
<event>
 7    1  0.6584658E-006  0.1437954E+03  0.7561462E-02  0.1208311E+00
          4   -1    0    0  501    0  0.00000000000E+00  0.00000000000E+00  0.58728186963E+02  0.58728186963E+02  0.00000000000E+00 0. -1.
         -4   -1    0    0    0  501 -0.00000000000E+00 -0.00000000000E+00 -0.56428268424E+03  0.56428268424E+03  0.00000000000E+00 0.  1.
         23    2    1    2    0    0  0.37066774681E+02  0.13675313011E+03 -0.17664867779E+03  0.24366590539E+03  0.89960845388E+02 0.  0.
          5    1    1    2  502    0  0.53978091475E+00 -0.44562075483E+02 -0.24504851124E+03  0.24910302125E+03  0.41800000000E+01 0.  1.
         -5    1    1    2    0  502 -0.37606555596E+02 -0.92191054631E+02 -0.83857308250E+02  0.13024194457E+03  0.41800000000E+01 0.  1.
        -11    1    3    3    0    0  0.13570226206E+02  0.20586375913E+02  0.65137131965E+01  0.25502516976E+02  0.00000000000E+00 0. -1.
         11    1    3    3    0    0  0.23496548475E+02  0.11616675420E+03 -0.18316239099E+03  0.21816338841E+03  0.00000000000E+00 0.  1.
</event>
<event>
 7    1  0.6584658E-006  0.1014031E+03  0.7561462E-02  0.1277373E+00
          2   -1    0    0  501    0  0.00000000000E+00  0.00000000000E+00  0.20793909248E+03  0.20793909248E+03  0.00000000000E+00 0. -1.
         -2   -1    0    0    0  501 -0.00000000000E+00 -0.00000000000E+00 -0.10349157693E+03  0.10349157693E+03  0.00000000000E+00 0.  1.
         23    2    1    2    0    0 -0.32898712282E+02 -0.61852448312E+02  0.11978045935E+03  0.16724012422E+03  0.93348005203E+02 0.  0.
          5    1    1    2  502    0  0.11635265715E+02 -0.94091013393E+01  0.45463373717E+02  0.48044784795E+02  0.41800000000E+01 0.  1.
         -5    1    1    2    0  502  0.21263446567E+02  0.71261549652E+02 -0.60796317520E+02  0.96145760399E+02  0.41800000000E+01 0.  1.
        -11    1    3    3    0    0 -0.87332186210E+01  0.22977486773E+02  0.46372357898E+02  0.52484565187E+02  0.00000000000E+00 0. -1.
         11    1    3    3    0    0 -0.24165493661E+02 -0.84829935085E+02  0.73408101452E+02  0.11475555903E+03  0.00000000000E+00 0.  1.
</event>
<event>
 7    1  0.6584658E-006  0.9131526E+02  0.7561462E-02  0.1299698E+00
         -2   -1    0    0    0  501 -0.00000000000E+00  0.00000000000E+00  0.50932263049E+02  0.50932263049E+02  0.00000000000E+00 0.  1.
          2   -1    0    0  501    0  0.00000000000E+00 -0.00000000000E+00 -0.23508377222E+03  0.23508377222E+03  0.00000000000E+00 0. -1.
         23    2    1    2    0    0 -0.67325335127E+01  0.20479886007E+02 -0.81034532581E+02  0.12247670186E+03  0.89270343838E+02 0.  0.
          5    1    1    2  502    0  0.28101975339E+02  0.47507962692E+02 -0.40639024129E+02  0.68671174588E+02  0.41800000000E+01 0. -1.
         -5    1    1    2    0  502 -0.21369441827E+02 -0.67987848699E+02 -0.62477952460E+02  0.94868158822E+02  0.41800000000E+01 0. -1.
        -11    1    3    3    0    0 -0.19289231430E+02 -0.10851298885E+02 -0.85600701425E+02  0.88415525906E+02  0.00000000000E+00 0. -1.
         11    1    3    3    0    0  0.12556697917E+02  0.31331184892E+02  0.45661688449E+01  0.34061175952E+02  0.00000000000E+00 0.  1.
</event>
<event>
 7    1  0.6584658E-006  0.1198392E+03  0.7561462E-02  0.1243363E+00
          3   -1    0    0  501    0  0.00000000000E+00  0.00000000000E+00  0.10273920251E+03  0.10273920251E+03  0.00000000000E+00 0. -1.
         -3   -1    0    0    0  501 -0.00000000000E+00 -0.00000000000E+00 -0.23182320521E+03  0.23182320521E+03  0.00000000000E+00 0.  1.
         23    2    1    2    0    0  0.43878615893E+01 -0.92410023375E+02  0.31414505154E+01  0.13038159592E+03  0.91818440921E+02 0.  0.
          5    1    1    2  502    0 -0.48357748847E+02  0.78210252605E+02 -0.38841830535E+02  0.99907335493E+02  0.41800000000E+01 0.  1.
         -5    1    1    2    0  502  0.43969887257E+02  0.14199770770E+02 -0.93383622679E+02  0.10427347630E+03  0.41800000000E+01 0.  1.
        -11    1    3    3    0    0  0.22540219812E+02 -0.42147703984E+02 -0.39506518889E+02  0.62010124133E+02  0.00000000000E+00 0.  1.
         11    1    3    3    0    0 -0.18152358223E+02 -0.50262319391E+02  0.42647969404E+02  0.68371471784E+02  0.00000000000E+00 0. -1.
</event>
<event>
 7    1  0.6584658E-006  0.1124048E+03  0.7561462E-02  0.1256180E+00
          3   -1    0    0  501    0  0.00000000000E+00  0.00000000000E+00  0.48461377901E+02  0.48461377901E+02  0.00000000000E+00 0. -1.
         -3   -1    0    0    0  501 -0.00000000000E+00 -0.00000000000E+00 -0.28128433723E+03  0.28128433723E+03  0.00000000000E+00 0.  1.
         23    2    1    2    0    0  0.19664573534E+02 -0.22829242975E+02 -0.10334868714E+03  0.14721123459E+03  0.10041078960E+03 0.  0.
          5    1    1    2  502    0  0.18566105812E+02  0.64452578691E+02 -0.94435021588E+02  0.11590634533E+03  0.41800000000E+01 0.  1.
         -5    1    1    2    0  502 -0.38230679346E+02 -0.41623335716E+02 -0.35039250604E+02  0.66628135215E+02  0.41800000000E+01 0.  1.
        -11    1    3    3    0    0  0.55801899533E+02  0.39736699256E+01 -0.76649176066E+02  0.94893299214E+02  0.00000000000E+00 0. -1.
         11    1    3    3    0    0 -0.36137325999E+02 -0.26802912900E+02 -0.26699511073E+02  0.52317935374E+02  0.00000000000E+00 0.  1.
</event>
<event>
 7    1  0.6584658E-006  0.6399692E+02  0.7561462E-02  0.1381785E+00
          1   -1    0    0  501    0  0.00000000000E+00  0.00000000000E+00  0.18892632265E+03  0.18892632265E+03  0.00000000000E+00 0. -1.
         -1   -1    0    0    0  501 -0.00000000000E+00 -0.00000000000E+00 -0.73732111376E+02  0.73732111376E+02  0.00000000000E+00 0.  1.
         23    2    1    2    0    0  0.51696308391E+01 -0.14342113932E+02  0.90016667724E+02  0.12709007921E+03  0.88410782438E+02 0.  0.
          5    1    1    2  502    0  0.22919987476E+02  0.14786586533E+02  0.74059885051E+02  0.79033587423E+02  0.41800000000E+01 0. -1.
         -5    1    1    2    0  502 -0.28089618315E+02 -0.44447260146E+00 -0.48882341502E+02  0.56534767389E+02  0.41800000000E+01 0.  1.
        -11    1    3    3    0    0 -0.28667516031E+02  0.99478009470E+01  0.78067092776E+02  0.83757126226E+02  0.00000000000E+00 0.  1.
         11    1    3    3    0    0  0.33837146871E+02 -0.24289914879E+02  0.11949574948E+02  0.43332952987E+02  0.00000000000E+00 0. -1.
</event>
<event>
 7    1  0.6584658E-006  0.1085960E+03  0.7561462E-02  0.1263192E+00
         -1   -1    0    0    0  501 -0.00000000000E+00  0.00000000000E+00  0.12424600106E+04  0.12424600106E+04  0.00000000000E+00 0.  1.
          1   -1    0    0  501    0  0.00000000000E+00 -0.00000000000E+00 -0.14284686289E+02  0.14284686289E+02  0.00000000000E+00 0. -1.
         23    2    1    2    0    0 -0.54801647779E+02  0.43682200093E+01  0.27173371352E+03  0.29059223948E+03  0.87076613611E+02 0.  0.
          5    1    1    2  502    0  0.84732174545E+01  0.45247479515E+02  0.67612917773E+03  0.67770736103E+03  0.41800000000E+01 0. -1.
         -5    1    1    2    0  502  0.46328430325E+02 -0.49615699524E+02  0.28031243308E+03  0.28844509639E+03  0.41800000000E+01 0. -1.
        -11    1    3    3    0    0 -0.34743289236E+02 -0.40768424305E+02  0.14433076568E+03  0.15394976612E+03  0.00000000000E+00 0.  1.
         11    1    3    3    0    0 -0.20058358543E+02  0.45136644314E+02  0.12740294784E+03  0.13664247336E+03  0.00000000000E+00 0. -1.
</event>
<event>
 7    1  0.6584658E-006  0.1359460E+03  0.7561462E-02  0.1218890E+00
          1   -1    0    0  501    0  0.00000000000E+00  0.00000000000E+00  0.79501480939E+02  0.79501480939E+02  0.00000000000E+00 0. -1.
         -1   -1    0    0    0  501 -0.00000000000E+00 -0.00000000000E+00 -0.27258453552E+03  0.27258453552E+03  0.00000000000E+00 0.  1.
         23    2    1    2    0    0  0.77225143214E+02  0.60475390371E+02 -0.68562453206E+02  0.15015688834E+03  0.90693359970E+02 0.  0.
          5    1    1    2  502    0  0.42430566670E+00  0.28590954215E+02 -0.61489751590E+02  0.67941773960E+02  0.41800000000E+01 0. -1.
         -5    1    1    2    0  502 -0.77649448881E+02 -0.89066344586E+02 -0.63030849788E+02  0.13398735416E+03  0.41800000000E+01 0. -1.
        -11    1    3    3    0    0  0.86095118208E+02  0.70568959326E+02 -0.76008295114E+02  0.13479468953E+03  0.00000000000E+00 0.  1.
         11    1    3    3    0    0 -0.88699749942E+01 -0.10093568956E+02  0.74458419077E+01  0.15362198813E+02  0.00000000000E+00 0. -1.
</event>
<event>
 7    1  0.6584658E-006  0.1097434E+03  0.7561462E-02  0.1261046E+00
         -3   -1    0    0    0  501 -0.00000000000E+00  0.00000000000E+00  0.58676053202E+02  0.58676053202E+02  0.00000000000E+00 0.  1.
          3   -1    0    0  501    0  0.00000000000E+00 -0.00000000000E+00 -0.27621000274E+03  0.27621000274E+03  0.00000000000E+00 0. -1.
         23    2    1    2    0    0 -0.24376152400E+02 -0.38559297773E+01 -0.17745959180E+03  0.20123580258E+03  0.91623558760E+02 0.  0.
          5    1    1    2  502    0  0.12130300368E+02  0.63742060765E+02 -0.11432758336E+02  0.66017988918E+02  0.41800000000E+01 0.  1.
         -5    1    1    2    0  502  0.12245852032E+02 -0.59886130988E+02 -0.28641599401E+02  0.67632264438E+02  0.41800000000E+01 0.  1.
        -11    1    3    3    0    0 -0.54664640002E+02 -0.20804925935E+02 -0.92264333244E+02  0.10924181891E+03  0.00000000000E+00 0.  1.
         11    1    3    3    0    0  0.30288487603E+02  0.16948996157E+02 -0.85195258553E+02  0.91993983673E+02  0.00000000000E+00 0. -1.
</event>
<event>
 7    1  0.6584658E-006  0.1387483E+03  0.7561462E-02  0.1215023E+00
         -2   -1    0    0    0  501 -0.00000000000E+00  0.00000000000E+00  0.53166769358E+02  0.53166769358E+02  0.00000000000E+00 0.  1.
          2   -1    0    0  501    0  0.00000000000E+00 -0.00000000000E+00 -0.42801669578E+03  0.42801669578E+03  0.00000000000E+00 0. -1.
         23    2    1    2    0    0 -0.97920990423E+02 -0.31307709546E+02 -0.20715462104E+03  0.24811231577E+03  0.89877645584E+02 0.  0.
          5    1    1    2  502    0 -0.20557707612E+02  0.37496357260E+02 -0.49587566904E+02  0.65612463309E+02  0.41800000000E+01 0.  1.
         -5    1    1    2    0  502  0.11847869804E+03 -0.61886477140E+01 -0.11810773848E+03  0.16745868606E+03  0.41800000000E+01 0.  1.
        -11    1    3    3    0    0 -0.33038651145E+02 -0.38274306138E+02 -0.15946296179E+03  0.16728691271E+03  0.00000000000E+00 0. -1.
         11    1    3    3    0    0 -0.64882339279E+02  0.69665965913E+01 -0.47691659248E+02  0.80825403062E+02  0.00000000000E+00 0.  1.
</event>
<event>
 7    1  0.6584658E-006  0.1161186E+03  0.7561462E-02  0.1249641E+00
         -2   -1    0    0    0  501 -0.00000000000E+00  0.00000000000E+00  0.30638992794E+02  0.30638992794E+02  0.00000000000E+00 0.  1.
          2   -1    0    0  501    0  0.00000000000E+00 -0.00000000000E+00 -0.52334045977E+03  0.52334045977E+03  0.00000000000E+00 0. -1.
         23    2    1    2    0    0 -0.45139164818E+02 -0.40395016899E+02 -0.27063268265E+03  0.29200439560E+03  0.91406873610E+02 0.  0.
          5    1    1    2  502    0  0.35963583357E+02 -0.36034685044E+02 -0.42118429353E+02  0.66206588383E+02  0.41800000000E+01 0. -1.
         -5    1    1    2    0  502  0.91755814607E+01  0.76429701943E+02 -0.17995035497E+03  0.19576846857E+03  0.41800000000E+01 0. -1.
        -11    1    3    3    0    0  0.18841598079E+02 -0.35133416882E+02 -0.61939419588E+02  0.73660399801E+02  0.00000000000E+00 0.  1.
         11    1    3    3    0    0 -0.63980762897E+02 -0.52616000170E+01 -0.20869326306E+03  0.21834399580E+03  0.00000000000E+00 0. -1.
</event>
<event>
 7    1  0.6584658E-006  0.2167042E+03  0.7561462E-02  0.1136364E+00
          1   -1    0    0  501    0  0.00000000000E+00  0.00000000000E+00  0.51166494528E+03  0.51166494528E+03  0.00000000000E+00 0. -1.
         -1   -1    0    0    0  501 -0.00000000000E+00 -0.00000000000E+00 -0.11042495552E+03  0.11042495552E+03  0.00000000000E+00 0.  1.
         23    2    1    2    0    0 -0.12458169983E+03 -0.15496901626E+03  0.28701932739E+03  0.36088218239E+03  0.91213262921E+02 0.  0.
          5    1    1    2  502    0  0.33862155048E+02  0.12956494442E+03  0.36125157808E+02  0.13876678203E+03  0.41800000000E+01 0.  1.
         -5    1    1    2    0  502  0.90719544784E+02  0.25404071843E+02  0.78095504564E+02  0.12244093639E+03  0.41800000000E+01 0.  1.
        -11    1    3    3    0    0 -0.17441249948E+02 -0.58182561158E+02  0.15000228639E+03  0.16183353653E+03  0.00000000000E+00 0. -1.
         11    1    3    3    0    0 -0.10714044988E+03 -0.96786455107E+02  0.13701704100E+03  0.19904864586E+03  0.00000000000E+00 0.  1.
</event>
<event>
 7    1  0.6584658E-006  0.1211375E+03  0.7561462E-02  0.1241232E+00
          1   -1    0    0  501    0  0.00000000000E+00  0.00000000000E+00  0.38422221714E+03  0.38422221714E+03  0.00000000000E+00 0. -1.
         -1   -1    0    0    0  501 -0.00000000000E+00 -0.00000000000E+00 -0.60291056830E+02  0.60291056830E+02  0.00000000000E+00 0.  1.
         23    2    1    2    0    0  0.53732096863E+02  0.89652726639E+02  0.18723960353E+03  0.23177487324E+03  0.87955517780E+02 0.  0.
          5    1    1    2  502    0 -0.27016597329E+02  0.87202542118E+00  0.11171629588E+03  0.11501591249E+03  0.41800000000E+01 0. -1.
         -5    1    1    2    0  502 -0.26715499534E+02 -0.90524752060E+02  0.24975260891E+02  0.97722488238E+02  0.41800000000E+01 0. -1.
        -11    1    3    3    0    0 -0.13328874077E+02  0.16380573206E+02  0.15333994096E+01  0.21173884303E+02  0.00000000000E+00 0.  1.
         11    1    3    3    0    0  0.67060970940E+02  0.73272153433E+02  0.18570620412E+03  0.21060098894E+03  0.00000000000E+00 0. -1.
</event>
<event>
 7    1  0.6584658E-006  0.1847970E+03  0.7561462E-02  0.1163240E+00
         -2   -1    0    0    0  501 -0.00000000000E+00  0.00000000000E+00  0.73446510186E+03  0.73446510186E+03  0.00000000000E+00 0.  1.
          2   -1    0    0  501    0  0.00000000000E+00 -0.00000000000E+00 -0.15819665759E+03  0.15819665759E+03  0.00000000000E+00 0. -1.
         23    2    1    2    0    0 -0.56424019959E+02 -0.11017101236E+03 -0.93463937613E+02  0.18009893749E+03  0.91535772573E+02 0.  0.
          5    1    1    2  502    0 -0.25764073249E+02  0.14659694614E+03  0.48006275385E+03  0.50262528003E+03  0.41800000000E+01 0. -1.
         -5    1    1    2    0  502  0.82188093207E+02 -0.36425933778E+02  0.18966962802E+03  0.20993754193E+03  0.41800000000E+01 0.  1.
        -11    1    3    3    0    0 -0.59670999323E+02 -0.77236122245E+02 -0.20147574376E+02  0.99659277004E+02  0.00000000000E+00 0. -1.
         11    1    3    3    0    0  0.32469793647E+01 -0.32934890113E+02 -0.73316363236E+02  0.80439660491E+02  0.00000000000E+00 0.  1.
</event>
<event>
 7    1  0.6584658E-006  0.9315340E+02  0.7561462E-02  0.1295390E+00
          2   -1    0    0  501    0  0.00000000000E+00  0.00000000000E+00  0.89291230098E+02  0.89291230098E+02  0.00000000000E+00 0. -1.
         -2   -1    0    0    0  501 -0.00000000000E+00 -0.00000000000E+00 -0.22751648093E+03  0.22751648093E+03  0.00000000000E+00 0.  1.
         23    2    1    2    0    0  0.79064115514E+02  0.10744543423E+01 -0.74496502188E+01  0.11931314165E+03  0.89038416803E+02 0.  0.
          5    1    1    2  502    0 -0.30626781316E+02  0.20923449096E+02 -0.13862094324E+03  0.14355845068E+03  0.41800000000E+01 0. -1.
         -5    1    1    2    0  502 -0.48437334199E+02 -0.21997903438E+02  0.78453426278E+01  0.53936118704E+02  0.41800000000E+01 0. -1.
        -11    1    3    3    0    0  0.64503705549E+02  0.23693461752E+02 -0.38067145878E+02  0.78557085961E+02  0.00000000000E+00 0.  1.
         11    1    3    3    0    0  0.14560409965E+02 -0.22619007409E+02  0.30617495660E+02  0.40756055685E+02  0.00000000000E+00 0. -1.
</event>
<event>
 7    1  0.6584658E-006  0.1049527E+03  0.7561462E-02  0.1270213E+00
          1   -1    0    0  501    0  0.00000000000E+00  0.00000000000E+00  0.76856239466E+03  0.76856239466E+03  0.00000000000E+00 0. -1.
         -1   -1    0    0    0  501 -0.00000000000E+00 -0.00000000000E+00 -0.17879030783E+02  0.17879030783E+02  0.00000000000E+00 0.  1.
         23    2    1    2    0    0  0.62163538563E+01 -0.33972159498E+02  0.41171876801E+03  0.42348424528E+03  0.92918304930E+02 0.  0.
          5    1    1    2  502    0 -0.16756600481E+02 -0.36617050517E+02  0.45476684541E+02  0.60886725032E+02  0.41800000000E+01 0. -1.
         -5    1    1    2    0  502  0.10540246624E+02  0.70589210015E+02  0.29348791133E+03  0.30207045514E+03  0.41800000000E+01 0. -1.
        -11    1    3    3    0    0  0.40619277038E+02 -0.46105299487E+02  0.22524800310E+03  0.23347866542E+03  0.00000000000E+00 0.  1.
         11    1    3    3    0    0 -0.34402923181E+02  0.12133139990E+02  0.18647076491E+03  0.19000557985E+03  0.00000000000E+00 0. -1.
</event>
<event>
 7    1  0.6584658E-006  0.3444467E+03  0.7561462E-02  0.1064918E+00
         -2   -1    0    0    0  501 -0.00000000000E+00  0.00000000000E+00  0.14157542816E+03  0.14157542816E+03  0.00000000000E+00 0.  1.
          2   -1    0    0  501    0  0.00000000000E+00 -0.00000000000E+00 -0.87394669236E+03  0.87394669236E+03  0.00000000000E+00 0. -1.
         23    2    1    2    0    0 -0.33309684186E+03 -0.28464021194E+02 -0.39192298920E+03  0.52225049978E+03  0.85896731574E+02 0.  0.
          5    1    1    2  502    0  0.32716887245E+01 -0.12958013152E+02  0.39992227912E+01  0.14562974796E+02  0.41800000000E+01 0.  1.
         -5    1    1    2    0  502  0.32982515314E+03  0.41422034346E+02 -0.34444749779E+03  0.47870864595E+03  0.41800000000E+01 0.  1.
        -11    1    3    3    0    0 -0.27326107692E+03 -0.51972794997E+02 -0.29073718035E+03  0.40236910371E+03  0.00000000000E+00 0. -1.
         11    1    3    3    0    0 -0.59835764943E+02  0.23508773804E+02 -0.10118580885E+03  0.11988139607E+03  0.00000000000E+00 0.  1.
</event>
<event>
 7    1  0.6584658E-006  0.9017057E+02  0.7561462E-02  0.1302439E+00
         -2   -1    0    0    0  501 -0.00000000000E+00  0.00000000000E+00  0.32823606488E+03  0.32823606488E+03  0.00000000000E+00 0.  1.
          2   -1    0    0  501    0  0.00000000000E+00 -0.00000000000E+00 -0.40067082637E+02  0.40067082637E+02  0.00000000000E+00 0. -1.
         23    2    1    2    0    0  0.75715143131E+01  0.33435850260E+02  0.15968321579E+03  0.18573851768E+03  0.88457807068E+02 0.  0.
          5    1    1    2  502    0  0.46419782267E+02 -0.51863636024E+02  0.51652958360E+02  0.86776341446E+02  0.41800000000E+01 0. -1.
         -5    1    1    2    0  502 -0.53991296580E+02  0.18427785765E+02  0.76832808092E+02  0.95788288396E+02  0.41800000000E+01 0. -1.
        -11    1    3    3    0    0 -0.94390464553E+01 -0.54970935439E+01 -0.74941708847E+01  0.13246744229E+02  0.00000000000E+00 0. -1.
         11    1    3    3    0    0  0.17010560768E+02  0.38932943804E+02  0.16717738668E+03  0.17249177345E+03  0.00000000000E+00 0.  1.
</event>
<event>
 7    1  0.6584658E-006  0.1069886E+03  0.7561462E-02  0.1266250E+00
         -1   -1    0    0    0  501 -0.00000000000E+00  0.00000000000E+00  0.17422701895E+02  0.17422701895E+02  0.00000000000E+00 0.  1.
          1   -1    0    0  501    0  0.00000000000E+00 -0.00000000000E+00 -0.94475194975E+03  0.94475194975E+03  0.00000000000E+00 0. -1.
         23    2    1    2    0    0 -0.67328396808E+02  0.17801684282E+02 -0.38335358117E+03  0.39967272887E+03  0.89041052499E+02 0.  0.
          5    1    1    2  502    0 -0.15708025809E+02  0.52682125039E-01 -0.52140392358E+01  0.17070543500E+02  0.41800000000E+01 0. -1.
         -5    1    1    2    0  502  0.83036422617E+02 -0.17854366407E+02 -0.53876162746E+03  0.54543137928E+03  0.41800000000E+01 0. -1.
        -11    1    3    3    0    0 -0.87555170826E+02  0.25262037420E+02 -0.29678048845E+03  0.31045569217E+03  0.00000000000E+00 0. -1.
         11    1    3    3    0    0  0.20226774019E+02 -0.74603531378E+01 -0.86573092712E+02  0.89217036702E+02  0.00000000000E+00 0.  1.
</event>
<event>
 7    1  0.6584658E-006  0.1195335E+03  0.7561462E-02  0.1243869E+00
          1   -1    0    0  501    0  0.00000000000E+00  0.00000000000E+00  0.17660317907E+03  0.17660317907E+03  0.00000000000E+00 0. -1.
         -1   -1    0    0    0  501 -0.00000000000E+00 -0.00000000000E+00 -0.85024578019E+02  0.85024578019E+02  0.00000000000E+00 0.  1.
         23    2    1    2    0    0  0.22032763900E+02  0.52105295965E+02  0.24323541394E+02  0.10874925541E+03  0.89634598972E+02 0.  0.
          5    1    1    2  502    0  0.29123661294E+02  0.27845458022E+02  0.31687676012E+02  0.51430908904E+02  0.41800000000E+01 0. -1.
         -5    1    1    2    0  502 -0.51156425194E+02 -0.79950753987E+02  0.35567383647E+02  0.10144759278E+03  0.41800000000E+01 0. -1.
        -11    1    3    3    0    0 -0.32999409617E+02  0.28747681206E+02 -0.11121952422E+01  0.43779300908E+02  0.00000000000E+00 0.  1.
         11    1    3    3    0    0  0.55032173517E+02  0.23357614759E+02  0.25435736636E+02  0.64969954498E+02  0.00000000000E+00 0. -1.
</event>
<event>
 7    1  0.6584658E-006  0.3316117E+03  0.7561462E-02  0.1070426E+00
         -2   -1    0    0    0  501 -0.00000000000E+00  0.00000000000E+00  0.12128066336E+03  0.12128066336E+03  0.00000000000E+00 0.  1.
          2   -1    0    0  501    0  0.00000000000E+00 -0.00000000000E+00 -0.98155923258E+03  0.98155923258E+03  0.00000000000E+00 0. -1.
         23    2    1    2    0    0  0.39973829022E+02  0.31138746868E+03 -0.56991089713E+03  0.65728187457E+03  0.93064328880E+02 0.  0.
          5    1    1    2  502    0 -0.37925738894E+02 -0.32289376426E+03 -0.27529400101E+03  0.42603169373E+03  0.41800000000E+01 0. -1.
         -5    1    1    2    0  502 -0.20480901276E+01  0.11506295582E+02 -0.15073671087E+02  0.19526327643E+02  0.41800000000E+01 0. -1.
        -11    1    3    3    0    0 -0.27410360856E+02  0.10736317270E+03 -0.22729579753E+03  0.25286668090E+03  0.00000000000E+00 0.  1.
         11    1    3    3    0    0  0.67384189878E+02  0.20402429598E+03 -0.34261509960E+03  0.40441519366E+03  0.00000000000E+00 0. -1.
</event>
<event>
 7    1  0.6584658E-006  0.1160280E+03  0.7561462E-02  0.1249797E+00
          1   -1    0    0  501    0  0.00000000000E+00  0.00000000000E+00  0.16648635199E+03  0.16648635199E+03  0.00000000000E+00 0. -1.
         -1   -1    0    0    0  501 -0.00000000000E+00 -0.00000000000E+00 -0.14435451514E+03  0.14435451514E+03  0.00000000000E+00 0.  1.
         23    2    1    2    0    0 -0.51616671705E+02 -0.94328127280E+02  0.32565656515E+02  0.14555457112E+03  0.92539368903E+02 0.  0.
          5    1    1    2  502    0 -0.19691179394E+01  0.33899517861E+02  0.52601186185E+02  0.62748800185E+02  0.41800000000E+01 0.  1.
         -5    1    1    2    0  502  0.53585789644E+02  0.60428609419E+02 -0.63035005850E+02  0.10253749583E+03  0.41800000000E+01 0.  1.
        -11    1    3    3    0    0 -0.59326503256E+02 -0.71688007335E+02  0.58784803859E+02  0.11006569651E+03  0.00000000000E+00 0. -1.
         11    1    3    3    0    0  0.77098315513E+01 -0.22640119945E+02 -0.26219147345E+02  0.35488874611E+02  0.00000000000E+00 0.  1.
</event>
<event>
 7    1  0.6584658E-006  0.9063048E+02  0.7561462E-02  0.1301332E+00
         -1   -1    0    0    0  501 -0.00000000000E+00  0.00000000000E+00  0.35253270953E+03  0.35253270953E+03  0.00000000000E+00 0.  1.
          1   -1    0    0  501    0  0.00000000000E+00 -0.00000000000E+00 -0.45455754159E+02  0.45455754159E+02  0.00000000000E+00 0. -1.
         23    2    1    2    0    0 -0.33214645130E+02  0.32143918709E+02  0.59709897638E+02  0.11696456271E+03  0.89325208607E+02 0.  0.
          5    1    1    2  502    0  0.54936339856E+02 -0.65804686744E+02  0.20659084997E+03  0.22370853789E+03  0.41800000000E+01 0. -1.
         -5    1    1    2    0  502 -0.21721694726E+02  0.33660768035E+02  0.40776207766E+02  0.57315363091E+02  0.41800000000E+01 0. -1.
        -11    1    3    3    0    0 -0.11719363877E+02  0.31548819936E+02  0.80377605463E+02  0.87139147282E+02  0.00000000000E+00 0.  1.
         11    1    3    3    0    0 -0.21495281253E+02  0.59509877333E+00 -0.20667707825E+02  0.29825415427E+02  0.00000000000E+00 0. -1.
</event>
<event>
 7    1  0.6584658E-006  0.1491896E+03  0.7561462E-02  0.1201472E+00
         -1   -1    0    0    0  501 -0.00000000000E+00  0.00000000000E+00  0.57760942488E+02  0.57760942488E+02  0.00000000000E+00 0.  1.
          1   -1    0    0  501    0  0.00000000000E+00 -0.00000000000E+00 -0.48370371818E+03  0.48370371818E+03  0.00000000000E+00 0. -1.
         23    2    1    2    0    0  0.11662108575E+03 -0.50381214754E+02 -0.18772396101E+03  0.24391944249E+03  0.90098082360E+02 0.  0.
          5    1    1    2  502    0 -0.62055494605E+02  0.85585869946E+02 -0.10385366672E+03  0.14825276401E+03  0.41800000000E+01 0. -1.
         -5    1    1    2    0  502 -0.54565591148E+02 -0.35204655192E+02 -0.13436514796E+03  0.14929245417E+03  0.41800000000E+01 0. -1.
        -11    1    3    3    0    0  0.99785751797E+02 -0.38742131890E+02 -0.19479253096E+03  0.22226623487E+03  0.00000000000E+00 0. -1.
         11    1    3    3    0    0  0.16835333956E+02 -0.11639082864E+02  0.70685699462E+01  0.21653207624E+02  0.00000000000E+00 0.  1.
</event>
<event>
 7    1  0.6584658E-006  0.1049526E+03  0.7561462E-02  0.1270213E+00
          2   -1    0    0  501    0  0.00000000000E+00  0.00000000000E+00  0.58717497305E+03  0.58717497305E+03  0.00000000000E+00 0. -1.
         -2   -1    0    0    0  501 -0.00000000000E+00 -0.00000000000E+00 -0.22844316841E+02  0.22844316841E+02  0.00000000000E+00 0.  1.
         23    2    1    2    0    0  0.35198400852E+02  0.26264118287E+00  0.30200090411E+03  0.31726817866E+03  0.90639697185E+02 0.  0.
          5    1    1    2  502    0  0.29239942877E+01  0.53092186143E+02  0.61302273844E+02  0.81257437508E+02  0.41800000000E+01 0.  1.
         -5    1    1    2    0  502 -0.38122395140E+02 -0.53354827326E+02  0.20102747826E+03  0.21149367372E+03  0.41800000000E+01 0.  1.
        -11    1    3    3    0    0  0.62650320388E+02  0.55807512808E+01  0.14898109544E+03  0.16171448367E+03  0.00000000000E+00 0.  1.
         11    1    3    3    0    0 -0.27451919535E+02 -0.53181100979E+01  0.15301980866E+03  0.15555369499E+03  0.00000000000E+00 0. -1.
</event>
<event>
 7    1  0.6584658E-006  0.1442931E+03  0.7561462E-02  0.1207666E+00
          1   -1    0    0  501    0  0.00000000000E+00  0.00000000000E+00  0.50513022462E+03  0.50513022462E+03  0.00000000000E+00 0. -1.
         -1   -1    0    0    0  501 -0.00000000000E+00 -0.00000000000E+00 -0.17354605155E+03  0.17354605155E+03  0.00000000000E+00 0.  1.
         23    2    1    2    0    0  0.34802300765E+02  0.10510160210E+03  0.43769603286E+03  0.46078003234E+03  0.92102519623E+02 0.  0.
          5    1    1    2  502    0 -0.36609656942E+02  0.15632388117E+02  0.18705491922E+02  0.44181516132E+02  0.41800000000E+01 0. -1.
         -5    1    1    2    0  502  0.18073561773E+01 -0.12073399022E+03 -0.12481735171E+03  0.17371472769E+03  0.41800000000E+01 0.  1.
        -11    1    3    3    0    0  0.37115415841E+02  0.19163586001E+02  0.58015869096E+02  0.71488727701E+02  0.00000000000E+00 0. -1.
         11    1    3    3    0    0 -0.23131150759E+01  0.85938016097E+02  0.37968016376E+03  0.38929130464E+03  0.00000000000E+00 0.  1.
</event>
<event>
 7    1  0.6584658E-006  0.9189605E+02  0.7561462E-02  0.1298324E+00
         -2   -1    0    0    0  501 -0.00000000000E+00  0.00000000000E+00  0.23421302602E+03  0.23421302602E+03  0.00000000000E+00 0.  1.
          2   -1    0    0  501    0  0.00000000000E+00 -0.00000000000E+00 -0.60997611868E+02  0.60997611868E+02  0.00000000000E+00 0. -1.
         23    2    1    2    0    0 -0.27599356640E+02 -0.16322491574E+02  0.25886311218E+02  0.99300989660E+02  0.90346207563E+02 0.  0.
          5    1    1    2  502    0 -0.37951575024E+02  0.46251538592E+01  0.11598653166E+03  0.12219681674E+03  0.41800000000E+01 0. -1.
         -5    1    1    2    0  502  0.65550931664E+02  0.11697337715E+02  0.31342571273E+02  0.73712831486E+02  0.41800000000E+01 0. -1.
        -11    1    3    3    0    0 -0.30285616422E+02 -0.42562214303E+02 -0.11556217724E+02  0.53500530993E+02  0.00000000000E+00 0. -1.
         11    1    3    3    0    0  0.26862597818E+01  0.26239722729E+02  0.37442528942E+02  0.45800458667E+02  0.00000000000E+00 0.  1.
</event>
<event>
 7    1  0.6584658E-006  0.8933899E+02  0.7561462E-02  0.1304460E+00
          1   -1    0    0  501    0  0.00000000000E+00  0.00000000000E+00  0.33797465376E+03  0.33797465376E+03  0.00000000000E+00 0. -1.
         -1   -1    0    0    0  501 -0.00000000000E+00 -0.00000000000E+00 -0.38597649973E+02  0.38597649973E+02  0.00000000000E+00 0.  1.
         23    2    1    2    0    0  0.28560358451E+02 -0.17839689824E+02  0.10814038103E+03  0.14559621516E+03  0.91487525114E+02 0.  0.
          5    1    1    2  502    0 -0.58556158942E+01  0.64490977582E+02  0.54754516567E+02  0.84905264333E+02  0.41800000000E+01 0. -1.
         -5    1    1    2    0  502 -0.22704742557E+02 -0.46651287758E+02  0.13648210619E+03  0.14607082424E+03  0.41800000000E+01 0. -1.
        -11    1    3    3    0    0  0.36380645885E+02  0.57964651842E+01  0.11418160250E+03  0.11997745102E+03  0.00000000000E+00 0. -1.
         11    1    3    3    0    0 -0.78202874347E+01 -0.23636155008E+02 -0.60412214716E+01  0.25618764139E+02  0.00000000000E+00 0.  1.
</event>
<event>
 7    1  0.6584658E-006  0.1727794E+03  0.7561462E-02  0.1174980E+00
          1   -1    0    0  501    0  0.00000000000E+00  0.00000000000E+00  0.32625846660E+03  0.32625846660E+03  0.00000000000E+00 0. -1.
         -1   -1    0    0    0  501 -0.00000000000E+00 -0.00000000000E+00 -0.13225804882E+03  0.13225804882E+03  0.00000000000E+00 0.  1.
         23    2    1    2    0    0  0.21645639964E+02  0.14859035641E+03  0.19473567674E+03  0.26307989279E+03  0.93495553076E+02 0.  0.
          5    1    1    2  502    0  0.28106179099E+02  0.92250526051E+01 -0.14494563036E+01  0.29910403252E+02  0.41800000000E+01 0. -1.
         -5    1    1    2    0  502 -0.49751819063E+02 -0.15781540902E+03  0.71419733477E+00  0.16552621938E+03  0.41800000000E+01 0. -1.
        -11    1    3    3    0    0  0.41135456509E+01  0.27531645636E+02  0.11199446824E+03  0.11540222566E+03  0.00000000000E+00 0. -1.
         11    1    3    3    0    0  0.17532094313E+02  0.12105871078E+03  0.82741208501E+02  0.14767766713E+03  0.00000000000E+00 0.  1.
</event>
<event>
 7    1  0.6584658E-006  0.1130356E+03  0.7561462E-02  0.1255050E+00
         -2   -1    0    0    0  501 -0.00000000000E+00  0.00000000000E+00  0.73773062331E+02  0.73773062331E+02  0.00000000000E+00 0. -1.
          2   -1    0    0  501    0  0.00000000000E+00 -0.00000000000E+00 -0.28526577346E+03  0.28526577346E+03  0.00000000000E+00 0.  1.
         23    2    1    2    0    0  0.65230085824E+02 -0.70084619475E+02 -0.10688117783E+03  0.16994233450E+03  0.91049398130E+02 0.  0.
          5    1    1    2  502    0 -0.23154594762E+02  0.10029036771E+02  0.27739629664E+02  0.37731635150E+02  0.41800000000E+01 0.  1.
         -5    1    1    2    0  502 -0.42075491062E+02  0.60055582704E+02 -0.13235116297E+03  0.15136486614E+03  0.41800000000E+01 0.  1.
        -11    1    3    3    0    0  0.79469140563E+02 -0.30744297986E+02 -0.92345467206E+02  0.12565126929E+03  0.00000000000E+00 0.  1.
         11    1    3    3    0    0 -0.14239054739E+02 -0.39340321489E+02 -0.14535710620E+02  0.44291065215E+02  0.00000000000E+00 0. -1.
</event>
<event>
 7    1  0.6584658E-006  0.1036114E+03  0.7561462E-02  0.1272880E+00
         -1   -1    0    0    0  501 -0.00000000000E+00  0.00000000000E+00  0.36652377897E+02  0.36652377897E+02  0.00000000000E+00 0.  1.
          1   -1    0    0  501    0  0.00000000000E+00 -0.00000000000E+00 -0.35662050480E+03  0.35662050480E+03  0.00000000000E+00 0. -1.
         23    2    1    2    0    0  0.37929887867E+01  0.52871846644E+01 -0.19919516545E+03  0.21927118282E+03  0.91426454561E+02 0.  0.
          5    1    1    2  502    0  0.24087744237E+01 -0.64944801488E+02 -0.61527856381E+02  0.89592292890E+02  0.41800000000E+01 0.  1.
         -5    1    1    2    0  502 -0.62017632104E+01  0.59657616823E+02 -0.59245105072E+02  0.84409406982E+02  0.41800000000E+01 0.  1.
        -11    1    3    3    0    0 -0.51605527897E+00  0.43508202344E+02 -0.55531263661E+02  0.70547510431E+02  0.00000000000E+00 0.  1.
         11    1    3    3    0    0  0.43090440657E+01 -0.38221017680E+02 -0.14366390179E+03  0.14872367239E+03  0.00000000000E+00 0. -1.
</event>
<event>
 7    1  0.6584658E-006  0.8780603E+02  0.7561462E-02  0.1308253E+00
          1   -1    0    0  501    0  0.00000000000E+00  0.00000000000E+00  0.10680342074E+03  0.10680342074E+03  0.00000000000E+00 0. -1.
         -1   -1    0    0    0  501 -0.00000000000E+00 -0.00000000000E+00 -0.12527530250E+03  0.12527530250E+03  0.00000000000E+00 0.  1.
         23    2    1    2    0    0  0.16290984145E+02  0.48511302809E+01  0.28513657966E+02  0.97378122150E+02  0.91545291269E+02 0.  0.
          5    1    1    2  502    0 -0.63649949635E+02  0.85266585706E+01  0.30083816258E+01  0.64424706091E+02  0.41800000000E+01 0.  1.
         -5    1    1    2    0  502  0.47358965490E+02 -0.13377788851E+02 -0.49993921352E+02  0.70275895007E+02  0.41800000000E+01 0.  1.
        -11    1    3    3    0    0  0.24793151829E+02  0.27886278437E+02 -0.20487960215E+02  0.42568784531E+02  0.00000000000E+00 0.  1.
         11    1    3    3    0    0 -0.85021676845E+01 -0.23035148156E+02  0.49001618181E+02  0.54809337619E+02  0.00000000000E+00 0. -1.
</event>
<event>
 7    1  0.6584658E-006  0.1172263E+03  0.7561462E-02  0.1247744E+00
          1   -1    0    0  501    0  0.00000000000E+00  0.00000000000E+00  0.20706736428E+03  0.20706736428E+03  0.00000000000E+00 0. -1.
         -1   -1    0    0    0  501 -0.00000000000E+00 -0.00000000000E+00 -0.32144753599E+03  0.32144753599E+03  0.00000000000E+00 0.  1.
         23    2    1    2    0    0  0.79935106719E+02 -0.78175103363E+01  0.17290172062E+03  0.20511072086E+03  0.75661536229E+02 0.  0.
          5    1    1    2  502    0 -0.92016117531E+02 -0.22167314483E+02 -0.27076632448E+03  0.28686273824E+03  0.41800000000E+01 0. -1.
         -5    1    1    2    0  502  0.12081010812E+02  0.29984824819E+02 -0.16515567851E+02  0.36541441175E+02  0.41800000000E+01 0. -1.
        -11    1    3    3    0    0 -0.16355864238E+01  0.20654081057E+02  0.16714832746E+02  0.26620515415E+02  0.00000000000E+00 0.  1.
         11    1    3    3    0    0  0.81570693143E+02 -0.28471591393E+02  0.15618688787E+03  0.17849020544E+03  0.00000000000E+00 0. -1.
</event>
<event>
 7    1  0.6584658E-006  0.1141726E+03  0.7561462E-02  0.1253032E+00
         -1   -1    0    0    0  501 -0.00000000000E+00  0.00000000000E+00  0.24927616785E+02  0.24927616785E+02  0.00000000000E+00 0.  1.
          1   -1    0    0  501    0  0.00000000000E+00 -0.00000000000E+00 -0.56250286339E+03  0.56250286339E+03  0.00000000000E+00 0. -1.
         23    2    1    2    0    0 -0.45927841331E+02  0.16283117315E+02 -0.21145056799E+03  0.23475669770E+03  0.89581571176E+02 0.  0.
          5    1    1    2  502    0  0.34613384609E+02 -0.69063583450E+02 -0.22559451373E+03  0.23849155536E+03  0.41800000000E+01 0. -1.
         -5    1    1    2    0  502  0.11314456722E+02  0.52780466135E+02 -0.10053016488E+03  0.11418222711E+03  0.41800000000E+01 0. -1.
        -11    1    3    3    0    0  0.14541065160E+02  0.31317896462E+02 -0.11377217445E+03  0.11889642927E+03  0.00000000000E+00 0.  1.
         11    1    3    3    0    0 -0.60468906491E+02 -0.15034779147E+02 -0.97678393541E+02  0.11586026843E+03  0.00000000000E+00 0. -1.
</event>
<event>
 7    1  0.6584658E-006  0.4803300E+02  0.7561462E-02  0.1456249E+00
         -1   -1    0    0    0  501 -0.00000000000E+00  0.00000000000E+00  0.45198881987E+02  0.45198881987E+02  0.00000000000E+00 0.  1.
          1   -1    0    0  501    0  0.00000000000E+00 -0.00000000000E+00 -0.26948964976E+03  0.26948964976E+03  0.00000000000E+00 0. -1.
         23    2    1    2    0    0 -0.12763408863E+02 -0.82893215956E+01 -0.12178724997E+03  0.15225312547E+03  0.90095851754E+02 0.  0.
          5    1    1    2  502    0 -0.11832089679E+02  0.90625787682E+01  0.26689473935E+02  0.30853348263E+02  0.41800000000E+01 0. -1.
         -5    1    1    2    0  502  0.24595498542E+02 -0.77325717259E+00 -0.12919299175E+03  0.13158205802E+03  0.41800000000E+01 0. -1.
        -11    1    3    3    0    0 -0.33344949691E+02  0.24538701951E+00 -0.54339561408E+01  0.33785703545E+02  0.00000000000E+00 0.  1.
         11    1    3    3    0    0  0.20581540828E+02 -0.85347086151E+01 -0.11635329383E+03  0.11846742193E+03  0.00000000000E+00 0. -1.
</event>
<event>
 7    1  0.6584658E-006  0.9251556E+02  0.7561462E-02  0.1296872E+00
         -1   -1    0    0    0  501 -0.00000000000E+00  0.00000000000E+00  0.56879457876E+02  0.56879457876E+02  0.00000000000E+00 0.  1.
          1   -1    0    0  501    0  0.00000000000E+00 -0.00000000000E+00 -0.25037952868E+03  0.25037952868E+03  0.00000000000E+00 0. -1.
         23    2    1    2    0    0  0.27472363030E+02 -0.31493652933E+02 -0.11750402158E+03  0.15504386544E+03  0.92113105569E+02 0.  0.
          5    1    1    2  502    0  0.20634878011E+02  0.35179265598E+02  0.19304227260E+02  0.45315609989E+02  0.41800000000E+01 0.  1.
         -5    1    1    2    0  502 -0.48107241041E+02 -0.36856126649E+01 -0.95300276486E+02  0.10689951113E+03  0.41800000000E+01 0.  1.
        -11    1    3    3    0    0  0.64147092470E+01 -0.59900708456E+02 -0.96951958235E+02  0.11414431906E+03  0.00000000000E+00 0.  1.
         11    1    3    3    0    0  0.21057653783E+02  0.28407055523E+02 -0.20552063347E+02  0.40899546381E+02  0.00000000000E+00 0. -1.
</event>
<event>
 7    1  0.6584658E-006  0.9332754E+02  0.7561462E-02  0.1294988E+00
          3   -1    0    0  501    0  0.00000000000E+00  0.00000000000E+00  0.19374450862E+03  0.19374450862E+03  0.00000000000E+00 0. -1.
         -3   -1    0    0    0  501 -0.00000000000E+00 -0.00000000000E+00 -0.94535397384E+02  0.94535397384E+02  0.00000000000E+00 0.  1.
         23    2    1    2    0    0  0.41832267991E+02 -0.66549061347E+02  0.63719467713E+02  0.13633983954E+03  0.91376501730E+02 0.  0.
          5    1    1    2  502    0 -0.55758461764E+02  0.46072468019E+02 -0.32540000136E+02  0.79422933568E+02  0.41800000000E+01 0. -1.
         -5    1    1    2    0  502  0.13926193773E+02  0.20476593328E+02  0.68029643655E+02  0.72517132894E+02  0.41800000000E+01 0. -1.
        -11    1    3    3    0    0 -0.17978267179E+01 -0.35486923018E+02 -0.17062137248E+02  0.39416626107E+02  0.00000000000E+00 0.  1.
         11    1    3    3    0    0  0.43630094709E+02 -0.31062138329E+02  0.80781604961E+02  0.96923213432E+02  0.00000000000E+00 0. -1.
</event>
<event>
 7    1  0.6584658E-006  0.4951562E+03  0.7561462E-02  0.1015051E+00
         -2   -1    0    0    0  501 -0.00000000000E+00  0.00000000000E+00  0.38026052898E+03  0.38026052898E+03  0.00000000000E+00 0. -1.
          2   -1    0    0  501    0  0.00000000000E+00 -0.00000000000E+00 -0.72942954971E+03  0.72942954971E+03  0.00000000000E+00 0.  1.
         23    2    1    2    0    0  0.15023338605E+01  0.48687315579E+03 -0.34887915407E+03  0.60700241150E+03  0.98425284265E+02 0.  0.
          5    1    1    2  502    0  0.41712922691E+02 -0.57702127808E+02  0.56254456284E+00  0.71325257304E+02  0.41800000000E+01 0.  1.
         -5    1    1    2    0  502 -0.43215256552E+02 -0.42917102798E+03 -0.85241122132E+00  0.43136240988E+03  0.41800000000E+01 0.  1.
        -11    1    3    3    0    0  0.13840365188E+02  0.32001413787E+03 -0.28219247345E+03  0.42688780284E+03  0.00000000000E+00 0. -1.
         11    1    3    3    0    0 -0.12338031328E+02  0.16685901792E+03 -0.66686680624E+02  0.18011460866E+03  0.00000000000E+00 0.  1.
</event>
<event>
 7    1  0.6584658E-006  0.1066940E+03  0.7561462E-02  0.1266818E+00
          2   -1    0    0  501    0  0.00000000000E+00  0.00000000000E+00  0.63435757651E+03  0.63435757651E+03  0.00000000000E+00 0. -1.
         -2   -1    0    0    0  501 -0.00000000000E+00 -0.00000000000E+00 -0.25762344963E+02  0.25762344963E+02  0.00000000000E+00 0.  1.
         23    2    1    2    0    0 -0.81995508811E+01  0.61806308419E+02  0.32973617779E+03  0.34819409958E+03  0.92875893776E+02 0.  0.
          5    1    1    2  502    0 -0.42659159187E+02  0.16803353811E+02  0.93514825076E+02  0.10423363886E+03  0.41800000000E+01 0. -1.
         -5    1    1    2    0  502  0.50858710068E+02 -0.78609662230E+02  0.18534422868E+03  0.20769218303E+03  0.41800000000E+01 0. -1.
        -11    1    3    3    0    0 -0.21649191791E+02  0.53759344767E+02  0.32722927860E+03  0.33232176490E+03  0.00000000000E+00 0. -1.
         11    1    3    3    0    0  0.13449640910E+02  0.80469636520E+01  0.25068991909E+01  0.15872334679E+02  0.00000000000E+00 0.  1.
</event>
<event>
 7    1  0.6584658E-006  0.3251334E+03  0.7561462E-02  0.1073311E+00
         -2   -1    0    0    0  501 -0.00000000000E+00  0.00000000000E+00  0.47905595004E+02  0.47905595004E+02  0.00000000000E+00 0.  1.
          2   -1    0    0  501    0  0.00000000000E+00 -0.00000000000E+00 -0.23661982646E+04  0.23661982646E+04  0.00000000000E+00 0. -1.
         23    2    1    2    0    0  0.31203262830E+03 -0.48201446295E+02 -0.12867840203E+04  0.13281092806E+04  0.91506315902E+02 0.  0.
          5    1    1    2  502    0 -0.57878200697E+02 -0.32390235520E+02 -0.13188689436E+03  0.14768425366E+03  0.41800000000E+01 0.  1.
         -5    1    1    2    0  502 -0.25415442760E+03  0.80591681815E+02 -0.89962175493E+03  0.93831032531E+03  0.41800000000E+01 0.  1.
        -11    1    3    3    0    0  0.12169617056E+03 -0.33631894774E+02 -0.35008306122E+03  0.37215482266E+03  0.00000000000E+00 0.  1.
         11    1    3    3    0    0  0.19033645774E+03 -0.14569551520E+02 -0.93670095905E+03  0.95595445794E+03  0.00000000000E+00 0. -1.
</event>
<event>
 7    1  0.6584658E-006  0.1122774E+03  0.7561462E-02  0.1256410E+00
         -1   -1    0    0    0  501 -0.00000000000E+00  0.00000000000E+00  0.35103901272E+03  0.35103901272E+03  0.00000000000E+00 0. -1.
          1   -1    0    0  501    0  0.00000000000E+00 -0.00000000000E+00 -0.70373788888E+02  0.70373788888E+02  0.00000000000E+00 0.  1.
         23    2    1    2    0    0  0.65512835749E+02  0.16179170750E+02  0.68726048402E+01  0.11293472098E+03  0.90295743482E+02 0.  0.
          5    1    1    2  502    0  0.36511247244E+02 -0.15073762079E+02  0.68260334615E+02  0.78976168306E+02  0.41800000000E+01 0. -1.
         -5    1    1    2    0  502 -0.10202408299E+03 -0.11054086715E+01  0.20553228438E+03  0.22950191232E+03  0.41800000000E+01 0. -1.
        -11    1    3    3    0    0  0.51136221513E+02  0.32792729893E+02  0.40324425404E+02  0.72913205722E+02  0.00000000000E+00 0. -1.
         11    1    3    3    0    0  0.14376614236E+02 -0.16613559143E+02 -0.33451820564E+02  0.40021515256E+02  0.00000000000E+00 0.  1.
</event>
<event>
 7    1  0.6584658E-006  0.1288282E+03  0.7561462E-02  0.1229205E+00
         -1   -1    0    0    0  501 -0.00000000000E+00  0.00000000000E+00  0.50743891182E+02  0.50743891182E+02  0.00000000000E+00 0.  1.
          1   -1    0    0  501    0  0.00000000000E+00 -0.00000000000E+00 -0.40994233719E+03  0.40994233719E+03  0.00000000000E+00 0. -1.
         23    2    1    2    0    0 -0.90888246890E+02  0.15008910650E+01 -0.19330302560E+03  0.23389270484E+03  0.95272302254E+02 0.  0.
          5    1    1    2  502    0  0.66965390497E+02 -0.54238580797E+02 -0.13709150344E+03  0.16198067751E+03  0.41800000000E+01 0.  1.
         -5    1    1    2    0  502  0.23922856394E+02  0.52737689732E+02 -0.28803916972E+02  0.64812846020E+02  0.41800000000E+01 0.  1.
        -11    1    3    3    0    0 -0.63351654041E+02  0.33040625540E+02 -0.17337978588E+03  0.18752510541E+03  0.00000000000E+00 0. -1.
         11    1    3    3    0    0 -0.27536592849E+02 -0.31539734475E+02 -0.19923239713E+02  0.46367599432E+02  0.00000000000E+00 0.  1.
</event>
<event>
 7    1  0.6584658E-006  0.8255195E+02  0.7561462E-02  0.1321961E+00
         -1   -1    0    0    0  501 -0.00000000000E+00  0.00000000000E+00  0.64087419371E+02  0.64087419371E+02  0.00000000000E+00 0.  1.
          1   -1    0    0  501    0  0.00000000000E+00 -0.00000000000E+00 -0.22621094109E+03  0.22621094109E+03  0.00000000000E+00 0. -1.
         23    2    1    2    0    0 -0.11355804185E+02 -0.35672234880E+02 -0.11860034008E+03  0.15266395236E+03  0.88536879626E+02 0.  0.
          5    1    1    2  502    0  0.50047539315E+02  0.42533327178E+02  0.14539857002E+02  0.67399702922E+02  0.41800000000E+01 0. -1.
         -5    1    1    2    0  502 -0.38691735130E+02 -0.68610922983E+01 -0.58063038639E+02  0.70234705174E+02  0.41800000000E+01 0. -1.
        -11    1    3    3    0    0  0.98560112844E+01  0.70214957620E+01  0.98812003635E+01  0.15623075299E+02  0.00000000000E+00 0.  1.
         11    1    3    3    0    0 -0.21211815469E+02 -0.42693730642E+02 -0.12848154044E+03  0.13704087706E+03  0.00000000000E+00 0. -1.
</event>
<event>
 7    1  0.6584658E-006  0.7819064E+02  0.7561462E-02  0.1334266E+00
         -1   -1    0    0    0  501 -0.00000000000E+00  0.00000000000E+00  0.57496130975E+02  0.57496130975E+02  0.00000000000E+00 0.  1.
          1   -1    0    0  501    0  0.00000000000E+00 -0.00000000000E+00 -0.24580084035E+03  0.24580084035E+03  0.00000000000E+00 0. -1.
         23    2    1    2    0    0  0.22726504283E+02  0.15399705200E+02 -0.13332386867E+03  0.16375250381E+03  0.91027378459E+02 0.  0.
          5    1    1    2  502    0 -0.37399669476E+02  0.30937443942E+02 -0.72809408455E+02  0.87604469487E+02  0.41800000000E+01 0.  1.
         -5    1    1    2    0  502  0.14673165193E+02 -0.46337149142E+02  0.17828567749E+02  0.51939998030E+02  0.41800000000E+01 0.  1.
        -11    1    3    3    0    0 -0.15134744998E+02  0.14572340643E+02  0.39262803013E+01  0.21373565332E+02  0.00000000000E+00 0.  1.
         11    1    3    3    0    0  0.37861249280E+02  0.82736455683E+00 -0.13725014897E+03  0.14237893847E+03  0.00000000000E+00 0. -1.
</event>
<event>
 7    1  0.6584658E-006  0.7429577E+02  0.7561462E-02  0.1346066E+00
          2   -1    0    0  501    0  0.00000000000E+00  0.00000000000E+00  0.19748806790E+03  0.19748806790E+03  0.00000000000E+00 0. -1.
         -2   -1    0    0    0  501 -0.00000000000E+00 -0.00000000000E+00 -0.80939848734E+02  0.80939848734E+02  0.00000000000E+00 0.  1.
         23    2    1    2    0    0  0.58369885819E+02  0.12204551554E+02  0.75415281971E+02  0.13387155595E+03  0.93156503203E+02 0.  0.
          5    1    1    2  502    0 -0.56641729741E+02 -0.49236946670E+01  0.83625000112E+02  0.10120840558E+03  0.41800000000E+01 0.  1.
         -5    1    1    2    0  502 -0.17281560780E+01 -0.72808568868E+01 -0.42492062916E+02  0.43347955099E+02  0.41800000000E+01 0.  1.
        -11    1    3    3    0    0 -0.97369796484E+01  0.11275858614E+02 -0.14687420357E+02  0.20920661483E+02  0.00000000000E+00 0.  1.
         11    1    3    3    0    0  0.68106865468E+02  0.92869293943E+00  0.90102702328E+02  0.11295089447E+03  0.00000000000E+00 0. -1.
</event>
<event>
 7    1  0.6584658E-006  0.1074610E+03  0.7561462E-02  0.1265345E+00
         -4   -1    0    0    0  501 -0.00000000000E+00  0.00000000000E+00  0.59431807390E+02  0.59431807390E+02  0.00000000000E+00 0.  1.
          4   -1    0    0  501    0  0.00000000000E+00 -0.00000000000E+00 -0.24992947651E+03  0.24992947651E+03  0.00000000000E+00 0. -1.
         23    2    1    2    0    0 -0.39326342262E+02  0.10210689790E+02 -0.11139493813E+03  0.15588340646E+03  0.10119280996E+03 0.  0.
          5    1    1    2  502    0 -0.95081919564E+01 -0.52092401580E+02 -0.70747792739E+02  0.88468901847E+02  0.41800000000E+01 0.  1.
         -5    1    1    2    0  502  0.48834534218E+02  0.41881711790E+02 -0.83549382530E+01  0.65008975595E+02  0.41800000000E+01 0.  1.
        -11    1    3    3    0    0 -0.62330905837E+02  0.27924494787E+02 -0.40818239624E+02  0.79567882451E+02  0.00000000000E+00 0.  1.
         11    1    3    3    0    0  0.23004563576E+02 -0.17713804997E+02 -0.70576698503E+02  0.76315524006E+02  0.00000000000E+00 0. -1.
</event>
<event>
 7    1  0.6584658E-006  0.1602810E+03  0.7561462E-02  0.1188380E+00
          1   -1    0    0  501    0  0.00000000000E+00  0.00000000000E+00  0.19676434191E+03  0.19676434191E+03  0.00000000000E+00 0. -1.
         -1   -1    0    0    0  501 -0.00000000000E+00 -0.00000000000E+00 -0.18472497704E+03  0.18472497704E+03  0.00000000000E+00 0.  1.
         23    2    1    2    0    0  0.11806316598E+03  0.16602091790E+02  0.86754526714E+02  0.17420737238E+03  0.92775643759E+02 0.  0.
          5    1    1    2  502    0  0.27207978206E+02  0.94247951605E+01 -0.49619334642E+02  0.57520879793E+02  0.41800000000E+01 0. -1.
         -5    1    1    2    0  502 -0.14527114419E+03 -0.26026886951E+02 -0.25095827201E+02  0.14976106677E+03  0.41800000000E+01 0.  1.
        -11    1    3    3    0    0  0.42807360181E+02  0.46174694561E+02  0.12020077714E+02  0.64101909267E+02  0.00000000000E+00 0.  1.
         11    1    3    3    0    0  0.75255805798E+02 -0.29572602771E+02  0.74734449000E+02  0.11010546312E+03  0.00000000000E+00 0. -1.
</event>
<event>
 7    1  0.6584658E-006  0.9756185E+02  0.7561462E-02  0.1285508E+00
         -2   -1    0    0    0  501 -0.00000000000E+00  0.00000000000E+00  0.72714214203E+02  0.72714214203E+02  0.00000000000E+00 0.  1.
          2   -1    0    0  501    0  0.00000000000E+00 -0.00000000000E+00 -0.16903692154E+03  0.16903692154E+03  0.00000000000E+00 0. -1.
         23    2    1    2    0    0 -0.63485366128E+01 -0.24386014108E+02 -0.51286286385E+02  0.10642975834E+03  0.89788800458E+02 0.  0.
          5    1    1    2  502    0 -0.35900498429E+02 -0.22109785440E+02 -0.57211638479E+02  0.71192221325E+02  0.41800000000E+01 0. -1.
         -5    1    1    2    0  502  0.42249035042E+02  0.46495799548E+02  0.12175217528E+02  0.64129156079E+02  0.41800000000E+01 0. -1.
        -11    1    3    3    0    0  0.33899797519E+02  0.11571734755E+02 -0.34936191746E+02  0.50036374876E+02  0.00000000000E+00 0. -1.
         11    1    3    3    0    0 -0.40248334131E+02 -0.35957748863E+02 -0.16350094639E+02  0.56393383463E+02  0.00000000000E+00 0.  1.
</event>
<event>
 7    1  0.6584658E-006  0.1253989E+03  0.7561462E-02  0.1234447E+00
         -1   -1    0    0    0  501 -0.00000000000E+00  0.00000000000E+00  0.50203985056E+03  0.50203985056E+03  0.00000000000E+00 0.  1.
          1   -1    0    0  501    0  0.00000000000E+00 -0.00000000000E+00 -0.44252335793E+02  0.44252335793E+02  0.00000000000E+00 0. -1.
         23    2    1    2    0    0 -0.58199627727E+02 -0.75730094349E+02  0.13856825380E+03  0.19038431614E+03  0.89010016365E+02 0.  0.
          5    1    1    2  502    0 -0.11268760712E+02  0.40627345972E+02  0.20275475160E+02  0.46969495438E+02  0.41800000000E+01 0. -1.
         -5    1    1    2    0  502  0.69468388439E+02  0.35102748377E+02  0.29894378580E+03  0.30893837477E+03  0.41800000000E+01 0. -1.
        -11    1    3    3    0    0 -0.65231303268E+02 -0.91988922342E+02  0.11752900197E+03  0.16288078789E+03  0.00000000000E+00 0. -1.
         11    1    3    3    0    0  0.70316755415E+01  0.16258827993E+02  0.21039251831E+02  0.27503528251E+02  0.00000000000E+00 0.  1.
</event>
<event>
 7    1  0.6584658E-006  0.1114034E+03  0.7561462E-02  0.1257993E+00
          2   -1    0    0  501    0  0.00000000000E+00  0.00000000000E+00  0.75448116100E+02  0.75448116100E+02  0.00000000000E+00 0. -1.
         -2   -1    0    0    0  501 -0.00000000000E+00 -0.00000000000E+00 -0.30426045988E+03  0.30426045988E+03  0.00000000000E+00 0.  1.
         23    2    1    2    0    0  0.14358581540E+02 -0.53003519718E+02 -0.16802608126E+02  0.13447930273E+03  0.12160104134E+03 0.  0.
          5    1    1    2  502    0 -0.54752596861E+02  0.17426765470E+02 -0.16082952431E+03  0.17083660998E+03  0.41800000000E+01 0.  1.
         -5    1    1    2    0  502  0.40394015321E+02  0.35576754248E+02 -0.51180211346E+02  0.74392663280E+02  0.41800000000E+01 0. -1.
        -11    1    3    3    0    0 -0.37376385093E+02 -0.45574606453E+02 -0.45858997470E+02  0.74679893980E+02  0.00000000000E+00 0.  1.
         11    1    3    3    0    0  0.51734966633E+02 -0.74289132658E+01  0.29056389344E+02  0.59799408748E+02  0.00000000000E+00 0. -1.
</event>
<event>
 7    1  0.6584658E-006  0.1152176E+03  0.7561462E-02  0.1251202E+00
          1   -1    0    0  501    0  0.00000000000E+00  0.00000000000E+00  0.14031545050E+02  0.14031545050E+02  0.00000000000E+00 0. -1.
         -1   -1    0    0    0  501 -0.00000000000E+00 -0.00000000000E+00 -0.16120571387E+04  0.16120571387E+04  0.00000000000E+00 0.  1.
         23    2    1    2    0    0 -0.28637087069E+02  0.38915868425E+02 -0.23862677156E+03  0.26009177866E+03  0.91490270795E+02 0.  0.
          5    1    1    2  502    0  0.71254538069E+01 -0.83724949725E+02 -0.87687894589E+03  0.88090566887E+03  0.41800000000E+01 0.  1.
         -5    1    1    2    0  502  0.21511633262E+02  0.44809081300E+02 -0.48251987625E+03  0.48509123627E+03  0.41800000000E+01 0.  1.
        -11    1    3    3    0    0  0.24354633883E+02  0.35853432499E+02 -0.15579589267E+03  0.16171263707E+03  0.00000000000E+00 0.  1.
         11    1    3    3    0    0 -0.52991720952E+02  0.30624359262E+01 -0.82830878885E+02  0.98379141591E+02  0.00000000000E+00 0. -1.
</event>
<event>
 7    1  0.6584658E-006  0.1718503E+03  0.7561462E-02  0.1175932E+00
         -2   -1    0    0    0  501 -0.00000000000E+00  0.00000000000E+00  0.42222592495E+02  0.42222592495E+02  0.00000000000E+00 0.  1.
          2   -1    0    0  501    0  0.00000000000E+00 -0.00000000000E+00 -0.84042326424E+03  0.84042326424E+03  0.00000000000E+00 0. -1.
         23    2    1    2    0    0  0.61439178566E+02  0.13141307674E+03 -0.49824964837E+03  0.52674897690E+03  0.90374792777E+02 0.  0.
          5    1    1    2  502    0 -0.92540162158E+02 -0.12493791952E+03 -0.21708302592E+03  0.26704995392E+03  0.41800000000E+01 0. -1.
         -5    1    1    2    0  502  0.31100983593E+02 -0.64751572160E+01 -0.82867997459E+02  0.88846925913E+02  0.41800000000E+01 0. -1.
        -11    1    3    3    0    0  0.41139957708E+02  0.25758664797E+02 -0.69934638891E+02  0.85128483184E+02  0.00000000000E+00 0. -1.
         11    1    3    3    0    0  0.20299220858E+02  0.10565441194E+03 -0.42831500947E+03  0.44162049372E+03  0.00000000000E+00 0.  1.
</event>
<event>
 7    1  0.6584658E-006  0.1620952E+03  0.7561462E-02  0.1186351E+00
         -1   -1    0    0    0  501 -0.00000000000E+00  0.00000000000E+00  0.32315379237E+03  0.32315379237E+03  0.00000000000E+00 0.  1.
          1   -1    0    0  501    0  0.00000000000E+00 -0.00000000000E+00 -0.94166914063E+02  0.94166914063E+02  0.00000000000E+00 0. -1.
         23    2    1    2    0    0  0.12385591370E+03  0.44990828300E+02  0.71138848156E+02  0.17663679170E+03  0.93676883346E+02 0.  0.
          5    1    1    2  502    0 -0.22208629287E+02  0.29423162020E+02 -0.19588613538E+01  0.37151786173E+02  0.41800000000E+01 0. -1.
         -5    1    1    2    0  502 -0.10164728442E+03 -0.74413990320E+02  0.15980689150E+03  0.20353212856E+03  0.41800000000E+01 0. -1.
        -11    1    3    3    0    0 -0.52756025359E+01  0.30673164869E+02  0.77442312937E+01  0.32072545012E+02  0.00000000000E+00 0. -1.
         11    1    3    3    0    0  0.12913151624E+03  0.14317663431E+02  0.63394616862E+02  0.14456424668E+03  0.00000000000E+00 0.  1.
</event>
<event>
 7    1  0.6584658E-006  0.1794954E+03  0.7561462E-02  0.1168292E+00
         -1   -1    0    0    0  501 -0.00000000000E+00  0.00000000000E+00  0.64019637728E+02  0.64019637728E+02  0.00000000000E+00 0.  1.
          1   -1    0    0  501    0  0.00000000000E+00 -0.00000000000E+00 -0.55389669217E+03  0.55389669217E+03  0.00000000000E+00 0. -1.
         23    2    1    2    0    0 -0.50766985544E+02  0.12785143669E+03 -0.32769822130E+03  0.37119087947E+03  0.10711334217E+03 0.  0.
          5    1    1    2  502    0 -0.10142251325E+01  0.23929858928E+02 -0.12595987674E+02  0.27382441572E+02  0.41800000000E+01 0.  1.
         -5    1    1    2    0  502  0.51781210676E+02 -0.15178129562E+03 -0.14958284547E+03  0.21934300886E+03  0.41800000000E+01 0.  1.
        -11    1    3    3    0    0  0.18051768361E+02 -0.96653774728E+01 -0.42573264859E+02  0.47241599712E+02  0.00000000000E+00 0.  1.
         11    1    3    3    0    0 -0.68818753905E+02  0.13751681416E+03 -0.28512495644E+03  0.32394927976E+03  0.00000000000E+00 0. -1.
</event>
<event>
 7    1  0.6584658E-006  0.1352491E+03  0.7561462E-02  0.1219868E+00
          1   -1    0    0  501    0  0.00000000000E+00  0.00000000000E+00  0.22959524737E+02  0.22959524737E+02  0.00000000000E+00 0. -1.
         -1   -1    0    0    0  501 -0.00000000000E+00 -0.00000000000E+00 -0.11348733737E+04  0.11348733737E+04  0.00000000000E+00 0.  1.
         23    2    1    2    0    0  0.52944928902E+01  0.12790968529E+03 -0.43884805444E+03  0.46137490704E+03  0.62372034724E+02 0.  0.
          5    1    1    2  502    0  0.21545886367E+01 -0.42232032716E+02 -0.42706387277E+02  0.60245288229E+02  0.41800000000E+01 0. -1.
         -5    1    1    2    0  502 -0.74490815270E+01 -0.85677652574E+02 -0.63035940727E+03  0.63621270319E+03  0.41800000000E+01 0. -1.
        -11    1    3    3    0    0 -0.23287697836E+02  0.97197397452E+02 -0.29078917721E+03  0.30748657942E+03  0.00000000000E+00 0.  1.
         11    1    3    3    0    0  0.28582190726E+02  0.30712287838E+02 -0.14805887723E+03  0.15388832762E+03  0.00000000000E+00 0. -1.
</event>
<event>
 7    1  0.6584658E-006  0.1264624E+03  0.7561462E-02  0.1232801E+00
         -2   -1    0    0    0  501 -0.00000000000E+00  0.00000000000E+00  0.29626693592E+02  0.29626693592E+02  0.00000000000E+00 0. -1.
          2   -1    0    0  501    0  0.00000000000E+00 -0.00000000000E+00 -0.77013491151E+03  0.77013491151E+03  0.00000000000E+00 0.  1.
         23    2    1    2    0    0  0.11035020797E+03 -0.17045393557E+02 -0.45636923411E+03  0.47491687552E+03  0.69321331280E+02 0.  0.
          5    1    1    2  502    0 -0.34707493083E+02  0.28974582260E+02 -0.19673497131E+02  0.49483890133E+02  0.41800000000E+01 0. -1.
         -5    1    1    2    0  502 -0.75642714889E+02 -0.11929188703E+02 -0.26446548668E+03  0.27536083945E+03  0.41800000000E+01 0.  1.
        -11    1    3    3    0    0  0.83539305192E+02  0.19226362942E+02 -0.31992379519E+03  0.33120945528E+03  0.00000000000E+00 0.  1.
         11    1    3    3    0    0  0.26810902781E+02 -0.36271756499E+02 -0.13644543892E+03  0.14370742023E+03  0.00000000000E+00 0. -1.
</event>
<event>
 7    1  0.6584658E-006  0.1021072E+03  0.7561462E-02  0.1275926E+00
         -1   -1    0    0    0  501 -0.00000000000E+00  0.00000000000E+00  0.38274676717E+03  0.38274676717E+03  0.00000000000E+00 0.  1.
          1   -1    0    0  501    0  0.00000000000E+00 -0.00000000000E+00 -0.65356201845E+02  0.65356201845E+02  0.00000000000E+00 0. -1.
         23    2    1    2    0    0  0.40718376441E+02  0.28769166635E+02  0.54623615846E+01  0.10835471873E+03  0.96048199087E+02 0.  0.
          5    1    1    2  502    0  0.20789609831E+02  0.25767295898E+02  0.18824594946E+03  0.19118099095E+03  0.41800000000E+01 0.  1.
         -5    1    1    2    0  502 -0.61507986272E+02 -0.54536462533E+02  0.12368225429E+03  0.14856725933E+03  0.41800000000E+01 0.  1.
        -11    1    3    3    0    0 -0.20498292059E+02 -0.87452687881E+00  0.29744217676E+02  0.36133962691E+02  0.00000000000E+00 0.  1.
         11    1    3    3    0    0  0.61216668501E+02  0.29643693514E+02 -0.24281856091E+02  0.72220756038E+02  0.00000000000E+00 0. -1.
</event>
<event>
 7    1  0.6584658E-006  0.1102227E+03  0.7561462E-02  0.1260158E+00
         -1   -1    0    0    0  501 -0.00000000000E+00  0.00000000000E+00  0.65464359980E+02  0.65464359980E+02  0.00000000000E+00 0.  1.
          1   -1    0    0  501    0  0.00000000000E+00 -0.00000000000E+00 -0.21185950613E+03  0.21185950613E+03  0.00000000000E+00 0. -1.
         23    2    1    2    0    0  0.26673956270E+02  0.34731702591E+02 -0.82296305880E+02  0.13009450362E+03  0.90741979268E+02 0.  0.
          5    1    1    2  502    0 -0.73038077806E+02 -0.40189068682E+02 -0.27905895815E+02  0.88010984953E+02  0.41800000000E+01 0.  1.
         -5    1    1    2    0  502  0.46364121536E+02  0.54573660915E+01 -0.36192944457E+02  0.59218377544E+02  0.41800000000E+01 0.  1.
        -11    1    3    3    0    0  0.35520966292E+02 -0.15748177328E+02 -0.77337001738E+01  0.39617600305E+02  0.00000000000E+00 0.  1.
         11    1    3    3    0    0 -0.88470100226E+01  0.50479879919E+02 -0.74562605707E+02  0.90476903311E+02  0.00000000000E+00 0. -1.
</event>
<event>
 7    1  0.6584658E-006  0.1013527E+03  0.7561462E-02  0.1277477E+00
          2   -1    0    0  501    0  0.00000000000E+00  0.00000000000E+00  0.51525380538E+03  0.51525380538E+03  0.00000000000E+00 0.  1.
         -2   -1    0    0    0  501 -0.00000000000E+00 -0.00000000000E+00 -0.31673318445E+02  0.31673318445E+02  0.00000000000E+00 0. -1.
         23    2    1    2    0    0 -0.53122685447E+01 -0.63647702892E+02  0.16571449378E+03  0.19941624428E+03  0.90698923659E+02 0.  0.
          5    1    1    2  502    0  0.33695253545E+02  0.17274873025E+02  0.27638167495E+03  0.27899479206E+03  0.41800000000E+01 0.  1.
         -5    1    1    2    0  502 -0.28382985000E+02  0.46372829867E+02  0.41484318209E+02  0.68516087488E+02  0.41800000000E+01 0.  1.
        -11    1    3    3    0    0 -0.46605429393E+02 -0.44953243079E+02  0.85123561141E+02  0.10695270344E+03  0.00000000000E+00 0. -1.
         11    1    3    3    0    0  0.41293160848E+02 -0.18694459813E+02  0.80590932635E+02  0.92463540833E+02  0.00000000000E+00 0.  1.
</event>
<event>
 7    1  0.6584658E-006  0.1511028E+03  0.7561462E-02  0.1199124E+00
          2   -1    0    0  501    0  0.00000000000E+00  0.00000000000E+00  0.67405727522E+03  0.67405727522E+03  0.00000000000E+00 0. -1.
         -2   -1    0    0    0  501 -0.00000000000E+00 -0.00000000000E+00 -0.50862599792E+02  0.50862599792E+02  0.00000000000E+00 0.  1.
         23    2    1    2    0    0 -0.90600682364E+02 -0.83937431417E+02  0.46200582191E+03  0.48641981845E+03  0.88886918415E+02 0.  0.
          5    1    1    2  502    0  0.25752024326E+02 -0.18895951275E+02  0.94358944261E+02  0.99706100583E+02  0.41800000000E+01 0.  1.
         -5    1    1    2    0  502  0.64848658038E+02  0.10283338269E+03  0.66829909261E+02  0.13879395598E+03  0.41800000000E+01 0.  1.
        -11    1    3    3    0    0  0.15849650528E+02 -0.10058366675E+02  0.29900015649E+02  0.35304292910E+02  0.00000000000E+00 0. -1.
         11    1    3    3    0    0 -0.10645033289E+03 -0.73879064741E+02  0.43210580626E+03  0.45111552554E+03  0.00000000000E+00 0.  1.
</event>
<event>
 7    1  0.6584658E-006  0.8507527E+02  0.7561462E-02  0.1315236E+00
          2   -1    0    0  501    0  0.00000000000E+00  0.00000000000E+00  0.25956711699E+03  0.25956711699E+03  0.00000000000E+00 0. -1.
         -2   -1    0    0    0  501 -0.00000000000E+00 -0.00000000000E+00 -0.55887282393E+02  0.55887282393E+02  0.00000000000E+00 0.  1.
         23    2    1    2    0    0 -0.17755780534E+02  0.48496187931E+02  0.10873925744E+03  0.15014218531E+03  0.89729046101E+02 0.  0.
          5    1    1    2  502    0  0.17902093295E+02 -0.67815457526E+02  0.11650900016E+03  0.13605602060E+03  0.41800000000E+01 0. -1.
         -5    1    1    2    0  502 -0.14631276122E+00  0.19319269595E+02 -0.21568423010E+02  0.29256193468E+02  0.41800000000E+01 0. -1.
        -11    1    3    3    0    0 -0.38683617030E+02  0.16881346591E+02  0.86109770155E+01  0.43076107233E+02  0.00000000000E+00 0.  1.
         11    1    3    3    0    0  0.20927836495E+02  0.31614841339E+02  0.10012828043E+03  0.10706607808E+03  0.00000000000E+00 0. -1.
</event>
<event>
 7    1  0.6584658E-006  0.1290330E+03  0.7561462E-02  0.1228898E+00
          1   -1    0    0  501    0  0.00000000000E+00  0.00000000000E+00  0.98198597209E+03  0.98198597209E+03  0.00000000000E+00 0. -1.
         -1   -1    0    0    0  501 -0.00000000000E+00 -0.00000000000E+00 -0.20368090702E+02  0.20368090702E+02  0.00000000000E+00 0.  1.
         23    2    1    2    0    0 -0.66498986840E+02  0.61137193353E+02  0.42151639306E+03  0.44064597985E+03  0.91284929083E+02 0.  0.
          5    1    1    2  502    0  0.94477487315E+02 -0.69371010363E+02  0.34491716759E+03  0.36431258225E+03  0.41800000000E+01 0. -1.
         -5    1    1    2    0  502 -0.27978500475E+02  0.82338170108E+01  0.19518432074E+03  0.19739550070E+03  0.41800000000E+01 0. -1.
        -11    1    3    3    0    0  0.29695354562E+00  0.41769692520E+02  0.63980174757E+02  0.76408495317E+02  0.00000000000E+00 0.  1.
         11    1    3    3    0    0 -0.66795940385E+02  0.19367500832E+02  0.35753621830E+03  0.36423748453E+03  0.00000000000E+00 0. -1.
</event>
<event>
 7    1  0.6584658E-006  0.1046061E+03  0.7561462E-02  0.1270898E+00
          1   -1    0    0  501    0  0.00000000000E+00  0.00000000000E+00  0.18612650951E+03  0.18612650951E+03  0.00000000000E+00 0. -1.
         -1   -1    0    0    0  501 -0.00000000000E+00 -0.00000000000E+00 -0.66752454754E+02  0.66752454754E+02  0.00000000000E+00 0.  1.
         23    2    1    2    0    0 -0.84751963180E+01 -0.36279200621E+02  0.66149354825E+02  0.11192428780E+03  0.82239283225E+02 0.  0.
          5    1    1    2  502    0  0.52623125041E+02  0.50149930892E+02  0.34953619632E+01  0.72896493831E+02  0.41800000000E+01 0. -1.
         -5    1    1    2    0  502 -0.44147928723E+02 -0.13870730271E+02  0.49729337969E+02  0.68058182635E+02  0.41800000000E+01 0. -1.
        -11    1    3    3    0    0 -0.36515437460E+02 -0.47344986466E+02  0.39248787855E+02  0.71521970502E+02  0.00000000000E+00 0.  1.
         11    1    3    3    0    0  0.28040241142E+02  0.11065785845E+02  0.26900566970E+02  0.40402317297E+02  0.00000000000E+00 0. -1.
</event>
<event>
 7    1  0.6584658E-006  0.1049819E+03  0.7561462E-02  0.1270155E+00
          2   -1    0    0  501    0  0.00000000000E+00  0.00000000000E+00  0.26823856419E+03  0.26823856419E+03  0.00000000000E+00 0. -1.
         -2   -1    0    0    0  501 -0.00000000000E+00 -0.00000000000E+00 -0.62403644862E+02  0.62403644862E+02  0.00000000000E+00 0.  1.
         23    2    1    2    0    0 -0.14454586273E+02  0.53151440573E+02  0.14687924370E+03  0.18178738815E+03  0.91864746027E+02 0.  0.
          5    1    1    2  502    0  0.22742999073E+02 -0.75851435124E+02  0.82801490889E+02  0.11464834718E+03  0.41800000000E+01 0.  1.
         -5    1    1    2    0  502 -0.82884128001E+01  0.22699994550E+02 -0.23845815258E+02  0.34206473724E+02  0.41800000000E+01 0.  1.
        -11    1    3    3    0    0 -0.20457414724E+02 -0.22409136116E+02  0.31496709845E+02  0.43734630783E+02  0.00000000000E+00 0.  1.
         11    1    3    3    0    0  0.60028284512E+01  0.75560576689E+02  0.11538253385E+03  0.13805275737E+03  0.00000000000E+00 0. -1.
</event>
<event>
 7    1  0.6584658E-006  0.1137180E+03  0.7561462E-02  0.1253836E+00
          1   -1    0    0  501    0  0.00000000000E+00  0.00000000000E+00  0.93662090893E+02  0.93662090893E+02  0.00000000000E+00 0. -1.
         -1   -1    0    0    0  501 -0.00000000000E+00 -0.00000000000E+00 -0.18190656259E+03  0.18190656259E+03  0.00000000000E+00 0.  1.
         23    2    1    2    0    0  0.53246567676E+02 -0.19745415827E+02  0.87465626253E+01  0.10739335685E+03  0.90729004861E+02 0.  0.
          5    1    1    2  502    0 -0.90526422223E+02  0.16929122215E+02 -0.41418689686E+02  0.10106734663E+03  0.41800000000E+01 0.  1.
         -5    1    1    2    0  502  0.37279854547E+02  0.28162936123E+01 -0.55572344637E+02  0.67107950000E+02  0.41800000000E+01 0.  1.
        -11    1    3    3    0    0  0.45249887874E+02  0.25323235144E+02 -0.17380295776E+02  0.54689059894E+02  0.00000000000E+00 0.  1.
         11    1    3    3    0    0  0.79966798018E+01 -0.45068650971E+02  0.26126858401E+02  0.52704296960E+02  0.00000000000E+00 0. -1.
</event>
<event>
 7    1  0.6584658E-006  0.1078719E+03  0.7561462E-02  0.1264562E+00
         -1   -1    0    0    0  501 -0.00000000000E+00  0.00000000000E+00  0.17928590886E+03  0.17928590886E+03  0.00000000000E+00 0.  1.
          1   -1    0    0  501    0  0.00000000000E+00 -0.00000000000E+00 -0.11620599412E+03  0.11620599412E+03  0.00000000000E+00 0. -1.
         23    2    1    2    0    0  0.21829608474E+02 -0.56917734937E+02 -0.46216268519E+02  0.11854655407E+03  0.90560375712E+02 0.  0.
          5    1    1    2  502    0  0.17220034997E+02 -0.31475334185E+02  0.82180267982E+01  0.37043685452E+02  0.41800000000E+01 0.  1.
         -5    1    1    2    0  502 -0.39049643471E+02  0.88393069122E+02  0.10107815646E+03  0.13990166346E+03  0.41800000000E+01 0.  1.
        -11    1    3    3    0    0  0.34988481565E+02 -0.13453330684E+02  0.16630527264E+02  0.41009271949E+02  0.00000000000E+00 0.  1.
         11    1    3    3    0    0 -0.13158873091E+02 -0.43464404253E+02 -0.62846795783E+02  0.77537282118E+02  0.00000000000E+00 0. -1.
</event>
<event>
 7    1  0.6584658E-006  0.9795096E+02  0.7561462E-02  0.1284665E+00
          1   -1    0    0  501    0  0.00000000000E+00  0.00000000000E+00  0.55152902610E+03  0.55152902610E+03  0.00000000000E+00 0. -1.
         -1   -1    0    0    0  501 -0.00000000000E+00 -0.00000000000E+00 -0.34931849297E+02  0.34931849297E+02  0.00000000000E+00 0.  1.
         23    2    1    2    0    0  0.25528983375E+02  0.24980341932E+02  0.34818954402E+03  0.36297128889E+03  0.96106459290E+02 0.  0.
          5    1    1    2  502    0  0.36494848178E+02  0.11689562948E+02  0.14118365893E+03  0.14635169208E+03  0.41800000000E+01 0. -1.
         -5    1    1    2    0  502 -0.62023831552E+02 -0.36669904880E+02  0.27223973848E+02  0.77137894425E+02  0.41800000000E+01 0.  1.
        -11    1    3    3    0    0 -0.22121405652E+02  0.29990166979E+02  0.58606936355E+02  0.69451707627E+02  0.00000000000E+00 0.  1.
         11    1    3    3    0    0  0.47650389027E+02 -0.50098250472E+01  0.28958260767E+03  0.29351958127E+03  0.00000000000E+00 0. -1.
</event>
<event>
 7    1  0.6584658E-006  0.1449246E+03  0.7561462E-02  0.1206852E+00
         -2   -1    0    0    0  501 -0.00000000000E+00  0.00000000000E+00  0.53771523282E+02  0.53771523282E+02  0.00000000000E+00 0.  1.
          2   -1    0    0  501    0  0.00000000000E+00 -0.00000000000E+00 -0.61856748335E+03  0.61856748335E+03  0.00000000000E+00 0. -1.
         23    2    1    2    0    0  0.10466552817E+03 -0.43803641870E+02 -0.43703008604E+03  0.46058300417E+03  0.90927310518E+02 0.  0.
          5    1    1    2  502    0 -0.12235086243E+03  0.24390821547E+02 -0.13533016495E+03  0.18410967291E+03  0.41800000000E+01 0. -1.
         -5    1    1    2    0  502  0.17685334262E+02  0.19412820324E+02  0.75642909165E+01  0.27646329556E+02  0.41800000000E+01 0. -1.
        -11    1    3    3    0    0  0.76207717350E+02 -0.67188004540E+02 -0.24809991189E+03  0.26809589780E+03  0.00000000000E+00 0.  1.
         11    1    3    3    0    0  0.28457810821E+02  0.23384362669E+02 -0.18893017415E+03  0.19248710637E+03  0.00000000000E+00 0. -1.
</event>
<event>
 7    1  0.6584658E-006  0.1111582E+03  0.7561462E-02  0.1258440E+00
         -4   -1    0    0    0  501 -0.00000000000E+00  0.00000000000E+00  0.76170690757E+02  0.76170690757E+02  0.00000000000E+00 0.  1.
          4   -1    0    0  501    0  0.00000000000E+00 -0.00000000000E+00 -0.23992501719E+03  0.23992501719E+03  0.00000000000E+00 0. -1.
         23    2    1    2    0    0  0.65911227507E+02  0.24151593560E+02 -0.11788631965E+03  0.16550208915E+03  0.92553594036E+02 0.  0.
          5    1    1    2  502    0 -0.23532983440E+02 -0.72581015449E+02 -0.10763918842E+02  0.77169550096E+02  0.41800000000E+01 0.  1.
         -5    1    1    2    0  502 -0.42378244067E+02  0.48429421888E+02 -0.35104087940E+02  0.73424068702E+02  0.41800000000E+01 0.  1.
        -11    1    3    3    0    0  0.50505752107E+02  0.35962063539E+02 -0.19172145678E+02  0.64897397326E+02  0.00000000000E+00 0. -1.
         11    1    3    3    0    0  0.15405475401E+02 -0.11810469979E+02 -0.98714173976E+02  0.10060469183E+03  0.00000000000E+00 0.  1.
</event>
<event>
 7    1  0.6584658E-006  0.1288145E+03  0.7561462E-02  0.1229225E+00
          1   -1    0    0  501    0  0.00000000000E+00  0.00000000000E+00  0.72520488025E+02  0.72520488025E+02  0.00000000000E+00 0. -1.
         -1   -1    0    0    0  501 -0.00000000000E+00 -0.00000000000E+00 -0.29011391207E+03  0.29011391207E+03  0.00000000000E+00 0.  1.
         23    2    1    2    0    0 -0.40355957952E+02  0.74867624812E+02 -0.56778809339E+02  0.14185738880E+03  0.98315415774E+02 0.  0.
          5    1    1    2  502    0  0.52061976201E+02  0.11303850576E+02 -0.23933466212E+02  0.58553476487E+02  0.41800000000E+01 0. -1.
         -5    1    1    2    0  502 -0.11706018248E+02 -0.86171475388E+02 -0.13688114849E+03  0.16222353481E+03  0.41800000000E+01 0. -1.
        -11    1    3    3    0    0 -0.36653237227E+02 -0.51591642152E+01 -0.48941665732E+02  0.61362557144E+02  0.00000000000E+00 0.  1.
         11    1    3    3    0    0 -0.37027207254E+01  0.80026789027E+02 -0.78371436071E+01  0.80494831652E+02  0.00000000000E+00 0. -1.
</event>
<event>
 7    1  0.6584658E-006  0.2642223E+03  0.7561462E-02  0.1104633E+00
          1   -1    0    0  501    0  0.00000000000E+00  0.00000000000E+00  0.13543062570E+04  0.13543062570E+04  0.00000000000E+00 0. -1.
         -1   -1    0    0    0  501 -0.00000000000E+00 -0.00000000000E+00 -0.63747413567E+02  0.63747413567E+02  0.00000000000E+00 0.  1.
         23    2    1    2    0    0 -0.24791707310E+03 -0.53535501962E+02  0.87494899794E+03  0.91535085425E+03  0.89456762018E+02 0.  0.
          5    1    1    2  502    0  0.11275305281E+03  0.58874353933E+02  0.10904119315E+03  0.16759145167E+03  0.41800000000E+01 0.  1.
         -5    1    1    2    0  502  0.13516402028E+03 -0.53388519713E+01  0.30656865235E+03  0.33511136466E+03  0.41800000000E+01 0.  1.
        -11    1    3    3    0    0 -0.13517657645E+03 -0.69469417386E+02  0.43016262184E+03  0.45622208189E+03  0.00000000000E+00 0.  1.
         11    1    3    3    0    0 -0.11274049665E+03  0.15933915424E+02  0.44478637610E+03  0.45912877236E+03  0.00000000000E+00 0. -1.
</event>
<event>
 6    1  0.6584658E-006  0.8030459E+02  0.7561462E-02  0.1328189E+00
         -1   -1    0    0    0  501 -0.00000000000E+00  0.00000000000E+00  0.12081893407E+03  0.12081893407E+03  0.00000000000E+00 0.  1.
          1   -1    0    0  501    0  0.00000000000E+00 -0.00000000000E+00 -0.64683203550E+02  0.64683203550E+02  0.00000000000E+00 0. -1.
          5    1    1    2  502    0 -0.71484026664E+02 -0.29317225484E+02  0.40000500933E+02  0.87103262012E+02  0.41800000000E+01 0. -1.
         -5    1    1    2    0  502  0.40783986698E+02  0.29904751856E+02  0.14672080435E+02  0.52823953836E+02  0.41800000000E+01 0. -1.
        -11    1    1    2    0    0  0.19168424809E+02 -0.55182100892E+01  0.16576439413E+02  0.25935641420E+02  0.00000000000E+00 0.  1.
         11    1    1    2    0    0  0.11531615157E+02  0.49306837170E+01 -0.15113290264E+02  0.19639280350E+02  0.00000000000E+00 0. -1.
</event>
<event>
 7    1  0.6584658E-006  0.9919588E+02  0.7561462E-02  0.1281996E+00
         -4   -1    0    0    0  501 -0.00000000000E+00  0.00000000000E+00  0.21303609759E+03  0.21303609759E+03  0.00000000000E+00 0.  1.
          4   -1    0    0  501    0  0.00000000000E+00 -0.00000000000E+00 -0.21196359552E+03  0.21196359552E+03  0.00000000000E+00 0. -1.
         23    2    1    2    0    0 -0.22636733751E+02  0.30444744824E+02 -0.17573618408E+03  0.20162550239E+03  0.91270655844E+02 0.  0.
          5    1    1    2  502    0 -0.49687324794E+02 -0.39349288117E+02  0.82181895395E+02  0.10386786342E+03  0.41800000000E+01 0. -1.
         -5    1    1    2    0  502  0.72324058545E+02  0.89045432925E+01  0.94626790752E+02  0.11950632730E+03  0.41800000000E+01 0.  1.
        -11    1    3    3    0    0  0.62320245464E+01  0.32356097991E+02 -0.11560318290E+02  0.34919853466E+02  0.00000000000E+00 0.  1.
         11    1    3    3    0    0 -0.28868758298E+02 -0.19113531664E+01 -0.16417586579E+03  0.16670564893E+03  0.00000000000E+00 0. -1.
</event>
<event>
 7    1  0.6584658E-006  0.1065717E+03  0.7561462E-02  0.1267054E+00
         -1   -1    0    0    0  501 -0.00000000000E+00  0.00000000000E+00  0.82284386253E+02  0.82284386253E+02  0.00000000000E+00 0.  1.
          1   -1    0    0  501    0  0.00000000000E+00 -0.00000000000E+00 -0.24828753763E+03  0.24828753763E+03  0.00000000000E+00 0. -1.
         23    2    1    2    0    0 -0.15928314618E+01  0.26204607176E+02 -0.17815948238E+03  0.20217621400E+03  0.91897779062E+02 0.  0.
          5    1    1    2  502    0 -0.39900798279E+02 -0.61151427537E+02  0.11104130448E+02  0.73975299298E+02  0.41800000000E+01 0.  1.
         -5    1    1    2    0  502  0.41493629741E+02  0.34946820361E+02  0.10522005520E+01  0.54420410587E+02  0.41800000000E+01 0.  1.
        -11    1    3    3    0    0  0.20727562599E+02 -0.23364419613E+02 -0.26139109961E+02  0.40728135541E+02  0.00000000000E+00 0.  1.
         11    1    3    3    0    0 -0.22320394061E+02  0.49569026789E+02 -0.15202037242E+03  0.16144807846E+03  0.00000000000E+00 0. -1.
</event>
<event>
 7    1  0.6584658E-006  0.1045146E+03  0.7561462E-02  0.1271079E+00
          1   -1    0    0  501    0  0.00000000000E+00  0.00000000000E+00  0.19588946852E+03  0.19588946852E+03  0.00000000000E+00 0. -1.
         -1   -1    0    0    0  501 -0.00000000000E+00 -0.00000000000E+00 -0.11934715949E+03  0.11934715949E+03  0.00000000000E+00 0.  1.
         23    2    1    2    0    0 -0.18792941595E+02  0.28410113747E+01  0.14460844427E+03  0.17156296307E+03  0.90338265109E+02 0.  0.
          5    1    1    2  502    0 -0.50326778507E+02  0.56998750140E+01 -0.50674441313E+02  0.71767991560E+02  0.41800000000E+01 0.  1.
         -5    1    1    2    0  502  0.69119720102E+02 -0.85408863887E+01 -0.17391693923E+02  0.71905673384E+02  0.41800000000E+01 0.  1.
        -11    1    3    3    0    0  0.34460482602E+02 -0.42213751938E+01  0.33971247842E+02  0.48573558132E+02  0.00000000000E+00 0.  1.
         11    1    3    3    0    0 -0.53253424197E+02  0.70623865685E+01  0.11063719643E+03  0.12298940493E+03  0.00000000000E+00 0. -1.
</event>
<event>
 7    1  0.6584658E-006  0.9279602E+02  0.7561462E-02  0.1296219E+00
          1   -1    0    0  501    0  0.00000000000E+00  0.00000000000E+00  0.22606261763E+03  0.22606261763E+03  0.00000000000E+00 0. -1.
         -1   -1    0    0    0  501 -0.00000000000E+00 -0.00000000000E+00 -0.65390116422E+02  0.65390116422E+02  0.00000000000E+00 0.  1.
         23    2    1    2    0    0 -0.55802139789E+02 -0.31215270281E+02  0.10027496450E+03  0.13853539551E+03  0.71054313031E+02 0.  0.
          5    1    1    2  502    0  0.79338272572E+02  0.62210226709E+01 -0.40305754969E+01  0.79793361607E+02  0.41800000000E+01 0.  1.
         -5    1    1    2    0  502 -0.23536132783E+02  0.24994247610E+02  0.64428112206E+02  0.73123976933E+02  0.41800000000E+01 0.  1.
        -11    1    3    3    0    0 -0.44332797009E+02 -0.37651231139E+02  0.27062986381E+02  0.64151518523E+02  0.00000000000E+00 0.  1.
         11    1    3    3    0    0 -0.11469342780E+02  0.64359608573E+01  0.73211978115E+02  0.74383876986E+02  0.00000000000E+00 0. -1.
</event>
<event>
 7    1  0.6584658E-006  0.1039906E+03  0.7561462E-02  0.1272121E+00
         -1   -1    0    0    0  501 -0.00000000000E+00  0.00000000000E+00  0.22307195999E+02  0.22307195999E+02  0.00000000000E+00 0.  1.
          1   -1    0    0  501    0  0.00000000000E+00 -0.00000000000E+00 -0.55710775444E+03  0.55710775444E+03  0.00000000000E+00 0. -1.
         23    2    1    2    0    0 -0.51103798936E+01  0.19508581922E+02 -0.25390079532E+03  0.27126088584E+03  0.93328203528E+02 0.  0.
          5    1    1    2  502    0  0.60121189334E+02 -0.16590962647E+02 -0.91142668738E+02  0.11051821530E+03  0.41800000000E+01 0.  1.
         -5    1    1    2    0  502 -0.55010809441E+02 -0.29176192756E+01 -0.18975709439E+03  0.19763584930E+03  0.41800000000E+01 0.  1.
        -11    1    3    3    0    0 -0.29030974798E+02 -0.25898353816E+02 -0.67346681846E+02  0.77775946048E+02  0.00000000000E+00 0.  1.
         11    1    3    3    0    0  0.23920594905E+02  0.45406935738E+02 -0.18655411347E+03  0.19348493980E+03  0.00000000000E+00 0. -1.
</event>
<event>
 7    1  0.6584658E-006  0.7361762E+02  0.7561462E-02  0.1348206E+00
          1   -1    0    0  501    0  0.00000000000E+00  0.00000000000E+00  0.65934070565E+03  0.65934070565E+03  0.00000000000E+00 0. -1.
         -1   -1    0    0    0  501 -0.00000000000E+00 -0.00000000000E+00 -0.19841152824E+02  0.19841152824E+02  0.00000000000E+00 0.  1.
         23    2    1    2    0    0  0.36079976000E+02 -0.18000722263E+01  0.26636294237E+03  0.28398159294E+03  0.91604165466E+02 0.  0.
          5    1    1    2  502    0 -0.12791839264E+02 -0.19257852990E+02  0.36023357468E+03  0.36099888750E+03  0.41800000000E+01 0.  1.
         -5    1    1    2    0  502 -0.23288136736E+02  0.21057925216E+02  0.12903035778E+02  0.34201378033E+02  0.41800000000E+01 0.  1.
        -11    1    3    3    0    0  0.26622742919E+02  0.40641330426E+02  0.89336492675E+02  0.10169315170E+03  0.00000000000E+00 0.  1.
         11    1    3    3    0    0  0.94572330807E+01 -0.42441402653E+02  0.17702644969E+03  0.18228844124E+03  0.00000000000E+00 0. -1.
</event>
<event>
 7    1  0.6584658E-006  0.1742036E+03  0.7561462E-02  0.1173534E+00
          3   -1    0    0  501    0  0.00000000000E+00  0.00000000000E+00  0.18369779527E+03  0.18369779527E+03  0.00000000000E+00 0. -1.
         -3   -1    0    0    0  501 -0.00000000000E+00 -0.00000000000E+00 -0.16656639220E+03  0.16656639220E+03  0.00000000000E+00 0.  1.
         23    2    1    2    0    0  0.96312143058E+02  0.95612893585E+02 -0.37805700916E+01  0.16451376287E+03  0.92911953712E+02 0.  0.
          5    1    1    2  502    0 -0.12563248336E+03 -0.88289015979E+02  0.22246820974E+02  0.15521232123E+03  0.41800000000E+01 0.  1.
         -5    1    1    2    0  502  0.29320340302E+02 -0.73238776059E+01 -0.13348478118E+01  0.30538103368E+02  0.41800000000E+01 0.  1.
        -11    1    3    3    0    0  0.45430036119E+01  0.68426443316E+02 -0.53922933225E+01  0.68788762556E+02  0.00000000000E+00 0. -1.
         11    1    3    3    0    0  0.91769139446E+02  0.27186450269E+02  0.16117232309E+01  0.95725000312E+02  0.00000000000E+00 0.  1.
</event>
<event>
 7    1  0.6584658E-006  0.3247486E+03  0.7561462E-02  0.1073484E+00
          2   -1    0    0  501    0  0.00000000000E+00  0.00000000000E+00  0.20781079621E+04  0.20781079621E+04  0.00000000000E+00 0.  1.
         -2   -1    0    0    0  501 -0.00000000000E+00 -0.00000000000E+00 -0.52004200096E+02  0.52004200096E+02  0.00000000000E+00 0. -1.
         23    2    1    2    0    0  0.16498656374E+03 -0.26250264568E+03  0.10115662469E+04  0.10619067744E+04  0.90837879169E+02 0.  0.
          5    1    1    2  502    0 -0.79491192443E+01 -0.10856034882E+02  0.17278281679E+02  0.22294694613E+02  0.41800000000E+01 0. -1.
         -5    1    1    2    0  502 -0.15703744450E+03  0.27335868056E+03  0.99725923336E+03  0.10459106932E+04  0.41800000000E+01 0. -1.
        -11    1    3    3    0    0  0.24113256307E+02 -0.10959431911E+03  0.28892715985E+03  0.30995365397E+03  0.00000000000E+00 0. -1.
         11    1    3    3    0    0  0.14087330744E+03 -0.15290832657E+03  0.72263908709E+03  0.75195312039E+03  0.00000000000E+00 0.  1.
</event>
<event>
 7    1  0.6584658E-006  0.1454649E+03  0.7561462E-02  0.1206159E+00
         -2   -1    0    0    0  501 -0.00000000000E+00  0.00000000000E+00  0.28300197771E+03  0.28300197771E+03  0.00000000000E+00 0. -1.
          2   -1    0    0  501    0  0.00000000000E+00 -0.00000000000E+00 -0.37066575921E+03  0.37066575921E+03  0.00000000000E+00 0.  1.
         23    2    1    2    0    0 -0.11889114198E+03 -0.36007789855E+02 -0.32412431011E+03  0.35873226807E+03  0.90557203937E+02 0.  0.
          5    1    1    2  502    0  0.12526923243E+02 -0.29315997888E+02  0.11977566854E+03  0.12401626794E+03  0.41800000000E+01 0.  1.
         -5    1    1    2    0  502  0.10636421874E+03  0.65323787743E+02  0.11668486006E+03  0.17091920091E+03  0.41800000000E+01 0.  1.
        -11    1    3    3    0    0 -0.97213822812E+02 -0.48736740160E+02 -0.31279434388E+03  0.33115872139E+03  0.00000000000E+00 0.  1.
         11    1    3    3    0    0 -0.21677319169E+02  0.12728950305E+02 -0.11329966223E+02  0.27573546686E+02  0.00000000000E+00 0. -1.
</event>
<event>
 7    1  0.6584658E-006  0.7432263E+02  0.7561462E-02  0.1345982E+00
          1   -1    0    0  501    0  0.00000000000E+00  0.00000000000E+00  0.25680974459E+03  0.25680974459E+03  0.00000000000E+00 0. -1.
         -1   -1    0    0    0  501 -0.00000000000E+00 -0.00000000000E+00 -0.47468801127E+02  0.47468801127E+02  0.00000000000E+00 0.  1.
         23    2    1    2    0    0 -0.27309268425E+00 -0.40356727488E+01  0.12660816003E+03  0.15424917645E+03  0.88016027031E+02 0.  0.
          5    1    1    2  502    0  0.48483848741E+02  0.25657248231E+02  0.40529003359E+01  0.55162273128E+02  0.41800000000E+01 0.  1.
         -5    1    1    2    0  502 -0.48210756057E+02 -0.21621575482E+02  0.78679883089E+02  0.94867096134E+02  0.41800000000E+01 0.  1.
        -11    1    3    3    0    0 -0.90976182683E+01  0.16185427651E+02 -0.62353150113E+01  0.19586063404E+02  0.00000000000E+00 0.  1.
         11    1    3    3    0    0  0.88245255841E+01 -0.20221100399E+02  0.13284347504E+03  0.13466311305E+03  0.00000000000E+00 0. -1.
</event>
<event>
 7    1  0.6584658E-006  0.1065845E+03  0.7561462E-02  0.1267029E+00
          1   -1    0    0  501    0  0.00000000000E+00  0.00000000000E+00  0.15610186191E+03  0.15610186191E+03  0.00000000000E+00 0. -1.
         -1   -1    0    0    0  501 -0.00000000000E+00 -0.00000000000E+00 -0.87379587266E+02  0.87379587266E+02  0.00000000000E+00 0.  1.
         23    2    1    2    0    0 -0.16478578196E+02 -0.60187999725E+01  0.71576360467E+02  0.11713793608E+03  0.91051365712E+02 0.  0.
          5    1    1    2  502    0  0.59474351377E+02  0.39174606576E+02 -0.72709400006E+01  0.71709045737E+02  0.41800000000E+01 0. -1.
         -5    1    1    2    0  502 -0.42995773181E+02 -0.33155806604E+02  0.44168541754E+01  0.54634467361E+02  0.41800000000E+01 0. -1.
        -11    1    3    3    0    0 -0.51574104062E+02 -0.81484737153E+01  0.22714422278E+02  0.56940590207E+02  0.00000000000E+00 0.  1.
         11    1    3    3    0    0  0.35095525866E+02  0.21296737428E+01  0.48861938189E+02  0.60197345869E+02  0.00000000000E+00 0. -1.
</event>
<event>
 7    1  0.6584658E-006  0.1791631E+03  0.7561462E-02  0.1168615E+00
         -1   -1    0    0    0  501 -0.00000000000E+00  0.00000000000E+00  0.10694319667E+03  0.10694319667E+03  0.00000000000E+00 0. -1.
          1   -1    0    0  501    0  0.00000000000E+00 -0.00000000000E+00 -0.61862833015E+03  0.61862833015E+03  0.00000000000E+00 0.  1.
         23    2    1    2    0    0 -0.14080766809E+03 -0.95016837938E+02 -0.47377244140E+03  0.51123642331E+03  0.89707053246E+02 0.  0.
          5    1    1    2  502    0  0.36555789427E+01  0.12129652649E+02 -0.51740357714E+02  0.53432469035E+02  0.41800000000E+01 0. -1.
         -5    1    1    2    0  502  0.13715208915E+03  0.82887185289E+02  0.13827665634E+02  0.16090263447E+03  0.41800000000E+01 0. -1.
        -11    1    3    3    0    0 -0.10531563563E+03 -0.28208917403E+02 -0.34574908832E+03  0.36253214782E+03  0.00000000000E+00 0.  1.
         11    1    3    3    0    0 -0.35492032458E+02 -0.66807920536E+02 -0.12802335308E+03  0.14870427549E+03  0.00000000000E+00 0. -1.
</event>
<event>
 7    1  0.6584658E-006  0.8490961E+02  0.7561462E-02  0.1315669E+00
         -1   -1    0    0    0  501 -0.00000000000E+00  0.00000000000E+00  0.48207718178E+03  0.48207718178E+03  0.00000000000E+00 0.  1.
          1   -1    0    0  501    0  0.00000000000E+00 -0.00000000000E+00 -0.37968448445E+02  0.37968448445E+02  0.00000000000E+00 0. -1.
         23    2    1    2    0    0  0.27830222593E+02 -0.66068828330E+02  0.12901994459E+03  0.17353498673E+03  0.91261350803E+02 0.  0.
          5    1    1    2  502    0  0.59934678075E+01  0.68664561197E+01  0.25598011694E+03  0.25617642855E+03  0.41800000000E+01 0. -1.
         -5    1    1    2    0  502 -0.33823690401E+02  0.59202372210E+02  0.59108671804E+02  0.90334214947E+02  0.41800000000E+01 0. -1.
        -11    1    3    3    0    0  0.28871988529E+02 -0.76101467170E+02  0.13787831688E+03  0.16011075945E+03  0.00000000000E+00 0.  1.
         11    1    3    3    0    0 -0.10417659363E+01  0.10032638840E+02 -0.88583722886E+01  0.13424227276E+02  0.00000000000E+00 0. -1.
</event>
<event>
 7    1  0.6584658E-006  0.9673114E+02  0.7561462E-02  0.1287324E+00
         -1   -1    0    0    0  501 -0.00000000000E+00  0.00000000000E+00  0.19244832163E+03  0.19244832163E+03  0.00000000000E+00 0.  1.
          1   -1    0    0  501    0  0.00000000000E+00 -0.00000000000E+00 -0.68715751781E+02  0.68715751781E+02  0.00000000000E+00 0. -1.
         23    2    1    2    0    0  0.68769468646E+01 -0.10725836675E+02 -0.62534400560E+01  0.80316061425E+02  0.79052060313E+02 0.  0.
          5    1    1    2  502    0  0.11213107459E+01 -0.56978788445E+02  0.53123413274E+02  0.78021850198E+02  0.41800000000E+01 0. -1.
         -5    1    1    2    0  502 -0.79982576105E+01  0.67704625120E+02  0.76862596632E+02  0.10282616179E+03  0.41800000000E+01 0. -1.
        -11    1    3    3    0    0  0.31004089555E+02  0.13508490068E+02  0.18076887409E+02  0.38347186748E+02  0.00000000000E+00 0.  1.
         11    1    3    3    0    0 -0.24127142690E+02 -0.24234326744E+02 -0.24330327465E+02  0.41968874677E+02  0.00000000000E+00 0. -1.
</event>
<event>
 7    1  0.6584658E-006  0.1433769E+03  0.7561462E-02  0.1208856E+00
          1   -1    0    0  501    0  0.00000000000E+00  0.00000000000E+00  0.28598655218E+02  0.28598655218E+02  0.00000000000E+00 0. -1.
         -1   -1    0    0    0  501 -0.00000000000E+00 -0.00000000000E+00 -0.87800648840E+03  0.87800648840E+03  0.00000000000E+00 0.  1.
         23    2    1    2    0    0  0.78775297639E+01  0.11698842663E+03 -0.35851677224E+03  0.38665419258E+03  0.84963764187E+02 0.  0.
          5    1    1    2  502    0  0.33904616979E+02 -0.87615352579E+02 -0.43094852497E+03  0.44108964693E+03  0.41800000000E+01 0. -1.
         -5    1    1    2    0  502 -0.41782146743E+02 -0.29373074049E+02 -0.59942535978E+02  0.78861304104E+02  0.41800000000E+01 0. -1.
        -11    1    3    3    0    0 -0.29276304092E+02  0.92373186630E+02 -0.28099600977E+03  0.29723503343E+03  0.00000000000E+00 0.  1.
         11    1    3    3    0    0  0.37153833856E+02  0.24615239998E+02 -0.77520762467E+02  0.89419159154E+02  0.00000000000E+00 0. -1.
</event>
<event>
 7    1  0.6584658E-006  0.2473093E+03  0.7561462E-02  0.1115017E+00
          2   -1    0    0  501    0  0.00000000000E+00  0.00000000000E+00  0.32838014946E+03  0.32838014946E+03  0.00000000000E+00 0. -1.
         -2   -1    0    0    0  501 -0.00000000000E+00 -0.00000000000E+00 -0.19627220876E+03  0.19627220876E+03  0.00000000000E+00 0.  1.
         23    2    1    2    0    0  0.15050229742E+03  0.16827932067E+03  0.10556808631E+03  0.26518951909E+03  0.90620024802E+02 0.  0.
          5    1    1    2  502    0  0.18365461687E+02  0.11212708617E+01  0.23512764743E+01  0.19014424324E+02  0.41800000000E+01 0. -1.
         -5    1    1    2    0  502 -0.16886775911E+03 -0.16940059153E+03  0.24188577922E+02  0.24044841480E+03  0.41800000000E+01 0. -1.
        -11    1    3    3    0    0  0.49009367136E+02  0.10769293841E+03  0.21791836635E+02  0.12031031209E+03  0.00000000000E+00 0.  1.
         11    1    3    3    0    0  0.10149293029E+03  0.60586382262E+02  0.83776249673E+02  0.14487920701E+03  0.00000000000E+00 0. -1.
</event>
<event>
 7    1  0.6584658E-006  0.1066448E+03  0.7561462E-02  0.1266912E+00
         -1   -1    0    0    0  501 -0.00000000000E+00  0.00000000000E+00  0.16368128784E+03  0.16368128784E+03  0.00000000000E+00 0.  1.
          1   -1    0    0  501    0  0.00000000000E+00 -0.00000000000E+00 -0.91932442639E+02  0.91932442639E+02  0.00000000000E+00 0. -1.
         23    2    1    2    0    0 -0.40246605307E+02 -0.21687917476E+02 -0.42235930288E+01  0.10227613776E+03  0.91391545632E+02 0.  0.
          5    1    1    2  502    0 -0.37307023288E+02  0.37939303278E+02  0.24275434750E+02  0.58634237883E+02  0.41800000000E+01 0.  1.
         -5    1    1    2    0  502  0.77553628595E+02 -0.16251385803E+02  0.51697003476E+02  0.94703354836E+02  0.41800000000E+01 0.  1.
        -11    1    3    3    0    0  0.18494585554E+02 -0.85528436180E+01  0.27507604386E+02  0.34232574075E+02  0.00000000000E+00 0.  1.
         11    1    3    3    0    0 -0.58741190861E+02 -0.13135073858E+02 -0.31731197415E+02  0.68043563681E+02  0.00000000000E+00 0. -1.
</event>
<event>
 7    1  0.6584658E-006  0.1443854E+03  0.7561462E-02  0.1207547E+00
          4   -1    0    0  501    0  0.00000000000E+00  0.00000000000E+00  0.80748219789E+02  0.80748219789E+02  0.00000000000E+00 0. -1.
         -4   -1    0    0    0  501 -0.00000000000E+00 -0.00000000000E+00 -0.36723015634E+03  0.36723015634E+03  0.00000000000E+00 0.  1.
         23    2    1    2    0    0 -0.85840459118E+02  0.91906729121E+02 -0.77103848046E+02  0.17356580608E+03  0.91458484439E+02 0.  0.
          5    1    1    2  502    0 -0.14269329085E+02  0.33838345174E+01  0.76638164692E+01  0.17066650857E+02  0.41800000000E+01 0. -1.
         -5    1    1    2    0  502  0.10010978820E+03 -0.95290563639E+02 -0.21704190497E+03  0.25734591919E+03  0.41800000000E+01 0. -1.
        -11    1    3    3    0    0 -0.53488932198E+02  0.21284970177E+02  0.82498759298E+01  0.58156480946E+02  0.00000000000E+00 0. -1.
         11    1    3    3    0    0 -0.32351526919E+02  0.70621758944E+02 -0.85353723976E+02  0.11540932513E+03  0.00000000000E+00 0.  1.
</event>
<event>
 7    1  0.6584658E-006  0.7577350E+02  0.7561462E-02  0.1341492E+00
         -1   -1    0    0    0  501 -0.00000000000E+00  0.00000000000E+00  0.96769367692E+02  0.96769367692E+02  0.00000000000E+00 0.  1.
          1   -1    0    0  501    0  0.00000000000E+00 -0.00000000000E+00 -0.17799064215E+03  0.17799064215E+03  0.00000000000E+00 0. -1.
         23    2    1    2    0    0 -0.36411785803E+02  0.11362401617E+02 -0.96827016531E+02  0.14305379980E+03  0.98152922486E+02 0.  0.
          5    1    1    2  502    0  0.50145223053E+02  0.26313077205E+02 -0.35228884368E+02  0.66824158213E+02  0.41800000000E+01 0. -1.
         -5    1    1    2    0  502 -0.13733437250E+02 -0.37675478822E+02  0.50834626442E+02  0.64882051822E+02  0.41800000000E+01 0. -1.
        -11    1    3    3    0    0  0.62293397950E+01  0.10001317851E+02  0.17459827701E+02  0.21063632555E+02  0.00000000000E+00 0.  1.
         11    1    3    3    0    0 -0.42641125598E+02  0.13610837659E+01 -0.11428684423E+03  0.12199016725E+03  0.00000000000E+00 0. -1.
</event>
<event>
 7    1  0.6584658E-006  0.1018723E+03  0.7561462E-02  0.1276407E+00
          3   -1    0    0  501    0  0.00000000000E+00  0.00000000000E+00  0.10417087781E+03  0.10417087781E+03  0.00000000000E+00 0. -1.
         -3   -1    0    0    0  501 -0.00000000000E+00 -0.00000000000E+00 -0.14135540740E+03  0.14135540740E+03  0.00000000000E+00 0.  1.
         23    2    1    2    0    0  0.35145351840E+02 -0.40993514679E+02 -0.78279597285E+01  0.10615602552E+03  0.91061302424E+02 0.  0.
          5    1    1    2  502    0 -0.35646366669E+02  0.65026176079E+02 -0.63286103593E+02  0.97579046625E+02  0.41800000000E+01 0.  1.
         -5    1    1    2    0  502  0.50101482954E+00 -0.24032661400E+02  0.33929533732E+02  0.41791213061E+02  0.41800000000E+01 0.  1.
        -11    1    3    3    0    0  0.18541197860E+02  0.28291456881E+02 -0.86122443916E+01  0.34904918049E+02  0.00000000000E+00 0.  1.
         11    1    3    3    0    0  0.16604153980E+02 -0.69284971561E+02  0.78428466313E+00  0.71251107472E+02  0.00000000000E+00 0. -1.
</event>
<event>
 7    1  0.6584658E-006  0.1133306E+03  0.7561462E-02  0.1254524E+00
         -4   -1    0    0    0  501 -0.00000000000E+00  0.00000000000E+00  0.46929237075E+02  0.46929237075E+02  0.00000000000E+00 0.  1.
          4   -1    0    0  501    0  0.00000000000E+00 -0.00000000000E+00 -0.28582637962E+03  0.28582637962E+03  0.00000000000E+00 0. -1.
         23    2    1    2    0    0 -0.33007780851E+02  0.12578606248E+02 -0.13083137290E+03  0.16372659909E+03  0.91879356672E+02 0.  0.
          5    1    1    2  502    0  0.45040291682E+02  0.48306647132E+02 -0.42495218425E+02  0.78647797305E+02  0.41800000000E+01 0.  1.
         -5    1    1    2    0  502 -0.12032510831E+02 -0.60885253380E+02 -0.65570551222E+02  0.90381220304E+02  0.41800000000E+01 0.  1.
        -11    1    3    3    0    0 -0.25100244713E+02 -0.38846094342E+02 -0.56972787545E+02  0.73382149402E+02  0.00000000000E+00 0.  1.
         11    1    3    3    0    0 -0.79075361384E+01  0.51424700590E+02 -0.73858585353E+02  0.90344449685E+02  0.00000000000E+00 0. -1.
</event>
<event>
 7    1  0.6584658E-006  0.1482735E+03  0.7561462E-02  0.1202611E+00
         -2   -1    0    0    0  501 -0.00000000000E+00  0.00000000000E+00  0.27685878990E+02  0.27685878990E+02  0.00000000000E+00 0. -1.
          2   -1    0    0  501    0  0.00000000000E+00 -0.00000000000E+00 -0.96531862816E+03  0.96531862816E+03  0.00000000000E+00 0.  1.
         23    2    1    2    0    0 -0.10535209995E+03  0.24755851920E+02 -0.60209886617E+03  0.61891669262E+03  0.93930349685E+02 0.  0.
          5    1    1    2  502    0 -0.67160373959E+01  0.28576729398E+02 -0.22194495999E+02  0.37037854610E+02  0.41800000000E+01 0. -1.
         -5    1    1    2    0  502  0.11206813734E+03 -0.53332581318E+02 -0.31333938700E+03  0.33704995992E+03  0.41800000000E+01 0. -1.
        -11    1    3    3    0    0 -0.85650462375E+02  0.58442089945E+02 -0.46129053469E+03  0.47280063132E+03  0.00000000000E+00 0.  1.
         11    1    3    3    0    0 -0.19701637572E+02 -0.33686238026E+02 -0.14080833148E+03  0.14611606130E+03  0.00000000000E+00 0. -1.
</event>
<event>
 6    1  0.6584658E-006  0.1074464E+03  0.7561462E-02  0.1265373E+00
          2   -1    0    0  501    0  0.00000000000E+00  0.00000000000E+00  0.75317052136E+02  0.75317052136E+02  0.00000000000E+00 0. -1.
         -2   -1    0    0    0  501 -0.00000000000E+00 -0.00000000000E+00 -0.18028932802E+03  0.18028932802E+03  0.00000000000E+00 0.  1.
          5    1    1    2  502    0 -0.89926755820E+02 -0.64417053828E+01 -0.86691849177E+02  0.12514498030E+03  0.41800000000E+01 0. -1.
         -5    1    1    2    0  502  0.58879934237E+02 -0.37145646023E+02 -0.27167357360E+02  0.74847734636E+02  0.41800000000E+01 0.  1.
        -11    1    1    2    0    0  0.15710837029E+02  0.32086074298E+02  0.54852865510E+01  0.36144639057E+02  0.00000000000E+00 0. -1.
         11    1    1    2    0    0  0.15335984554E+02  0.11501277107E+02  0.34016440980E+01  0.19469026167E+02  0.00000000000E+00 0.  1.
</event>
<event>
 7    1  0.6584658E-006  0.1012544E+03  0.7561462E-02  0.1277680E+00
         -1   -1    0    0    0  501 -0.00000000000E+00  0.00000000000E+00  0.29147586436E+03  0.29147586436E+03  0.00000000000E+00 0.  1.
          1   -1    0    0  501    0  0.00000000000E+00 -0.00000000000E+00 -0.61634871751E+02  0.61634871751E+02  0.00000000000E+00 0. -1.
         23    2    1    2    0    0  0.51177713424E+02  0.60161022484E+02  0.10344506206E+03  0.15852824406E+03  0.90508653302E+02 0.  0.
          5    1    1    2  502    0 -0.61971767045E+02 -0.46432972773E+02  0.11626291775E+02  0.78416604949E+02  0.41800000000E+01 0. -1.
         -5    1    1    2    0  502  0.10794053621E+02 -0.13728049711E+02  0.11476963877E+03  0.11616588710E+03  0.41800000000E+01 0. -1.
        -11    1    3    3    0    0  0.30478980759E+01  0.58773305599E+02  0.91709486846E+02  0.10896889974E+03  0.00000000000E+00 0. -1.
         11    1    3    3    0    0  0.48129815348E+02  0.13877168849E+01  0.11735575217E+02  0.49559344319E+02  0.00000000000E+00 0.  1.
</event>
<event>
 7    1  0.6584658E-006  0.1403247E+03  0.7561462E-02  0.1212893E+00
          1   -1    0    0  501    0  0.00000000000E+00  0.00000000000E+00  0.62079992391E+02  0.62079992391E+02  0.00000000000E+00 0. -1.
         -1   -1    0    0    0  501 -0.00000000000E+00 -0.00000000000E+00 -0.46455475110E+03  0.46455475110E+03  0.00000000000E+00 0.  1.
         23    2    1    2    0    0 -0.61961222217E+02 -0.11384935821E+03 -0.21084482145E+03  0.26363112805E+03  0.90801781491E+02 0.  0.
          5    1    1    2  502    0  0.41296634516E+01  0.62904498195E+02 -0.78380235034E+01  0.63662681579E+02  0.41800000000E+01 0.  1.
         -5    1    1    2    0  502  0.57831558765E+02  0.50944860013E+02 -0.18379191375E+03  0.19934093386E+03  0.41800000000E+01 0.  1.
        -11    1    3    3    0    0  0.61400700923E+01 -0.37414298660E+02 -0.12308048072E+03  0.12878794562E+03  0.00000000000E+00 0.  1.
         11    1    3    3    0    0 -0.68101292309E+02 -0.76435059548E+02 -0.87764340733E+02  0.13484318242E+03  0.00000000000E+00 0. -1.
</event>
<event>
 7    1  0.6584658E-006  0.1481079E+03  0.7561462E-02  0.1202817E+00
         -1   -1    0    0    0  501 -0.00000000000E+00  0.00000000000E+00  0.14879725465E+03  0.14879725465E+03  0.00000000000E+00 0.  1.
          1   -1    0    0  501    0  0.00000000000E+00 -0.00000000000E+00 -0.30737628697E+03  0.30737628697E+03  0.00000000000E+00 0. -1.
         23    2    1    2    0    0 -0.99765454747E+02 -0.78422740570E+02 -0.21619309335E+03  0.26889909843E+03  0.97283088581E+02 0.  0.
          5    1    1    2  502    0  0.11430006766E+01 -0.59628169108E+01 -0.29821190328E+02  0.30718682079E+02  0.41800000000E+01 0.  1.
         -5    1    1    2    0  502  0.98622454070E+02  0.84385557480E+02  0.87435251351E+02  0.15655576111E+03  0.41800000000E+01 0.  1.
        -11    1    3    3    0    0 -0.47792117383E+02 -0.93378142442E+02 -0.12861541343E+03  0.16596833596E+03  0.00000000000E+00 0.  1.
         11    1    3    3    0    0 -0.51973337363E+02  0.14955401873E+02 -0.87577679914E+02  0.10293076246E+03  0.00000000000E+00 0. -1.
</event>
<event>
 7    1  0.6584658E-006  0.1221964E+03  0.7561462E-02  0.1239517E+00
          2   -1    0    0  501    0  0.00000000000E+00  0.00000000000E+00  0.14574917764E+03  0.14574917764E+03  0.00000000000E+00 0. -1.
         -2   -1    0    0    0  501 -0.00000000000E+00 -0.00000000000E+00 -0.14606164236E+03  0.14606164236E+03  0.00000000000E+00 0.  1.
         23    2    1    2    0    0 -0.40961460401E+02  0.54513568777E+02  0.68836806900E+02  0.13344516649E+03  0.91758029925E+02 0.  0.
          5    1    1    2  502    0 -0.26071303461E+02 -0.60470395095E+02 -0.64605843779E+01  0.66299269209E+02  0.41800000000E+01 0. -1.
         -5    1    1    2    0  502  0.67032763862E+02  0.59568263182E+01 -0.62688687238E+02  0.92066384301E+02  0.41800000000E+01 0. -1.
        -11    1    3    3    0    0  0.16583015039E+02  0.50664497773E+02  0.49136527460E+02  0.72500248642E+02  0.00000000000E+00 0. -1.
         11    1    3    3    0    0 -0.57544475439E+02  0.38490710039E+01  0.19700279440E+02  0.60944917846E+02  0.00000000000E+00 0.  1.
</event>
<event>
 7    1  0.6584658E-006  0.1492954E+03  0.7561462E-02  0.1201342E+00
         -1   -1    0    0    0  501 -0.00000000000E+00  0.00000000000E+00  0.92242918340E+02  0.92242918340E+02  0.00000000000E+00 0.  1.
          1   -1    0    0  501    0  0.00000000000E+00 -0.00000000000E+00 -0.44981062813E+03  0.44981062813E+03  0.00000000000E+00 0. -1.
         23    2    1    2    0    0  0.10680056684E+03  0.82085989162E+02 -0.31296308707E+03  0.35288725611E+03  0.91864307349E+02 0.  0.
          5    1    1    2  502    0 -0.89574888967E+02 -0.96754553849E+02  0.75782707728E+01  0.13213631981E+03  0.41800000000E+01 0.  1.
         -5    1    1    2    0  502 -0.17225677869E+02  0.14668564687E+02 -0.52182893496E+02  0.57029970556E+02  0.41800000000E+01 0.  1.
        -11    1    3    3    0    0  0.56008611299E+02  0.12286678198E+02 -0.49865936537E+02  0.75990385099E+02  0.00000000000E+00 0.  1.
         11    1    3    3    0    0  0.50791955537E+02  0.69799310964E+02 -0.26309715053E+03  0.27689687101E+03  0.00000000000E+00 0. -1.
</event>
<event>
 7    1  0.6584658E-006  0.1720912E+03  0.7561462E-02  0.1175684E+00
         -1   -1    0    0    0  501 -0.00000000000E+00  0.00000000000E+00  0.38997051048E+03  0.38997051048E+03  0.00000000000E+00 0.  1.
          1   -1    0    0  501    0  0.00000000000E+00 -0.00000000000E+00 -0.90825623203E+02  0.90825623203E+02  0.00000000000E+00 0. -1.
         23    2    1    2    0    0 -0.40151434699E+02 -0.14334432826E+03  0.10220139141E+03  0.20403928071E+03  0.95011417804E+02 0.  0.
          5    1    1    2  502    0  0.30729058486E+02 -0.14804726387E+02  0.49733056125E+02  0.60450841437E+02  0.41800000000E+01 0. -1.
         -5    1    1    2    0  502  0.94223762130E+01  0.15814905465E+03  0.14721043974E+03  0.21630601154E+03  0.41800000000E+01 0. -1.
        -11    1    3    3    0    0 -0.12668677977E+01 -0.52516237775E+02  0.90373885595E+02  0.10453228870E+03  0.00000000000E+00 0.  1.
         11    1    3    3    0    0 -0.38884566902E+02 -0.90828090483E+02  0.11827505817E+02  0.99506992005E+02  0.00000000000E+00 0. -1.
</event>
<event>
 7    1  0.6584658E-006  0.1276150E+03  0.7561462E-02  0.1231038E+00
         -1   -1    0    0    0  501 -0.00000000000E+00  0.00000000000E+00  0.67808224630E+03  0.67808224630E+03  0.00000000000E+00 0.  1.
          1   -1    0    0  501    0  0.00000000000E+00 -0.00000000000E+00 -0.28650502299E+02  0.28650502299E+02  0.00000000000E+00 0. -1.
         23    2    1    2    0    0  0.33051882357E+02  0.79581327771E+02  0.27393379129E+03  0.30167466321E+03  0.92424378580E+02 0.  0.
          5    1    1    2  502    0 -0.47076341240E+02 -0.10029133414E+03  0.35658524402E+03  0.37342340883E+03  0.41800000000E+01 0. -1.
         -5    1    1    2    0  502  0.14024458883E+02  0.20710006370E+02  0.18912708687E+02  0.31634676555E+02  0.41800000000E+01 0. -1.
        -11    1    3    3    0    0 -0.27111885857E+02  0.34195035593E+02  0.55475779050E+02  0.70582695295E+02  0.00000000000E+00 0. -1.
         11    1    3    3    0    0  0.60163768214E+02  0.45386292179E+02  0.21845801224E+03  0.23109196792E+03  0.00000000000E+00 0.  1.
</event>
<event>
 6    1  0.6584658E-006  0.1501664E+03  0.7561462E-02  0.1200269E+00
         -2   -1    0    0    0  501 -0.00000000000E+00  0.00000000000E+00  0.10236906763E+03  0.10236906763E+03  0.00000000000E+00 0.  1.
          2   -1    0    0  501    0  0.00000000000E+00 -0.00000000000E+00 -0.29128334064E+03  0.29128334064E+03  0.00000000000E+00 0. -1.
          5    1    1    2  502    0 -0.13016178348E+03 -0.24369474500E+02 -0.16396749138E+03  0.21080505638E+03  0.41800000000E+01 0. -1.
         -5    1    1    2    0  502  0.12882391207E+03  0.53380338725E+01  0.10935624183E+02  0.12946488019E+03  0.41800000000E+01 0.  1.
        -11    1    1    2    0    0  0.13611701871E+02 -0.27059720468E+01 -0.17737311184E+02  0.22521388070E+02  0.00000000000E+00 0. -1.
         11    1    1    2    0    0 -0.12273830462E+02  0.21737412674E+02 -0.18145094624E+02  0.30861083631E+02  0.00000000000E+00 0.  1.
</event>
<event>
 7    1  0.6584658E-006  0.1082713E+03  0.7561462E-02  0.1263805E+00
          1   -1    0    0  501    0  0.00000000000E+00  0.00000000000E+00  0.87689403786E+02  0.87689403786E+02  0.00000000000E+00 0. -1.
         -1   -1    0    0    0  501 -0.00000000000E+00 -0.00000000000E+00 -0.15981712858E+03  0.15981712858E+03  0.00000000000E+00 0.  1.
         23    2    1    2    0    0  0.24235932420E+02  0.22351846943E+01  0.12075350090E+02  0.94768039931E+02  0.90789816840E+02 0.  0.
          5    1    1    2  502    0 -0.68142775415E+01 -0.62544266304E+02 -0.53692997949E+02  0.82816846443E+02  0.41800000000E+01 0. -1.
         -5    1    1    2    0  502 -0.17421654878E+02  0.60309081610E+02 -0.30510076933E+02  0.69921645989E+02  0.41800000000E+01 0. -1.
        -11    1    3    3    0    0  0.42320913627E+02 -0.31189234363E+02 -0.55730212230E+01  0.52866687393E+02  0.00000000000E+00 0.  1.
         11    1    3    3    0    0 -0.18084981207E+02  0.33424419057E+02  0.17648371313E+02  0.41901352539E+02  0.00000000000E+00 0. -1.
</event>
<event>
 7    1  0.6584658E-006  0.1553855E+03  0.7561462E-02  0.1194007E+00
          3   -1    0    0  501    0  0.00000000000E+00  0.00000000000E+00  0.83113577679E+02  0.83113577679E+02  0.00000000000E+00 0.  1.
         -3   -1    0    0    0  501 -0.00000000000E+00 -0.00000000000E+00 -0.66306715419E+03  0.66306715419E+03  0.00000000000E+00 0. -1.
         23    2    1    2    0    0  0.45839795458E+02 -0.13087288777E+03 -0.41889245597E+02  0.17662484001E+03  0.10105753613E+03 0.  0.
          5    1    1    2  502    0 -0.57270981226E+02  0.12641026826E+03 -0.53896477274E+03  0.55656088604E+03  0.41800000000E+01 0.  1.
         -5    1    1    2    0  502  0.11431185767E+02  0.44626195121E+01  0.90044182291E+00  0.12995005827E+02  0.41800000000E+01 0.  1.
        -11    1    3    3    0    0 -0.10263076780E+02 -0.87374600498E+02  0.10213494607E+02  0.88566173166E+02  0.00000000000E+00 0.  1.
         11    1    3    3    0    0  0.56102872238E+02 -0.43498287275E+02 -0.52102740204E+02  0.88058666842E+02  0.00000000000E+00 0. -1.
</event>
<event>
 7    1  0.6584658E-006  0.1088599E+03  0.7561462E-02  0.1262696E+00
         -3   -1    0    0    0  501 -0.00000000000E+00  0.00000000000E+00  0.38571859945E+03  0.38571859945E+03  0.00000000000E+00 0.  1.
          3   -1    0    0  501    0  0.00000000000E+00 -0.00000000000E+00 -0.34848009251E+02  0.34848009251E+02  0.00000000000E+00 0. -1.
         23    2    1    2    0    0  0.19969051626E+02 -0.32137889652E+02  0.11987536925E+03  0.15516499827E+03  0.90964089404E+02 0.  0.
          5    1    1    2  502    0  0.98668397765E+01 -0.45155902166E+02  0.10158533385E+03  0.11168465642E+03  0.41800000000E+01 0.  1.
         -5    1    1    2    0  502 -0.29835891403E+02  0.77293791818E+02  0.12940988711E+03  0.15371695401E+03  0.41800000000E+01 0.  1.
        -11    1    3    3    0    0 -0.22397052448E+02 -0.39445441939E+02  0.95545506461E+02  0.10576632098E+03  0.00000000000E+00 0. -1.
         11    1    3    3    0    0  0.42366104074E+02  0.73075522869E+01  0.24329862784E+02  0.49398677289E+02  0.00000000000E+00 0.  1.
</event>
<event>
 7    1  0.6584658E-006  0.2398060E+03  0.7561462E-02  0.1119922E+00
         -2   -1    0    0    0  501 -0.00000000000E+00  0.00000000000E+00  0.89244801930E+02  0.89244801930E+02  0.00000000000E+00 0.  1.
          2   -1    0    0  501    0  0.00000000000E+00 -0.00000000000E+00 -0.70009938493E+03  0.70009938493E+03  0.00000000000E+00 0. -1.
         23    2    1    2    0    0  0.18241780935E+03 -0.12461958904E+03 -0.23272720813E+03  0.33389509948E+03  0.92291304651E+02 0.  0.
          5    1    1    2  502    0  0.30798104562E+01  0.55688301844E+02 -0.81481751421E+02  0.98830260595E+02  0.41800000000E+01 0.  1.
         -5    1    1    2    0  502 -0.18549761980E+03  0.68931287191E+02 -0.29664562345E+03  0.35661882679E+03  0.41800000000E+01 0.  1.
        -11    1    3    3    0    0  0.43156994183E+02 -0.75424018939E+01 -0.76380740196E+01  0.44471947877E+02  0.00000000000E+00 0.  1.
         11    1    3    3    0    0  0.13926081516E+03 -0.11707718714E+03 -0.22508913411E+03  0.28942315160E+03  0.00000000000E+00 0. -1.
</event>
<event>
 7    1  0.6584658E-006  0.1502511E+03  0.7561462E-02  0.1200165E+00
          1   -1    0    0  501    0  0.00000000000E+00  0.00000000000E+00  0.70142289747E+02  0.70142289747E+02  0.00000000000E+00 0. -1.
         -1   -1    0    0    0  501 -0.00000000000E+00 -0.00000000000E+00 -0.37802856042E+03  0.37802856042E+03  0.00000000000E+00 0.  1.
         23    2    1    2    0    0  0.16280946684E+02  0.36512460461E+02 -0.36447673747E+02  0.11389432799E+03  0.10022602473E+03 0.  0.
          5    1    1    2  502    0  0.75430352476E+02  0.28064552378E+02 -0.88921796805E+02  0.12000798108E+03  0.41800000000E+01 0. -1.
         -5    1    1    2    0  502 -0.91711299160E+02 -0.64577012839E+02 -0.18251680013E+03  0.21426854111E+03  0.41800000000E+01 0.  1.
        -11    1    3    3    0    0  0.13845483851E+02 -0.34209004291E+02 -0.16099362668E+02  0.40263418583E+02  0.00000000000E+00 0.  1.
         11    1    3    3    0    0  0.24354628324E+01  0.70721464753E+02 -0.20348311079E+02  0.73630909404E+02  0.00000000000E+00 0. -1.
</event>
<event>
 7    1  0.6584658E-006  0.3740486E+03  0.7561462E-02  0.1053156E+00
          1   -1    0    0  501    0  0.00000000000E+00  0.00000000000E+00  0.89385387605E+03  0.89385387605E+03  0.00000000000E+00 0. -1.
         -1   -1    0    0    0  501 -0.00000000000E+00 -0.00000000000E+00 -0.18067325181E+03  0.18067325181E+03  0.00000000000E+00 0.  1.
         23    2    1    2    0    0  0.71889649134E+02 -0.36124028076E+03  0.51032095762E+03  0.63582105468E+03  0.90433797269E+02 0.  0.
          5    1    1    2  502    0  0.57534103094E+01  0.15821293723E+03  0.30542677989E+02  0.16129092602E+03  0.41800000000E+01 0. -1.
         -5    1    1    2    0  502 -0.77643059444E+02  0.20302734353E+03  0.17231698863E+03  0.27741514716E+03  0.41800000000E+01 0. -1.
        -11    1    3    3    0    0  0.26091588129E+02 -0.25871861069E+03  0.40852235831E+03  0.48425882308E+03  0.00000000000E+00 0.  1.
         11    1    3    3    0    0  0.45798061005E+02 -0.10252167008E+03  0.10179859930E+03  0.15156223160E+03  0.00000000000E+00 0. -1.
</event>
<event>
 7    1  0.7708835E-006  0.2407421E+03  0.7561462E-02  0.1119299E+00
         -1   -1    0    0    0  501 -0.00000000000E+00  0.00000000000E+00  0.16358061881E+03  0.16358061881E+03  0.00000000000E+00 0.  1.
          1   -1    0    0  501    0  0.00000000000E+00 -0.00000000000E+00 -0.37839028597E+03  0.37839028597E+03  0.00000000000E+00 0. -1.
         23    2    1    2    0    0  0.18754715804E+03 -0.11365059041E+03 -0.14446922336E+03  0.27989137663E+03  0.96837146912E+02 0.  0.
          5    1    1    2  502    0 -0.18675744730E+03  0.61587646196E+02 -0.72927372143E+02  0.20977906543E+03  0.41800000000E+01 0.  1.
         -5    1    1    2    0  502 -0.78971074174E+00  0.52062944210E+02  0.25869283448E+01  0.52300462724E+02  0.41800000000E+01 0.  1.
        -11    1    3    3    0    0  0.11944176669E+03 -0.27202700704E+02 -0.10980178257E+03  0.16450761080E+03  0.00000000000E+00 0. -1.
         11    1    3    3    0    0  0.68105391353E+02 -0.86447889702E+02 -0.34667440788E+02  0.11538376583E+03  0.00000000000E+00 0.  1.
</event>
<event>
 7    1  0.6584658E-006  0.7921691E+02  0.7561462E-02  0.1331289E+00
          1   -1    0    0  501    0  0.00000000000E+00  0.00000000000E+00  0.65216988341E+02  0.65216988341E+02  0.00000000000E+00 0.  1.
         -1   -1    0    0    0  501 -0.00000000000E+00 -0.00000000000E+00 -0.21878471666E+03  0.21878471666E+03  0.00000000000E+00 0. -1.
         23    2    1    2    0    0 -0.87259516089E+01  0.24225906769E+02 -0.56215478378E+02  0.12341799815E+03  0.10681191632E+03 0.  0.
          5    1    1    2  502    0  0.15842114538E+02 -0.32841841541E+02 -0.12510370697E+03  0.13037625952E+03  0.41800000000E+01 0.  1.
         -5    1    1    2    0  502 -0.71161629293E+01  0.86159347716E+01  0.27751457032E+02  0.30207447330E+02  0.41800000000E+01 0.  1.
        -11    1    3    3    0    0 -0.55004293080E+02  0.30827742093E+02 -0.30085405212E+02  0.69863821443E+02  0.00000000000E+00 0.  1.
         11    1    3    3    0    0  0.46278341471E+02 -0.66018353237E+01 -0.26130073166E+02  0.53554176706E+02  0.00000000000E+00 0. -1.
</event>
<event>
 7    1  0.6584658E-006  0.1697068E+03  0.7561462E-02  0.1178154E+00
         -2   -1    0    0    0  501 -0.00000000000E+00  0.00000000000E+00  0.51060903190E+03  0.51060903190E+03  0.00000000000E+00 0.  1.
          2   -1    0    0  501    0  0.00000000000E+00 -0.00000000000E+00 -0.68335627523E+02  0.68335627523E+02  0.00000000000E+00 0. -1.
         23    2    1    2    0    0  0.45503087865E+02 -0.13912349946E+03  0.14736300096E+03  0.22674491851E+03  0.90947924172E+02 0.  0.
          5    1    1    2  502    0 -0.84040975829E+02  0.11028535827E+03  0.17778737799E+03  0.22550292690E+03  0.41800000000E+01 0.  1.
         -5    1    1    2    0  502  0.38537887965E+02  0.28838141194E+02  0.11712302543E+03  0.12669681401E+03  0.41800000000E+01 0.  1.
        -11    1    3    3    0    0  0.12103790074E+02 -0.10088394965E+03  0.14349457459E+03  0.17582595362E+03  0.00000000000E+00 0.  1.
         11    1    3    3    0    0  0.33399297790E+02 -0.38239549811E+02  0.38684263707E+01  0.50918964887E+02  0.00000000000E+00 0. -1.
</event>
<event>
 7    1  0.6584658E-006  0.1250493E+03  0.7561462E-02  0.1234992E+00
          2   -1    0    0  501    0  0.00000000000E+00  0.00000000000E+00  0.75193583526E+03  0.75193583526E+03  0.00000000000E+00 0. -1.
         -2   -1    0    0    0  501 -0.00000000000E+00 -0.00000000000E+00 -0.27037453185E+02  0.27037453185E+02  0.00000000000E+00 0.  1.
         23    2    1    2    0    0 -0.73089016275E+02  0.50413747189E+02  0.26336274264E+03  0.29455066446E+03  0.97553111253E+02 0.  0.
          5    1    1    2  502    0 -0.20442880203E+02 -0.21335059134E+02  0.24397609160E+03  0.24579442991E+03  0.41800000000E+01 0. -1.
         -5    1    1    2    0  502  0.93531896478E+02 -0.29078688056E+02  0.21755954783E+03  0.23862819408E+03  0.41800000000E+01 0.  1.
        -11    1    3    3    0    0 -0.19547550601E+02  0.64051727448E+02  0.87332448732E+02  0.11005311047E+03  0.00000000000E+00 0.  1.
         11    1    3    3    0    0 -0.53541465674E+02 -0.13637980259E+02  0.17603029391E+03  0.18449755398E+03  0.00000000000E+00 0. -1.
</event>
<event>
 7    1  0.6584658E-006  0.1001347E+03  0.7561462E-02  0.1280013E+00
         -1   -1    0    0    0  501 -0.00000000000E+00  0.00000000000E+00  0.51000003699E+03  0.51000003699E+03  0.00000000000E+00 0. -1.
          1   -1    0    0  501    0  0.00000000000E+00 -0.00000000000E+00 -0.28353727175E+02  0.28353727175E+02  0.00000000000E+00 0.  1.
         23    2    1    2    0    0  0.51189299217E+02 -0.23849095033E+02  0.16942239621E+03  0.19729450387E+03  0.83857314716E+02 0.  0.
          5    1    1    2  502    0 -0.51673747504E+02 -0.33082942055E+02  0.74636105982E+02  0.96709244399E+02  0.41800000000E+01 0.  1.
         -5    1    1    2    0  502  0.48444828793E+00  0.56932037088E+02  0.23758780762E+03  0.24435001590E+03  0.41800000000E+01 0.  1.
        -11    1    3    3    0    0  0.32086262722E+02  0.17200725165E+02  0.20801129020E+02  0.41929466610E+02  0.00000000000E+00 0.  1.
         11    1    3    3    0    0  0.19103036495E+02 -0.41049820198E+02  0.14862126719E+03  0.15536503726E+03  0.00000000000E+00 0. -1.
</event>
<event>
 7    1  0.6584658E-006  0.1187308E+03  0.7561462E-02  0.1245206E+00
         -1   -1    0    0    0  501 -0.00000000000E+00  0.00000000000E+00  0.21443608246E+02  0.21443608246E+02  0.00000000000E+00 0.  1.
          1   -1    0    0  501    0  0.00000000000E+00 -0.00000000000E+00 -0.68694555284E+03  0.68694555284E+03  0.00000000000E+00 0. -1.
         23    2    1    2    0    0 -0.75762672844E+01  0.53396295466E+02 -0.29950294367E+03  0.31786132432E+03  0.91789128078E+02 0.  0.
          5    1    1    2  502    0 -0.57545886063E+02 -0.12821942968E+02 -0.14689512917E+03  0.15834008526E+03  0.41800000000E+01 0. -1.
         -5    1    1    2    0  502  0.65122153347E+02 -0.40574352498E+02 -0.21910387175E+03  0.23218775151E+03  0.41800000000E+01 0. -1.
        -11    1    3    3    0    0 -0.46579438712E+02  0.22350386370E+02 -0.20005415893E+03  0.20661764297E+03  0.00000000000E+00 0.  1.
         11    1    3    3    0    0  0.39003171427E+02  0.31045909095E+02 -0.99448784740E+02  0.11124368134E+03  0.00000000000E+00 0. -1.
</event>
<event>
 7    1  0.6584658E-006  0.1400910E+03  0.7561462E-02  0.1213207E+00
          1   -1    0    0  501    0  0.00000000000E+00  0.00000000000E+00  0.93824681979E+02  0.93824681979E+02  0.00000000000E+00 0. -1.
         -1   -1    0    0    0  501 -0.00000000000E+00 -0.00000000000E+00 -0.36046315757E+03  0.36046315757E+03  0.00000000000E+00 0.  1.
         23    2    1    2    0    0 -0.11562716347E+03 -0.40903399495E+02 -0.55813983333E+02  0.16807473403E+03  0.10045489765E+03 0.  0.
          5    1    1    2  502    0  0.93923486164E+02  0.34007576889E+02 -0.30669536667E+02  0.10457642860E+03  0.41800000000E+01 0. -1.
         -5    1    1    2    0  502  0.21703677307E+02  0.68958226067E+01 -0.18015495559E+03  0.18163667691E+03  0.41800000000E+01 0.  1.
        -11    1    3    3    0    0  0.17871687431E+02 -0.19095196176E+01  0.61949589831E+00  0.17984083296E+02  0.00000000000E+00 0.  1.
         11    1    3    3    0    0 -0.13349885090E+03 -0.38993879878E+02 -0.56433479232E+02  0.15009065074E+03  0.00000000000E+00 0. -1.
</event>
<event>
 7    1  0.6584658E-006  0.8137955E+02  0.7561462E-02  0.1325181E+00
          2   -1    0    0  501    0  0.00000000000E+00  0.00000000000E+00  0.22108343788E+02  0.22108343788E+02  0.00000000000E+00 0. -1.
         -2   -1    0    0    0  501 -0.00000000000E+00 -0.00000000000E+00 -0.81255418222E+03  0.81255418222E+03  0.00000000000E+00 0.  1.
         23    2    1    2    0    0  0.13310009273E+02 -0.11688781692E+02 -0.10735266385E+03  0.14237616596E+03  0.91829157863E+02 0.  0.
          5    1    1    2  502    0  0.14331680146E+02  0.56698093715E+02 -0.31662116892E+03  0.32200389422E+03  0.41800000000E+01 0. -1.
         -5    1    1    2    0  502 -0.27641689419E+02 -0.45009312023E+02 -0.36647200566E+03  0.37028246582E+03  0.41800000000E+01 0.  1.
        -11    1    3    3    0    0  0.26591051400E+02  0.76629216456E+01  0.45446203126E+01  0.28043857732E+02  0.00000000000E+00 0. -1.
         11    1    3    3    0    0 -0.13281042127E+02 -0.19351703338E+02 -0.11189728416E+03  0.11433230823E+03  0.00000000000E+00 0.  1.
</event>
<event>
 7    1  0.6584658E-006  0.1533772E+03  0.7561462E-02  0.1196384E+00
          2   -1    0    0  501    0  0.00000000000E+00  0.00000000000E+00  0.89132625353E+03  0.89132625353E+03  0.00000000000E+00 0. -1.
         -2   -1    0    0    0  501 -0.00000000000E+00 -0.00000000000E+00 -0.33919941681E+02  0.33919941681E+02  0.00000000000E+00 0.  1.
         23    2    1    2    0    0 -0.53600730383E+00 -0.18931052169E+02  0.31497823432E+03  0.32923714780E+03  0.93952857102E+02 0.  0.
          5    1    1    2  502    0 -0.10502536653E+03  0.15575097174E+02  0.42471800115E+03  0.43780790784E+03  0.41800000000E+01 0. -1.
         -5    1    1    2    0  502  0.10556137383E+03  0.33559549955E+01  0.11771007638E+03  0.15820113957E+03  0.41800000000E+01 0.  1.
        -11    1    3    3    0    0  0.45824481136E+02 -0.15245528314E+02  0.18459693761E+03  0.19080969205E+03  0.00000000000E+00 0.  1.
         11    1    3    3    0    0 -0.46360488440E+02 -0.36855238556E+01  0.13038129672E+03  0.13842745576E+03  0.00000000000E+00 0. -1.
</event>
<event>
 7    1  0.6584658E-006  0.1055797E+03  0.7561462E-02  0.1268982E+00
         -2   -1    0    0    0  501 -0.00000000000E+00  0.00000000000E+00  0.48383622216E+02  0.48383622216E+02  0.00000000000E+00 0.  1.
          2   -1    0    0  501    0  0.00000000000E+00 -0.00000000000E+00 -0.85835844721E+03  0.85835844721E+03  0.00000000000E+00 0. -1.
         23    2    1    2    0    0  0.25292369897E+02  0.14774597578E+02 -0.31540186049E+03  0.32891859167E+03  0.88606510127E+02 0.  0.
          5    1    1    2  502    0  0.45061169145E+02  0.25356864409E+01 -0.50275263601E+03  0.50479166404E+03  0.41800000000E+01 0. -1.
         -5    1    1    2    0  502 -0.70353539042E+02 -0.17310284019E+02  0.81796715051E+01  0.73031813715E+02  0.41800000000E+01 0.  1.
        -11    1    3    3    0    0 -0.21949152581E+02 -0.23723695119E+02 -0.11502668479E+03  0.11948103290E+03  0.00000000000E+00 0.  1.
         11    1    3    3    0    0  0.47241522478E+02  0.38498292697E+02 -0.20037517570E+03  0.20943755877E+03  0.00000000000E+00 0. -1.
</event>
<event>
 7    1  0.6584658E-006  0.1305597E+03  0.7561462E-02  0.1226628E+00
          2   -1    0    0  501    0  0.00000000000E+00  0.00000000000E+00  0.60370919025E+03  0.60370919025E+03  0.00000000000E+00 0. -1.
         -2   -1    0    0    0  501 -0.00000000000E+00 -0.00000000000E+00 -0.46807550005E+02  0.46807550005E+02  0.00000000000E+00 0.  1.
         23    2    1    2    0    0 -0.99660605923E+02 -0.51096675696E+02  0.38165402819E+03  0.40781585137E+03  0.90060339515E+02 0.  0.
          5    1    1    2  502    0  0.19389623981E+01 -0.14494728962E+02 -0.13427065677E+02  0.20288302924E+02  0.41800000000E+01 0. -1.
         -5    1    1    2    0  502  0.97721643525E+02  0.65591404657E+02  0.18867467774E+03  0.22241258597E+03  0.41800000000E+01 0. -1.
        -11    1    3    3    0    0 -0.33835475648E+02 -0.52317954458E+02  0.94357194795E+02  0.11307204774E+03  0.00000000000E+00 0.  1.
         11    1    3    3    0    0 -0.65825130275E+02  0.12212787618E+01  0.28729683339E+03  0.29474380362E+03  0.00000000000E+00 0. -1.
</event>
<event>
 7    1  0.6584658E-006  0.1392893E+03  0.7561462E-02  0.1214289E+00
         -2   -1    0    0    0  501 -0.00000000000E+00  0.00000000000E+00  0.64635147134E+02  0.64635147134E+02  0.00000000000E+00 0.  1.
          2   -1    0    0  501    0  0.00000000000E+00 -0.00000000000E+00 -0.41495988343E+03  0.41495988343E+03  0.00000000000E+00 0. -1.
         23    2    1    2    0    0  0.23985804250E+02 -0.11265821627E+03 -0.10443174970E+03  0.18062855725E+03  0.91942878181E+02 0.  0.
          5    1    1    2  502    0 -0.46666654874E+02  0.10448387834E+03 -0.24922485372E+03  0.27427205038E+03  0.41800000000E+01 0. -1.
         -5    1    1    2    0  502  0.22680850624E+02  0.81743379334E+01  0.33318671236E+01  0.24694422937E+02  0.41800000000E+01 0. -1.
        -11    1    3    3    0    0  0.11924186626E+02  0.10479491338E+02 -0.35751797937E+02  0.39117732822E+02  0.00000000000E+00 0.  1.
         11    1    3    3    0    0  0.12061617625E+02 -0.12313770761E+03 -0.68679951764E+02  0.14151082442E+03  0.00000000000E+00 0. -1.
</event>
<event>
 7    1  0.6584658E-006  0.1836347E+03  0.7561462E-02  0.1164331E+00
         -2   -1    0    0    0  501 -0.00000000000E+00  0.00000000000E+00  0.23893493359E+03  0.23893493359E+03  0.00000000000E+00 0. -1.
          2   -1    0    0  501    0  0.00000000000E+00 -0.00000000000E+00 -0.46879846808E+03  0.46879846808E+03  0.00000000000E+00 0.  1.
         23    2    1    2    0    0 -0.96212834871E+02  0.13720666641E+03 -0.39648432575E+03  0.44035128406E+03  0.92880858673E+02 0.  0.
          5    1    1    2  502    0  0.58622568914E+02 -0.12223681440E+03  0.17925820640E+03  0.22478750263E+03  0.41800000000E+01 0. -1.
         -5    1    1    2    0  502  0.37590265958E+02 -0.14969852010E+02 -0.12637415129E+02  0.42594614978E+02  0.41800000000E+01 0. -1.
        -11    1    3    3    0    0  0.16731948731E+02  0.34311873235E+02 -0.94411541555E+02  0.10183713435E+03  0.00000000000E+00 0.  1.
         11    1    3    3    0    0 -0.11294478360E+03  0.10289479317E+03 -0.30207278419E+03  0.33851414971E+03  0.00000000000E+00 0. -1.
</event>
<event>
 7    1  0.6584658E-006  0.1176472E+03  0.7561462E-02  0.1247030E+00
         -2   -1    0    0    0  501 -0.00000000000E+00  0.00000000000E+00  0.87328054519E+02  0.87328054519E+02  0.00000000000E+00 0.  1.
          2   -1    0    0  501    0  0.00000000000E+00 -0.00000000000E+00 -0.30527896178E+03  0.30527896178E+03  0.00000000000E+00 0. -1.
         23    2    1    2    0    0  0.62740718516E+02 -0.61906954857E+02 -0.20220351106E+03  0.23877365088E+03  0.91420608467E+02 0.  0.
          5    1    1    2  502    0  0.20240294879E+01 -0.10334239889E+02 -0.49686288336E+02  0.50961680291E+02  0.41800000000E+01 0.  1.
         -5    1    1    2    0  502 -0.64764748004E+02  0.72241194746E+02  0.33938892129E+02  0.10287168513E+03  0.41800000000E+01 0.  1.
        -11    1    3    3    0    0 -0.23956500292E+02 -0.15242930369E+02 -0.40741842668E+02  0.49660432705E+02  0.00000000000E+00 0.  1.
         11    1    3    3    0    0  0.86697218808E+02 -0.46664024488E+02 -0.16146166839E+03  0.18911321818E+03  0.00000000000E+00 0. -1.
</event>
<event>
 7    1  0.6584658E-006  0.1042174E+03  0.7561462E-02  0.1271669E+00
         -1   -1    0    0    0  501 -0.00000000000E+00  0.00000000000E+00  0.60320159812E+03  0.60320159812E+03  0.00000000000E+00 0.  1.
          1   -1    0    0  501    0  0.00000000000E+00 -0.00000000000E+00 -0.37611220019E+02  0.37611220019E+02  0.00000000000E+00 0. -1.
         23    2    1    2    0    0  0.49174755772E+02 -0.67851154651E+02  0.13099257051E+03  0.18088356395E+03  0.92400618968E+02 0.  0.
          5    1    1    2  502    0  0.67405775644E+01  0.25755353938E+02  0.34551076921E+03  0.34656015016E+03  0.41800000000E+01 0.  1.
         -5    1    1    2    0  502 -0.55915333336E+02  0.42095800713E+02  0.89087038382E+02  0.11336910403E+03  0.41800000000E+01 0.  1.
        -11    1    3    3    0    0  0.54182952517E+02 -0.80914707204E+02  0.13488280878E+03  0.16636211795E+03  0.00000000000E+00 0.  1.
         11    1    3    3    0    0 -0.50081967448E+01  0.13063552553E+02 -0.38902382740E+01  0.14521445994E+02  0.00000000000E+00 0. -1.
</event>
<event>
 7    1  0.6584658E-006  0.1364449E+03  0.7561462E-02  0.1218194E+00
         -1   -1    0    0    0  501 -0.00000000000E+00  0.00000000000E+00  0.12321050721E+03  0.12321050721E+03  0.00000000000E+00 0.  1.
          1   -1    0    0  501    0  0.00000000000E+00 -0.00000000000E+00 -0.28896724878E+03  0.28896724878E+03  0.00000000000E+00 0. -1.
         23    2    1    2    0    0 -0.99369561099E+02 -0.41935633561E+02 -0.19722161746E+03  0.24403321949E+03  0.94989150889E+02 0.  0.
          5    1    1    2  502    0  0.53424346945E+02 -0.16891627181E+02  0.65247596557E+02  0.86105802196E+02  0.41800000000E+01 0.  1.
         -5    1    1    2    0  502  0.45945214154E+02  0.58827260743E+02 -0.33782720674E+02  0.82038734304E+02  0.41800000000E+01 0.  1.
        -11    1    3    3    0    0  0.17971212720E+02 -0.88182400730E+01 -0.16061205501E+02  0.25664920938E+02  0.00000000000E+00 0.  1.
         11    1    3    3    0    0 -0.11734077382E+03 -0.33117393488E+02 -0.18116041196E+03  0.21836829855E+03  0.00000000000E+00 0. -1.
</event>
<event>
 7    1  0.6584658E-006  0.9440929E+02  0.7561462E-02  0.1292512E+00
          2   -1    0    0  501    0  0.00000000000E+00  0.00000000000E+00  0.74097048753E+02  0.74097048753E+02  0.00000000000E+00 0. -1.
         -2   -1    0    0    0  501 -0.00000000000E+00 -0.00000000000E+00 -0.26709966093E+03  0.26709966093E+03  0.00000000000E+00 0.  1.
         23    2    1    2    0    0  0.77704432061E+02  0.10007527491E+01 -0.34018573237E+02  0.12449297735E+03  0.91116726324E+02 0.  0.
          5    1    1    2  502    0 -0.72536367202E+01 -0.45571364487E+01  0.21153516679E+02  0.23201862128E+02  0.41800000000E+01 0.  1.
         -5    1    1    2    0  502 -0.70450795340E+02  0.35563836996E+01 -0.18013755562E+03  0.19350187021E+03  0.41800000000E+01 0.  1.
        -11    1    3    3    0    0 -0.14034316823E+02 -0.84765501220E+01 -0.27524460715E+02  0.32037632376E+02  0.00000000000E+00 0.  1.
         11    1    3    3    0    0  0.91738748883E+02  0.94773028711E+01 -0.64941125225E+01  0.92455344972E+02  0.00000000000E+00 0. -1.
</event>
<event>
 7    1  0.6584658E-006  0.4047553E+03  0.7561462E-02  0.1042145E+00
         -2   -1    0    0    0  501 -0.00000000000E+00  0.00000000000E+00  0.24138137251E+03  0.24138137251E+03  0.00000000000E+00 0. -1.
          2   -1    0    0  501    0  0.00000000000E+00 -0.00000000000E+00 -0.70085174575E+03  0.70085174575E+03  0.00000000000E+00 0.  1.
         23    2    1    2    0    0  0.44850728803E+02  0.39252007730E+03 -0.18505114266E+03  0.44520513158E+03  0.88769841869E+02 0.  0.
          5    1    1    2  502    0 -0.53241803291E+02 -0.11084160735E+03 -0.13479370102E+03  0.18250305688E+03  0.41800000000E+01 0.  1.
         -5    1    1    2    0  502  0.83910744882E+01 -0.28167846995E+03 -0.13962552956E+03  0.31452492980E+03  0.41800000000E+01 0.  1.
        -11    1    3    3    0    0  0.71127753212E+02  0.30912294647E+03 -0.13811480597E+03  0.34596510364E+03  0.00000000000E+00 0.  1.
         11    1    3    3    0    0 -0.26277024408E+02  0.83397130829E+02 -0.46936336689E+02  0.99240027933E+02  0.00000000000E+00 0. -1.
</event>
<event>
 7    1  0.6584658E-006  0.1181846E+03  0.7561462E-02  0.1246122E+00
         -2   -1    0    0    0  501 -0.00000000000E+00  0.00000000000E+00  0.35322500961E+02  0.35322500961E+02  0.00000000000E+00 0.  1.
          2   -1    0    0  501    0  0.00000000000E+00 -0.00000000000E+00 -0.44166418761E+03  0.44166418761E+03  0.00000000000E+00 0. -1.
         23    2    1    2    0    0 -0.35228402898E+02  0.40112563709E+02 -0.23988456064E+03  0.26203301115E+03  0.90921055653E+02 0.  0.
          5    1    1    2  502    0  0.63177434444E+02  0.22539447642E+02 -0.78957439803E+02  0.10368782293E+03  0.41800000000E+01 0. -1.
         -5    1    1    2    0  502 -0.27949031546E+02 -0.62652011351E+02 -0.87499686211E+02  0.11126585450E+03  0.41800000000E+01 0. -1.
        -11    1    3    3    0    0  0.21030821719E+02 -0.11597985464E+02 -0.28552463020E+02  0.37310211384E+02  0.00000000000E+00 0. -1.
         11    1    3    3    0    0 -0.56259224617E+02  0.51710549173E+02 -0.21133209762E+03  0.22472279976E+03  0.00000000000E+00 0.  1.
</event>
<event>
 7    1  0.6584658E-006  0.1179397E+03  0.7561462E-02  0.1246535E+00
          2   -1    0    0  501    0  0.00000000000E+00  0.00000000000E+00  0.42307142486E+03  0.42307142486E+03  0.00000000000E+00 0. -1.
         -2   -1    0    0    0  501 -0.00000000000E+00 -0.00000000000E+00 -0.39818094258E+02  0.39818094258E+02  0.00000000000E+00 0.  1.
         23    2    1    2    0    0  0.14219760403E+02  0.59226572690E+02  0.23470653642E+03  0.25936216744E+03  0.92041225352E+02 0.  0.
          5    1    1    2  502    0 -0.44653726210E+02  0.20783189671E+02  0.78839656851E+02  0.93054071001E+02  0.41800000000E+01 0. -1.
         -5    1    1    2    0  502  0.30433965807E+02 -0.80009762361E+02  0.69707137330E+02  0.11047328067E+03  0.41800000000E+01 0. -1.
        -11    1    3    3    0    0 -0.19377613059E+02 -0.11436526261E+02  0.10896767873E+03  0.11126653148E+03  0.00000000000E+00 0.  1.
         11    1    3    3    0    0  0.33597373462E+02  0.70663098951E+02  0.12573885769E+03  0.14809563596E+03  0.00000000000E+00 0. -1.
</event>
<event>
 7    1  0.6584658E-006  0.1125806E+03  0.7561462E-02  0.1255864E+00
          1   -1    0    0  501    0  0.00000000000E+00  0.00000000000E+00  0.30053050097E+03  0.30053050097E+03  0.00000000000E+00 0. -1.
         -1   -1    0    0    0  501 -0.00000000000E+00 -0.00000000000E+00 -0.47308351041E+02  0.47308351041E+02  0.00000000000E+00 0.  1.
         23    2    1    2    0    0  0.11986068831E+02  0.20846111384E+02  0.16408725126E+03  0.19236902707E+03  0.97483282379E+02 0.  0.
          5    1    1    2  502    0 -0.19340008840E+02 -0.71146918007E+02  0.67555883268E+02  0.10008591134E+03  0.41800000000E+01 0.  1.
         -5    1    1    2    0  502  0.73539400095E+01  0.50300806623E+02  0.21579015400E+02  0.55383913605E+02  0.41800000000E+01 0.  1.
        -11    1    3    3    0    0  0.48262473818E+02  0.36785747893E+02  0.95077579478E+02  0.11279274687E+03  0.00000000000E+00 0.  1.
         11    1    3    3    0    0 -0.36276404987E+02 -0.15939636509E+02  0.69009671782E+02  0.79576280199E+02  0.00000000000E+00 0. -1.
</event>
<event>
 7    1  0.6584658E-006  0.9407981E+02  0.7561462E-02  0.1293262E+00
         -2   -1    0    0    0  501 -0.00000000000E+00  0.00000000000E+00  0.21067364341E+03  0.21067364341E+03  0.00000000000E+00 0. -1.
          2   -1    0    0  501    0  0.00000000000E+00 -0.00000000000E+00 -0.99559177865E+02  0.99559177865E+02  0.00000000000E+00 0.  1.
         23    2    1    2    0    0 -0.57962238529E+02 -0.77191570538E+01 -0.29138724675E+02  0.11341482805E+03  0.92707343099E+02 0.  0.
          5    1    1    2  502    0  0.44837518478E+02  0.28948059215E+02 -0.77294164737E+00  0.53539359675E+02  0.41800000000E+01 0. -1.
         -5    1    1    2    0  502  0.13124720051E+02 -0.21228902161E+02  0.14102613186E+03  0.14327863355E+03  0.41800000000E+01 0. -1.
        -11    1    3    3    0    0  0.17954557925E+02  0.21467232944E+02 -0.11085371213E+02  0.30101390259E+02  0.00000000000E+00 0. -1.
         11    1    3    3    0    0 -0.75916796455E+02 -0.29186389998E+02 -0.18053353461E+02  0.83313437789E+02  0.00000000000E+00 0.  1.
</event>
<event>
 7    1  0.6584658E-006  0.1153825E+03  0.7561462E-02  0.1250915E+00
         -2   -1    0    0    0  501 -0.00000000000E+00  0.00000000000E+00  0.24063824064E+03  0.24063824064E+03  0.00000000000E+00 0.  1.
          2   -1    0    0  501    0  0.00000000000E+00 -0.00000000000E+00 -0.67382947534E+02  0.67382947534E+02  0.00000000000E+00 0. -1.
         23    2    1    2    0    0  0.39993720281E+02 -0.46070414508E+02  0.42723792189E+02  0.11720502002E+03  0.90497036102E+02 0.  0.
          5    1    1    2  502    0 -0.61978783850E+02 -0.14568173465E+02  0.10166117703E+03  0.12002528334E+03  0.41800000000E+01 0. -1.
         -5    1    1    2    0  502  0.21985063569E+02  0.60638587972E+02  0.28870323880E+02  0.70790884811E+02  0.41800000000E+01 0. -1.
        -11    1    3    3    0    0 -0.17128062275E+01 -0.58716938806E+02  0.44332853392E+02  0.73593576471E+02  0.00000000000E+00 0.  1.
         11    1    3    3    0    0  0.41706526508E+02  0.12646524298E+02 -0.16090612025E+01  0.43611443546E+02  0.00000000000E+00 0. -1.
</event>
<event>
 7    1  0.6584658E-006  0.1541266E+03  0.7561462E-02  0.1195492E+00
         -1   -1    0    0    0  501 -0.00000000000E+00  0.00000000000E+00  0.33984102198E+02  0.33984102198E+02  0.00000000000E+00 0.  1.
          1   -1    0    0  501    0  0.00000000000E+00 -0.00000000000E+00 -0.74114424162E+03  0.74114424162E+03  0.00000000000E+00 0. -1.
         23    2    1    2    0    0 -0.11460966494E+02 -0.11625321802E+03 -0.31820333526E+03  0.35018043714E+03  0.87902283978E+02 0.  0.
          5    1    1    2  502    0 -0.84195830018E+00  0.14196915979E+03 -0.31335063411E+03  0.34403785187E+03  0.41800000000E+01 0. -1.
         -5    1    1    2    0  502  0.12302924794E+02 -0.25715941768E+02 -0.75606170054E+02  0.80910054812E+02  0.41800000000E+01 0. -1.
        -11    1    3    3    0    0 -0.16200715122E+02  0.42997666294E+01 -0.10774146378E+02  0.19925696818E+02  0.00000000000E+00 0.  1.
         11    1    3    3    0    0  0.47397486277E+01 -0.12055298465E+03 -0.30742918889E+03  0.33025474032E+03  0.00000000000E+00 0. -1.
</event>
<event>
 7    1  0.6584658E-006  0.8355189E+02  0.7561462E-02  0.1319264E+00
         -2   -1    0    0    0  501 -0.00000000000E+00  0.00000000000E+00  0.67034205439E+02  0.67034205439E+02  0.00000000000E+00 0.  1.
          2   -1    0    0  501    0  0.00000000000E+00 -0.00000000000E+00 -0.22157537237E+03  0.22157537237E+03  0.00000000000E+00 0. -1.
         23    2    1    2    0    0  0.44239844019E+02 -0.18253957347E+02 -0.10252582595E+03  0.14532875286E+03  0.91205979313E+02 0.  0.
          5    1    1    2  502    0  0.14274389609E+02 -0.18196700524E+01 -0.75505105148E+02  0.76977676642E+02  0.41800000000E+01 0. -1.
         -5    1    1    2    0  502 -0.58514233628E+02  0.20073627399E+02  0.23489764174E+02  0.66303148304E+02  0.41800000000E+01 0.  1.
        -11    1    3    3    0    0  0.97166892406E+01 -0.45256141070E+02 -0.87512524630E+02  0.98999870310E+02  0.00000000000E+00 0. -1.
         11    1    3    3    0    0  0.34523154778E+02  0.27002183723E+02 -0.15013301324E+02  0.46328882549E+02  0.00000000000E+00 0.  1.
</event>
<event>
 7    1  0.6584658E-006  0.1321733E+03  0.7561462E-02  0.1224266E+00
          1   -1    0    0  501    0  0.00000000000E+00  0.00000000000E+00  0.25827960146E+03  0.25827960146E+03  0.00000000000E+00 0. -1.
         -1   -1    0    0    0  501 -0.00000000000E+00 -0.00000000000E+00 -0.92195440482E+02  0.92195440482E+02  0.00000000000E+00 0.  1.
         23    2    1    2    0    0 -0.32082542927E+02 -0.99227126371E+02  0.11463621464E+03  0.17967729316E+03  0.90923901152E+02 0.  0.
          5    1    1    2  502    0 -0.32320282323E+01  0.11916699576E+03  0.24070263063E+02  0.12168840885E+03  0.41800000000E+01 0.  1.
         -5    1    1    2    0  502  0.35314571160E+02 -0.19939869386E+02  0.27377683270E+02  0.49109339932E+02  0.41800000000E+01 0.  1.
        -11    1    3    3    0    0 -0.27908342481E+02 -0.87653959525E+02  0.13046184242E+03  0.15963202852E+03  0.00000000000E+00 0. -1.
         11    1    3    3    0    0 -0.41742004460E+01 -0.11573166846E+02 -0.15825627775E+02  0.20045264645E+02  0.00000000000E+00 0.  1.
</event>
<event>
 7    1  0.6584658E-006  0.1008042E+03  0.7561462E-02  0.1278614E+00
         -2   -1    0    0    0  501 -0.00000000000E+00  0.00000000000E+00  0.13945002720E+03  0.13945002720E+03  0.00000000000E+00 0. -1.
          2   -1    0    0  501    0  0.00000000000E+00 -0.00000000000E+00 -0.14775298455E+03  0.14775298455E+03  0.00000000000E+00 0.  1.
         23    2    1    2    0    0 -0.50220796329E+02  0.71898198011E+02  0.10647601279E+02  0.13326524721E+03  0.99773620958E+02 0.  0.
          5    1    1    2  502    0  0.44918725024E+01 -0.13488422938E+02  0.50259135659E+02  0.52398163986E+02  0.41800000000E+01 0. -1.
         -5    1    1    2    0  502  0.45728923827E+02 -0.58409775073E+02 -0.69209694290E+02  0.10153960056E+03  0.41800000000E+01 0. -1.
        -11    1    3    3    0    0 -0.61051853106E+02  0.27801918532E+02 -0.28905862671E+02  0.73046727089E+02  0.00000000000E+00 0.  1.
         11    1    3    3    0    0  0.10831056777E+02  0.44096279479E+02  0.39553463949E+02  0.60218520118E+02  0.00000000000E+00 0. -1.
</event>
<event>
 7    1  0.6584658E-006  0.1289324E+03  0.7561462E-02  0.1229048E+00
         -3   -1    0    0    0  501 -0.00000000000E+00  0.00000000000E+00  0.76563557715E+03  0.76563557715E+03  0.00000000000E+00 0.  1.
          3   -1    0    0  501    0  0.00000000000E+00 -0.00000000000E+00 -0.30287476683E+02  0.30287476683E+02  0.00000000000E+00 0. -1.
         23    2    1    2    0    0 -0.25298109352E+02 -0.10327073010E+03  0.32415639575E+03  0.35316882417E+03  0.91356507321E+02 0.  0.
          5    1    1    2  502    0  0.35235389798E+02  0.24942682501E+02  0.31620764839E+03  0.31916832456E+03  0.41800000000E+01 0. -1.
         -5    1    1    2    0  502 -0.99372804465E+01  0.78328047597E+02  0.94984056338E+02  0.12358590511E+03  0.41800000000E+01 0. -1.
        -11    1    3    3    0    0  0.22426678698E+02 -0.78530393834E+02  0.23794705708E+03  0.25157261506E+03  0.00000000000E+00 0.  1.
         11    1    3    3    0    0 -0.47724788050E+02 -0.24740336263E+02  0.86209338668E+02  0.10159620911E+03  0.00000000000E+00 0. -1.
</event>
<event>
 7    1  0.6584658E-006  0.1171374E+03  0.7561462E-02  0.1247896E+00
          1   -1    0    0  501    0  0.00000000000E+00  0.00000000000E+00  0.17451930960E+03  0.17451930960E+03  0.00000000000E+00 0. -1.
         -1   -1    0    0    0  501 -0.00000000000E+00 -0.00000000000E+00 -0.25810086304E+03  0.25810086304E+03  0.00000000000E+00 0.  1.
         23    2    1    2    0    0  0.40536061562E+02 -0.84498968000E+02  0.11902506710E+03  0.17672924745E+03  0.91011056613E+02 0.  0.
          5    1    1    2  502    0  0.21435925731E+02  0.15602796617E+02 -0.14329810938E+03  0.14579014619E+03  0.41800000000E+01 0.  1.
         -5    1    1    2    0  502 -0.61971987293E+02  0.68896171382E+02 -0.59308511155E+02  0.11010077900E+03  0.41800000000E+01 0.  1.
        -11    1    3    3    0    0 -0.18411924869E+02 -0.23369269406E+02 -0.91960652168E+00  0.29765204620E+02  0.00000000000E+00 0. -1.
         11    1    3    3    0    0  0.58947986431E+02 -0.61129698594E+02  0.11994467362E+03  0.14696404283E+03  0.00000000000E+00 0.  1.
</event>
<event>
 7    1  0.6584658E-006  0.7419082E+02  0.7561462E-02  0.1346395E+00
          2   -1    0    0  501    0  0.00000000000E+00  0.00000000000E+00  0.10258449117E+03  0.10258449117E+03  0.00000000000E+00 0. -1.
         -2   -1    0    0    0  501 -0.00000000000E+00 -0.00000000000E+00 -0.13418049439E+03  0.13418049439E+03  0.00000000000E+00 0.  1.
         23    2    1    2    0    0  0.33055762715E+02 -0.30259433689E+01  0.17794425168E+02  0.98240472127E+02  0.90734276956E+02 0.  0.
          5    1    1    2  502    0 -0.23395944226E+02  0.38264589806E+02 -0.79246820491E+02  0.91154155129E+02  0.41800000000E+01 0. -1.
         -5    1    1    2    0  502 -0.96598184890E+01 -0.35238646437E+02  0.29856392110E+02  0.47370358304E+02  0.41800000000E+01 0. -1.
        -11    1    3    3    0    0  0.12423884475E+02 -0.30075232075E+02 -0.26796809364E+02  0.42153783720E+02  0.00000000000E+00 0.  1.
         11    1    3    3    0    0  0.20631878241E+02  0.27049288707E+02  0.44591234532E+02  0.56086688406E+02  0.00000000000E+00 0. -1.
</event>
<event>
 7    1  0.6584658E-006  0.1074491E+03  0.7561462E-02  0.1265368E+00
         -1   -1    0    0    0  501 -0.00000000000E+00  0.00000000000E+00  0.15405450891E+03  0.15405450891E+03  0.00000000000E+00 0.  1.
          1   -1    0    0  501    0  0.00000000000E+00 -0.00000000000E+00 -0.86674060991E+02  0.86674060991E+02  0.00000000000E+00 0. -1.
         23    2    1    2    0    0 -0.42677884344E+01 -0.34556936485E+02  0.64277089019E+01  0.97288543380E+02  0.90616496036E+02 0.  0.
          5    1    1    2  502    0 -0.38093544129E+02 -0.26189745142E+02  0.50398928326E+02  0.68516751465E+02  0.41800000000E+01 0.  1.
         -5    1    1    2    0  502  0.42361332564E+02  0.60746681628E+02  0.10553810693E+02  0.74923275058E+02  0.41800000000E+01 0.  1.
        -11    1    3    3    0    0 -0.37305578768E+02 -0.46104988310E+02  0.15166745956E+02  0.61216062738E+02  0.00000000000E+00 0.  1.
         11    1    3    3    0    0  0.33037790333E+02  0.11548051825E+02 -0.87390370536E+01  0.36072480642E+02  0.00000000000E+00 0. -1.
</event>
<event>
 7    1  0.6584658E-006  0.1120497E+03  0.7561462E-02  0.1256821E+00
          1   -1    0    0  501    0  0.00000000000E+00  0.00000000000E+00  0.41725869910E+02  0.41725869910E+02  0.00000000000E+00 0. -1.
         -1   -1    0    0    0  501 -0.00000000000E+00 -0.00000000000E+00 -0.35922758642E+03  0.35922758642E+03  0.00000000000E+00 0.  1.
         23    2    1    2    0    0 -0.30256513259E+02 -0.80331074140E+01 -0.93872138770E+02  0.14281856552E+03  0.10298143915E+03 0.  0.
          5    1    1    2  502    0  0.45102997806E+02  0.59156831447E+02 -0.11394886389E+03  0.13614560992E+03  0.41800000000E+01 0. -1.
         -5    1    1    2    0  502 -0.14846484547E+02 -0.51123724033E+02 -0.10968071385E+03  0.12198928089E+03  0.41800000000E+01 0. -1.
        -11    1    3    3    0    0  0.33942535747E+01 -0.45618429989E+02 -0.13094653046E+02  0.47581845807E+02  0.00000000000E+00 0. -1.
         11    1    3    3    0    0 -0.33650766833E+02  0.37585322575E+02 -0.80777485724E+02  0.95236719711E+02  0.00000000000E+00 0.  1.
</event>
<event>
 7    1  0.6584658E-006  0.9407652E+02  0.7561462E-02  0.1293270E+00
         -3   -1    0    0    0  501 -0.00000000000E+00  0.00000000000E+00  0.70121904412E+03  0.70121904412E+03  0.00000000000E+00 0.  1.
          3   -1    0    0  501    0  0.00000000000E+00 -0.00000000000E+00 -0.20899467316E+02  0.20899467316E+02  0.00000000000E+00 0. -1.
         23    2    1    2    0    0  0.19473690645E+02  0.39679778308E+02  0.19352798526E+03  0.21758069775E+03  0.89076200649E+02 0.  0.
          5    1    1    2  502    0 -0.10980291905E+02 -0.78087008775E+02  0.41614385625E+03  0.42356974543E+03  0.41800000000E+01 0.  1.
         -5    1    1    2    0  502 -0.84933987406E+01  0.38407230467E+02  0.70647735301E+02  0.80968068258E+02  0.41800000000E+01 0.  1.
        -11    1    3    3    0    0  0.15453025481E+02  0.53265770500E+02  0.19555517330E+03  0.20326796134E+03  0.00000000000E+00 0.  1.
         11    1    3    3    0    0  0.40206651644E+01 -0.13585992192E+02 -0.20271880418E+01  0.14312736410E+02  0.00000000000E+00 0. -1.
</event>
<event>
 7    1  0.6584658E-006  0.5338258E+02  0.7561462E-02  0.1427906E+00
          4   -1    0    0  501    0  0.00000000000E+00  0.00000000000E+00  0.10416358617E+03  0.10416358617E+03  0.00000000000E+00 0.  1.
         -4   -1    0    0    0  501 -0.00000000000E+00 -0.00000000000E+00 -0.13286578597E+03  0.13286578597E+03  0.00000000000E+00 0. -1.
         23    2    1    2    0    0 -0.34190094527E+01  0.55768191518E+01  0.32405927280E+02  0.97656596039E+02  0.91890565835E+02 0.  0.
          5    1    1    2  502    0 -0.88712692081E+01 -0.14733246634E+02  0.36455327044E+02  0.40524452416E+02  0.41800000000E+01 0. -1.
         -5    1    1    2    0  502  0.12290278661E+02  0.91564274822E+01 -0.97563454126E+02  0.98848323683E+02  0.41800000000E+01 0. -1.
        -11    1    3    3    0    0  0.34586029891E+02 -0.10509049451E+01  0.45279149006E+02  0.56986833563E+02  0.00000000000E+00 0.  1.
         11    1    3    3    0    0 -0.38005039344E+02  0.66277240969E+01 -0.12873221726E+02  0.40669762476E+02  0.00000000000E+00 0. -1.
</event>
<event>
 7    1  0.6584658E-006  0.1472039E+03  0.7561462E-02  0.1203951E+00
         -1   -1    0    0    0  501 -0.00000000000E+00  0.00000000000E+00  0.13094620271E+03  0.13094620271E+03  0.00000000000E+00 0.  1.
          1   -1    0    0  501    0  0.00000000000E+00 -0.00000000000E+00 -0.18170178630E+03  0.18170178630E+03  0.00000000000E+00 0. -1.
         23    2    1    2    0    0  0.10945901287E+03  0.44058455511E+01 -0.27391848666E+02  0.14473831977E+03  0.90543806320E+02 0.  0.
          5    1    1    2  502    0 -0.11379535010E+03 -0.43294324272E+02  0.61734265153E+00  0.12182624402E+03  0.41800000000E+01 0. -1.
         -5    1    1    2    0  502  0.43363372300E+01  0.38888478721E+02 -0.23981077579E+02  0.46083425216E+02  0.41800000000E+01 0. -1.
        -11    1    3    3    0    0  0.11807372626E+03 -0.77549345859E+01 -0.40320303431E+02  0.12500908251E+03  0.00000000000E+00 0. -1.
         11    1    3    3    0    0 -0.86147133818E+01  0.12160780137E+02  0.12928454765E+02  0.19729237258E+02  0.00000000000E+00 0.  1.
</event>
<event>
 7    1  0.6584658E-006  0.1053198E+03  0.7561462E-02  0.1269491E+00
         -2   -1    0    0    0  501 -0.00000000000E+00  0.00000000000E+00  0.22743355598E+02  0.22743355598E+02  0.00000000000E+00 0.  1.
          2   -1    0    0  501    0  0.00000000000E+00 -0.00000000000E+00 -0.55534131651E+03  0.55534131651E+03  0.00000000000E+00 0. -1.
         23    2    1    2    0    0  0.17977981793E+02  0.10956293757E+02 -0.28498467386E+03  0.29987070397E+03  0.90900641153E+02 0.  0.
          5    1    1    2  502    0  0.15597578647E+02 -0.57661079401E+02 -0.73537064095E+02  0.94832783008E+02  0.41800000000E+01 0. -1.
         -5    1    1    2    0  502 -0.33575560440E+02  0.46704785643E+02 -0.17407622295E+03  0.18338118512E+03  0.41800000000E+01 0. -1.
        -11    1    3    3    0    0  0.49109465330E+02 -0.16265375418E+02 -0.16851844804E+03  0.17628037143E+03  0.00000000000E+00 0.  1.
         11    1    3    3    0    0 -0.31131483538E+02  0.27221669176E+02 -0.11646622582E+03  0.12359033254E+03  0.00000000000E+00 0. -1.
</event>
<event>
 7    1  0.6584658E-006  0.8663967E+02  0.7561462E-02  0.1311199E+00
          1   -1    0    0  501    0  0.00000000000E+00  0.00000000000E+00  0.19259479995E+02  0.19259479995E+02  0.00000000000E+00 0. -1.
         -1   -1    0    0    0  501 -0.00000000000E+00 -0.00000000000E+00 -0.74379282299E+03  0.74379282299E+03  0.00000000000E+00 0.  1.
         23    2    1    2    0    0 -0.10844124131E+02  0.42088671135E+01 -0.25348931770E+03  0.26928356689E+03  0.90119340996E+02 0.  0.
          5    1    1    2  502    0  0.22130439074E+02 -0.44603918068E+02 -0.50234999933E+02  0.70854029236E+02  0.41800000000E+01 0. -1.
         -5    1    1    2    0  502 -0.11286314943E+02  0.40395050955E+02 -0.42080902537E+03  0.42291470686E+03  0.41800000000E+01 0.  1.
        -11    1    3    3    0    0 -0.43292153206E+02  0.16687878214E+02 -0.20128252772E+03  0.20656077017E+03  0.00000000000E+00 0.  1.
         11    1    3    3    0    0  0.32448029075E+02 -0.12479011101E+02 -0.52206789979E+02  0.62722796724E+02  0.00000000000E+00 0. -1.
</event>
<event>
 7    1  0.6584658E-006  0.6211930E+02  0.7561462E-02  0.1389147E+00
          3   -1    0    0  501    0  0.00000000000E+00  0.00000000000E+00  0.60570790664E+02  0.60570790664E+02  0.00000000000E+00 0. -1.
         -3   -1    0    0    0  501 -0.00000000000E+00 -0.00000000000E+00 -0.22007558058E+03  0.22007558058E+03  0.00000000000E+00 0.  1.
         23    2    1    2    0    0 -0.11817307429E+02 -0.58779237251E+00 -0.15810293163E+02  0.89770077368E+02  0.87571154874E+02 0.  0.
          5    1    1    2  502    0  0.34518404179E+02 -0.22383615878E+02  0.21811938466E+01  0.41409859857E+02  0.41800000000E+01 0.  1.
         -5    1    1    2    0  502 -0.22701096750E+02  0.22971408250E+02 -0.14587569060E+03  0.14946643402E+03  0.41800000000E+01 0.  1.
        -11    1    3    3    0    0 -0.16081890705E+02  0.22046312571E+02 -0.44975659910E+02  0.52606816012E+02  0.00000000000E+00 0.  1.
         11    1    3    3    0    0  0.42645832755E+01 -0.22634104943E+02  0.29165366747E+02  0.37163261355E+02  0.00000000000E+00 0. -1.
</event>
<event>
 7    1  0.6584658E-006  0.1817183E+03  0.7561462E-02  0.1166150E+00
         -1   -1    0    0    0  501 -0.00000000000E+00  0.00000000000E+00  0.82783435303E+02  0.82783435303E+02  0.00000000000E+00 0.  1.
          1   -1    0    0  501    0  0.00000000000E+00 -0.00000000000E+00 -0.50458288513E+03  0.50458288513E+03  0.00000000000E+00 0. -1.
         23    2    1    2    0    0  0.12377126154E+03  0.11773256606E+03 -0.24305665806E+03  0.31036483109E+03  0.89830435007E+02 0.  0.
          5    1    1    2  502    0 -0.81328100850E+02 -0.50489188359E+02 -0.17225390565E+03  0.19710986414E+03  0.41800000000E+01 0. -1.
         -5    1    1    2    0  502 -0.42443160687E+02 -0.67243377706E+02 -0.64888861084E+01  0.79891625201E+02  0.41800000000E+01 0.  1.
        -11    1    3    3    0    0  0.27271541763E+01  0.48441642817E+02 -0.96725824544E+02  0.10821236187E+03  0.00000000000E+00 0.  1.
         11    1    3    3    0    0  0.12104410736E+03  0.69290923247E+02 -0.14633083352E+03  0.20215246921E+03  0.00000000000E+00 0. -1.
</event>
<event>
 7    1  0.6584658E-006  0.1050269E+03  0.7561462E-02  0.1270067E+00
          2   -1    0    0  501    0  0.00000000000E+00  0.00000000000E+00  0.33065432001E+03  0.33065432001E+03  0.00000000000E+00 0.  1.
         -2   -1    0    0    0  501 -0.00000000000E+00 -0.00000000000E+00 -0.53871051531E+02  0.53871051531E+02  0.00000000000E+00 0. -1.
         23    2    1    2    0    0 -0.72184267342E+02 -0.49457102455E+01  0.16602688859E+03  0.20245598279E+03  0.90490158201E+02 0.  0.
          5    1    1    2  502    0 -0.53634210805E+01 -0.29216763448E+02  0.89799335841E+02  0.94677234167E+02  0.41800000000E+01 0. -1.
         -5    1    1    2    0  502  0.77547688422E+02  0.34162473693E+02  0.20957044056E+02  0.87392154591E+02  0.41800000000E+01 0. -1.
        -11    1    3    3    0    0 -0.73019986762E+02 -0.23448403824E+02  0.67385834226E+02  0.10209111990E+03  0.00000000000E+00 0. -1.
         11    1    3    3    0    0  0.83571942003E+00  0.18502693579E+02  0.98641054361E+02  0.10036486289E+03  0.00000000000E+00 0.  1.
</event>
<event>
 7    1  0.6584658E-006  0.1280254E+03  0.7561462E-02  0.1230415E+00
          4   -1    0    0  501    0  0.00000000000E+00  0.00000000000E+00  0.13040508278E+03  0.13040508278E+03  0.00000000000E+00 0. -1.
         -4   -1    0    0    0  501 -0.00000000000E+00 -0.00000000000E+00 -0.22470111835E+03  0.22470111835E+03  0.00000000000E+00 0.  1.
         23    2    1    2    0    0 -0.98442203324E+02 -0.33922788500E+02  0.41691554416E+02  0.14301765751E+03  0.88736923961E+02 0.  0.
          5    1    1    2  502    0 -0.60838844894E+01  0.92842981749E+01 -0.97062604743E+02  0.97784628048E+02  0.41800000000E+01 0. -1.
         -5    1    1    2    0  502  0.10452608781E+03  0.24638490325E+02 -0.38924985246E+02  0.11430391557E+03  0.41800000000E+01 0. -1.
        -11    1    3    3    0    0 -0.76566738165E+02 -0.63816788349E+02  0.32665389719E+02  0.10489077917E+03  0.00000000000E+00 0.  1.
         11    1    3    3    0    0 -0.21875465159E+02  0.29893999849E+02  0.90261646975E+01  0.38126878341E+02  0.00000000000E+00 0. -1.
</event>
<event>
 7    1  0.6584658E-006  0.9284154E+02  0.7561462E-02  0.1296113E+00
         -2   -1    0    0    0  501 -0.00000000000E+00  0.00000000000E+00  0.86371948732E+02  0.86371948732E+02  0.00000000000E+00 0.  1.
          2   -1    0    0  501    0  0.00000000000E+00 -0.00000000000E+00 -0.23208721857E+03  0.23208721857E+03  0.00000000000E+00 0. -1.
         23    2    1    2    0    0  0.10063288753E+01  0.90418485051E+02 -0.57689828511E+02  0.14077026577E+03  0.91168175779E+02 0.  0.
          5    1    1    2  502    0  0.11264721338E+02 -0.57896910414E+02 -0.11774955927E+03  0.13176257925E+03  0.41800000000E+01 0. -1.
         -5    1    1    2    0  502 -0.12271050213E+02 -0.32521574637E+02  0.29724117947E+02  0.45926322277E+02  0.41800000000E+01 0. -1.
        -11    1    3    3    0    0 -0.55444537579E+01  0.66881512932E+02  0.10871641858E+02  0.67985809815E+02  0.00000000000E+00 0.  1.
         11    1    3    3    0    0  0.65507826332E+01  0.23536972119E+02 -0.68561470369E+02  0.72784455956E+02  0.00000000000E+00 0. -1.
</event>
<event>
 7    1  0.6584658E-006  0.1022763E+03  0.7561462E-02  0.1275581E+00
         -3   -1    0    0    0  501 -0.00000000000E+00  0.00000000000E+00  0.95313447705E+03  0.95313447705E+03  0.00000000000E+00 0.  1.
          3   -1    0    0  501    0  0.00000000000E+00 -0.00000000000E+00 -0.19553523465E+02  0.19553523465E+02  0.00000000000E+00 0. -1.
         23    2    1    2    0    0 -0.56582486328E+02  0.63629523953E+02  0.47966220026E+03  0.49421103378E+03  0.83177073013E+02 0.  0.
          5    1    1    2  502    0 -0.54604947420E+01 -0.75658728497E+01 -0.54187756560E+01  0.11571299167E+02  0.41800000000E+01 0. -1.
         -5    1    1    2    0  502  0.62042981070E+02 -0.56063651104E+02  0.45933752898E+03  0.46690566757E+03  0.41800000000E+01 0. -1.
        -11    1    3    3    0    0 -0.54958852144E+02  0.86924468604E+01  0.33243870816E+03  0.33706309312E+03  0.00000000000E+00 0.  1.
         11    1    3    3    0    0 -0.16236341844E+01  0.54937077093E+02  0.14722349210E+03  0.15714794066E+03  0.00000000000E+00 0. -1.
</event>
<event>
 7    1  0.6584658E-006  0.9843755E+02  0.7561462E-02  0.1283616E+00
          1   -1    0    0  501    0  0.00000000000E+00  0.00000000000E+00  0.45633719839E+03  0.45633719839E+03  0.00000000000E+00 0. -1.
         -1   -1    0    0    0  501 -0.00000000000E+00 -0.00000000000E+00 -0.41389377758E+02  0.41389377758E+02  0.00000000000E+00 0.  1.
         23    2    1    2    0    0 -0.22760758925E+02  0.18925986665E+02  0.35729162476E+03  0.36929052575E+03  0.88554741109E+02 0.  0.
          5    1    1    2  502    0  0.10079748605E+02  0.42853477280E+02  0.46651140926E+02  0.64279259459E+02  0.41800000000E+01 0. -1.
         -5    1    1    2    0  502  0.12681010320E+02 -0.61779463945E+02  0.11005054945E+02  0.64156790929E+02  0.41800000000E+01 0.  1.
        -11    1    3    3    0    0  0.32284365692E+02  0.89996399496E+01  0.86145944917E+02  0.92435910841E+02  0.00000000000E+00 0.  1.
         11    1    3    3    0    0 -0.55045124617E+02  0.99263467150E+01  0.27114567984E+03  0.27685461491E+03  0.00000000000E+00 0. -1.
</event>
<event>
 7    1  0.6584658E-006  0.1049696E+03  0.7561462E-02  0.1270179E+00
          1   -1    0    0  501    0  0.00000000000E+00  0.00000000000E+00  0.42249940592E+03  0.42249940592E+03  0.00000000000E+00 0. -1.
         -1   -1    0    0    0  501 -0.00000000000E+00 -0.00000000000E+00 -0.29673943457E+02  0.29673943457E+02  0.00000000000E+00 0.  1.
         23    2    1    2    0    0 -0.59117377134E+01  0.31027211485E+02  0.15753785715E+03  0.18383049863E+03  0.89318751100E+02 0.  0.
          5    1    1    2  502    0  0.59082896976E+02 -0.35123554560E+02  0.17321575983E+03  0.18640178286E+03  0.41800000000E+01 0. -1.
         -5    1    1    2    0  502 -0.53171159262E+02  0.40963430753E+01  0.62071845484E+02  0.81941067882E+02  0.41800000000E+01 0. -1.
        -11    1    3    3    0    0  0.24883381536E+02 -0.17281646070E+02  0.91606374457E+02  0.96486091271E+02  0.00000000000E+00 0. -1.
         11    1    3    3    0    0 -0.30795119249E+02  0.48308857554E+02  0.65931482689E+02  0.87344407362E+02  0.00000000000E+00 0.  1.
</event>
<event>
 7    1  0.6584658E-006  0.2534582E+03  0.7561462E-02  0.1111139E+00
          1   -1    0    0  501    0  0.00000000000E+00  0.00000000000E+00  0.29053300504E+03  0.29053300504E+03  0.00000000000E+00 0. -1.
         -1   -1    0    0    0  501 -0.00000000000E+00 -0.00000000000E+00 -0.30788254575E+03  0.30788254575E+03  0.00000000000E+00 0.  1.
         23    2    1    2    0    0 -0.71762938293E+02 -0.22918497992E+03  0.13302228861E+03  0.28868229219E+03  0.89257281062E+02 0.  0.
          5    1    1    2  502    0  0.54626314794E+02  0.51287214070E+02  0.16508345539E+01  0.75064040990E+02  0.41800000000E+01 0. -1.
         -5    1    1    2    0  502  0.17136623499E+02  0.17789776585E+03 -0.15202266388E+03  0.23466921761E+03  0.41800000000E+01 0. -1.
        -11    1    3    3    0    0  0.79492864883E+01 -0.10648404536E+03  0.78515688123E+02  0.13253964069E+03  0.00000000000E+00 0.  1.
         11    1    3    3    0    0 -0.79712224781E+02 -0.12270093456E+03  0.54506600491E+02  0.15614265151E+03  0.00000000000E+00 0. -1.
</event>
<event>
 7    1  0.6584658E-006  0.1320557E+03  0.7561462E-02  0.1224437E+00
          1   -1    0    0  501    0  0.00000000000E+00  0.00000000000E+00  0.41605288208E+03  0.41605288208E+03  0.00000000000E+00 0. -1.
         -1   -1    0    0    0  501 -0.00000000000E+00 -0.00000000000E+00 -0.59364644270E+02  0.59364644270E+02  0.00000000000E+00 0.  1.
         23    2    1    2    0    0  0.83588909523E+02 -0.71038109261E+02  0.20860348374E+03  0.25268453732E+03  0.91107317009E+02 0.  0.
          5    1    1    2  502    0 -0.43800380714E+02  0.86707140011E+02  0.15107779937E+03  0.17966239268E+03  0.41800000000E+01 0. -1.
         -5    1    1    2    0  502 -0.39788528809E+02 -0.15669030750E+02 -0.29930453025E+01  0.43070596346E+02  0.41800000000E+01 0. -1.
        -11    1    3    3    0    0 -0.84976186249E+00 -0.30031872452E+02  0.78244632179E+01  0.31046057444E+02  0.00000000000E+00 0.  1.
         11    1    3    3    0    0  0.84438671385E+02 -0.41006236809E+02  0.20077902052E+03  0.22163847988E+03  0.00000000000E+00 0. -1.
</event>
<event>
 7    1  0.6584658E-006  0.8436510E+02  0.7561462E-02  0.1317101E+00
         -1   -1    0    0    0  501 -0.00000000000E+00  0.00000000000E+00  0.19469681817E+03  0.19469681817E+03  0.00000000000E+00 0.  1.
          1   -1    0    0  501    0  0.00000000000E+00 -0.00000000000E+00 -0.72266744394E+02  0.72266744394E+02  0.00000000000E+00 0. -1.
         23    2    1    2    0    0  0.95702777745E+01 -0.99794416896E+01  0.71352004978E+00  0.91879774608E+02  0.90830635791E+02 0.  0.
          5    1    1    2  502    0  0.17872115869E+02  0.47480204918E+02  0.71792067851E+01  0.51408129657E+02  0.41800000000E+01 0. -1.
         -5    1    1    2    0  502 -0.27442393644E+02 -0.37500763229E+02  0.11453734694E+03  0.12367565830E+03  0.41800000000E+01 0. -1.
        -11    1    3    3    0    0  0.19111582384E+02 -0.37473916764E+02 -0.28367732231E+02  0.50737316156E+02  0.00000000000E+00 0. -1.
         11    1    3    3    0    0 -0.95413046095E+01  0.27494475074E+02  0.29081252281E+02  0.41142458452E+02  0.00000000000E+00 0.  1.
</event>
<event>
 7    1  0.6584658E-006  0.1097005E+03  0.7561462E-02  0.1261126E+00
          2   -1    0    0  501    0  0.00000000000E+00  0.00000000000E+00  0.18832630468E+03  0.18832630468E+03  0.00000000000E+00 0. -1.
         -2   -1    0    0    0  501 -0.00000000000E+00 -0.00000000000E+00 -0.87908902398E+02  0.87908902398E+02  0.00000000000E+00 0.  1.
         23    2    1    2    0    0  0.34837633949E+02 -0.29375202287E+02  0.99470779299E+02  0.14309752447E+03  0.92227448884E+02 0.  0.
          5    1    1    2  502    0 -0.30591216030E+02  0.76798298731E+02  0.13144890459E+02  0.83809675642E+02  0.41800000000E+01 0. -1.
         -5    1    1    2    0  502 -0.42464179197E+01 -0.47423096444E+02 -0.12198267476E+02  0.49328006962E+02  0.41800000000E+01 0. -1.
        -11    1    3    3    0    0 -0.22943694709E+02 -0.19712495985E+02  0.32199525062E+01  0.30419791567E+02  0.00000000000E+00 0.  1.
         11    1    3    3    0    0  0.57781328659E+02 -0.96627063024E+01  0.96250826793E+02  0.11267773291E+03  0.00000000000E+00 0. -1.
</event>
<event>
 7    1  0.6584658E-006  0.1248933E+03  0.7561462E-02  0.1235236E+00
          2   -1    0    0  501    0  0.00000000000E+00  0.00000000000E+00  0.16181878286E+03  0.16181878286E+03  0.00000000000E+00 0. -1.
         -2   -1    0    0    0  501 -0.00000000000E+00 -0.00000000000E+00 -0.10261217115E+03  0.10261217115E+03  0.00000000000E+00 0.  1.
         23    2    1    2    0    0 -0.24872032024E+02  0.63214792270E+02  0.42033385426E+02  0.12105855536E+03  0.90959553633E+02 0.  0.
          5    1    1    2  502    0  0.72452611107E+02 -0.53926394811E+02  0.25645087350E+02  0.93981805786E+02  0.41800000000E+01 0. -1.
         -5    1    1    2    0  502 -0.47580579083E+02 -0.92883974586E+01 -0.84718610737E+01  0.49390592862E+02  0.41800000000E+01 0. -1.
        -11    1    3    3    0    0  0.25861005691E+02 -0.43467261090E+01 -0.99733469589E+00  0.26242719366E+02  0.00000000000E+00 0.  1.
         11    1    3    3    0    0 -0.50733037715E+02  0.67561518379E+02  0.43030720121E+02  0.94815835996E+02  0.00000000000E+00 0. -1.
</event>
<event>
 7    1  0.6584658E-006  0.1010350E+03  0.7561462E-02  0.1278134E+00
          2   -1    0    0  501    0  0.00000000000E+00  0.00000000000E+00  0.24616564023E+03  0.24616564023E+03  0.00000000000E+00 0. -1.
         -2   -1    0    0    0  501 -0.00000000000E+00 -0.00000000000E+00 -0.55362296752E+02  0.55362296752E+02  0.00000000000E+00 0.  1.
         23    2    1    2    0    0 -0.42132321149E+02 -0.16738983004E+00  0.82736080181E+02  0.13094122919E+03  0.92331933989E+02 0.  0.
          5    1    1    2  502    0 -0.33029120655E+02  0.20250570585E+02  0.77781465855E+02  0.86996765749E+02  0.41800000000E+01 0.  1.
         -5    1    1    2    0  502  0.75161441804E+02 -0.20083180755E+02  0.30285797442E+02  0.83589942039E+02  0.41800000000E+01 0.  1.
        -11    1    3    3    0    0 -0.35763558582E+01 -0.33823902833E+02  0.42354285065E+00  0.34015086545E+02  0.00000000000E+00 0.  1.
         11    1    3    3    0    0 -0.38555965291E+02  0.33656513003E+02  0.82312537330E+02  0.96926142649E+02  0.00000000000E+00 0. -1.
</event>
<event>
 7    1  0.6584658E-006  0.1906211E+03  0.7561462E-02  0.1157902E+00
         -3   -1    0    0    0  501 -0.00000000000E+00  0.00000000000E+00  0.22699006226E+03  0.22699006226E+03  0.00000000000E+00 0.  1.
          3   -1    0    0  501    0  0.00000000000E+00 -0.00000000000E+00 -0.27093212306E+03  0.27093212306E+03  0.00000000000E+00 0. -1.
         23    2    1    2    0    0 -0.12303810234E+03 -0.13517112913E+03 -0.14946388967E+03  0.25257872866E+03  0.89704799619E+02 0.  0.
          5    1    1    2  502    0  0.34072519887E+02  0.50704357522E+02  0.10620699072E+03  0.12259390589E+03  0.41800000000E+01 0.  1.
         -5    1    1    2    0  502  0.88965582456E+02  0.84466771608E+02 -0.68516185714E+00  0.12274955077E+03  0.41800000000E+01 0.  1.
        -11    1    3    3    0    0 -0.46853755437E+02 -0.59152862619E+01 -0.11169506914E+02  0.48528578125E+02  0.00000000000E+00 0.  1.
         11    1    3    3    0    0 -0.76184346906E+02 -0.12925584287E+03 -0.13829438276E+03  0.20405015053E+03  0.00000000000E+00 0. -1.
</event>
<event>
 7    1  0.6584658E-006  0.1578102E+03  0.7561462E-02  0.1191191E+00
          1   -1    0    0  501    0  0.00000000000E+00  0.00000000000E+00  0.35578225576E+03  0.35578225576E+03  0.00000000000E+00 0. -1.
         -1   -1    0    0    0  501 -0.00000000000E+00 -0.00000000000E+00 -0.10457010609E+03  0.10457010609E+03  0.00000000000E+00 0.  1.
         23    2    1    2    0    0  0.15265962040E+02 -0.14868538955E+03  0.18053140312E+03  0.25302356460E+03  0.95335943231E+02 0.  0.
          5    1    1    2  502    0  0.15478114583E+02  0.61672587870E+02  0.92579090074E+02  0.11238968122E+03  0.41800000000E+01 0.  1.
         -5    1    1    2    0  502 -0.30744076623E+02  0.87012801678E+02 -0.21898343520E+02  0.94939116028E+02  0.41800000000E+01 0.  1.
        -11    1    3    3    0    0 -0.12918012570E+02 -0.11444065500E+03  0.72106089458E+02  0.13587798462E+03  0.00000000000E+00 0.  1.
         11    1    3    3    0    0  0.28183974610E+02 -0.34244734544E+02  0.10842531366E+03  0.11714557999E+03  0.00000000000E+00 0. -1.
</event>
<event>
 7    1  0.6584658E-006  0.1165134E+03  0.7561462E-02  0.1248962E+00
         -1   -1    0    0    0  501 -0.00000000000E+00  0.00000000000E+00  0.55095893395E+02  0.55095893395E+02  0.00000000000E+00 0.  1.
          1   -1    0    0  501    0  0.00000000000E+00 -0.00000000000E+00 -0.30962810154E+03  0.30962810154E+03  0.00000000000E+00 0. -1.
         23    2    1    2    0    0  0.59066287940E+02 -0.25113748805E+02 -0.16141946673E+03  0.19609036738E+03  0.90970661146E+02 0.  0.
          5    1    1    2  502    0 -0.50937282400E+02  0.74513838367E+02 -0.60081323221E+02  0.10850878603E+03  0.41800000000E+01 0. -1.
         -5    1    1    2    0  502 -0.81290055403E+01 -0.49400089563E+02 -0.33031418190E+02  0.60124841517E+02  0.41800000000E+01 0. -1.
        -11    1    3    3    0    0 -0.27136969211E+01  0.17288168138E+02  0.67682904758E+00  0.17512938249E+02  0.00000000000E+00 0.  1.
         11    1    3    3    0    0  0.61779984862E+02 -0.42401916943E+02 -0.16209629578E+03  0.17857742913E+03  0.00000000000E+00 0. -1.
</event>
<event>
 7    1  0.6584658E-006  0.2159183E+03  0.7561462E-02  0.1136963E+00
          1   -1    0    0  501    0  0.00000000000E+00  0.00000000000E+00  0.15932030724E+04  0.15932030724E+04  0.00000000000E+00 0. -1.
         -1   -1    0    0    0  501 -0.00000000000E+00 -0.00000000000E+00 -0.34021974931E+02  0.34021974931E+02  0.00000000000E+00 0.  1.
         23    2    1    2    0    0 -0.19295391325E+03 -0.71174590988E+02  0.74909214041E+03  0.78212833485E+03  0.91042090876E+02 0.  0.
          5    1    1    2  502    0  0.14675265229E+03  0.40560352016E+02  0.35056330579E+03  0.38222190789E+03  0.41800000000E+01 0.  1.
         -5    1    1    2    0  502  0.46201260962E+02  0.30614238972E+02  0.45952565130E+03  0.46287480461E+03  0.41800000000E+01 0.  1.
        -11    1    3    3    0    0 -0.15715793973E+03 -0.92418886315E+02  0.57953692127E+03  0.60753840346E+03  0.00000000000E+00 0.  1.
         11    1    3    3    0    0 -0.35795973526E+02  0.21244295327E+02  0.16955521913E+03  0.17458993138E+03  0.00000000000E+00 0. -1.
</event>
<event>
 7    1  0.6584658E-006  0.8939916E+02  0.7561462E-02  0.1304313E+00
         -1   -1    0    0    0  501 -0.00000000000E+00  0.00000000000E+00  0.90524689945E+02  0.90524689945E+02  0.00000000000E+00 0. -1.
          1   -1    0    0  501    0  0.00000000000E+00 -0.00000000000E+00 -0.17680810698E+03  0.17680810698E+03  0.00000000000E+00 0.  1.
         23    2    1    2    0    0 -0.62618061269E+01  0.63173292853E+02 -0.45430210225E+02  0.12122759048E+03  0.92747773807E+02 0.  0.
          5    1    1    2  502    0 -0.10946485321E+02 -0.71808654019E+02  0.25337954697E+02  0.77044095693E+02  0.41800000000E+01 0. -1.
         -5    1    1    2    0  502  0.17208291448E+02  0.86353611657E+01 -0.66191161508E+02  0.69061110755E+02  0.41800000000E+01 0. -1.
        -11    1    3    3    0    0  0.25195083229E+02  0.39974181461E+02  0.14721768625E+02  0.49491998079E+02  0.00000000000E+00 0. -1.
         11    1    3    3    0    0 -0.31456889356E+02  0.23199111392E+02 -0.60151978850E+02  0.71735592399E+02  0.00000000000E+00 0.  1.
</event>
<event>
 7    1  0.6584658E-006  0.1056584E+03  0.7561462E-02  0.1268828E+00
         -2   -1    0    0    0  501 -0.00000000000E+00  0.00000000000E+00  0.45381886312E+02  0.45381886312E+02  0.00000000000E+00 0.  1.
          2   -1    0    0  501    0  0.00000000000E+00 -0.00000000000E+00 -0.49000759143E+03  0.49000759143E+03  0.00000000000E+00 0. -1.
         23    2    1    2    0    0  0.33835636247E+02 -0.36536553396E+02 -0.36268085575E+03  0.37777655461E+03  0.93262811839E+02 0.  0.
          5    1    1    2  502    0 -0.25809683044E+02  0.77578053185E+02 -0.81594948435E+02  0.11558417749E+03  0.41800000000E+01 0. -1.
         -5    1    1    2    0  502 -0.80259532031E+01 -0.41041499790E+02 -0.34990093309E+00  0.42028745645E+02  0.41800000000E+01 0. -1.
        -11    1    3    3    0    0  0.17945496142E+02  0.21064002751E+02 -0.34628028826E+02  0.44326441590E+02  0.00000000000E+00 0.  1.
         11    1    3    3    0    0  0.15890140106E+02 -0.57600556147E+02 -0.32805282692E+03  0.33345011302E+03  0.00000000000E+00 0. -1.
</event>
<event>
 7    1  0.6584658E-006  0.1466596E+03  0.7561462E-02  0.1204639E+00
          2   -1    0    0  501    0  0.00000000000E+00  0.00000000000E+00  0.98362854318E+02  0.98362854318E+02  0.00000000000E+00 0. -1.
         -2   -1    0    0    0  501 -0.00000000000E+00 -0.00000000000E+00 -0.35799768604E+03  0.35799768604E+03  0.00000000000E+00 0.  1.
         23    2    1    2    0    0  0.92535116488E+02 -0.70835039949E+02 -0.31964267743E+01  0.14815728714E+03  0.91433111724E+02 0.  0.
          5    1    1    2  502    0 -0.11443785445E+03  0.64213706630E+02 -0.15039404290E+03  0.19963783006E+03  0.41800000000E+01 0. -1.
         -5    1    1    2    0  502  0.21902737959E+02  0.66213333185E+01 -0.10604436205E+03  0.10856542316E+03  0.41800000000E+01 0. -1.
        -11    1    3    3    0    0  0.85814010353E+02 -0.20818195696E+02  0.23066565756E+02  0.91266138850E+02  0.00000000000E+00 0. -1.
         11    1    3    3    0    0  0.67211061349E+01 -0.50016844253E+02 -0.26262992530E+02  0.56891148286E+02  0.00000000000E+00 0.  1.
</event>
<event>
 7    1  0.6584658E-006  0.1755126E+03  0.7561462E-02  0.1172218E+00
          1   -1    0    0  501    0  0.00000000000E+00  0.00000000000E+00  0.37192414930E+03  0.37192414930E+03  0.00000000000E+00 0. -1.
         -1   -1    0    0    0  501 -0.00000000000E+00 -0.00000000000E+00 -0.95647009042E+02  0.95647009042E+02  0.00000000000E+00 0.  1.
         23    2    1    2    0    0 -0.71409391438E+02 -0.13297584422E+03  0.16943548916E+03  0.24431350493E+03  0.90547376412E+02 0.  0.
          5    1    1    2  502    0  0.83768866369E+02  0.47982983902E+02  0.96647970143E+02  0.13666708547E+03  0.41800000000E+01 0.  1.
         -5    1    1    2    0  502 -0.12359474931E+02  0.84992860314E+02  0.10193680952E+02  0.86590567941E+02  0.41800000000E+01 0.  1.
        -11    1    3    3    0    0 -0.98262930524E+01 -0.96157384619E+02  0.61026064709E+02  0.11431088848E+03  0.00000000000E+00 0.  1.
         11    1    3    3    0    0 -0.61583098386E+02 -0.36818459597E+02  0.10840942445E+03  0.13000261645E+03  0.00000000000E+00 0. -1.
</event>
<event>
 7    1  0.6584658E-006  0.1214375E+03  0.7561462E-02  0.1240744E+00
          2   -1    0    0  501    0  0.00000000000E+00  0.00000000000E+00  0.10447326288E+04  0.10447326288E+04  0.00000000000E+00 0.  1.
         -2   -1    0    0    0  501 -0.00000000000E+00 -0.00000000000E+00 -0.16734844463E+02  0.16734844463E+02  0.00000000000E+00 0. -1.
         23    2    1    2    0    0 -0.33640216410E+02  0.64008998754E+02  0.52023093897E+03  0.53354362657E+03  0.93807012061E+02 0.  0.
          5    1    1    2  502    0  0.70456295645E+02 -0.38369054675E+02  0.43484862274E+03  0.44220704545E+03  0.41800000000E+01 0.  1.
         -5    1    1    2    0  502 -0.36816079236E+02 -0.25639944079E+02  0.72918222622E+02  0.85716801230E+02  0.41800000000E+01 0.  1.
        -11    1    3    3    0    0  0.32343012056E+02  0.17707289869E+02  0.19637047341E+03  0.19980235577E+03  0.00000000000E+00 0. -1.
         11    1    3    3    0    0 -0.65983228466E+02  0.46301708885E+02  0.32386046556E+03  0.33374127081E+03  0.00000000000E+00 0.  1.
</event>
<event>
 7    1  0.6584658E-006  0.1219516E+03  0.7561462E-02  0.1239912E+00
          2   -1    0    0  501    0  0.00000000000E+00  0.00000000000E+00  0.50919246067E+03  0.50919246067E+03  0.00000000000E+00 0. -1.
         -2   -1    0    0    0  501 -0.00000000000E+00 -0.00000000000E+00 -0.46668457659E+02  0.46668457659E+02  0.00000000000E+00 0.  1.
         23    2    1    2    0    0  0.50594932432E+01  0.10730639329E+03  0.20959295743E+03  0.25393267764E+03  0.94933326386E+02 0.  0.
          5    1    1    2  502    0 -0.10337346457E+02 -0.12070393249E+03  0.12870826745E+03  0.17680381942E+03  0.41800000000E+01 0.  1.
         -5    1    1    2    0  502  0.52778532134E+01  0.13397539199E+02  0.12422277813E+03  0.12512442126E+03  0.41800000000E+01 0.  1.
        -11    1    3    3    0    0  0.69324955198E+01  0.71317888725E+02  0.20553581844E+03  0.21766780517E+03  0.00000000000E+00 0.  1.
         11    1    3    3    0    0 -0.18730022766E+01  0.35988504566E+02  0.40571389844E+01  0.36264872469E+02  0.00000000000E+00 0. -1.
</event>
<event>
 7    1  0.6584658E-006  0.1194725E+03  0.7561462E-02  0.1243970E+00
         -1   -1    0    0    0  501 -0.00000000000E+00  0.00000000000E+00  0.77356016052E+02  0.77356016052E+02  0.00000000000E+00 0.  1.
          1   -1    0    0  501    0  0.00000000000E+00 -0.00000000000E+00 -0.25182198303E+03  0.25182198303E+03  0.00000000000E+00 0. -1.
         23    2    1    2    0    0 -0.33248430371E+02 -0.67576013390E+02 -0.13378800921E+03  0.17760443027E+03  0.89286765735E+02 0.  0.
          5    1    1    2  502    0  0.48785128592E+02  0.89101491803E+02  0.13621606196E+01  0.10167788597E+03  0.41800000000E+01 0. -1.
         -5    1    1    2    0  502 -0.15536698222E+02 -0.21525478412E+02 -0.42040118390E+02  0.49895682847E+02  0.41800000000E+01 0. -1.
        -11    1    3    3    0    0 -0.54033959631E+02 -0.18512058758E+02 -0.97955870856E+02  0.11339187690E+03  0.00000000000E+00 0.  1.
         11    1    3    3    0    0  0.20785529260E+02 -0.49063954632E+02 -0.35832138357E+02  0.64212553368E+02  0.00000000000E+00 0. -1.
</event>
<event>
 7    1  0.6584658E-006  0.6645396E+02  0.7561462E-02  0.1372584E+00
         -3   -1    0    0    0  501 -0.00000000000E+00  0.00000000000E+00  0.13428184338E+03  0.13428184338E+03  0.00000000000E+00 0.  1.
          3   -1    0    0  501    0  0.00000000000E+00 -0.00000000000E+00 -0.99985082968E+02  0.99985082968E+02  0.00000000000E+00 0. -1.
         23    2    1    2    0    0 -0.30178950043E+02  0.14439258470E+02 -0.13446547182E+02  0.96257167384E+02  0.89248929578E+02 0.  0.
          5    1    1    2  502    0  0.77956393062E+01 -0.13321668569E+02  0.89240896254E+02  0.90662278870E+02  0.41800000000E+01 0.  1.
         -5    1    1    2    0  502  0.22383310736E+02 -0.11175899010E+01 -0.41497588660E+02  0.47347480095E+02  0.41800000000E+01 0.  1.
        -11    1    3    3    0    0  0.25170358362E+02 -0.17085975008E+02  0.27110482307E+01  0.30542221015E+02  0.00000000000E+00 0. -1.
         11    1    3    3    0    0 -0.55349308404E+02  0.31525233479E+02 -0.16157595412E+02  0.65714946369E+02  0.00000000000E+00 0.  1.
</event>
<event>
 7    1  0.6584658E-006  0.1207217E+03  0.7561462E-02  0.1241911E+00
         -2   -1    0    0    0  501 -0.00000000000E+00  0.00000000000E+00  0.17749640760E+02  0.17749640760E+02  0.00000000000E+00 0.  1.
          2   -1    0    0  501    0  0.00000000000E+00 -0.00000000000E+00 -0.84361363940E+03  0.84361363940E+03  0.00000000000E+00 0. -1.
         23    2    1    2    0    0 -0.25078459996E+02 -0.48238472212E+02 -0.41995214427E+03  0.43371244571E+03  0.93759280755E+02 0.  0.
          5    1    1    2  502    0  0.26814686773E+02 -0.38131437866E+02 -0.17227761981E+03  0.17852194450E+03  0.41800000000E+01 0. -1.
         -5    1    1    2    0  502 -0.17362267775E+01  0.86369910078E+02 -0.23363423456E+03  0.24912888996E+03  0.41800000000E+01 0.  1.
        -11    1    3    3    0    0  0.19647293828E+02  0.19042791481E+02 -0.11896560194E+03  0.12207153029E+03  0.00000000000E+00 0.  1.
         11    1    3    3    0    0 -0.44725753824E+02 -0.67281263693E+02 -0.30098654233E+03  0.31164091542E+03  0.00000000000E+00 0. -1.
</event>
<event>
 7    1  0.6584658E-006  0.8769013E+02  0.7561462E-02  0.1308544E+00
         -1   -1    0    0    0  501 -0.00000000000E+00  0.00000000000E+00  0.98905222445E+02  0.98905222445E+02  0.00000000000E+00 0.  1.
          1   -1    0    0  501    0  0.00000000000E+00 -0.00000000000E+00 -0.19922844039E+03  0.19922844039E+03  0.00000000000E+00 0. -1.
         23    2    1    2    0    0  0.25931019879E+02 -0.82769955337E+02 -0.21744075212E+02  0.12682834637E+03  0.89940765719E+02 0.  0.
          5    1    1    2  502    0 -0.23116400128E+01  0.16179538727E+02 -0.96767464467E+02  0.98226960313E+02  0.41800000000E+01 0.  1.
         -5    1    1    2    0  502 -0.23619379867E+02  0.66590416611E+02  0.18188321737E+02  0.73078356148E+02  0.41800000000E+01 0.  1.
        -11    1    3    3    0    0  0.10904064610E+02 -0.55822770050E+02  0.31701803094E+02  0.65115932002E+02  0.00000000000E+00 0.  1.
         11    1    3    3    0    0  0.15026955270E+02 -0.26947185287E+02 -0.53445878305E+02  0.61712414370E+02  0.00000000000E+00 0. -1.
</event>
<event>
 7    1  0.6584658E-006  0.4255011E+03  0.7561462E-02  0.1035291E+00
          1   -1    0    0  501    0  0.00000000000E+00  0.00000000000E+00  0.88939790471E+03  0.88939790471E+03  0.00000000000E+00 0. -1.
         -1   -1    0    0    0  501 -0.00000000000E+00 -0.00000000000E+00 -0.20931454274E+03  0.20931454274E+03  0.00000000000E+00 0.  1.
         23    2    1    2    0    0  0.36807603372E+03  0.19333288011E+03  0.38505525941E+03  0.57378720679E+03  0.90036863280E+02 0.  0.
          5    1    1    2  502    0 -0.26611191917E+02 -0.61450924729E+02  0.33233660575E+02  0.74875364977E+02  0.41800000000E+01 0.  1.
         -5    1    1    2    0  502 -0.34146484180E+03 -0.13188195538E+03  0.26179444198E+03  0.45004987567E+03  0.41800000000E+01 0.  1.
        -11    1    3    3    0    0  0.23465411298E+03  0.14547186263E+03  0.20114141315E+03  0.34158817843E+03  0.00000000000E+00 0. -1.
         11    1    3    3    0    0  0.13342192074E+03  0.47861017475E+02  0.18391384627E+03  0.23219902837E+03  0.00000000000E+00 0.  1.
</event>
<event>
 7    1  0.6584658E-006  0.1340888E+03  0.7561462E-02  0.1221512E+00
          4   -1    0    0  501    0  0.00000000000E+00  0.00000000000E+00  0.24198528471E+03  0.24198528471E+03  0.00000000000E+00 0. -1.
         -4   -1    0    0    0  501 -0.00000000000E+00 -0.00000000000E+00 -0.99721236402E+02  0.99721236402E+02  0.00000000000E+00 0.  1.
         23    2    1    2    0    0  0.16255481782E+00  0.10718783707E+03  0.90193809088E+02  0.16894085538E+03  0.94428971079E+02 0.  0.
          5    1    1    2  502    0 -0.25392840866E+02  0.16810700883E+02 -0.92347220618E+01  0.32095926891E+02  0.41800000000E+01 0.  1.
         -5    1    1    2    0  502  0.25230286048E+02 -0.12399853795E+03  0.61304961281E+02  0.14066973884E+03  0.41800000000E+01 0.  1.
        -11    1    3    3    0    0 -0.85207652366E+01  0.97294670296E+02  0.10876329226E+03  0.14617903424E+03  0.00000000000E+00 0. -1.
         11    1    3    3    0    0  0.86833200544E+01  0.98931667706E+01 -0.18569483176E+02  0.22761821135E+02  0.00000000000E+00 0.  1.
</event>
<event>
 7    1  0.6584658E-006  0.1363089E+03  0.7561462E-02  0.1218384E+00
         -1   -1    0    0    0  501 -0.00000000000E+00  0.00000000000E+00  0.29155362892E+02  0.29155362892E+02  0.00000000000E+00 0.  1.
          1   -1    0    0  501    0  0.00000000000E+00 -0.00000000000E+00 -0.80679523133E+03  0.80679523133E+03  0.00000000000E+00 0. -1.
         23    2    1    2    0    0 -0.10420012518E+03  0.30340353100E+02 -0.35980630741E+03  0.38649584443E+03  0.90223366132E+02 0.  0.
          5    1    1    2  502    0 -0.19154824578E+02 -0.34622158524E+02 -0.13710340351E+03  0.14275999726E+03  0.41800000000E+01 0. -1.
         -5    1    1    2    0  502  0.12335494976E+03  0.42818054232E+01 -0.28073015752E+03  0.30669475253E+03  0.41800000000E+01 0. -1.
        -11    1    3    3    0    0 -0.40127577725E+02  0.50388092973E+01 -0.32117232532E+02  0.51644251556E+02  0.00000000000E+00 0.  1.
         11    1    3    3    0    0 -0.64072547452E+02  0.25301543803E+02 -0.32768907488E+03  0.33485159287E+03  0.00000000000E+00 0. -1.
</event>
<event>
 7    1  0.6584658E-006  0.8692754E+02  0.7561462E-02  0.1310467E+00
         -2   -1    0    0    0  501 -0.00000000000E+00  0.00000000000E+00  0.65257685054E+02  0.65257685054E+02  0.00000000000E+00 0.  1.
          2   -1    0    0  501    0  0.00000000000E+00 -0.00000000000E+00 -0.41555604470E+03  0.41555604470E+03  0.00000000000E+00 0. -1.
         23    2    1    2    0    0  0.49530246389E+02 -0.90881570060E+01 -0.32763562660E+03  0.34404838279E+03  0.92132220086E+02 0.  0.
          5    1    1    2  502    0  0.65198824277E+01 -0.14036293868E+02 -0.62218040807E+02  0.64250162756E+02  0.41800000000E+01 0. -1.
         -5    1    1    2    0  502 -0.56050128816E+02  0.23124450874E+02  0.39555307760E+02  0.72515184207E+02  0.41800000000E+01 0. -1.
        -11    1    3    3    0    0 -0.12358778257E+02  0.23906556717E+02 -0.41648148048E+02  0.49586601919E+02  0.00000000000E+00 0.  1.
         11    1    3    3    0    0  0.61889024646E+02 -0.32994713723E+02 -0.28598747855E+03  0.29446178087E+03  0.00000000000E+00 0. -1.
</event>
<event>
 7    1  0.6584658E-006  0.1233533E+03  0.7561462E-02  0.1237665E+00
         -2   -1    0    0    0  501 -0.00000000000E+00  0.00000000000E+00  0.17871988947E+03  0.17871988947E+03  0.00000000000E+00 0.  1.
          2   -1    0    0  501    0  0.00000000000E+00 -0.00000000000E+00 -0.25878949744E+03  0.25878949744E+03  0.00000000000E+00 0. -1.
         23    2    1    2    0    0 -0.10355571285E+03 -0.43047201936E+01 -0.19493471277E+03  0.23854989203E+03  0.90355921033E+02 0.  0.
          5    1    1    2  502    0  0.36115962316E+02  0.23320110893E+02  0.12101924018E+03  0.12849637816E+03  0.41800000000E+01 0. -1.
         -5    1    1    2    0  502  0.67439750532E+02 -0.19015390699E+02 -0.61541353759E+01  0.70463116717E+02  0.41800000000E+01 0. -1.
        -11    1    3    3    0    0  0.74998443389E+01 -0.19814182848E+02 -0.56853729577E+02  0.60672861098E+02  0.00000000000E+00 0. -1.
         11    1    3    3    0    0 -0.11105555719E+03  0.15509462654E+02 -0.13808098320E+03  0.17787703094E+03  0.00000000000E+00 0.  1.
</event>
<event>
 7    1  0.6584658E-006  0.1040786E+03  0.7561462E-02  0.1271946E+00
          1   -1    0    0  501    0  0.00000000000E+00  0.00000000000E+00  0.59140023353E+03  0.59140023353E+03  0.00000000000E+00 0. -1.
         -1   -1    0    0    0  501 -0.00000000000E+00 -0.00000000000E+00 -0.20606732248E+02  0.20606732248E+02  0.00000000000E+00 0.  1.
         23    2    1    2    0    0 -0.14037813355E+02  0.13330342271E+02  0.27920978313E+03  0.29413486568E+03  0.90456939943E+02 0.  0.
          5    1    1    2  502    0 -0.49832388940E+02 -0.21146417626E+02  0.18953125994E+03  0.19715478402E+03  0.41800000000E+01 0.  1.
         -5    1    1    2    0  502  0.63870202294E+02  0.78160753550E+01  0.10205245821E+03  0.12071731608E+03  0.41800000000E+01 0.  1.
        -11    1    3    3    0    0  0.24592903481E+02 -0.24923343400E+02  0.14845074953E+03  0.15252412591E+03  0.00000000000E+00 0. -1.
         11    1    3    3    0    0 -0.38630716835E+02  0.38253685671E+02  0.13075903360E+03  0.14161073977E+03  0.00000000000E+00 0.  1.
</event>
<event>
 7    1  0.6584658E-006  0.1671664E+03  0.7561462E-02  0.1180835E+00
         -4   -1    0    0    0  501 -0.00000000000E+00  0.00000000000E+00  0.27232385666E+03  0.27232385666E+03  0.00000000000E+00 0.  1.
          4   -1    0    0  501    0  0.00000000000E+00 -0.00000000000E+00 -0.13602379083E+03  0.13602379083E+03  0.00000000000E+00 0. -1.
         23    2    1    2    0    0 -0.14857544984E+03  0.22044756482E+02  0.99236233658E+01  0.17558240463E+03  0.90388422561E+02 0.  0.
          5    1    1    2  502    0  0.45919556909E+02 -0.32133769804E+02 -0.14566194925E+02  0.58058860677E+02  0.41800000000E+01 0. -1.
         -5    1    1    2    0  502  0.10265589293E+03  0.10089013322E+02  0.14094263738E+03  0.17470638218E+03  0.41800000000E+01 0. -1.
        -11    1    3    3    0    0 -0.45658738899E+02  0.50536784792E+02  0.96937897292E+01  0.68794306554E+02  0.00000000000E+00 0.  1.
         11    1    3    3    0    0 -0.10291671094E+03 -0.28492028310E+02  0.22983363661E+00  0.10678809808E+03  0.00000000000E+00 0. -1.
</event>
<event>
 7    1  0.6584658E-006  0.1616288E+03  0.7561462E-02  0.1186870E+00
          2   -1    0    0  501    0  0.00000000000E+00  0.00000000000E+00  0.36723878450E+03  0.36723878450E+03  0.00000000000E+00 0. -1.
         -2   -1    0    0    0  501 -0.00000000000E+00 -0.00000000000E+00 -0.89586192709E+02  0.89586192709E+02  0.00000000000E+00 0.  1.
         23    2    1    2    0    0 -0.24143706670E+02  0.14218627399E+03  0.13525663673E+03  0.21865845603E+03  0.93366522556E+02 0.  0.
          5    1    1    2  502    0  0.23091631812E+02 -0.19937809964E+02 -0.18597378155E+02  0.35973248396E+02  0.41800000000E+01 0.  1.
         -5    1    1    2    0  502  0.10520748581E+01 -0.12224846402E+03  0.16099333322E+03  0.20219327278E+03  0.41800000000E+01 0.  1.
        -11    1    3    3    0    0  0.20494030983E+02  0.11721341283E+03  0.80122523125E+02  0.14345245960E+03  0.00000000000E+00 0.  1.
         11    1    3    3    0    0 -0.44637737653E+02  0.24972861159E+02  0.55134113603E+02  0.75205996437E+02  0.00000000000E+00 0. -1.
</event>
<event>
 7    1  0.6584658E-006  0.1068839E+03  0.7561462E-02  0.1266452E+00
          4   -1    0    0  501    0  0.00000000000E+00  0.00000000000E+00  0.80534247041E+02  0.80534247041E+02  0.00000000000E+00 0. -1.
         -4   -1    0    0    0  501 -0.00000000000E+00 -0.00000000000E+00 -0.30112833189E+03  0.30112833189E+03  0.00000000000E+00 0.  1.
         23    2    1    2    0    0  0.90933557842E+02  0.19728850445E+02 -0.32636108000E+02  0.13746080551E+03  0.95771697402E+02 0.  0.
          5    1    1    2  502    0 -0.52964571001E+02  0.14186619024E+01 -0.19988978998E+01  0.53185772306E+02  0.41800000000E+01 0. -1.
         -5    1    1    2    0  502 -0.37968986841E+02 -0.21147512348E+02 -0.18595907895E+03  0.19101600112E+03  0.41800000000E+01 0. -1.
        -11    1    3    3    0    0  0.88321037089E+02 -0.83894140431E+01 -0.52358164260E+02  0.10301633475E+03  0.00000000000E+00 0.  1.
         11    1    3    3    0    0  0.26125207524E+01  0.28118264488E+02  0.19722056260E+02  0.34444470756E+02  0.00000000000E+00 0. -1.
</event>
<event>
 7    1  0.6584658E-006  0.1267383E+03  0.7561462E-02  0.1232377E+00
         -1   -1    0    0    0  501 -0.00000000000E+00  0.00000000000E+00  0.11898801762E+04  0.11898801762E+04  0.00000000000E+00 0.  1.
          1   -1    0    0  501    0  0.00000000000E+00 -0.00000000000E+00 -0.19873583237E+02  0.19873583237E+02  0.00000000000E+00 0. -1.
         23    2    1    2    0    0  0.89242174985E+02 -0.60102895630E+02  0.55813321542E+03  0.57602426291E+03  0.93352779543E+02 0.  0.
          5    1    1    2  502    0 -0.88066344301E+02  0.49507553910E+02  0.61383909614E+03  0.62211139456E+03  0.41800000000E+01 0.  1.
         -5    1    1    2    0  502 -0.11758306836E+01  0.10595341720E+02 -0.19657185864E+01  0.11618101976E+02  0.41800000000E+01 0.  1.
        -11    1    3    3    0    0 -0.15207933022E+01  0.19878428291E+02  0.11299181455E+03  0.11473715561E+03  0.00000000000E+00 0.  1.
         11    1    3    3    0    0  0.90762968287E+02 -0.79981323921E+02  0.44514140087E+03  0.46128710730E+03  0.00000000000E+00 0. -1.
</event>
<event>
 7    1  0.6584658E-006  0.7963147E+02  0.7561462E-02  0.1330101E+00
          1   -1    0    0  501    0  0.00000000000E+00  0.00000000000E+00  0.63982558546E+02  0.63982558546E+02  0.00000000000E+00 0. -1.
         -1   -1    0    0    0  501 -0.00000000000E+00 -0.00000000000E+00 -0.23601546358E+03  0.23601546358E+03  0.00000000000E+00 0.  1.
         23    2    1    2    0    0  0.50809844038E+00  0.47279680456E+01 -0.48585819568E+01  0.91141199159E+02  0.90887295700E+02 0.  0.
          5    1    1    2  502    0  0.32127412109E+02 -0.22958086383E+02 -0.16656947262E+03  0.17123698767E+03  0.41800000000E+01 0.  1.
         -5    1    1    2    0  502 -0.32635510549E+02  0.18230118337E+02 -0.60485045876E+00  0.37619835293E+02  0.41800000000E+01 0.  1.
        -11    1    3    3    0    0  0.18223069253E+02 -0.34433474146E+02  0.17481106802E+02  0.42700509245E+02  0.00000000000E+00 0.  1.
         11    1    3    3    0    0 -0.17714970813E+02  0.39161442192E+02 -0.22339688759E+02  0.48440689914E+02  0.00000000000E+00 0. -1.
</event>
<event>
 7    1  0.6584658E-006  0.3336443E+02  0.7561462E-02  0.1563624E+00
          1   -1    0    0  501    0  0.00000000000E+00  0.00000000000E+00  0.92704422603E+02  0.92704422603E+02  0.00000000000E+00 0. -1.
         -1   -1    0    0    0  501 -0.00000000000E+00 -0.00000000000E+00 -0.63339139140E+03  0.63339139140E+03  0.00000000000E+00 0.  1.
         23    2    1    2    0    0 -0.11833986148E+02  0.80592162756E+00  0.65536665029E+02  0.10934073693E+03  0.86715912910E+02 0.  0.
          5    1    1    2  502    0  0.84092804872E+01 -0.91191286193E+01 -0.29734617360E+01  0.13423426529E+02  0.41800000000E+01 0. -1.
         -5    1    1    2    0  502  0.34247056610E+01  0.83132069918E+01 -0.60325017209E+03  0.60333165054E+03  0.41800000000E+01 0.  1.
        -11    1    3    3    0    0 -0.17530606751E+02  0.18290215147E+02  0.81277694912E+02  0.85134704048E+02  0.00000000000E+00 0. -1.
         11    1    3    3    0    0  0.56966206025E+01 -0.17484293520E+02 -0.15741029883E+02  0.24206032883E+02  0.00000000000E+00 0.  1.
</event>
<event>
 7    1  0.6584658E-006  0.2259762E+03  0.7561462E-02  0.1129504E+00
          1   -1    0    0  501    0  0.00000000000E+00  0.00000000000E+00  0.58522892850E+03  0.58522892850E+03  0.00000000000E+00 0. -1.
         -1   -1    0    0    0  501 -0.00000000000E+00 -0.00000000000E+00 -0.10154437173E+03  0.10154437173E+03  0.00000000000E+00 0.  1.
         23    2    1    2    0    0 -0.15130895852E+03  0.15631778246E+03  0.21849893942E+03  0.32166518448E+03  0.91635442574E+02 0.  0.
          5    1    1    2  502    0  0.12112335327E+03 -0.67589167357E+02  0.22206312247E+03  0.26185619148E+03  0.41800000000E+01 0. -1.
         -5    1    1    2    0  502  0.30185605252E+02 -0.88728615107E+02  0.43122494877E+02  0.10325192428E+03  0.41800000000E+01 0. -1.
        -11    1    3    3    0    0 -0.97443461242E+02  0.80670972470E+02  0.64910448414E+02  0.14218438821E+03  0.00000000000E+00 0.  1.
         11    1    3    3    0    0 -0.53865497283E+02  0.75646809994E+02  0.15358849101E+03  0.17948079627E+03  0.00000000000E+00 0. -1.
</event>
<event>
 7    1  0.6584658E-006  0.9828347E+02  0.7561462E-02  0.1283948E+00
         -2   -1    0    0    0  501 -0.00000000000E+00  0.00000000000E+00  0.12936607766E+03  0.12936607766E+03  0.00000000000E+00 0. -1.
          2   -1    0    0  501    0  0.00000000000E+00 -0.00000000000E+00 -0.10269246225E+03  0.10269246225E+03  0.00000000000E+00 0.  1.
         23    2    1    2    0    0 -0.54738770585E+01 -0.28344282305E+02 -0.15781505512E+02  0.96839323555E+02  0.91079289638E+02 0.  0.
          5    1    1    2  502    0  0.33365111697E+02 -0.25881432663E+02  0.58271962906E+02  0.72084487209E+02  0.41800000000E+01 0.  1.
         -5    1    1    2    0  502 -0.27891234639E+02  0.54225714968E+02 -0.15816841981E+02  0.63134729141E+02  0.41800000000E+01 0.  1.
        -11    1    3    3    0    0 -0.37675901674E+02 -0.43393938314E+02 -0.20431110182E+02  0.60991292104E+02  0.00000000000E+00 0.  1.
         11    1    3    3    0    0  0.32202024615E+02  0.15049656009E+02  0.46496046700E+01  0.35848031451E+02  0.00000000000E+00 0. -1.
</event>
<event>
 7    1  0.6584658E-006  0.1112315E+03  0.7561462E-02  0.1258306E+00
          1   -1    0    0  501    0  0.00000000000E+00  0.00000000000E+00  0.67615296699E+01  0.67615296699E+01  0.00000000000E+00 0. -1.
         -1   -1    0    0    0  501 -0.00000000000E+00 -0.00000000000E+00 -0.25921496388E+04  0.25921496388E+04  0.00000000000E+00 0.  1.
         23    2    1    2    0    0  0.80941074864E+01 -0.12759343630E+02 -0.52183193732E+03  0.53151181486E+03  0.99839486653E+02 0.  0.
          5    1    1    2  502    0 -0.22621088604E+02 -0.51016761403E+02 -0.12289372057E+04  0.12302107753E+04  0.41800000000E+01 0. -1.
         -5    1    1    2    0  502  0.14526981118E+02  0.63776105033E+02 -0.83461896613E+03  0.83718857839E+03  0.41800000000E+01 0. -1.
        -11    1    3    3    0    0 -0.29678271377E+02  0.31157645615E+02 -0.21721061324E+03  0.22143181609E+03  0.00000000000E+00 0. -1.
         11    1    3    3    0    0  0.37772378863E+02 -0.43916989246E+02 -0.30462132409E+03  0.31007999877E+03  0.00000000000E+00 0.  1.
</event>
<event>
 7    1  0.6584658E-006  0.1250665E+03  0.7561462E-02  0.1234965E+00
         -1   -1    0    0    0  501 -0.00000000000E+00  0.00000000000E+00  0.80104283225E+03  0.80104283225E+03  0.00000000000E+00 0.  1.
          1   -1    0    0  501    0  0.00000000000E+00 -0.00000000000E+00 -0.25061103075E+02  0.25061103075E+02  0.00000000000E+00 0. -1.
         23    2    1    2    0    0 -0.73240714063E+02 -0.30014665306E+02  0.22380866005E+03  0.25443240153E+03  0.91544788519E+02 0.  0.
          5    1    1    2  502    0  0.10640741412E+03  0.15870464887E+02  0.46383344598E+03  0.47616525224E+03  0.41800000000E+01 0.  1.
         -5    1    1    2    0  502 -0.33166700056E+02  0.14144200419E+02  0.88339623145E+02  0.95506281550E+02  0.41800000000E+01 0.  1.
        -11    1    3    3    0    0 -0.73800962395E+02 -0.48089129243E+02  0.21849811893E+03  0.23558559884E+03  0.00000000000E+00 0.  1.
         11    1    3    3    0    0  0.56024833230E+00  0.18074463937E+02  0.53105411169E+01  0.18846802693E+02  0.00000000000E+00 0. -1.
</event>
<event>
 7    1  0.6584658E-006  0.9373841E+02  0.7561462E-02  0.1294043E+00
         -2   -1    0    0    0  501 -0.00000000000E+00  0.00000000000E+00  0.98584142056E+02  0.98584142056E+02  0.00000000000E+00 0.  1.
          2   -1    0    0  501    0  0.00000000000E+00 -0.00000000000E+00 -0.12661019650E+03  0.12661019650E+03  0.00000000000E+00 0. -1.
         23    2    1    2    0    0  0.19774115057E+02 -0.20000083751E+02 -0.10583129320E+02  0.95801651026E+02  0.90966668273E+02 0.  0.
          5    1    1    2  502    0 -0.69388825538E+02  0.18312487596E+02 -0.30190518950E+02  0.77968558701E+02  0.41800000000E+01 0. -1.
         -5    1    1    2    0  502  0.49614710481E+02  0.16875961551E+01  0.12747593830E+02  0.51424128824E+02  0.41800000000E+01 0. -1.
        -11    1    3    3    0    0  0.22414884150E+02  0.17339447090E+02 -0.39420146001E+02  0.48549267426E+02  0.00000000000E+00 0.  1.
         11    1    3    3    0    0 -0.26407690924E+01 -0.37339530841E+02  0.28837016682E+02  0.47252383600E+02  0.00000000000E+00 0. -1.
</event>
<event>
 7    1  0.6584658E-006  0.1805260E+03  0.7561462E-02  0.1167295E+00
          1   -1    0    0  501    0  0.00000000000E+00  0.00000000000E+00  0.12941056673E+04  0.12941056673E+04  0.00000000000E+00 0. -1.
         -1   -1    0    0    0  501 -0.00000000000E+00 -0.00000000000E+00 -0.28864160907E+02  0.28864160907E+02  0.00000000000E+00 0.  1.
         23    2    1    2    0    0  0.13566854956E+03  0.87826989796E+02  0.66034143795E+03  0.68447740010E+03  0.79617592860E+02 0.  0.
          5    1    1    2  502    0 -0.97939137863E+02 -0.10726134547E+03  0.55057953640E+03  0.56943161948E+03  0.41800000000E+01 0. -1.
         -5    1    1    2    0  502 -0.37729411697E+02  0.19434355679E+02  0.54320532050E+02  0.69060808639E+02  0.41800000000E+01 0. -1.
        -11    1    3    3    0    0  0.50841547332E+02  0.69838257034E+02  0.23469277499E+03  0.25008587268E+03  0.00000000000E+00 0.  1.
         11    1    3    3    0    0  0.84827002229E+02  0.17988732762E+02  0.42564866296E+03  0.43439152742E+03  0.00000000000E+00 0. -1.
</event>
<event>
 6    1  0.6584658E-006  0.6232248E+02  0.7561462E-02  0.1388336E+00
         -2   -1    0    0    0  501 -0.00000000000E+00  0.00000000000E+00  0.79390871052E+02  0.79390871052E+02  0.00000000000E+00 0.  1.
          2   -1    0    0  501    0  0.00000000000E+00 -0.00000000000E+00 -0.12894805422E+03  0.12894805422E+03  0.00000000000E+00 0. -1.
          5    1    1    2  502    0  0.20047470819E+02 -0.34541614553E+02 -0.87640793741E+02  0.96402309878E+02  0.41800000000E+01 0. -1.
         -5    1    1    2    0  502 -0.39917238295E+01 -0.20236818245E+02  0.43237003848E+02  0.48087145617E+02  0.41800000000E+01 0. -1.
        -11    1    1    2    0    0  0.78342677606E+01  0.10141175713E+02  0.97416938531E+00  0.12851778172E+02  0.00000000000E+00 0. -1.
         11    1    1    2    0    0 -0.23890014750E+02  0.44637257084E+02 -0.61275626587E+01  0.50997691604E+02  0.00000000000E+00 0.  1.
</event>
<event>
 7    1  0.6584658E-006  0.1087555E+03  0.7561462E-02  0.1262892E+00
         -1   -1    0    0    0  501 -0.00000000000E+00  0.00000000000E+00  0.20398248534E+03  0.20398248534E+03  0.00000000000E+00 0.  1.
          1   -1    0    0  501    0  0.00000000000E+00 -0.00000000000E+00 -0.65131958559E+02  0.65131958559E+02  0.00000000000E+00 0. -1.
         23    2    1    2    0    0 -0.27283315827E+02 -0.12595537753E+02  0.29884111254E+02  0.10052031978E+03  0.91149589632E+02 0.  0.
          5    1    1    2  502    0  0.66206804259E+02  0.41865774514E+02  0.55138161982E+02  0.95884166120E+02  0.41800000000E+01 0. -1.
         -5    1    1    2    0  502 -0.38923488432E+02 -0.29270236760E+02  0.53828253542E+02  0.72709957991E+02  0.41800000000E+01 0. -1.
        -11    1    3    3    0    0 -0.35602683937E+02  0.30140793205E+02  0.32579316482E+02  0.56898421604E+02  0.00000000000E+00 0. -1.
         11    1    3    3    0    0  0.83193681098E+01 -0.42736330958E+02 -0.26952052287E+01  0.43621898179E+02  0.00000000000E+00 0.  1.
</event>
<event>
 7    1  0.6584658E-006  0.1272036E+03  0.7561462E-02  0.1231665E+00
         -1   -1    0    0    0  501 -0.00000000000E+00  0.00000000000E+00  0.48112919380E+02  0.48112919380E+02  0.00000000000E+00 0.  1.
          1   -1    0    0  501    0  0.00000000000E+00 -0.00000000000E+00 -0.37625442179E+03  0.37625442179E+03  0.00000000000E+00 0. -1.
         23    2    1    2    0    0 -0.14836663179E+02  0.69516339001E+02 -0.20540049749E+03  0.23524072114E+03  0.89978800547E+02 0.  0.
          5    1    1    2  502    0 -0.26282000855E+02 -0.92734960537E+02 -0.81693294426E+02  0.12641907779E+03  0.41800000000E+01 0. -1.
         -5    1    1    2    0  502  0.41118664034E+02  0.23218621537E+02 -0.41047710493E+02  0.62707542247E+02  0.41800000000E+01 0. -1.
        -11    1    3    3    0    0  0.31096878477E+02  0.52615677148E+01 -0.90272197011E+02  0.95623059452E+02  0.00000000000E+00 0. -1.
         11    1    3    3    0    0 -0.45933541657E+02  0.64254771286E+02 -0.11512830048E+03  0.13961766168E+03  0.00000000000E+00 0.  1.
</event>
<event>
 7    1  0.6584658E-006  0.1173348E+03  0.7561462E-02  0.1247560E+00
         -3   -1    0    0    0  501 -0.00000000000E+00  0.00000000000E+00  0.14141984901E+03  0.14141984901E+03  0.00000000000E+00 0.  1.
          3   -1    0    0  501    0  0.00000000000E+00 -0.00000000000E+00 -0.12981637647E+03  0.12981637647E+03  0.00000000000E+00 0. -1.
         23    2    1    2    0    0  0.67175113924E+02  0.50639458280E+02 -0.94617566569E+01  0.11902505669E+03  0.83669520236E+02 0.  0.
          5    1    1    2  502    0  0.32945600103E+02  0.10902291597E+01 -0.10945071184E+02  0.34983826963E+02  0.41800000000E+01 0.  1.
         -5    1    1    2    0  502 -0.10012071403E+03 -0.51729687440E+02  0.32010300385E+02  0.11722734182E+03  0.41800000000E+01 0.  1.
        -11    1    3    3    0    0  0.28629516490E+02  0.39048000136E+02 -0.44423607904E+02  0.65710368043E+02  0.00000000000E+00 0. -1.
         11    1    3    3    0    0  0.38545597434E+02  0.11591458144E+02  0.34961851247E+02  0.53314688652E+02  0.00000000000E+00 0.  1.
</event>
<event>
 7    1  0.6584658E-006  0.2820212E+03  0.7561462E-02  0.1094590E+00
          2   -1    0    0  501    0  0.00000000000E+00  0.00000000000E+00  0.15464378817E+04  0.15464378817E+04  0.00000000000E+00 0.  1.
         -2   -1    0    0    0  501 -0.00000000000E+00 -0.00000000000E+00 -0.80535528898E+02  0.80535528898E+02  0.00000000000E+00 0. -1.
         23    2    1    2    0    0 -0.13173591924E+03  0.23866220162E+03  0.11732423484E+04  0.12079121268E+04  0.90774991570E+02 0.  0.
          5    1    1    2  502    0  0.96820028107E+01 -0.76839529756E+02  0.21485645313E+02  0.80480804333E+02  0.41800000000E+01 0.  1.
         -5    1    1    2    0  502  0.12205391643E+03 -0.16182267186E+03  0.27117435908E+03  0.33858047945E+03  0.41800000000E+01 0.  1.
        -11    1    3    3    0    0 -0.10718727662E+03  0.11315473302E+03  0.73754413779E+03  0.75383317853E+03  0.00000000000E+00 0.  1.
         11    1    3    3    0    0 -0.24548642627E+02  0.12550746860E+03  0.43569821060E+03  0.45407894826E+03  0.00000000000E+00 0. -1.
</event>
<event>
 7    1  0.6584658E-006  0.1314073E+03  0.7561462E-02  0.1225382E+00
          2   -1    0    0  501    0  0.00000000000E+00  0.00000000000E+00  0.34569128720E+03  0.34569128720E+03  0.00000000000E+00 0. -1.
         -2   -1    0    0    0  501 -0.00000000000E+00 -0.00000000000E+00 -0.74300139544E+02  0.74300139544E+02  0.00000000000E+00 0.  1.
         23    2    1    2    0    0 -0.58868983521E+02  0.39174083685E+02  0.24236305586E+03  0.27339639799E+03  0.10490745224E+03 0.  0.
          5    1    1    2  502    0  0.43119007502E+02 -0.84809943952E+02  0.19463792508E+02  0.97202299458E+02  0.41800000000E+01 0.  1.
         -5    1    1    2    0  502  0.15749976019E+02  0.45635860267E+02  0.95642992959E+01  0.49392729302E+02  0.41800000000E+01 0.  1.
        -11    1    3    3    0    0  0.14844839494E+02 -0.19782141586E+02  0.19926293481E+02  0.31760975382E+02  0.00000000000E+00 0. -1.
         11    1    3    3    0    0 -0.73713823014E+02  0.58956225271E+02  0.22243676238E+03  0.24163542261E+03  0.00000000000E+00 0.  1.
</event>
<event>
 7    1  0.6584658E-006  0.2620789E+03  0.7561462E-02  0.1105901E+00
          1   -1    0    0  501    0  0.00000000000E+00  0.00000000000E+00  0.13339712262E+03  0.13339712262E+03  0.00000000000E+00 0. -1.
         -1   -1    0    0    0  501 -0.00000000000E+00 -0.00000000000E+00 -0.61905744115E+03  0.61905744115E+03  0.00000000000E+00 0.  1.
         23    2    1    2    0    0 -0.23816322988E+03 -0.48740424306E+02 -0.96688008760E+02  0.27701283857E+03  0.91050473159E+02 0.  0.
          5    1    1    2  502    0  0.15264796491E+03  0.81959966053E+02 -0.19537079328E+03  0.26116289265E+03  0.41800000000E+01 0.  1.
         -5    1    1    2    0  502  0.85515264974E+02 -0.33219541747E+02 -0.19360151648E+03  0.21427883256E+03  0.41800000000E+01 0.  1.
        -11    1    3    3    0    0 -0.19147750212E+03  0.58353748603E-01 -0.79500599732E+02  0.20732578851E+03  0.00000000000E+00 0. -1.
         11    1    3    3    0    0 -0.46685727760E+02 -0.48798778054E+02 -0.17187409028E+02  0.69687050054E+02  0.00000000000E+00 0.  1.
</event>
<event>
 7    1  0.6584658E-006  0.1125271E+03  0.7561462E-02  0.1255960E+00
          1   -1    0    0  501    0  0.00000000000E+00  0.00000000000E+00  0.45557303677E+02  0.45557303677E+02  0.00000000000E+00 0. -1.
         -1   -1    0    0    0  501 -0.00000000000E+00 -0.00000000000E+00 -0.38324489610E+03  0.38324489610E+03  0.00000000000E+00 0.  1.
         23    2    1    2    0    0 -0.70595791188E+02  0.10640523032E+01 -0.10297819851E+03  0.15362673851E+03  0.89508477130E+02 0.  0.
          5    1    1    2  502    0  0.15163450091E+02  0.48905355837E+02 -0.16556353182E+03  0.17335056826E+03  0.41800000000E+01 0.  1.
         -5    1    1    2    0  502  0.55432341097E+02 -0.49969408141E+02 -0.69145862097E+02  0.10182489300E+03  0.41800000000E+01 0.  1.
        -11    1    3    3    0    0  0.14164324991E+02 -0.16737094553E+00 -0.53782105852E+02  0.55616283815E+02  0.00000000000E+00 0.  1.
         11    1    3    3    0    0 -0.84760116179E+02  0.12314232488E+01 -0.49196092655E+02  0.98010454700E+02  0.00000000000E+00 0. -1.
</event>
<event>
 7    1  0.6584658E-006  0.1293233E+03  0.7561462E-02  0.1228463E+00
          1   -1    0    0  501    0  0.00000000000E+00  0.00000000000E+00  0.14665644239E+03  0.14665644239E+03  0.00000000000E+00 0. -1.
         -1   -1    0    0    0  501 -0.00000000000E+00 -0.00000000000E+00 -0.12201203839E+03  0.12201203839E+03  0.00000000000E+00 0.  1.
         23    2    1    2    0    0 -0.48585948052E+02 -0.64127418953E+02  0.28645854573E+01  0.11834395898E+03  0.86741953912E+02 0.  0.
          5    1    1    2  502    0 -0.32961296567E+02  0.51960702900E+02 -0.87739324381E+01  0.62296195772E+02  0.41800000000E+01 0.  1.
         -5    1    1    2    0  502  0.81547244619E+02  0.12166716053E+02  0.30553750978E+02  0.88028326028E+02  0.41800000000E+01 0.  1.
        -11    1    3    3    0    0 -0.68821920542E+02 -0.30741323467E+02 -0.12470126632E+02  0.76400194855E+02  0.00000000000E+00 0.  1.
         11    1    3    3    0    0  0.20235972491E+02 -0.33386095486E+02  0.15334712089E+02  0.41943764129E+02  0.00000000000E+00 0. -1.
</event>
<event>
 7    1  0.6584658E-006  0.1337284E+03  0.7561462E-02  0.1222026E+00
         -2   -1    0    0    0  501 -0.00000000000E+00  0.00000000000E+00  0.17771379523E+02  0.17771379523E+02  0.00000000000E+00 0.  1.
          2   -1    0    0  501    0  0.00000000000E+00 -0.00000000000E+00 -0.10388922862E+04  0.10388922862E+04  0.00000000000E+00 0. -1.
         23    2    1    2    0    0  0.80733559190E+02 -0.22133779921E+00 -0.44524640937E+03  0.46185516439E+03  0.92454698345E+02 0.  0.
          5    1    1    2  502    0 -0.45237173019E+02  0.61800822772E+02 -0.33253466639E+03  0.34126605496E+03  0.41800000000E+01 0. -1.
         -5    1    1    2    0  502 -0.35496386171E+02 -0.61579484973E+02 -0.24333983089E+03  0.25354244635E+03  0.41800000000E+01 0. -1.
        -11    1    3    3    0    0  0.68676513469E+02 -0.38977087149E+02 -0.24075010848E+03  0.25336987105E+03  0.00000000000E+00 0. -1.
         11    1    3    3    0    0  0.12057045721E+02  0.38755749350E+02 -0.20449630089E+03  0.20848529334E+03  0.00000000000E+00 0.  1.
</event>
<event>
 7    1  0.6584658E-006  0.1115305E+03  0.7561462E-02  0.1257762E+00
          2   -1    0    0  501    0  0.00000000000E+00  0.00000000000E+00  0.31353071808E+03  0.31353071808E+03  0.00000000000E+00 0. -1.
         -2   -1    0    0    0  501 -0.00000000000E+00 -0.00000000000E+00 -0.22806649829E+03  0.22806649829E+03  0.00000000000E+00 0.  1.
         23    2    1    2    0    0 -0.32042285252E+02 -0.71817773930E+02  0.57948871659E+02  0.13437820255E+03  0.92276372363E+02 0.  0.
          5    1    1    2  502    0 -0.10321304602E+02  0.55757768760E+02  0.21081963294E+03  0.21835257758E+03  0.41800000000E+01 0. -1.
         -5    1    1    2    0  502  0.42363589854E+02  0.16060005170E+02 -0.18330428480E+03  0.18886643624E+03  0.41800000000E+01 0.  1.
        -11    1    3    3    0    0 -0.26902104040E+02  0.16944109633E+02  0.98124588935E+01  0.33273268589E+02  0.00000000000E+00 0. -1.
         11    1    3    3    0    0 -0.51401812113E+01 -0.88761883563E+02  0.48136412766E+02  0.10110493396E+03  0.00000000000E+00 0.  1.
</event>
<event>
 7    1  0.6584658E-006  0.1061447E+03  0.7561462E-02  0.1267881E+00
         -1   -1    0    0    0  501 -0.00000000000E+00  0.00000000000E+00  0.41506637037E+02  0.41506637037E+02  0.00000000000E+00 0.  1.
          1   -1    0    0  501    0  0.00000000000E+00 -0.00000000000E+00 -0.38639251824E+03  0.38639251824E+03  0.00000000000E+00 0. -1.
         23    2    1    2    0    0  0.33129273870E+02  0.34275319690E+02 -0.22487456205E+03  0.24726296541E+03  0.91093682979E+02 0.  0.
          5    1    1    2  502    0 -0.58386095423E+02  0.23955412344E+02 -0.90757925588E+02  0.11062220110E+03  0.41800000000E+01 0.  1.
         -5    1    1    2    0  502  0.25256821554E+02 -0.58230732034E+02 -0.29253393569E+02  0.70013988770E+02  0.41800000000E+01 0.  1.
        -11    1    3    3    0    0 -0.15633042760E+02 -0.10821439129E+02 -0.83237104063E+01  0.20755233694E+02  0.00000000000E+00 0.  1.
         11    1    3    3    0    0  0.48762316630E+02  0.45096758819E+02 -0.21655085164E+03  0.22650773172E+03  0.00000000000E+00 0. -1.
</event>
<event>
 7    1  0.6584658E-006  0.1290202E+03  0.7561462E-02  0.1228917E+00
          2   -1    0    0  501    0  0.00000000000E+00  0.00000000000E+00  0.21421935652E+03  0.21421935652E+03  0.00000000000E+00 0. -1.
         -2   -1    0    0    0  501 -0.00000000000E+00 -0.00000000000E+00 -0.19478442224E+03  0.19478442224E+03  0.00000000000E+00 0.  1.
         23    2    1    2    0    0  0.28871493747E+02 -0.93652341605E+02  0.15133666160E+03  0.20248740143E+03  0.92163107343E+02 0.  0.
          5    1    1    2  502    0  0.45451579505E+02  0.62656128706E+02 -0.54637420709E+02  0.94838582263E+02  0.41800000000E+01 0.  1.
         -5    1    1    2    0  502 -0.74323073252E+02  0.30996212899E+02 -0.77264306619E+02  0.11167779506E+03  0.41800000000E+01 0.  1.
        -11    1    3    3    0    0  0.17885088877E+02 -0.27344142731E+02  0.12679119752E+03  0.13093351868E+03  0.00000000000E+00 0. -1.
         11    1    3    3    0    0  0.10986404870E+02 -0.66308198874E+02  0.24545464083E+02  0.71553882752E+02  0.00000000000E+00 0.  1.
</event>
<event>
 7    1  0.6584658E-006  0.8132634E+02  0.7561462E-02  0.1325329E+00
         -2   -1    0    0    0  501 -0.00000000000E+00  0.00000000000E+00  0.26668144942E+03  0.26668144942E+03  0.00000000000E+00 0.  1.
          2   -1    0    0  501    0  0.00000000000E+00 -0.00000000000E+00 -0.51795273430E+02  0.51795273430E+02  0.00000000000E+00 0. -1.
         23    2    1    2    0    0 -0.35531542862E+02 -0.26165872934E+02  0.97916449483E+02  0.14162565181E+03  0.92320370047E+02 0.  0.
          5    1    1    2  502    0  0.31445676482E+02  0.43824358481E+02 -0.41986371761E+01  0.54263301778E+02  0.41800000000E+01 0.  1.
         -5    1    1    2    0  502  0.40858663797E+01 -0.17658485547E+02  0.12116836368E+03  0.12258776927E+03  0.41800000000E+01 0.  1.
        -11    1    3    3    0    0  0.24590858274E+01 -0.46701122641E+02  0.84197711837E+02  0.96313532993E+02  0.00000000000E+00 0.  1.
         11    1    3    3    0    0 -0.37990628689E+02  0.20535249707E+02  0.13718737646E+02  0.45312118813E+02  0.00000000000E+00 0. -1.
</event>
<event>
 7    1  0.6584658E-006  0.8164683E+02  0.7561462E-02  0.1324442E+00
         -2   -1    0    0    0  501 -0.00000000000E+00  0.00000000000E+00  0.43859457218E+02  0.43859457218E+02  0.00000000000E+00 0.  1.
          2   -1    0    0  501    0  0.00000000000E+00 -0.00000000000E+00 -0.29480176619E+03  0.29480176619E+03  0.00000000000E+00 0. -1.
         23    2    1    2    0    0 -0.26738339892E+02  0.22341565838E+02 -0.10396113099E+03  0.14253680333E+03  0.91075458616E+02 0.  0.
          5    1    1    2  502    0 -0.38087744055E+02 -0.31555400862E+01 -0.49434075680E+01  0.38762654177E+02  0.41800000000E+01 0.  1.
         -5    1    1    2    0  502  0.64826083947E+02 -0.19186025752E+02 -0.14203777041E+03  0.15736176590E+03  0.41800000000E+01 0.  1.
        -11    1    3    3    0    0  0.41306345834E+01 -0.10955323794E+02  0.12746727089E+02  0.17307810751E+02  0.00000000000E+00 0.  1.
         11    1    3    3    0    0 -0.30868974475E+02  0.33296889632E+02 -0.11670785808E+03  0.12522899258E+03  0.00000000000E+00 0. -1.
</event>
<event>
 7    1  0.6584658E-006  0.1675486E+03  0.7561462E-02  0.1180429E+00
          2   -1    0    0  501    0  0.00000000000E+00  0.00000000000E+00  0.15416869869E+03  0.15416869869E+03  0.00000000000E+00 0. -1.
         -2   -1    0    0    0  501 -0.00000000000E+00 -0.00000000000E+00 -0.21620297365E+03  0.21620297365E+03  0.00000000000E+00 0.  1.
         23    2    1    2    0    0  0.63899372001E+02 -0.12802813164E+03 -0.34553338973E+01  0.17149356885E+03  0.94465721771E+02 0.  0.
          5    1    1    2  502    0 -0.49182197438E+02 -0.92433579768E+01 -0.27686619188E+02  0.57344132164E+02  0.41800000000E+01 0.  1.
         -5    1    1    2    0  502 -0.14717174562E+02  0.13727148962E+03 -0.30892321881E+02  0.14153397133E+03  0.41800000000E+01 0.  1.
        -11    1    3    3    0    0  0.30494202850E+02 -0.28369530126E+02  0.40008804568E+02  0.57753191168E+02  0.00000000000E+00 0. -1.
         11    1    3    3    0    0  0.33405169151E+02 -0.99658601514E+02 -0.43464138466E+02  0.11374037768E+03  0.00000000000E+00 0.  1.
</event>
<event>
 7    1  0.6584658E-006  0.1771285E+03  0.7561462E-02  0.1170611E+00
          2   -1    0    0  501    0  0.00000000000E+00  0.00000000000E+00  0.71440752792E+03  0.71440752792E+03  0.00000000000E+00 0. -1.
         -2   -1    0    0    0  501 -0.00000000000E+00 -0.00000000000E+00 -0.50674053131E+02  0.50674053131E+02  0.00000000000E+00 0.  1.
         23    2    1    2    0    0 -0.86447826529E+02  0.12209813182E+03  0.38212539192E+03  0.42254364093E+03  0.10070815672E+03 0.  0.
          5    1    1    2  502    0  0.78906910714E+02 -0.10818178335E+02  0.15073558410E+03  0.17053451924E+03  0.41800000000E+01 0.  1.
         -5    1    1    2    0  502  0.75409158148E+01 -0.11127995349E+03  0.13087249877E+03  0.17200342088E+03  0.41800000000E+01 0.  1.
        -11    1    3    3    0    0 -0.64150313766E+02  0.35194895125E+02  0.26551850502E+03  0.27541608505E+03  0.00000000000E+00 0. -1.
         11    1    3    3    0    0 -0.22297512763E+02  0.86903236699E+02  0.11660688691E+03  0.14712755588E+03  0.00000000000E+00 0.  1.
</event>
<event>
 7    1  0.6584658E-006  0.1840662E+03  0.7561462E-02  0.1163925E+00
         -1   -1    0    0    0  501 -0.00000000000E+00  0.00000000000E+00  0.25280043300E+03  0.25280043300E+03  0.00000000000E+00 0.  1.
          1   -1    0    0  501    0  0.00000000000E+00 -0.00000000000E+00 -0.16065196994E+03  0.16065196994E+03  0.00000000000E+00 0. -1.
         23    2    1    2    0    0 -0.95796934239E+01 -0.15791625607E+03 -0.16118711507E+02  0.18454469206E+03  0.93635549063E+02 0.  0.
          5    1    1    2  502    0  0.54376168550E+02  0.97098807024E+02  0.20848747620E+02  0.11330087691E+03  0.41800000000E+01 0.  1.
         -5    1    1    2    0  502 -0.44796475126E+02  0.60817449047E+02  0.87418426939E+02  0.11560683397E+03  0.41800000000E+01 0.  1.
        -11    1    3    3    0    0  0.33839493645E+02 -0.27320710109E+02  0.95983318796E+01  0.44538303806E+02  0.00000000000E+00 0.  1.
         11    1    3    3    0    0 -0.43419187069E+02 -0.13059554596E+03 -0.25717043386E+02  0.14000638825E+03  0.00000000000E+00 0. -1.
</event>
<event>
 7    1  0.6584658E-006  0.7491022E+02  0.7561462E-02  0.1344149E+00
          1   -1    0    0  501    0  0.00000000000E+00  0.00000000000E+00  0.13094162975E+03  0.13094162975E+03  0.00000000000E+00 0. -1.
         -1   -1    0    0    0  501 -0.00000000000E+00 -0.00000000000E+00 -0.12524021130E+03  0.12524021130E+03  0.00000000000E+00 0.  1.
         23    2    1    2    0    0  0.57133841426E+02  0.34454441078E+02  0.16756767868E+02  0.11398418094E+03  0.90885751847E+02 0.  0.
          5    1    1    2  502    0 -0.50719876561E+02 -0.63097641744E+01 -0.63842645589E+02  0.81888184728E+02  0.41800000000E+01 0. -1.
         -5    1    1    2    0  502 -0.64139648648E+01 -0.28144676903E+02  0.52787296172E+02  0.60309475379E+02  0.41800000000E+01 0. -1.
        -11    1    3    3    0    0  0.20201670663E+02  0.23199855954E+02 -0.36798258758E+02  0.47963034323E+02  0.00000000000E+00 0.  1.
         11    1    3    3    0    0  0.36932170763E+02  0.11254585123E+02  0.53555026625E+02  0.66021146615E+02  0.00000000000E+00 0. -1.
</event>
<event>
 7    1  0.6584658E-006  0.1893984E+03  0.7561462E-02  0.1159005E+00
         -2   -1    0    0    0  501 -0.00000000000E+00  0.00000000000E+00  0.16882112001E+03  0.16882112001E+03  0.00000000000E+00 0.  1.
          2   -1    0    0  501    0  0.00000000000E+00 -0.00000000000E+00 -0.26857920529E+03  0.26857920529E+03  0.00000000000E+00 0. -1.
         23    2    1    2    0    0  0.17099081431E+03 -0.39727905318E+02 -0.10050104563E+03  0.22184644524E+03  0.91100055186E+02 0.  0.
          5    1    1    2  502    0 -0.12207242958E+03  0.68716161124E+00 -0.52812644857E+02  0.13307440818E+03  0.41800000000E+01 0.  1.
         -5    1    1    2    0  502 -0.48918384723E+02  0.39040743707E+02  0.53555605210E+02  0.82479471886E+02  0.41800000000E+01 0.  1.
        -11    1    3    3    0    0  0.18802005987E+02  0.22659434114E+02 -0.69196294570E+00  0.29452405610E+02  0.00000000000E+00 0.  1.
         11    1    3    3    0    0  0.15218880832E+03 -0.62387339432E+02 -0.99809082688E+02  0.19239403963E+03  0.00000000000E+00 0. -1.
</event>
<event>
 7    1  0.6584658E-006  0.1281235E+03  0.7561462E-02  0.1230267E+00
          2   -1    0    0  501    0  0.00000000000E+00  0.00000000000E+00  0.61490377110E+03  0.61490377110E+03  0.00000000000E+00 0. -1.
         -2   -1    0    0    0  501 -0.00000000000E+00 -0.00000000000E+00 -0.52554864397E+02  0.52554864397E+02  0.00000000000E+00 0.  1.
         23    2    1    2    0    0 -0.83535749655E+02 -0.26193947537E+02  0.38353850400E+03  0.40396391179E+03  0.91764446404E+02 0.  0.
          5    1    1    2  502    0  0.98571463938E+02 -0.37849391986E+01  0.19501475225E+02  0.10064014708E+03  0.41800000000E+01 0. -1.
         -5    1    1    2    0  502 -0.15035714283E+02  0.29978886735E+02  0.15930892748E+03  0.16285457662E+03  0.41800000000E+01 0.  1.
        -11    1    3    3    0    0 -0.59248863594E+02  0.27098010383E+02  0.15708825313E+03  0.17006307440E+03  0.00000000000E+00 0.  1.
         11    1    3    3    0    0 -0.24286886061E+02 -0.53291957920E+02  0.22645025087E+03  0.23390083739E+03  0.00000000000E+00 0. -1.
</event>
<event>
 7    1  0.6584658E-006  0.3246083E+03  0.7561462E-02  0.1073548E+00
         -2   -1    0    0    0  501 -0.00000000000E+00  0.00000000000E+00  0.42334904044E+03  0.42334904044E+03  0.00000000000E+00 0. -1.
          2   -1    0    0  501    0  0.00000000000E+00 -0.00000000000E+00 -0.27660820085E+03  0.27660820085E+03  0.00000000000E+00 0.  1.
         23    2    1    2    0    0  0.25061329033E+03  0.20073625869E+03  0.22064825828E+02  0.33348020973E+03  0.87293338263E+02 0.  0.
          5    1    1    2  502    0 -0.19644551168E+03 -0.11969887910E+03  0.32693927669E+02  0.23238981480E+03  0.41800000000E+01 0. -1.
         -5    1    1    2    0  502 -0.54167778648E+02 -0.81037379594E+02  0.91982086098E+02  0.13408721676E+03  0.41800000000E+01 0. -1.
        -11    1    3    3    0    0  0.84048312132E+02  0.56873220637E+02 -0.32802777336E+02  0.10665225829E+03  0.00000000000E+00 0.  1.
         11    1    3    3    0    0  0.16656497819E+03  0.14386303805E+03  0.54867603164E+02  0.22682795144E+03  0.00000000000E+00 0. -1.
</event>
<event>
 7    1  0.6584658E-006  0.1389248E+03  0.7561462E-02  0.1214783E+00
          1   -1    0    0  501    0  0.00000000000E+00  0.00000000000E+00  0.97266129996E+03  0.97266129996E+03  0.00000000000E+00 0. -1.
         -1   -1    0    0    0  501 -0.00000000000E+00 -0.00000000000E+00 -0.28282397986E+02  0.28282397986E+02  0.00000000000E+00 0.  1.
         23    2    1    2    0    0  0.11862908706E+03  0.14079396982E+02  0.55033610289E+03  0.57060808283E+03  0.91938394164E+02 0.  0.
          5    1    1    2  502    0 -0.75499660562E+02 -0.32800954533E+02  0.36656532470E+03  0.37571759479E+03  0.41800000000E+01 0. -1.
         -5    1    1    2    0  502 -0.43129426495E+02  0.18721557551E+02  0.27477474388E+02  0.54618020338E+02  0.41800000000E+01 0. -1.
        -11    1    3    3    0    0 -0.99578322821E+01  0.16888962010E+02  0.43621962818E+02  0.47825423172E+02  0.00000000000E+00 0.  1.
         11    1    3    3    0    0  0.12858691934E+03 -0.28095650273E+01  0.50671414008E+03  0.52278265965E+03  0.00000000000E+00 0. -1.
</event>
<event>
 7    1  0.6584658E-006  0.9959432E+02  0.7561462E-02  0.1281151E+00
         -2   -1    0    0    0  501 -0.00000000000E+00  0.00000000000E+00  0.30661458293E+03  0.30661458293E+03  0.00000000000E+00 0.  1.
          2   -1    0    0  501    0  0.00000000000E+00 -0.00000000000E+00 -0.51557061155E+02  0.51557061155E+02  0.00000000000E+00 0. -1.
         23    2    1    2    0    0  0.43103460724E+02  0.30353202569E+02  0.66228192773E+02  0.12561157860E+03  0.92805549014E+02 0.  0.
          5    1    1    2  502    0 -0.31762380720E+02 -0.56768609570E+02  0.19253985631E+03  0.20327467262E+03  0.41800000000E+01 0. -1.
         -5    1    1    2    0  502 -0.11341080005E+02  0.26415407001E+02 -0.37105273013E+01  0.29285392870E+02  0.41800000000E+01 0. -1.
        -11    1    3    3    0    0  0.62184001087E+02 -0.74308787922E+01  0.28096342381E+02  0.68640166127E+02  0.00000000000E+00 0.  1.
         11    1    3    3    0    0 -0.19080540363E+02  0.37784081361E+02  0.38131850392E+02  0.56971412473E+02  0.00000000000E+00 0. -1.
</event>
<event>
 7    1  0.6584658E-006  0.6333710E+02  0.7561462E-02  0.1384338E+00
         -1   -1    0    0    0  501 -0.00000000000E+00  0.00000000000E+00  0.30167900427E+02  0.30167900427E+02  0.00000000000E+00 0.  1.
          1   -1    0    0  501    0  0.00000000000E+00 -0.00000000000E+00 -0.39800408476E+03  0.39800408476E+03  0.00000000000E+00 0. -1.
         23    2    1    2    0    0 -0.98177923928E+01 -0.48644433061E+02 -0.12505952321E+03  0.15059232123E+03  0.67642390197E+02 0.  0.
          5    1    1    2  502    0  0.14044262142E+02  0.38921144694E+02 -0.25643830133E+03  0.25978870567E+03  0.41800000000E+01 0.  1.
         -5    1    1    2    0  502 -0.42264697495E+01  0.97232883672E+01  0.13661640217E+02  0.17790958283E+02  0.41800000000E+01 0.  1.
        -11    1    3    3    0    0 -0.30494507587E+02 -0.42135616166E+02 -0.48835289599E+02  0.71345712225E+02  0.00000000000E+00 0.  1.
         11    1    3    3    0    0  0.20676715194E+02 -0.65088168950E+01 -0.76224233614E+02  0.79246609004E+02  0.00000000000E+00 0. -1.
</event>
<event>
 7    1  0.6584658E-006  0.1294240E+03  0.7561462E-02  0.1228313E+00
         -1   -1    0    0    0  501 -0.00000000000E+00  0.00000000000E+00  0.52838702100E+02  0.52838702100E+02  0.00000000000E+00 0.  1.
          1   -1    0    0  501    0  0.00000000000E+00 -0.00000000000E+00 -0.47613023444E+03  0.47613023444E+03  0.00000000000E+00 0. -1.
         23    2    1    2    0    0 -0.87571391457E+02 -0.40989733403E+02 -0.30056071885E+03  0.32881848093E+03  0.91847377962E+02 0.  0.
          5    1    1    2  502    0  0.97039290701E+02 -0.10117903465E+02 -0.47446720039E+02  0.10857098854E+03  0.41800000000E+01 0.  1.
         -5    1    1    2    0  502 -0.94678992434E+01  0.51107636868E+02 -0.75284093456E+02  0.91579467076E+02  0.41800000000E+01 0.  1.
        -11    1    3    3    0    0 -0.35645321905E+02 -0.44485176736E+02 -0.60275504196E+02  0.82961776313E+02  0.00000000000E+00 0.  1.
         11    1    3    3    0    0 -0.51926069553E+02  0.34954433328E+01 -0.24028521465E+03  0.24585670462E+03  0.00000000000E+00 0. -1.
</event>
<event>
 7    1  0.6584658E-006  0.8990879E+02  0.7561462E-02  0.1303073E+00
         -1   -1    0    0    0  501 -0.00000000000E+00  0.00000000000E+00  0.82370449886E+02  0.82370449886E+02  0.00000000000E+00 0.  1.
          1   -1    0    0  501    0  0.00000000000E+00 -0.00000000000E+00 -0.17134775266E+03  0.17134775266E+03  0.00000000000E+00 0. -1.
         23    2    1    2    0    0  0.93663452494E+01  0.45860687964E+00 -0.89380771103E+02  0.12828110508E+03  0.91537866116E+02 0.  0.
          5    1    1    2  502    0 -0.32959025879E+02  0.55402802550E+02 -0.16097747233E+01  0.64620675422E+02  0.41800000000E+01 0.  1.
         -5    1    1    2    0  502  0.23592680630E+02 -0.55861409429E+02  0.20132430550E+01  0.60816422045E+02  0.41800000000E+01 0.  1.
        -11    1    3    3    0    0  0.21983907997E+02  0.20951107656E+02 -0.98093682207E+02  0.10268695931E+03  0.00000000000E+00 0. -1.
         11    1    3    3    0    0 -0.12617562747E+02 -0.20492500776E+02  0.87129111047E+01  0.25594145769E+02  0.00000000000E+00 0.  1.
</event>
<event>
 7    1  0.6584658E-006  0.8109057E+02  0.7561462E-02  0.1325985E+00
          1   -1    0    0  501    0  0.00000000000E+00  0.00000000000E+00  0.82870946343E+02  0.82870946343E+02  0.00000000000E+00 0. -1.
         -1   -1    0    0    0  501 -0.00000000000E+00 -0.00000000000E+00 -0.31682446139E+03  0.31682446139E+03  0.00000000000E+00 0.  1.
         23    2    1    2    0    0  0.10472049536E+02  0.25437121450E+02  0.35778294210E+02  0.10110069284E+03  0.90468518209E+02 0.  0.
          5    1    1    2  502    0  0.34088652841E+02 -0.45581986346E+02 -0.58470338890E+02  0.81706833629E+02  0.41800000000E+01 0. -1.
         -5    1    1    2    0  502 -0.44560702377E+02  0.20144864896E+02 -0.21126147037E+03  0.21688788127E+03  0.41800000000E+01 0. -1.
        -11    1    3    3    0    0  0.29393252035E+02  0.22193326565E+02 -0.20140827638E+02  0.41978088893E+02  0.00000000000E+00 0.  1.
         11    1    3    3    0    0 -0.18921202498E+02  0.32437948851E+01  0.55919121847E+02  0.59122603946E+02  0.00000000000E+00 0. -1.
</event>
<event>
 7    1  0.6584658E-006  0.6521838E+02  0.7561462E-02  0.1377152E+00
         -2   -1    0    0    0  501 -0.00000000000E+00  0.00000000000E+00  0.22406319769E+03  0.22406319769E+03  0.00000000000E+00 0.  1.
          2   -1    0    0  501    0  0.00000000000E+00 -0.00000000000E+00 -0.69998071062E+02  0.69998071062E+02  0.00000000000E+00 0. -1.
         23    2    1    2    0    0 -0.14354293647E+01 -0.32574730363E+02  0.46899549203E+02  0.10756872943E+03  0.91149823473E+02 0.  0.
          5    1    1    2  502    0  0.23615621893E+01  0.13934534211E+02 -0.37643510727E+02  0.40425913960E+02  0.41800000000E+01 0. -1.
         -5    1    1    2    0  502 -0.92613282467E+00  0.18640196152E+02  0.14480908815E+03  0.14606662536E+03  0.41800000000E+01 0.  1.
        -11    1    3    3    0    0  0.44243576207E+02 -0.23140530173E+02  0.27975386001E+02  0.57232861139E+02  0.00000000000E+00 0.  1.
         11    1    3    3    0    0 -0.45679005572E+02 -0.94342001898E+01  0.18924163202E+02  0.50335868286E+02  0.00000000000E+00 0. -1.
</event>
<event>
 7    1  0.6584658E-006  0.9063539E+02  0.7561462E-02  0.1301320E+00
          1   -1    0    0  501    0  0.00000000000E+00  0.00000000000E+00  0.44589249706E+03  0.44589249706E+03  0.00000000000E+00 0. -1.
         -1   -1    0    0    0  501 -0.00000000000E+00 -0.00000000000E+00 -0.28596421472E+02  0.28596421472E+02  0.00000000000E+00 0.  1.
         23    2    1    2    0    0  0.12114406037E+02 -0.11869672078E+02  0.23882604340E+03  0.25588765052E+03  0.90293757997E+02 0.  0.
          5    1    1    2  502    0  0.10922028684E+02 -0.44213134690E+02  0.22013503221E+02  0.50755873687E+02  0.41800000000E+01 0.  1.
         -5    1    1    2    0  502 -0.23036434721E+02  0.56082806768E+02  0.15645652897E+03  0.16784539433E+03  0.41800000000E+01 0.  1.
        -11    1    3    3    0    0 -0.26095774500E+02  0.13018346165E+02  0.28867359517E+02  0.41034025261E+02  0.00000000000E+00 0.  1.
         11    1    3    3    0    0  0.38210180536E+02 -0.24888018243E+02  0.20995868388E+03  0.21485362526E+03  0.00000000000E+00 0. -1.
</event>
<event>
 7    1  0.9756789E-006  0.1748052E+03  0.7561462E-02  0.1172927E+00
          2   -1    0    0  501    0  0.00000000000E+00  0.00000000000E+00  0.88713428736E+03  0.88713428736E+03  0.00000000000E+00 0. -1.
         -2   -1    0    0    0  501 -0.00000000000E+00 -0.00000000000E+00 -0.46561427780E+02  0.46561427780E+02  0.00000000000E+00 0.  1.
         23    2    1    2    0    0 -0.42434830695E+02  0.14113559494E+03  0.60466016020E+03  0.62870015333E+03  0.89050561186E+02 0.  0.
          5    1    1    2  502    0  0.68335890608E+02 -0.26023067513E+02  0.11217063700E+03  0.13396536191E+03  0.41800000000E+01 0.  1.
         -5    1    1    2    0  502 -0.25901059913E+02 -0.11511252743E+03  0.12374206239E+03  0.17103019990E+03  0.41800000000E+01 0.  1.
        -11    1    3    3    0    0 -0.51949695161E+02  0.73522917651E+02  0.46012357094E+03  0.46884762000E+03  0.00000000000E+00 0. -1.
         11    1    3    3    0    0  0.95148644664E+01  0.67612677289E+02  0.14453658926E+03  0.15985253332E+03  0.00000000000E+00 0.  1.
</event>
<event>
 7    1  0.6584658E-006  0.1090334E+03  0.7561462E-02  0.1262371E+00
          2   -1    0    0  501    0  0.00000000000E+00  0.00000000000E+00  0.70978564560E+03  0.70978564560E+03  0.00000000000E+00 0. -1.
         -2   -1    0    0    0  501 -0.00000000000E+00 -0.00000000000E+00 -0.20689073913E+02  0.20689073913E+02  0.00000000000E+00 0.  1.
         23    2    1    2    0    0  0.41931483439E+02 -0.15275425380E+02  0.39032336287E+03  0.40345101433E+03  0.91808525989E+02 0.  0.
          5    1    1    2  502    0  0.37090197813E+02  0.25356525249E+01  0.17926098202E+03  0.18312313994E+03  0.41800000000E+01 0. -1.
         -5    1    1    2    0  502 -0.79021681252E+02  0.12739772855E+02  0.11951222680E+03  0.14390056523E+03  0.41800000000E+01 0.  1.
        -11    1    3    3    0    0  0.69402697308E+02 -0.70013264290E+00  0.23454278643E+03  0.24459669509E+03  0.00000000000E+00 0.  1.
         11    1    3    3    0    0 -0.27471213870E+02 -0.14575292737E+02  0.15578057643E+03  0.15885431925E+03  0.00000000000E+00 0. -1.
</event>
<event>
 7    1  0.6584658E-006  0.1027894E+03  0.7561462E-02  0.1274537E+00
          2   -1    0    0  501    0  0.00000000000E+00  0.00000000000E+00  0.52096461054E+03  0.52096461054E+03  0.00000000000E+00 0. -1.
         -2   -1    0    0    0  501 -0.00000000000E+00 -0.00000000000E+00 -0.35436660516E+02  0.35436660516E+02  0.00000000000E+00 0.  1.
         23    2    1    2    0    0  0.34002799600E+02 -0.12261700708E+02  0.28045221929E+03  0.29675645031E+03  0.90024462285E+02 0.  0.
          5    1    1    2  502    0 -0.59275959233E+02  0.39470582239E+02  0.21015340849E+03  0.22193128149E+03  0.41800000000E+01 0. -1.
         -5    1    1    2    0  502  0.25273159633E+02 -0.27208881531E+02 -0.50776777532E+01  0.37713539258E+02  0.41800000000E+01 0.  1.
        -11    1    3    3    0    0 -0.28422501001E+02  0.10681396360E+02  0.95417150794E+02  0.10013173052E+03  0.00000000000E+00 0. -1.
         11    1    3    3    0    0  0.62425300601E+02 -0.22943097067E+02  0.18503506850E+03  0.19662471979E+03  0.00000000000E+00 0.  1.
</event>
<event>
 7    1  0.6584658E-006  0.1995622E+03  0.7561462E-02  0.1150109E+00
          4   -1    0    0  501    0  0.00000000000E+00  0.00000000000E+00  0.10672683231E+04  0.10672683231E+04  0.00000000000E+00 0. -1.
         -4   -1    0    0    0  501 -0.00000000000E+00 -0.00000000000E+00 -0.49291767510E+02  0.49291767510E+02  0.00000000000E+00 0.  1.
         23    2    1    2    0    0 -0.15268047506E+03 -0.12025038492E+03  0.62489799358E+03  0.66056613475E+03  0.89881218643E+02 0.  0.
          5    1    1    2  502    0  0.14800108719E+03  0.12346461524E+03  0.40127551384E+03  0.44518237098E+03  0.41800000000E+01 0. -1.
         -5    1    1    2    0  502  0.46793878625E+01 -0.32142303204E+01 -0.81969518529E+01  0.10811584851E+02  0.41800000000E+01 0. -1.
        -11    1    3    3    0    0 -0.75462556093E+02 -0.31832133774E+02  0.38337808368E+03  0.39202887286E+03  0.00000000000E+00 0. -1.
         11    1    3    3    0    0 -0.77217918962E+02 -0.88418251145E+02  0.24151990990E+03  0.26853726189E+03  0.00000000000E+00 0.  1.
</event>
<event>
 7    1  0.6584658E-006  0.1302413E+03  0.7561462E-02  0.1227098E+00
          1   -1    0    0  501    0  0.00000000000E+00  0.00000000000E+00  0.42423251826E+03  0.42423251826E+03  0.00000000000E+00 0. -1.
         -1   -1    0    0    0  501 -0.00000000000E+00 -0.00000000000E+00 -0.70058865035E+02  0.70058865035E+02  0.00000000000E+00 0.  1.
         23    2    1    2    0    0 -0.96524169411E+02 -0.29113782607E+02  0.29206105488E+03  0.32204105661E+03  0.90808891346E+02 0.  0.
          5    1    1    2  502    0  0.10291440832E+03 -0.24066288836E+02  0.31259236192E+02  0.11029584736E+03  0.41800000000E+01 0. -1.
         -5    1    1    2    0  502 -0.63902389097E+01  0.53180071443E+02  0.30853362160E+02  0.61954479327E+02  0.41800000000E+01 0. -1.
        -11    1    3    3    0    0 -0.20436974430E+02 -0.86532154589E+01  0.29530423162E+01  0.22389026789E+02  0.00000000000E+00 0.  1.
         11    1    3    3    0    0 -0.76087194981E+02 -0.20460567148E+02  0.28910801256E+03  0.29965202982E+03  0.00000000000E+00 0. -1.
</event>
<event>
 7    1  0.6584658E-006  0.9093237E+02  0.7561462E-02  0.1300609E+00
         -2   -1    0    0    0  501 -0.00000000000E+00  0.00000000000E+00  0.74945959254E+02  0.74945959254E+02  0.00000000000E+00 0.  1.
          2   -1    0    0  501    0  0.00000000000E+00 -0.00000000000E+00 -0.15480544330E+03  0.15480544330E+03  0.00000000000E+00 0. -1.
         23    2    1    2    0    0  0.34739226126E+01  0.80966746408E+01 -0.36654264515E+02  0.97118485031E+02  0.89503300213E+02 0.  0.
          5    1    1    2  502    0  0.17060825177E+02  0.46123864626E+02  0.13767260680E+02  0.51239560014E+02  0.41800000000E+01 0. -1.
         -5    1    1    2    0  502 -0.20534747790E+02 -0.54220539267E+02 -0.56972480216E+02  0.81393357513E+02  0.41800000000E+01 0. -1.
        -11    1    3    3    0    0 -0.21294759046E+02 -0.25128874729E+02  0.10281368937E+02  0.34505559772E+02  0.00000000000E+00 0.  1.
         11    1    3    3    0    0  0.24768681659E+02  0.33225549370E+02 -0.46935633452E+02  0.62612925259E+02  0.00000000000E+00 0. -1.
</event>
<event>
 7    1  0.6584658E-006  0.1063869E+03  0.7561462E-02  0.1267411E+00
         -1   -1    0    0    0  501 -0.00000000000E+00  0.00000000000E+00  0.69705305658E+03  0.69705305658E+03  0.00000000000E+00 0.  1.
          1   -1    0    0  501    0  0.00000000000E+00 -0.00000000000E+00 -0.33069412948E+02  0.33069412948E+02  0.00000000000E+00 0. -1.
         23    2    1    2    0    0  0.46608336992E+02  0.67530680251E+02  0.14310197877E+03  0.18817987574E+03  0.90558044658E+02 0.  0.
          5    1    1    2  502    0 -0.46164410475E+02  0.11607780545E+02  0.35387269580E+03  0.35708437462E+03  0.41800000000E+01 0. -1.
         -5    1    1    2    0  502 -0.44392651688E+00 -0.79138460796E+02  0.16700896906E+03  0.18485821917E+03  0.41800000000E+01 0. -1.
        -11    1    3    3    0    0  0.27393929818E+01  0.23237495142E+02  0.11910244448E+03  0.12137906630E+03  0.00000000000E+00 0.  1.
         11    1    3    3    0    0  0.43868944010E+02  0.44293185109E+02  0.23999534291E+02  0.66800809440E+02  0.00000000000E+00 0. -1.
</event>
<event>
 7    1  0.9764604E-006  0.1753356E+03  0.7561462E-02  0.1172395E+00
         -2   -1    0    0    0  501 -0.00000000000E+00  0.00000000000E+00  0.30238557239E+02  0.30238557239E+02  0.00000000000E+00 0.  1.
          2   -1    0    0  501    0  0.00000000000E+00 -0.00000000000E+00 -0.11693182580E+04  0.11693182580E+04  0.00000000000E+00 0. -1.
         23    2    1    2    0    0 -0.94288945316E+02 -0.10598108605E+03 -0.72502615293E+03  0.74435325928E+03  0.90975031514E+02 0.  0.
          5    1    1    2  502    0  0.85534006056E+02  0.13294587992E+03 -0.32103811310E+03  0.35787374260E+03  0.41800000000E+01 0.  1.
         -5    1    1    2    0  502  0.87549392603E+01 -0.26964793875E+02 -0.93015434724E+02  0.97329813352E+02  0.41800000000E+01 0.  1.
        -11    1    3    3    0    0 -0.72165019016E+02 -0.11828398424E+03 -0.66367199557E+03  0.67798186451E+03  0.00000000000E+00 0. -1.
         11    1    3    3    0    0 -0.22123926300E+02  0.12302898188E+02 -0.61354157362E+02  0.66371394775E+02  0.00000000000E+00 0.  1.
</event>
<event>
 7    1  0.6584658E-006  0.1261068E+03  0.7561462E-02  0.1233350E+00
          1   -1    0    0  501    0  0.00000000000E+00  0.00000000000E+00  0.75021460816E+02  0.75021460816E+02  0.00000000000E+00 0. -1.
         -1   -1    0    0    0  501 -0.00000000000E+00 -0.00000000000E+00 -0.43411979570E+03  0.43411979570E+03  0.00000000000E+00 0.  1.
         23    2    1    2    0    0 -0.54273898222E+02  0.10497320533E+03 -0.46979164490E+02  0.15272778934E+03  0.84579583074E+02 0.  0.
          5    1    1    2  502    0  0.55142027763E+02 -0.99292503793E+02 -0.12417356215E+03  0.16833356906E+03  0.41800000000E+01 0.  1.
         -5    1    1    2    0  502 -0.86812954135E+00 -0.56807015402E+01 -0.18794560825E+03  0.18807989812E+03  0.41800000000E+01 0.  1.
        -11    1    3    3    0    0 -0.20396430807E+02 -0.77563762166E+00 -0.35687708477E+02  0.41112389127E+02  0.00000000000E+00 0.  1.
         11    1    3    3    0    0 -0.33877467415E+02  0.10574884296E+03 -0.11291456013E+02  0.11161540021E+03  0.00000000000E+00 0. -1.
</event>
<event>
 7    1  0.6584658E-006  0.1681752E+03  0.7561462E-02  0.1179764E+00
         -2   -1    0    0    0  501 -0.00000000000E+00  0.00000000000E+00  0.38572154485E+02  0.38572154485E+02  0.00000000000E+00 0.  1.
          2   -1    0    0  501    0  0.00000000000E+00 -0.00000000000E+00 -0.90515023540E+03  0.90515023540E+03  0.00000000000E+00 0. -1.
         23    2    1    2    0    0 -0.14368694575E+03  0.43574145830E+02 -0.36064960861E+03  0.40136287366E+03  0.92083503423E+02 0.  0.
          5    1    1    2  502    0  0.77058250932E+02  0.55699081559E+01 -0.91992579299E+02  0.12020442987E+03  0.41800000000E+01 0. -1.
         -5    1    1    2    0  502  0.66628694816E+02 -0.49144053986E+02 -0.41393589300E+03  0.42215508635E+03  0.41800000000E+01 0. -1.
        -11    1    3    3    0    0 -0.50891679307E+02  0.63290808338E+02 -0.16131964247E+03  0.18060929237E+03  0.00000000000E+00 0.  1.
         11    1    3    3    0    0 -0.92795266440E+02 -0.19716662508E+02 -0.19932996614E+03  0.22075358129E+03  0.00000000000E+00 0. -1.
</event>
<event>
 7    1  0.6584658E-006  0.1622639E+03  0.7561462E-02  0.1186164E+00
         -2   -1    0    0    0  501 -0.00000000000E+00  0.00000000000E+00  0.10642179668E+03  0.10642179668E+03  0.00000000000E+00 0.  1.
          2   -1    0    0  501    0  0.00000000000E+00 -0.00000000000E+00 -0.26534290867E+03  0.26534290867E+03  0.00000000000E+00 0. -1.
         23    2    1    2    0    0  0.10121968261E+03 -0.67296531671E+02 -0.11654317158E+03  0.19226807876E+03  0.92792542505E+02 0.  0.
          5    1    1    2  502    0 -0.12764364890E+03  0.37363153215E+02 -0.41332968128E+02  0.13933697635E+03  0.41800000000E+01 0. -1.
         -5    1    1    2    0  502  0.26423966292E+02  0.29933378456E+02 -0.10449722697E+01  0.40159650240E+02  0.41800000000E+01 0. -1.
        -11    1    3    3    0    0  0.40323893134E+02 -0.79562550795E+02 -0.82150234561E+02  0.12126366680E+03  0.00000000000E+00 0. -1.
         11    1    3    3    0    0  0.60895789479E+02  0.12266019124E+02 -0.34392937022E+02  0.71004411964E+02  0.00000000000E+00 0.  1.
</event>
<event>
 7    1  0.1205702E-005  0.1343232E+03  0.7561462E-02  0.1221178E+00
          3   -1    0    0  501    0  0.00000000000E+00  0.00000000000E+00  0.71837561627E+03  0.71837561627E+03  0.00000000000E+00 0. -1.
         -3   -1    0    0    0  501 -0.00000000000E+00 -0.00000000000E+00 -0.33125358731E+02  0.33125358731E+02  0.00000000000E+00 0.  1.
         23    2    1    2    0    0  0.10813863633E+03  0.51059697505E+01  0.33348329795E+03  0.36277563198E+03  0.93139752812E+02 0.  0.
          5    1    1    2  502    0 -0.11528572311E+03 -0.10799185379E+02  0.16461166588E+03  0.20130050497E+03  0.41800000000E+01 0. -1.
         -5    1    1    2    0  502  0.71470867803E+01  0.56932156285E+01  0.18715529371E+03  0.18742483805E+03  0.41800000000E+01 0. -1.
        -11    1    3    3    0    0  0.43378899429E+02  0.48276240024E+02  0.15766015600E+03  0.17049647814E+03  0.00000000000E+00 0. -1.
         11    1    3    3    0    0  0.64759736902E+02 -0.43170270273E+02  0.17582314194E+03  0.19227915384E+03  0.00000000000E+00 0.  1.
</event>
<event>
 7    1  0.6584658E-006  0.1004380E+03  0.7561462E-02  0.1279378E+00
         -2   -1    0    0    0  501 -0.00000000000E+00  0.00000000000E+00  0.36329545511E+02  0.36329545511E+02  0.00000000000E+00 0.  1.
          2   -1    0    0  501    0  0.00000000000E+00 -0.00000000000E+00 -0.34714337039E+03  0.34714337039E+03  0.00000000000E+00 0. -1.
         23    2    1    2    0    0  0.26069389469E+02  0.10238276217E+02 -0.13861859364E+03  0.16882356805E+03  0.92205462202E+02 0.  0.
          5    1    1    2  502    0  0.17883748806E+02 -0.54083219919E+02 -0.12198419439E+03  0.13469387228E+03  0.41800000000E+01 0.  1.
         -5    1    1    2    0  502 -0.43953138275E+02  0.43844943702E+02 -0.50211036850E+02  0.79955475573E+02  0.41800000000E+01 0.  1.
        -11    1    3    3    0    0  0.47920289961E+02  0.26070146072E+02 -0.12919755766E+03  0.14024270252E+03  0.00000000000E+00 0.  1.
         11    1    3    3    0    0 -0.21850900492E+02 -0.15831869855E+02 -0.94210359811E+01  0.28580865528E+02  0.00000000000E+00 0. -1.
</event>
<event>
 7    1  0.6584658E-006  0.1168577E+03  0.7561462E-02  0.1248373E+00
         -2   -1    0    0    0  501 -0.00000000000E+00  0.00000000000E+00  0.25428906560E+03  0.25428906560E+03  0.00000000000E+00 0.  1.
          2   -1    0    0  501    0  0.00000000000E+00 -0.00000000000E+00 -0.12504671670E+03  0.12504671670E+03  0.00000000000E+00 0. -1.
         23    2    1    2    0    0  0.51731850626E+02  0.78201346551E+02 -0.52101242892E+02  0.13991150863E+03  0.89827923081E+02 0.  0.
          5    1    1    2  502    0  0.23888475067E+02 -0.35055388001E+02  0.52621889958E+01  0.42950000023E+02  0.41800000000E+01 0. -1.
         -5    1    1    2    0  502 -0.75620325693E+02 -0.43145958550E+02  0.17608140280E+03  0.19647427365E+03  0.41800000000E+01 0. -1.
        -11    1    3    3    0    0  0.42494727007E+02  0.83199007467E+02 -0.71639854598E+02  0.11772911889E+03  0.00000000000E+00 0. -1.
         11    1    3    3    0    0  0.92371236188E+01 -0.49976609161E+01  0.19538611706E+02  0.22182389745E+02  0.00000000000E+00 0.  1.
</event>
<event>
 7    1  0.1492730E-005  0.2047430E+03  0.7561462E-02  0.1145798E+00
         -2   -1    0    0    0  501 -0.00000000000E+00  0.00000000000E+00  0.37918242271E+02  0.37918242271E+02  0.00000000000E+00 0.  1.
          2   -1    0    0  501    0  0.00000000000E+00 -0.00000000000E+00 -0.13793740122E+04  0.13793740122E+04  0.00000000000E+00 0. -1.
         23    2    1    2    0    0 -0.50907883349E+02 -0.18537888008E+03 -0.83698600009E+03  0.86313120448E+03  0.86561943346E+02 0.  0.
          5    1    1    2  502    0  0.34816726552E+02  0.92079006719E+01 -0.27742757636E+02  0.45652194732E+02  0.41800000000E+01 0.  1.
         -5    1    1    2    0  502  0.16091156797E+02  0.17617097941E+03 -0.47672701221E+03  0.50850885526E+03  0.41800000000E+01 0.  1.
        -11    1    3    3    0    0  0.18154106756E+01 -0.62972654520E+02 -0.14006601832E+03  0.15358170601E+03  0.00000000000E+00 0.  1.
         11    1    3    3    0    0 -0.52723294025E+02 -0.12240622556E+03 -0.69691998177E+03  0.70954949847E+03  0.00000000000E+00 0. -1.
</event>
<event>
 7    1  0.6584658E-006  0.1058806E+03  0.7561462E-02  0.1268394E+00
          2   -1    0    0  501    0  0.00000000000E+00  0.00000000000E+00  0.84606044878E+02  0.84606044878E+02  0.00000000000E+00 0. -1.
         -2   -1    0    0    0  501 -0.00000000000E+00 -0.00000000000E+00 -0.15611385841E+03  0.15611385841E+03  0.00000000000E+00 0.  1.
         23    2    1    2    0    0 -0.13798993562E+02 -0.90870306945E+01  0.30139820662E+01  0.94175077598E+02  0.92665391612E+02 0.  0.
          5    1    1    2  502    0 -0.49488206096E+02 -0.11666023310E+02 -0.67995641156E+01  0.51467320841E+02  0.41800000000E+01 0.  1.
         -5    1    1    2    0  502  0.63287199658E+02  0.20753054005E+02 -0.67722231481E+02  0.95077504846E+02  0.41800000000E+01 0.  1.
        -11    1    3    3    0    0 -0.38797091042E+02  0.29010649120E+02 -0.78160369157E+00  0.48450417336E+02  0.00000000000E+00 0.  1.
         11    1    3    3    0    0  0.24998097480E+02 -0.38097679814E+02  0.37955857578E+01  0.45724660262E+02  0.00000000000E+00 0. -1.
</event>
<event>
 7    1  0.6584658E-006  0.1022435E+03  0.7561462E-02  0.1275648E+00
         -1   -1    0    0    0  501 -0.00000000000E+00  0.00000000000E+00  0.33114599106E+02  0.33114599106E+02  0.00000000000E+00 0.  1.
          1   -1    0    0  501    0  0.00000000000E+00 -0.00000000000E+00 -0.44884436462E+03  0.44884436462E+03  0.00000000000E+00 0. -1.
         23    2    1    2    0    0  0.51024088024E+02  0.16695989467E+02 -0.22856507158E+03  0.25052711086E+03  0.87404963857E+02 0.  0.
          5    1    1    2  502    0  0.25052444689E+02  0.17322966511E+01  0.31058638006E+01  0.25646532447E+02  0.41800000000E+01 0. -1.
         -5    1    1    2    0  502 -0.76076532714E+02 -0.18428286118E+02 -0.19027055773E+03  0.20578532041E+03  0.41800000000E+01 0. -1.
        -11    1    3    3    0    0  0.48678753887E+02 -0.27817071000E+02 -0.10277978909E+03  0.11707730594E+03  0.00000000000E+00 0.  1.
         11    1    3    3    0    0  0.23453341375E+01  0.44513060467E+02 -0.12578528249E+03  0.13344980493E+03  0.00000000000E+00 0. -1.
</event>
<event>
 7    1  0.6584658E-006  0.1041853E+03  0.7561462E-02  0.1271733E+00
         -2   -1    0    0    0  501 -0.00000000000E+00  0.00000000000E+00  0.88970067201E+02  0.88970067201E+02  0.00000000000E+00 0.  1.
          2   -1    0    0  501    0  0.00000000000E+00 -0.00000000000E+00 -0.17738594437E+03  0.17738594437E+03  0.00000000000E+00 0. -1.
         23    2    1    2    0    0  0.51817115111E+02 -0.17138200325E+02 -0.71368289185E+02  0.12877754820E+03  0.92257752460E+02 0.  0.
          5    1    1    2  502    0  0.34827571229E+02 -0.24271629338E+01  0.20890635328E+02  0.40899167254E+02  0.41800000000E+01 0. -1.
         -5    1    1    2    0  502 -0.86644686340E+02  0.19565363259E+02 -0.37938223310E+02  0.96679296121E+02  0.41800000000E+01 0. -1.
        -11    1    3    3    0    0 -0.19800761439E+00  0.20234500202E+02  0.12092240064E+02  0.23573215207E+02  0.00000000000E+00 0.  1.
         11    1    3    3    0    0  0.52015122726E+02 -0.37372700528E+02 -0.83460529249E+02  0.10520433299E+03  0.00000000000E+00 0. -1.
</event>
<event>
 7    1  0.6584658E-006  0.1116914E+03  0.7561462E-02  0.1257469E+00
         -2   -1    0    0    0  501 -0.00000000000E+00  0.00000000000E+00  0.33769588571E+02  0.33769588571E+02  0.00000000000E+00 0.  1.
          2   -1    0    0  501    0  0.00000000000E+00 -0.00000000000E+00 -0.53861742230E+03  0.53861742230E+03  0.00000000000E+00 0. -1.
         23    2    1    2    0    0  0.22557897286E+02 -0.27148949851E+02 -0.37896248477E+03  0.39144265895E+03  0.91481507272E+02 0.  0.
          5    1    1    2  502    0 -0.67392901350E+02  0.40041009107E+02 -0.54504703033E+02  0.95568408040E+02  0.41800000000E+01 0. -1.
         -5    1    1    2    0  502  0.44835004063E+02 -0.12892059256E+02 -0.71380645921E+02  0.85375943880E+02  0.41800000000E+01 0. -1.
        -11    1    3    3    0    0 -0.31614724735E+02 -0.30283806572E+02 -0.16607993885E+03  0.17175315382E+03  0.00000000000E+00 0.  1.
         11    1    3    3    0    0  0.54172622022E+02  0.31348567209E+01 -0.21288254593E+03  0.21968950513E+03  0.00000000000E+00 0. -1.
</event>
<event>
 7    1  0.6584658E-006  0.1100706E+03  0.7561462E-02  0.1260439E+00
          1   -1    0    0  501    0  0.00000000000E+00  0.00000000000E+00  0.83711980807E+02  0.83711980807E+02  0.00000000000E+00 0. -1.
         -1   -1    0    0    0  501 -0.00000000000E+00 -0.00000000000E+00 -0.23891987358E+03  0.23891987358E+03  0.00000000000E+00 0.  1.
         23    2    1    2    0    0 -0.18452261167E+02  0.88582481690E+02 -0.64355513840E+02  0.14349537087E+03  0.90895254522E+02 0.  0.
          5    1    1    2  502    0 -0.11947808903E+01 -0.13605297718E+02  0.31301938200E+02  0.34406618004E+02  0.41800000000E+01 0.  1.
         -5    1    1    2    0  502  0.19647042058E+02 -0.74977183972E+02 -0.12215431714E+03  0.14472986552E+03  0.41800000000E+01 0.  1.
        -11    1    3    3    0    0 -0.24764488392E+02 -0.11956704512E+02 -0.14786348257E+02  0.31223048584E+02  0.00000000000E+00 0.  1.
         11    1    3    3    0    0  0.63122272249E+01  0.10053918620E+03 -0.49569165583E+02  0.11227232228E+03  0.00000000000E+00 0. -1.
</event>
<event>
 7    1  0.6584658E-006  0.9351582E+02  0.7561462E-02  0.1294554E+00
         -1   -1    0    0    0  501 -0.00000000000E+00  0.00000000000E+00  0.13383642936E+04  0.13383642936E+04  0.00000000000E+00 0.  1.
          1   -1    0    0  501    0  0.00000000000E+00 -0.00000000000E+00 -0.10828172410E+02  0.10828172410E+02  0.00000000000E+00 0. -1.
         23    2    1    2    0    0  0.26937101666E+02 -0.92032581127E+01  0.33056957177E+03  0.34400608119E+03  0.90849516844E+02 0.  0.
          5    1    1    2  502    0 -0.34902095843E+02  0.47419665357E+02  0.23819900252E+03  0.24540378595E+03  0.41800000000E+01 0. -1.
         -5    1    1    2    0  502  0.79649941769E+01 -0.38216407245E+02  0.75876754692E+03  0.75978259889E+03  0.41800000000E+01 0. -1.
        -11    1    3    3    0    0 -0.27622793066E+02  0.12119811001E+02  0.17875047016E+03  0.18127779538E+03  0.00000000000E+00 0.  1.
         11    1    3    3    0    0  0.54559894732E+02 -0.21323069113E+02  0.15181910161E+03  0.16272828581E+03  0.00000000000E+00 0. -1.
</event>
<event>
 7    1  0.6584658E-006  0.1412023E+03  0.7561462E-02  0.1211720E+00
         -1   -1    0    0    0  501 -0.00000000000E+00  0.00000000000E+00  0.12505028222E+03  0.12505028222E+03  0.00000000000E+00 0.  1.
          1   -1    0    0  501    0  0.00000000000E+00 -0.00000000000E+00 -0.24327550714E+03  0.24327550714E+03  0.00000000000E+00 0. -1.
         23    2    1    2    0    0 -0.10024445451E+03  0.81787066588E+02 -0.10272887118E+03  0.18769890588E+03  0.89104339805E+02 0.  0.
          5    1    1    2  502    0  0.35016801105E+02 -0.20680352622E+02  0.53717194484E+02  0.67504538569E+02  0.41800000000E+01 0.  1.
         -5    1    1    2    0  502  0.65227653406E+02 -0.61106713966E+02 -0.69213548220E+02  0.11312234491E+03  0.41800000000E+01 0.  1.
        -11    1    3    3    0    0 -0.19439660247E+02  0.67173919574E+02 -0.23984927284E+02  0.73929105218E+02  0.00000000000E+00 0.  1.
         11    1    3    3    0    0 -0.80804794264E+02  0.14613147014E+02 -0.78743943897E+02  0.11376980066E+03  0.00000000000E+00 0. -1.
</event>
<event>
 7    1  0.6584658E-006  0.1029114E+03  0.7561462E-02  0.1274290E+00
         -1   -1    0    0    0  501 -0.00000000000E+00  0.00000000000E+00  0.22832821045E+02  0.22832821045E+02  0.00000000000E+00 0.  1.
          1   -1    0    0  501    0  0.00000000000E+00 -0.00000000000E+00 -0.58735416665E+03  0.58735416665E+03  0.00000000000E+00 0. -1.
         23    2    1    2    0    0 -0.40839360240E+02 -0.12046625327E+02 -0.26124473149E+03  0.27937445747E+03  0.89377308231E+02 0.  0.
          5    1    1    2  502    0  0.68762814739E+02  0.47579985471E+02 -0.16093215936E+03  0.18140786097E+03  0.41800000000E+01 0.  1.
         -5    1    1    2    0  502 -0.27923454500E+02 -0.35533360144E+02 -0.14234445476E+03  0.14940466926E+03  0.41800000000E+01 0.  1.
        -11    1    3    3    0    0  0.15828531781E+02 -0.12299712872E+02 -0.11145964669E+02  0.22935951767E+02  0.00000000000E+00 0.  1.
         11    1    3    3    0    0 -0.56667892021E+02  0.25308754500E+00 -0.25009876682E+03  0.25643850570E+03  0.00000000000E+00 0. -1.
</event>
<event>
 7    1  0.6584658E-006  0.1692503E+03  0.7561462E-02  0.1178632E+00
         -2   -1    0    0    0  501 -0.00000000000E+00  0.00000000000E+00  0.16956226400E+03  0.16956226400E+03  0.00000000000E+00 0.  1.
          2   -1    0    0  501    0  0.00000000000E+00 -0.00000000000E+00 -0.24161262601E+03  0.24161262601E+03  0.00000000000E+00 0. -1.
         23    2    1    2    0    0  0.95844097993E+02 -0.11039004745E+03 -0.12396022887E+03  0.21189606585E+03  0.90342408003E+02 0.  0.
          5    1    1    2  502    0  0.25079558033E+02  0.28547514825E+02  0.35700459873E+02  0.52306214439E+02  0.41800000000E+01 0. -1.
         -5    1    1    2    0  502 -0.12092365603E+03  0.81842532627E+02  0.16209406985E+02  0.14697260972E+03  0.41800000000E+01 0. -1.
        -11    1    3    3    0    0  0.54811116278E+02 -0.26657367761E+02 -0.55840394438E+01  0.61205026101E+02  0.00000000000E+00 0.  1.
         11    1    3    3    0    0  0.41032981715E+02 -0.83732679692E+02 -0.11837618943E+03  0.15069103975E+03  0.00000000000E+00 0. -1.
</event>
<event>
 7    1  0.6584658E-006  0.1176436E+03  0.7561462E-02  0.1247036E+00
          1   -1    0    0  501    0  0.00000000000E+00  0.00000000000E+00  0.43680162989E+03  0.43680162989E+03  0.00000000000E+00 0. -1.
         -1   -1    0    0    0  501 -0.00000000000E+00 -0.00000000000E+00 -0.34800544714E+02  0.34800544714E+02  0.00000000000E+00 0.  1.
         23    2    1    2    0    0  0.63359979596E+02 -0.14951811894E+01  0.17970001250E+03  0.20876048112E+03  0.85276734228E+02 0.  0.
          5    1    1    2  502    0  0.30245387639E+02  0.16180323227E+02  0.21310699124E+02  0.40598086536E+02  0.41800000000E+01 0.  1.
         -5    1    1    2    0  502 -0.93605367235E+02 -0.14685142038E+02  0.20099037355E+03  0.22224360695E+03  0.41800000000E+01 0.  1.
        -11    1    3    3    0    0 -0.17465828603E+02 -0.16100674038E+02  0.33480289355E+02  0.41051390336E+02  0.00000000000E+00 0.  1.
         11    1    3    3    0    0  0.80825808198E+02  0.14605492849E+02  0.14621972315E+03  0.16770909078E+03  0.00000000000E+00 0. -1.
</event>
<event>
 7    1  0.6584658E-006  0.1249518E+03  0.7561462E-02  0.1235145E+00
         -1   -1    0    0    0  501 -0.00000000000E+00  0.00000000000E+00  0.16380332629E+02  0.16380332629E+02  0.00000000000E+00 0. -1.
          1   -1    0    0  501    0  0.00000000000E+00 -0.00000000000E+00 -0.12705666037E+04  0.12705666037E+04  0.00000000000E+00 0.  1.
         23    2    1    2    0    0  0.92757361514E+02  0.98260654586E+01 -0.66888761606E+03  0.68120645924E+03  0.89056821871E+02 0.  0.
          5    1    1    2  502    0 -0.37813799690E+02  0.37028241134E+02 -0.44245193748E+03  0.44562558664E+03  0.41800000000E+01 0. -1.
         -5    1    1    2    0  502 -0.54943561825E+02 -0.46854306592E+02 -0.14284671753E+03  0.16011489044E+03  0.41800000000E+01 0. -1.
        -11    1    3    3    0    0 -0.10066515268E+02 -0.15598127067E+02 -0.50309871215E+02  0.53625734860E+02  0.00000000000E+00 0. -1.
         11    1    3    3    0    0  0.10282387678E+03  0.25424192525E+02 -0.61857774484E+03  0.62758072438E+03  0.00000000000E+00 0.  1.
</event>
<event>
 7    1  0.6584658E-006  0.1324490E+03  0.7561462E-02  0.1223866E+00
         -3   -1    0    0    0  501 -0.00000000000E+00  0.00000000000E+00  0.33106846108E+02  0.33106846108E+02  0.00000000000E+00 0.  1.
          3   -1    0    0  501    0  0.00000000000E+00 -0.00000000000E+00 -0.71417583978E+03  0.71417583978E+03  0.00000000000E+00 0. -1.
         23    2    1    2    0    0 -0.86574949778E+02 -0.17957974443E+02 -0.47386024134E+03  0.48960667710E+03  0.85752312898E+02 0.  0.
          5    1    1    2  502    0  0.21192565784E+02  0.62297189976E+02 -0.53913049397E+02  0.85171321574E+02  0.41800000000E+01 0. -1.
         -5    1    1    2    0  502  0.65382383995E+02 -0.44339215533E+02 -0.15329570294E+03  0.17250468722E+03  0.41800000000E+01 0. -1.
        -11    1    3    3    0    0 -0.24034977598E+02 -0.45545553706E+02 -0.14946786672E+03  0.15809086245E+03  0.00000000000E+00 0. -1.
         11    1    3    3    0    0 -0.62539972181E+02  0.27587579263E+02 -0.32439237462E+03  0.33151581465E+03  0.00000000000E+00 0.  1.
</event>
<event>
 7    1  0.6584658E-006  0.7213327E+02  0.7561462E-02  0.1352985E+00
          1   -1    0    0  501    0  0.00000000000E+00  0.00000000000E+00  0.14219790960E+03  0.14219790960E+03  0.00000000000E+00 0. -1.
         -1   -1    0    0    0  501 -0.00000000000E+00 -0.00000000000E+00 -0.95756755285E+02  0.95756755285E+02  0.00000000000E+00 0.  1.
         23    2    1    2    0    0  0.35614378285E+02  0.25142487712E+02  0.37031634435E+02  0.10515191411E+03  0.88232955658E+02 0.  0.
          5    1    1    2  502    0 -0.27786227719E+02 -0.44193940214E+02  0.59031392406E+02  0.78913601438E+02  0.41800000000E+01 0. -1.
         -5    1    1    2    0  502 -0.78281505660E+01  0.19051452501E+02 -0.49621872522E+02  0.53889149337E+02  0.41800000000E+01 0. -1.
        -11    1    3    3    0    0  0.35325635377E+02 -0.92252601712E+01  0.55272459151E+02  0.66242363187E+02  0.00000000000E+00 0. -1.
         11    1    3    3    0    0  0.28874290730E+00  0.34367747883E+02 -0.18240824716E+02  0.38909550927E+02  0.00000000000E+00 0.  1.
</event>
<event>
 7    1  0.6584658E-006  0.1289994E+03  0.7561462E-02  0.1228948E+00
          1   -1    0    0  501    0  0.00000000000E+00  0.00000000000E+00  0.69013172196E+02  0.69013172196E+02  0.00000000000E+00 0. -1.
         -1   -1    0    0    0  501 -0.00000000000E+00 -0.00000000000E+00 -0.33413189529E+03  0.33413189529E+03  0.00000000000E+00 0.  1.
         23    2    1    2    0    0 -0.45949839557E+02 -0.78946613399E+02 -0.55965916546E+02  0.14288357839E+03  0.94549339700E+02 0.  0.
          5    1    1    2  502    0  0.72569697672E+02  0.40573301965E+02 -0.19379980395E+03  0.21092271159E+03  0.41800000000E+01 0.  1.
         -5    1    1    2    0  502 -0.26619858115E+02  0.38373311434E+02 -0.15353002596E+02  0.49338777500E+02  0.41800000000E+01 0.  1.
        -11    1    3    3    0    0  0.21297941441E+02 -0.50572187094E+02 -0.77779285369E+01  0.55422419555E+02  0.00000000000E+00 0. -1.
         11    1    3    3    0    0 -0.67247780997E+02 -0.28374426305E+02 -0.48187988009E+02  0.87461158840E+02  0.00000000000E+00 0.  1.
</event>
<event>
 7    1  0.6584658E-006  0.1145707E+03  0.7561462E-02  0.1252332E+00
         -2   -1    0    0    0  501 -0.00000000000E+00  0.00000000000E+00  0.62692968743E+02  0.62692968743E+02  0.00000000000E+00 0.  1.
          2   -1    0    0  501    0  0.00000000000E+00 -0.00000000000E+00 -0.26463566703E+03  0.26463566703E+03  0.00000000000E+00 0. -1.
         23    2    1    2    0    0  0.40512725718E+02  0.52326273189E+02 -0.11678674839E+03  0.16216576116E+03  0.90990492267E+02 0.  0.
          5    1    1    2  502    0  0.31819047279E+02  0.19257724017E+02 -0.36530981253E+02  0.52300064009E+02  0.41800000000E+01 0. -1.
         -5    1    1    2    0  502 -0.72331772997E+02 -0.71583997206E+02 -0.48624968638E+02  0.11286281060E+03  0.41800000000E+01 0. -1.
        -11    1    3    3    0    0  0.48926208772E+02  0.60720031524E+02 -0.46308982429E+02  0.90692987528E+02  0.00000000000E+00 0.  1.
         11    1    3    3    0    0 -0.84134830542E+01 -0.83937583356E+01 -0.70477765963E+02  0.71472773637E+02  0.00000000000E+00 0. -1.
</event>
<event>
 7    1  0.6584658E-006  0.1952961E+03  0.7561462E-02  0.1153769E+00
         -1   -1    0    0    0  501 -0.00000000000E+00  0.00000000000E+00  0.42583877468E+03  0.42583877468E+03  0.00000000000E+00 0.  1.
          1   -1    0    0  501    0  0.00000000000E+00 -0.00000000000E+00 -0.95728268592E+02  0.95728268592E+02  0.00000000000E+00 0. -1.
         23    2    1    2    0    0  0.32870207572E+02  0.16539574119E+03  0.13379638272E+03  0.23412131433E+03  0.92060393463E+02 0.  0.
          5    1    1    2  502    0  0.26919299301E+02 -0.14323087141E+03  0.12974563928E+03  0.19516950200E+03  0.41800000000E+01 0.  1.
         -5    1    1    2    0  502 -0.59789506873E+02 -0.22164869779E+02  0.66568484093E+02  0.92276226944E+02  0.41800000000E+01 0.  1.
        -11    1    3    3    0    0  0.41749792718E+02  0.49932141437E+02  0.88310193420E+02  0.10970393886E+03  0.00000000000E+00 0.  1.
         11    1    3    3    0    0 -0.88795851461E+01  0.11546359975E+03  0.45486189297E+02  0.12441737546E+03  0.00000000000E+00 0. -1.
</event>
<event>
 7    1  0.6584658E-006  0.1112496E+03  0.7561462E-02  0.1258273E+00
         -1   -1    0    0    0  501 -0.00000000000E+00  0.00000000000E+00  0.45771028083E+02  0.45771028083E+02  0.00000000000E+00 0.  1.
          1   -1    0    0  501    0  0.00000000000E+00 -0.00000000000E+00 -0.53526648087E+03  0.53526648087E+03  0.00000000000E+00 0. -1.
         23    2    1    2    0    0 -0.47552621400E+02 -0.25810472077E+02 -0.40939462647E+03  0.42295391165E+03  0.91425482935E+02 0.  0.
          5    1    1    2  502    0 -0.33048954111E+02  0.10703486551E+02  0.97918231615E+01  0.36333871154E+02  0.41800000000E+01 0. -1.
         -5    1    1    2    0  502  0.80601575511E+02  0.15106985526E+02 -0.89892649484E+02  0.12174972615E+03  0.41800000000E+01 0. -1.
        -11    1    3    3    0    0 -0.31398034696E+02  0.32322712038E+02 -0.14927000735E+03  0.15592347287E+03  0.00000000000E+00 0.  1.
         11    1    3    3    0    0 -0.16154586704E+02 -0.58133184115E+02 -0.26012461911E+03  0.26703043878E+03  0.00000000000E+00 0. -1.
</event>
<event>
 7    1  0.6584658E-006  0.1871791E+03  0.7561462E-02  0.1161030E+00
         -1   -1    0    0    0  501 -0.00000000000E+00  0.00000000000E+00  0.93790878197E+02  0.93790878197E+02  0.00000000000E+00 0.  1.
          1   -1    0    0  501    0  0.00000000000E+00 -0.00000000000E+00 -0.48168821863E+03  0.48168821863E+03  0.00000000000E+00 0. -1.
         23    2    1    2    0    0  0.15044165366E+03  0.10537654623E+03 -0.20981749744E+03  0.29070181450E+03  0.82141676843E+02 0.  0.
          5    1    1    2  502    0 -0.77810356494E+01 -0.10128268143E+02  0.19124924662E+02  0.23374376456E+02  0.41800000000E+01 0.  1.
         -5    1    1    2    0  502 -0.14266061801E+03 -0.95248278091E+02 -0.19720476766E+03  0.26140290587E+03  0.41800000000E+01 0.  1.
        -11    1    3    3    0    0  0.48178741607E+02  0.61323203468E+02 -0.40029173448E+02  0.87658776818E+02  0.00000000000E+00 0.  1.
         11    1    3    3    0    0  0.10226291205E+03  0.44053342766E+02 -0.16978832399E+03  0.20304303769E+03  0.00000000000E+00 0. -1.
</event>
<event>
 7    1  0.6584658E-006  0.7782167E+02  0.7561462E-02  0.1335349E+00
         -1   -1    0    0    0  501 -0.00000000000E+00  0.00000000000E+00  0.49408164006E+03  0.49408164006E+03  0.00000000000E+00 0.  1.
          1   -1    0    0  501    0  0.00000000000E+00 -0.00000000000E+00 -0.33860561400E+02  0.33860561400E+02  0.00000000000E+00 0. -1.
         23    2    1    2    0    0 -0.41849372831E+02 -0.55110093938E+02  0.17453160835E+03  0.20848729513E+03  0.90648648408E+02 0.  0.
          5    1    1    2  502    0 -0.13657525888E+01 -0.58174245659E+01 -0.11155319981E+02  0.13327463097E+02  0.41800000000E+01 0.  1.
         -5    1    1    2    0  502  0.43215125419E+02  0.60927518504E+02  0.29684479029E+03  0.30612744323E+03  0.41800000000E+01 0.  1.
        -11    1    3    3    0    0 -0.60753700333E+01 -0.27997903881E+02  0.15811932748E+03  0.16069385323E+03  0.00000000000E+00 0.  1.
         11    1    3    3    0    0 -0.35774002797E+02 -0.27112190057E+02  0.16412280873E+02  0.47793441907E+02  0.00000000000E+00 0. -1.
</event>
<event>
 7    1  0.6584658E-006  0.2018079E+03  0.7561462E-02  0.1148223E+00
         -1   -1    0    0    0  501 -0.00000000000E+00  0.00000000000E+00  0.12616489160E+03  0.12616489160E+03  0.00000000000E+00 0.  1.
          1   -1    0    0  501    0  0.00000000000E+00 -0.00000000000E+00 -0.56237211156E+03  0.56237211156E+03  0.00000000000E+00 0. -1.
         23    2    1    2    0    0  0.13058177664E+03  0.39079205120E+02 -0.38957850868E+03  0.42616558310E+03  0.10614567881E+03 0.  0.
          5    1    1    2  502    0 -0.14477274408E+03 -0.96417810920E+02 -0.83107586830E+02  0.19282086266E+03  0.41800000000E+01 0. -1.
         -5    1    1    2    0  502  0.14190967437E+02  0.57338605801E+02  0.36478875551E+02  0.69550557391E+02  0.41800000000E+01 0.  1.
        -11    1    3    3    0    0  0.43797709136E+01  0.43896279044E+02 -0.13420653752E+03  0.14127087605E+03  0.00000000000E+00 0.  1.
         11    1    3    3    0    0  0.12620200573E+03 -0.48170739243E+01 -0.25537197116E+03  0.28489470705E+03  0.00000000000E+00 0. -1.
</event>
<event>
 7    1  0.6584658E-006  0.1522084E+03  0.7561462E-02  0.1197785E+00
          2   -1    0    0  501    0  0.00000000000E+00  0.00000000000E+00  0.11094944595E+03  0.11094944595E+03  0.00000000000E+00 0. -1.
         -2   -1    0    0    0  501 -0.00000000000E+00 -0.00000000000E+00 -0.21937625684E+03  0.21937625684E+03  0.00000000000E+00 0.  1.
         23    2    1    2    0    0  0.99246958883E+02  0.39282567094E+02 -0.16324729091E+02  0.14184874150E+03  0.91986356388E+02 0.  0.
          5    1    1    2  502    0  0.42810908512E+01 -0.57930743187E+02 -0.23389341603E+02  0.62760118274E+02  0.41800000000E+01 0.  1.
         -5    1    1    2    0  502 -0.10352804973E+03  0.18648176093E+02 -0.68712740197E+02  0.12571684302E+03  0.41800000000E+01 0.  1.
        -11    1    3    3    0    0 -0.86034080033E+01  0.31629917911E+02 -0.32638392734E+01  0.32941204943E+02  0.00000000000E+00 0.  1.
         11    1    3    3    0    0  0.10785036689E+03  0.76526491838E+01 -0.13060889818E+02  0.10890753656E+03  0.00000000000E+00 0. -1.
</event>
<event>
 7    1  0.6584658E-006  0.3499502E+03  0.7561462E-02  0.1062635E+00
         -2   -1    0    0    0  501 -0.00000000000E+00  0.00000000000E+00  0.26596869403E+03  0.26596869403E+03  0.00000000000E+00 0.  1.
          2   -1    0    0  501    0  0.00000000000E+00 -0.00000000000E+00 -0.64224603650E+03  0.64224603650E+03  0.00000000000E+00 0. -1.
         23    2    1    2    0    0  0.34004482177E+03 -0.45883008352E+02 -0.40675814441E+03  0.54172897425E+03  0.10140198336E+03 0.  0.
          5    1    1    2  502    0 -0.28110867359E+03 -0.90370830843E+00 -0.92414632409E+01  0.28129305021E+03  0.41800000000E+01 0. -1.
         -5    1    1    2    0  502 -0.58936148181E+02  0.46786716660E+02  0.39722265172E+02  0.85192706076E+02  0.41800000000E+01 0. -1.
        -11    1    3    3    0    0  0.11620523280E+03 -0.22176613777E+02 -0.72512256552E+02  0.13875693020E+03  0.00000000000E+00 0. -1.
         11    1    3    3    0    0  0.22383958896E+03 -0.23706394575E+02 -0.33424588785E+03  0.40297204404E+03  0.00000000000E+00 0.  1.
</event>
<event>
 7    1  0.6584658E-006  0.1162636E+03  0.7561462E-02  0.1249391E+00
          1   -1    0    0  501    0  0.00000000000E+00  0.00000000000E+00  0.59994280524E+03  0.59994280524E+03  0.00000000000E+00 0. -1.
         -1   -1    0    0    0  501 -0.00000000000E+00 -0.00000000000E+00 -0.32534891272E+02  0.32534891272E+02  0.00000000000E+00 0.  1.
         23    2    1    2    0    0  0.69979755951E+02  0.44465668908E+02  0.32601849573E+03  0.34823897653E+03  0.90044229464E+02 0.  0.
          5    1    1    2  502    0 -0.85159243608E+02 -0.42782909819E+02  0.24901675145E+03  0.26666325027E+03  0.41800000000E+01 0.  1.
         -5    1    1    2    0  502  0.15179487656E+02 -0.16827590895E+01 -0.76273332113E+01  0.17575469712E+02  0.41800000000E+01 0.  1.
        -11    1    3    3    0    0  0.76720513512E+02  0.40052509906E+00  0.18292697598E+03  0.19836450327E+03  0.00000000000E+00 0. -1.
         11    1    3    3    0    0 -0.67407575610E+01  0.44065143809E+02  0.14309151975E+03  0.14987447326E+03  0.00000000000E+00 0.  1.
</event>
<event>
 7    1  0.7198202E-006  0.1996749E+03  0.7561462E-02  0.1150014E+00
         -2   -1    0    0    0  501 -0.00000000000E+00  0.00000000000E+00  0.56668841790E+03  0.56668841790E+03  0.00000000000E+00 0. -1.
          2   -1    0    0  501    0  0.00000000000E+00 -0.00000000000E+00 -0.82794492956E+02  0.82794492956E+02  0.00000000000E+00 0.  1.
         23    2    1    2    0    0  0.17381635066E+03 -0.77016295255E+01  0.12809239263E+03  0.23413536956E+03  0.90223452454E+02 0.  0.
          5    1    1    2  502    0 -0.17469581110E+03  0.39249086604E+02  0.27166677900E+03  0.32539119292E+03  0.41800000000E+01 0. -1.
         -5    1    1    2    0  502  0.87946044079E+00 -0.31547457078E+02  0.84134753306E+02  0.89956348373E+02  0.41800000000E+01 0. -1.
        -11    1    3    3    0    0  0.66454794172E+02 -0.38399135196E+02  0.21363534926E+02  0.79668901566E+02  0.00000000000E+00 0.  1.
         11    1    3    3    0    0  0.10736155649E+03  0.30697505671E+02  0.10672885771E+03  0.15446646799E+03  0.00000000000E+00 0. -1.
</event>
<event>
 7    1  0.6584658E-006  0.5036701E+02  0.7561462E-02  0.1443372E+00
         -1   -1    0    0    0  501 -0.00000000000E+00  0.00000000000E+00  0.73794248086E+02  0.73794248086E+02  0.00000000000E+00 0.  1.
          1   -1    0    0  501    0  0.00000000000E+00 -0.00000000000E+00 -0.17138520704E+03  0.17138520704E+03  0.00000000000E+00 0. -1.
         23    2    1    2    0    0 -0.21444750142E+02 -0.22358876876E+02 -0.53578996208E+02  0.10899981848E+03  0.89724327306E+02 0.  0.
          5    1    1    2  502    0 -0.33979865203E+00  0.40690742023E+02 -0.80149136532E+02  0.89984489977E+02  0.41800000000E+01 0.  1.
         -5    1    1    2    0  502  0.21784548794E+02 -0.18331865148E+02  0.36137173789E+02  0.46195146665E+02  0.41800000000E+01 0.  1.
        -11    1    3    3    0    0 -0.10538732462E+02 -0.94831954425E+01  0.24940122197E+02  0.28688073705E+02  0.00000000000E+00 0.  1.
         11    1    3    3    0    0 -0.10906017680E+02 -0.12875681433E+02 -0.78519118405E+02  0.80311744776E+02  0.00000000000E+00 0. -1.
</event>
<event>
 7    1  0.6584658E-006  0.8831452E+02  0.7561462E-02  0.1306985E+00
         -2   -1    0    0    0  501 -0.00000000000E+00  0.00000000000E+00  0.30623943477E+02  0.30623943477E+02  0.00000000000E+00 0.  1.
          2   -1    0    0  501    0  0.00000000000E+00 -0.00000000000E+00 -0.44790693662E+03  0.44790693662E+03  0.00000000000E+00 0. -1.
         23    2    1    2    0    0  0.12972186422E+02 -0.18928420089E+02 -0.25861971165E+03  0.27518691825E+03  0.91198256648E+02 0.  0.
          5    1    1    2  502    0 -0.52209511676E+02  0.11372685994E+02 -0.17204718943E+02  0.56290726146E+02  0.41800000000E+01 0. -1.
         -5    1    1    2    0  502  0.39237325254E+02  0.75557340947E+01 -0.14145856255E+03  0.14705323570E+03  0.41800000000E+01 0. -1.
        -11    1    3    3    0    0 -0.25806146495E+02 -0.32743151574E+02 -0.64864419203E+02  0.77106835303E+02  0.00000000000E+00 0.  1.
         11    1    3    3    0    0  0.38778332917E+02  0.13814731485E+02 -0.19375529245E+03  0.19808008295E+03  0.00000000000E+00 0. -1.
</event>
<event>
 7    1  0.6584658E-006  0.1199797E+03  0.7561462E-02  0.1243131E+00
         -2   -1    0    0    0  501 -0.00000000000E+00  0.00000000000E+00  0.45085013584E+02  0.45085013584E+02  0.00000000000E+00 0.  1.
          2   -1    0    0  501    0  0.00000000000E+00 -0.00000000000E+00 -0.38562921437E+03  0.38562921437E+03  0.00000000000E+00 0. -1.
         23    2    1    2    0    0  0.24602926483E+02  0.69769672137E+02 -0.14179324656E+03  0.18449202497E+03  0.91972122769E+02 0.  0.
          5    1    1    2  502    0  0.17056096461E+02  0.30496357613E+02 -0.64838249006E+02  0.73772685923E+02  0.41800000000E+01 0. -1.
         -5    1    1    2    0  502 -0.41659022944E+02 -0.10026602975E+03 -0.13391270522E+03  0.17244951706E+03  0.41800000000E+01 0. -1.
        -11    1    3    3    0    0  0.34737696267E+02  0.10945839131E+02 -0.11201205640E+03  0.11778463276E+03  0.00000000000E+00 0. -1.
         11    1    3    3    0    0 -0.10134769784E+02  0.58823833006E+02 -0.29781190162E+02  0.66707392210E+02  0.00000000000E+00 0.  1.
</event>
<event>
 7    1  0.6584658E-006  0.1076256E+03  0.7561462E-02  0.1265031E+00
          1   -1    0    0  501    0  0.00000000000E+00  0.00000000000E+00  0.46838374169E+02  0.46838374169E+02  0.00000000000E+00 0. -1.
         -1   -1    0    0    0  501 -0.00000000000E+00 -0.00000000000E+00 -0.31242760361E+03  0.31242760361E+03  0.00000000000E+00 0.  1.
         23    2    1    2    0    0 -0.53038682245E+01  0.22062045321E+02 -0.35312507180E+02  0.96221436926E+02  0.86583641058E+02 0.  0.
          5    1    1    2  502    0  0.51542407161E+02 -0.50203996467E+02 -0.14553226319E+03  0.16240127163E+03  0.41800000000E+01 0. -1.
         -5    1    1    2    0  502 -0.46238538936E+02  0.28141951145E+02 -0.84744459071E+02  0.10064326923E+03  0.41800000000E+01 0. -1.
        -11    1    3    3    0    0 -0.41639487885E+02 -0.71709076082E+01 -0.22443083160E+02  0.47843085697E+02  0.00000000000E+00 0.  1.
         11    1    3    3    0    0  0.36335619660E+02  0.29232952930E+02 -0.12869424020E+02  0.48378351230E+02  0.00000000000E+00 0. -1.
</event>
<event>
 7    1  0.6584658E-006  0.1305635E+03  0.7561462E-02  0.1226622E+00
          2   -1    0    0  501    0  0.00000000000E+00  0.00000000000E+00  0.55455438687E+03  0.55455438687E+03  0.00000000000E+00 0. -1.
         -2   -1    0    0    0  501 -0.00000000000E+00 -0.00000000000E+00 -0.37954751694E+02  0.37954751694E+02  0.00000000000E+00 0.  1.
         23    2    1    2    0    0 -0.18010360688E+02 -0.79802893980E+02  0.33519387696E+03  0.35745646718E+03  0.93420103827E+02 0.  0.
          5    1    1    2  502    0  0.13505912532E+02  0.10776151331E+03  0.96121087916E+02  0.14509200311E+03  0.41800000000E+01 0. -1.
         -5    1    1    2    0  502  0.45044481551E+01 -0.27958619329E+02  0.85284670308E+02  0.89960668281E+02  0.41800000000E+01 0. -1.
        -11    1    3    3    0    0  0.12989580010E+02 -0.90191244244E+02  0.23419110080E+03  0.25129397410E+03  0.00000000000E+00 0.  1.
         11    1    3    3    0    0 -0.30999940698E+02  0.10388350263E+02  0.10100277616E+03  0.10616249308E+03  0.00000000000E+00 0. -1.
</event>
<event>
 7    1  0.6584658E-006  0.1173858E+03  0.7561462E-02  0.1247473E+00
         -1   -1    0    0    0  501 -0.00000000000E+00  0.00000000000E+00  0.15732434060E+03  0.15732434060E+03  0.00000000000E+00 0.  1.
          1   -1    0    0  501    0  0.00000000000E+00 -0.00000000000E+00 -0.12129449469E+03  0.12129449469E+03  0.00000000000E+00 0. -1.
         23    2    1    2    0    0  0.48009040812E+02  0.57890210854E+02  0.50450772072E+02  0.13195570818E+03  0.95973350498E+02 0.  0.
          5    1    1    2  502    0 -0.87003375260E+02 -0.38478977699E+02 -0.30583056955E+02  0.10001507288E+03  0.41800000000E+01 0. -1.
         -5    1    1    2    0  502  0.38994334448E+02 -0.19411233155E+02  0.16162130790E+02  0.46648054229E+02  0.41800000000E+01 0. -1.
        -11    1    3    3    0    0  0.36789863634E+02  0.70124200929E+02  0.36387876811E+00  0.79189835396E+02  0.00000000000E+00 0. -1.
         11    1    3    3    0    0  0.11219177177E+02 -0.12233990075E+02  0.50086893304E+02  0.52765872782E+02  0.00000000000E+00 0.  1.
</event>
<event>
 7    1  0.6584658E-006  0.1829483E+03  0.7561462E-02  0.1164980E+00
          1   -1    0    0  501    0  0.00000000000E+00  0.00000000000E+00  0.36658576208E+03  0.36658576208E+03  0.00000000000E+00 0. -1.
         -1   -1    0    0    0  501 -0.00000000000E+00 -0.00000000000E+00 -0.12004057185E+03  0.12004057185E+03  0.00000000000E+00 0.  1.
         23    2    1    2    0    0 -0.12755306405E+03  0.80445582683E+02  0.22961347885E+03  0.28996428359E+03  0.92820580527E+02 0.  0.
          5    1    1    2  502    0 -0.24832288257E+02 -0.19036584292E+02  0.36996641793E+01  0.31783549151E+02  0.41800000000E+01 0. -1.
         -5    1    1    2    0  502  0.15238535231E+03 -0.61408998392E+02  0.13232047202E+02  0.16487850119E+03  0.41800000000E+01 0. -1.
        -11    1    3    3    0    0 -0.13651926863E+03  0.62972590836E+02  0.22356483728E+03  0.26941472561E+03  0.00000000000E+00 0. -1.
         11    1    3    3    0    0  0.89662045808E+01  0.17472991848E+02  0.60486415650E+01  0.20549557987E+02  0.00000000000E+00 0.  1.
</event>
<event>
 7    1  0.6584658E-006  0.1159103E+03  0.7561462E-02  0.1250001E+00
         -2   -1    0    0    0  501 -0.00000000000E+00  0.00000000000E+00  0.29439909820E+02  0.29439909820E+02  0.00000000000E+00 0.  1.
          2   -1    0    0  501    0  0.00000000000E+00 -0.00000000000E+00 -0.66475398683E+03  0.66475398683E+03  0.00000000000E+00 0. -1.
         23    2    1    2    0    0 -0.66126877804E+02 -0.57994938660E+02 -0.24082145620E+03  0.27110202382E+03  0.88120126390E+02 0.  0.
          5    1    1    2  502    0  0.42909662605E+02 -0.16824095586E+01 -0.28946946580E+02  0.51956402523E+02  0.41800000000E+01 0. -1.
         -5    1    1    2    0  502  0.23217215198E+02  0.59677348218E+02 -0.36554567423E+03  0.37113547031E+03  0.41800000000E+01 0. -1.
        -11    1    3    3    0    0 -0.56655787328E+02  0.85422938823E+01 -0.11110988571E+03  0.12501302222E+03  0.00000000000E+00 0.  1.
         11    1    3    3    0    0 -0.94710904758E+01 -0.66537232542E+02 -0.12971157049E+03  0.14608900160E+03  0.00000000000E+00 0. -1.
</event>
<event>
 7    1  0.6584658E-006  0.9020599E+02  0.7561462E-02  0.1302354E+00
         -1   -1    0    0    0  501 -0.00000000000E+00  0.00000000000E+00  0.38515095824E+02  0.38515095824E+02  0.00000000000E+00 0.  1.
          1   -1    0    0  501    0  0.00000000000E+00 -0.00000000000E+00 -0.67368842876E+03  0.67368842876E+03  0.00000000000E+00 0. -1.
         23    2    1    2    0    0  0.79075345853E+02  0.16708758794E+02 -0.48619754037E+03  0.50155237771E+03  0.92922797971E+02 0.  0.
          5    1    1    2  502    0 -0.16185927253E+02  0.42375084308E+00 -0.14419479864E+03  0.14516120749E+03  0.41800000000E+01 0. -1.
         -5    1    1    2    0  502 -0.62889418600E+02 -0.17132509637E+02 -0.47809939345E+01  0.65489939390E+02  0.41800000000E+01 0. -1.
        -11    1    3    3    0    0  0.58727860237E+01 -0.16851524544E+02 -0.14397814961E+02  0.22929469483E+02  0.00000000000E+00 0.  1.
         11    1    3    3    0    0  0.73202559830E+02  0.33560283338E+02 -0.47179972540E+03  0.47862290822E+03  0.00000000000E+00 0. -1.
</event>
<event>
 7    1  0.6584658E-006  0.1139521E+03  0.7561462E-02  0.1253421E+00
         -2   -1    0    0    0  501 -0.00000000000E+00  0.00000000000E+00  0.26906994520E+03  0.26906994520E+03  0.00000000000E+00 0.  1.
          2   -1    0    0  501    0  0.00000000000E+00 -0.00000000000E+00 -0.54263821974E+02  0.54263821974E+02  0.00000000000E+00 0. -1.
         23    2    1    2    0    0  0.12714921433E+02  0.46509273229E+02  0.65945975102E+02  0.12300328091E+03  0.91957347493E+02 0.  0.
          5    1    1    2  502    0  0.46152066163E+02  0.45192309334E+01  0.22228095601E+02  0.51594547128E+02  0.41800000000E+01 0.  1.
         -5    1    1    2    0  502 -0.58866987596E+02 -0.51028504163E+02  0.12663205252E+03  0.14873593914E+03  0.41800000000E+01 0.  1.
        -11    1    3    3    0    0  0.43598318799E+02 -0.43599741482E+01  0.22022777153E+02  0.49039020078E+02  0.00000000000E+00 0. -1.
         11    1    3    3    0    0 -0.30883397366E+02  0.50869247377E+02  0.43923197950E+02  0.73964260827E+02  0.00000000000E+00 0.  1.
</event>
<event>
 7    1  0.6584658E-006  0.1021647E+03  0.7561462E-02  0.1275809E+00
         -1   -1    0    0    0  501 -0.00000000000E+00  0.00000000000E+00  0.76384367602E+02  0.76384367602E+02  0.00000000000E+00 0.  1.
          1   -1    0    0  501    0  0.00000000000E+00 -0.00000000000E+00 -0.26374834236E+03  0.26374834236E+03  0.00000000000E+00 0. -1.
         23    2    1    2    0    0 -0.80347103223E+02  0.20374083148E+02 -0.12008863817E+03  0.17568082113E+03  0.97835114533E+02 0.  0.
          5    1    1    2  502    0  0.33459816540E+02  0.31711166190E+02  0.21693269653E+02  0.51119739165E+02  0.41800000000E+01 0.  1.
         -5    1    1    2    0  502  0.46887286683E+02 -0.52085249339E+02 -0.88968606236E+02  0.11333214966E+03  0.41800000000E+01 0.  1.
        -11    1    3    3    0    0 -0.24056024816E+02 -0.72596157255E+01  0.13195724041E+02  0.28381710368E+02  0.00000000000E+00 0.  1.
         11    1    3    3    0    0 -0.56291078407E+02  0.27633698874E+02 -0.13328436221E+03  0.14729911077E+03  0.00000000000E+00 0. -1.
</event>
<event>
 7    1  0.6584658E-006  0.7810549E+02  0.7561462E-02  0.1334515E+00
         -2   -1    0    0    0  501 -0.00000000000E+00  0.00000000000E+00  0.36549573565E+02  0.36549573565E+02  0.00000000000E+00 0. -1.
          2   -1    0    0  501    0  0.00000000000E+00 -0.00000000000E+00 -0.36527043683E+03  0.36527043683E+03  0.00000000000E+00 0.  1.
         23    2    1    2    0    0  0.10981004873E+02 -0.27187620366E+02 -0.20022247353E+03  0.22010054858E+03  0.86576344394E+02 0.  0.
          5    1    1    2  502    0  0.37971592945E+01 -0.33612010265E+02  0.47882102150E+01  0.34417800770E+02  0.41800000000E+01 0. -1.
         -5    1    1    2    0  502 -0.14778164167E+02  0.60799630632E+02 -0.13328659995E+03  0.14730166104E+03  0.41800000000E+01 0. -1.
        -11    1    3    3    0    0  0.17610911193E+02  0.10931062158E+02 -0.53262588515E+01  0.21400966013E+02  0.00000000000E+00 0. -1.
         11    1    3    3    0    0 -0.66299063200E+01 -0.38118682525E+02 -0.19489621468E+03  0.19869958257E+03  0.00000000000E+00 0.  1.
</event>
<event>
 7    1  0.6584658E-006  0.1229383E+03  0.7561462E-02  0.1238327E+00
          2   -1    0    0  501    0  0.00000000000E+00  0.00000000000E+00  0.94694276931E+01  0.94694276931E+01  0.00000000000E+00 0. -1.
         -2   -1    0    0    0  501 -0.00000000000E+00 -0.00000000000E+00 -0.26641147234E+04  0.26641147234E+04  0.00000000000E+00 0.  1.
         23    2    1    2    0    0  0.87933615715E+02 -0.64310773581E+01 -0.57416985986E+03  0.58748779848E+03  0.87733721335E+02 0.  0.
          5    1    1    2  502    0 -0.84959630082E+02 -0.25879474591E+02 -0.75501058081E+03  0.76022781815E+03  0.41800000000E+01 0. -1.
         -5    1    1    2    0  502 -0.29739856328E+01  0.32310551949E+02 -0.13254648550E+04  0.13258685344E+04  0.41800000000E+01 0. -1.
        -11    1    3    3    0    0  0.35526158663E+00  0.29561195866E+02 -0.12537405045E+03  0.12881243355E+03  0.00000000000E+00 0.  1.
         11    1    3    3    0    0  0.87578354128E+02 -0.35992273224E+02 -0.44879580941E+03  0.45867536493E+03  0.00000000000E+00 0. -1.
</event>
<event>
 7    1  0.6584658E-006  0.1167152E+03  0.7561462E-02  0.1248616E+00
         -2   -1    0    0    0  501 -0.00000000000E+00  0.00000000000E+00  0.22814302891E+02  0.22814302891E+02  0.00000000000E+00 0.  1.
          2   -1    0    0  501    0  0.00000000000E+00 -0.00000000000E+00 -0.82534987898E+03  0.82534987898E+03  0.00000000000E+00 0. -1.
         23    2    1    2    0    0 -0.66131847345E+02 -0.36662515810E+02 -0.45833669964E+03  0.47421604895E+03  0.95345527130E+02 0.  0.
          5    1    1    2  502    0 -0.19019563017E+02  0.21803486037E+02 -0.13658518637E+02  0.32267062341E+02  0.41800000000E+01 0. -1.
         -5    1    1    2    0  502  0.85151410362E+02  0.14859029773E+02 -0.33054035781E+03  0.34168107058E+03  0.41800000000E+01 0. -1.
        -11    1    3    3    0    0 -0.83379714838E+02 -0.74222747284E+01 -0.37501142984E+03  0.38424060108E+03  0.00000000000E+00 0.  1.
         11    1    3    3    0    0  0.17247867493E+02 -0.29240241082E+02 -0.83325269803E+02  0.89975447869E+02  0.00000000000E+00 0. -1.
</event>
<event>
 7    1  0.6584658E-006  0.1135882E+03  0.7561462E-02  0.1254066E+00
         -1   -1    0    0    0  501 -0.00000000000E+00  0.00000000000E+00  0.12684065072E+04  0.12684065072E+04  0.00000000000E+00 0.  1.
          1   -1    0    0  501    0  0.00000000000E+00 -0.00000000000E+00 -0.19635953395E+02  0.19635953395E+02  0.00000000000E+00 0. -1.
         23    2    1    2    0    0 -0.18365025711E+02 -0.82590938227E+02  0.25942747247E+03  0.28724000409E+03  0.89697654566E+02 0.  0.
          5    1    1    2  502    0  0.62458863844E+02  0.57287691268E+02  0.38151670098E+03  0.39083942325E+03  0.41800000000E+01 0.  1.
         -5    1    1    2    0  502 -0.44093838133E+02  0.25303246959E+02  0.60782638034E+03  0.60996303323E+03  0.41800000000E+01 0.  1.
        -11    1    3    3    0    0  0.29973890605E+01 -0.60522731898E+02  0.24663195310E+03  0.25396713510E+03  0.00000000000E+00 0.  1.
         11    1    3    3    0    0 -0.21362414771E+02 -0.22068206329E+02  0.12795519361E+02  0.33272868995E+02  0.00000000000E+00 0. -1.
</event>
<event>
 7    1  0.6584658E-006  0.6577154E+02  0.7561462E-02  0.1375093E+00
          2   -1    0    0  501    0  0.00000000000E+00  0.00000000000E+00  0.24197991829E+03  0.24197991829E+03  0.00000000000E+00 0. -1.
         -2   -1    0    0    0  501 -0.00000000000E+00 -0.00000000000E+00 -0.55518876043E+02  0.55518876043E+02  0.00000000000E+00 0.  1.
         23    2    1    2    0    0  0.32509403295E+01  0.12845127528E+02  0.84646351255E+02  0.12607082474E+03  0.92483956207E+02 0.  0.
          5    1    1    2  502    0  0.16939254272E+02  0.14570982434E+02  0.12690676779E+03  0.12892653713E+03  0.41800000000E+01 0. -1.
         -5    1    1    2    0  502 -0.20190194601E+02 -0.27416109962E+02 -0.25092076800E+02  0.42501432466E+02  0.41800000000E+01 0.  1.
        -11    1    3    3    0    0 -0.31535421558E+02 -0.97724117271E+01  0.13855849492E+01  0.33043950875E+02  0.00000000000E+00 0.  1.
         11    1    3    3    0    0  0.34786361887E+02  0.22617539255E+02  0.83260766306E+02  0.93026873865E+02  0.00000000000E+00 0. -1.
</event>
<event>
 7    1  0.6584658E-006  0.1028987E+03  0.7561462E-02  0.1274316E+00
         -1   -1    0    0    0  501 -0.00000000000E+00  0.00000000000E+00  0.23948905048E+02  0.23948905048E+02  0.00000000000E+00 0.  1.
          1   -1    0    0  501    0  0.00000000000E+00 -0.00000000000E+00 -0.56997123995E+03  0.56997123995E+03  0.00000000000E+00 0. -1.
         23    2    1    2    0    0 -0.31505722006E+02  0.19204696437E+02 -0.29135112640E+03  0.30779785428E+03  0.92155354487E+02 0.  0.
          5    1    1    2  502    0  0.91651334884E+01 -0.66014843924E+02 -0.81841580971E+02  0.10562895468E+03  0.41800000000E+01 0.  1.
         -5    1    1    2    0  502  0.22340588518E+02  0.46810147488E+02 -0.17282962754E+03  0.18049333605E+03  0.41800000000E+01 0.  1.
        -11    1    3    3    0    0 -0.13086289486E+02  0.49679085441E+02 -0.23916656490E+03  0.24462197013E+03  0.00000000000E+00 0. -1.
         11    1    3    3    0    0 -0.18419432520E+02 -0.30474389004E+02 -0.52184561498E+02  0.63175884151E+02  0.00000000000E+00 0.  1.
</event>
<event>
 7    1  0.6584658E-006  0.9645527E+02  0.7561462E-02  0.1287932E+00
         -2   -1    0    0    0  501 -0.00000000000E+00  0.00000000000E+00  0.64434976947E+02  0.64434976947E+02  0.00000000000E+00 0.  1.
          2   -1    0    0  501    0  0.00000000000E+00 -0.00000000000E+00 -0.23375995112E+03  0.23375995112E+03  0.00000000000E+00 0. -1.
         23    2    1    2    0    0  0.60897648811E+02  0.25526168314E+02 -0.83748602336E+02  0.13286864363E+03  0.79247329088E+02 0.  0.
          5    1    1    2  502    0  0.11367128340E+02  0.32472320477E+01  0.26222979091E+02  0.29066701826E+02  0.41800000000E+01 0. -1.
         -5    1    1    2    0  502 -0.72264777151E+02 -0.28773400362E+02 -0.11179935092E+03  0.13625958261E+03  0.41800000000E+01 0. -1.
        -11    1    3    3    0    0  0.49756762736E+02  0.53080809490E+02 -0.66124189709E+02  0.98314374527E+02  0.00000000000E+00 0.  1.
         11    1    3    3    0    0  0.11140886075E+02 -0.27554641175E+02 -0.17624412627E+02  0.34554269104E+02  0.00000000000E+00 0. -1.
</event>
<event>
 7    1  0.6584658E-006  0.7451014E+02  0.7561462E-02  0.1345395E+00
          2   -1    0    0  501    0  0.00000000000E+00  0.00000000000E+00  0.21752165752E+02  0.21752165752E+02  0.00000000000E+00 0. -1.
         -2   -1    0    0    0  501 -0.00000000000E+00 -0.00000000000E+00 -0.64192770693E+03  0.64192770693E+03  0.00000000000E+00 0.  1.
         23    2    1    2    0    0  0.10768266026E+02 -0.21584679652E+01 -0.13056364082E+03  0.15976960873E+03  0.91426741331E+02 0.  0.
          5    1    1    2  502    0  0.23765024426E+02  0.11467109548E+01 -0.15896185876E+02  0.28918029971E+02  0.41800000000E+01 0. -1.
         -5    1    1    2    0  502 -0.34533290453E+02  0.10117570104E+01 -0.47371571448E+03  0.47499223398E+03  0.41800000000E+01 0.  1.
        -11    1    3    3    0    0 -0.21531160931E+00 -0.45424360557E+02 -0.82470625578E+02  0.94153188870E+02  0.00000000000E+00 0.  1.
         11    1    3    3    0    0  0.10983577636E+02  0.43265892592E+02 -0.48093015246E+02  0.65616419857E+02  0.00000000000E+00 0. -1.
</event>
<event>
 7    1  0.6584658E-006  0.1334826E+03  0.7561462E-02  0.1222378E+00
         -4   -1    0    0    0  501 -0.00000000000E+00  0.00000000000E+00  0.11317081334E+04  0.11317081334E+04  0.00000000000E+00 0. -1.
          4   -1    0    0  501    0  0.00000000000E+00 -0.00000000000E+00 -0.16386504176E+02  0.16386504176E+02  0.00000000000E+00 0.  1.
         23    2    1    2    0    0  0.15125450161E+02 -0.83961237110E+02  0.45298445432E+03  0.46867140849E+03  0.84733138163E+02 0.  0.
          5    1    1    2  502    0  0.13517657071E+02 -0.28730188831E+02  0.20665312326E+03  0.20911990952E+03  0.41800000000E+01 0.  1.
         -5    1    1    2    0  502 -0.28643107232E+02  0.11269142594E+03  0.45568405164E+03  0.47030331956E+03  0.41800000000E+01 0.  1.
        -11    1    3    3    0    0  0.46908418529E+02 -0.29142095451E+02  0.17275198200E+03  0.18136402273E+03  0.00000000000E+00 0.  1.
         11    1    3    3    0    0 -0.31782968368E+02 -0.54819141659E+02  0.28023247233E+03  0.28730738577E+03  0.00000000000E+00 0. -1.
</event>
<event>
 7    1  0.6584658E-006  0.9963624E+02  0.7561462E-02  0.1281063E+00
         -2   -1    0    0    0  501 -0.00000000000E+00  0.00000000000E+00  0.37525023713E+02  0.37525023713E+02  0.00000000000E+00 0.  1.
          2   -1    0    0  501    0  0.00000000000E+00 -0.00000000000E+00 -0.43438406364E+03  0.43438406364E+03  0.00000000000E+00 0. -1.
         23    2    1    2    0    0  0.31155797339E+02  0.14418699808E+02 -0.28412838340E+03  0.30005792656E+03  0.90151197586E+02 0.  0.
          5    1    1    2  502    0 -0.44944518508E+02 -0.50868305128E+02 -0.19548493385E+02  0.70761643594E+02  0.41800000000E+01 0. -1.
         -5    1    1    2    0  502  0.13788721169E+02  0.36449605320E+02 -0.93182163142E+02  0.10108951720E+03  0.41800000000E+01 0. -1.
        -11    1    3    3    0    0 -0.28553914473E+02  0.15216903874E+02 -0.14654456877E+03  0.15007395121E+03  0.00000000000E+00 0. -1.
         11    1    3    3    0    0  0.59709711812E+02 -0.79820406595E+00 -0.13758381463E+03  0.14998397536E+03  0.00000000000E+00 0.  1.
</event>
<event>
 7    1  0.6584658E-006  0.1151276E+03  0.7561462E-02  0.1251359E+00
         -2   -1    0    0    0  501 -0.00000000000E+00  0.00000000000E+00  0.38921249263E+02  0.38921249263E+02  0.00000000000E+00 0.  1.
          2   -1    0    0  501    0  0.00000000000E+00 -0.00000000000E+00 -0.43821051546E+03  0.43821051546E+03  0.00000000000E+00 0. -1.
         23    2    1    2    0    0 -0.23561005579E+02 -0.67790836455E+02 -0.21417968838E+03  0.24381702779E+03  0.91777369946E+02 0.  0.
          5    1    1    2  502    0 -0.34746125454E+02  0.23168261690E+02 -0.14199217808E+03  0.14806523096E+03  0.41800000000E+01 0. -1.
         -5    1    1    2    0  502  0.58307131033E+02  0.44622574765E+02 -0.43117399731E+02  0.85249505966E+02  0.41800000000E+01 0.  1.
        -11    1    3    3    0    0  0.20388276617E+02  0.11993711375E+02 -0.28811910189E+02  0.37278104897E+02  0.00000000000E+00 0.  1.
         11    1    3    3    0    0 -0.43949282196E+02 -0.79784547829E+02 -0.18536777820E+03  0.20653892290E+03  0.00000000000E+00 0. -1.
</event>
<event>
 7    1  0.6584658E-006  0.1010339E+03  0.7561462E-02  0.1278137E+00
          1   -1    0    0  501    0  0.00000000000E+00  0.00000000000E+00  0.33180125184E+03  0.33180125184E+03  0.00000000000E+00 0. -1.
         -1   -1    0    0    0  501 -0.00000000000E+00 -0.00000000000E+00 -0.48261102163E+02  0.48261102163E+02  0.00000000000E+00 0.  1.
         23    2    1    2    0    0 -0.66699942105E+02 -0.22105788533E+00  0.98217640923E+02  0.14952026611E+03  0.90888249224E+02 0.  0.
          5    1    1    2  502    0 -0.59596392518E+01 -0.37590411216E+02  0.14302593629E+02  0.40872887100E+02  0.41800000000E+01 0. -1.
         -5    1    1    2    0  502  0.72659581356E+02  0.37811469101E+02  0.17101991513E+03  0.18966920079E+03  0.41800000000E+01 0.  1.
        -11    1    3    3    0    0 -0.57495131569E+02  0.18916526868E+02  0.10976542312E+03  0.12534741025E+03  0.00000000000E+00 0. -1.
         11    1    3    3    0    0 -0.92048105359E+01 -0.19137584753E+02 -0.11547782196E+02  0.24172855868E+02  0.00000000000E+00 0.  1.
</event>
<event>
 7    1  0.6584658E-006  0.9408066E+02  0.7561462E-02  0.1293260E+00
          1   -1    0    0  501    0  0.00000000000E+00  0.00000000000E+00  0.84117817617E+02  0.84117817617E+02  0.00000000000E+00 0. -1.
         -1   -1    0    0    0  501 -0.00000000000E+00 -0.00000000000E+00 -0.16929899225E+03  0.16929899225E+03  0.00000000000E+00 0.  1.
         23    2    1    2    0    0 -0.31703543285E+02 -0.53262689758E+00  0.17802724210E+01  0.97805099516E+02  0.92505512123E+02 0.  0.
          5    1    1    2  502    0  0.29278980466E+02  0.40650217966E+02  0.93808041271E+01  0.51138740734E+02  0.41800000000E+01 0.  1.
         -5    1    1    2    0  502  0.24245628192E+01 -0.40117591068E+02 -0.96342251184E+02  0.10447296962E+03  0.41800000000E+01 0.  1.
        -11    1    3    3    0    0 -0.63604804313E+02 -0.95827524148E+01 -0.24919478375E+01  0.64370879127E+02  0.00000000000E+00 0.  1.
         11    1    3    3    0    0  0.31901261028E+02  0.90501255172E+01  0.42722202585E+01  0.33434220389E+02  0.00000000000E+00 0. -1.
</event>
<event>
 7    1  0.6584658E-006  0.9067847E+02  0.7561462E-02  0.1301217E+00
          2   -1    0    0  501    0  0.00000000000E+00  0.00000000000E+00  0.10165092440E+03  0.10165092440E+03  0.00000000000E+00 0. -1.
         -2   -1    0    0    0  501 -0.00000000000E+00 -0.00000000000E+00 -0.14270253774E+03  0.14270253774E+03  0.00000000000E+00 0.  1.
         23    2    1    2    0    0 -0.43259639120E+02  0.27565033338E+02 -0.70766079137E+01  0.10495142446E+03  0.91287982108E+02 0.  0.
          5    1    1    2  502    0  0.35082583507E+02  0.19109125587E+02  0.36567463991E+02  0.54319408768E+02  0.41800000000E+01 0. -1.
         -5    1    1    2    0  502  0.81770556134E+01 -0.46674158925E+02 -0.70542469420E+02  0.85082628908E+02  0.41800000000E+01 0. -1.
        -11    1    3    3    0    0 -0.59798035959E+02  0.40839902429E+02  0.15417629327E+02  0.74036518212E+02  0.00000000000E+00 0.  1.
         11    1    3    3    0    0  0.16538396839E+02 -0.13274869091E+02 -0.22494237241E+02  0.30914906250E+02  0.00000000000E+00 0. -1.
</event>
<event>
 7    1  0.6584658E-006  0.1051775E+03  0.7561462E-02  0.1269770E+00
          2   -1    0    0  501    0  0.00000000000E+00  0.00000000000E+00  0.23574140933E+02  0.23574140933E+02  0.00000000000E+00 0. -1.
         -2   -1    0    0    0  501 -0.00000000000E+00 -0.00000000000E+00 -0.61521456519E+03  0.61521456519E+03  0.00000000000E+00 0.  1.
         23    2    1    2    0    0 -0.31959616229E+02  0.33864442118E+01 -0.15832369416E+03  0.18663311595E+03  0.93448610274E+02 0.  0.
          5    1    1    2  502    0 -0.18802355344E+01 -0.61011974980E+02 -0.17879492781E+03  0.18897379445E+03  0.41800000000E+01 0.  1.
         -5    1    1    2    0  502  0.33839851763E+02  0.57625530769E+02 -0.25452180228E+03  0.26318179572E+03  0.41800000000E+01 0.  1.
        -11    1    3    3    0    0 -0.35050457200E+02 -0.31539180076E+02 -0.35830337796E+02  0.59220499292E+02  0.00000000000E+00 0. -1.
         11    1    3    3    0    0  0.30908409713E+01  0.34925624288E+02 -0.12249335636E+03  0.12741261666E+03  0.00000000000E+00 0.  1.
</event>
<event>
 7    1  0.6584658E-006  0.1056980E+03  0.7561462E-02  0.1268750E+00
         -4   -1    0    0    0  501 -0.00000000000E+00  0.00000000000E+00  0.13846041534E+03  0.13846041534E+03  0.00000000000E+00 0.  1.
          4   -1    0    0  501    0  0.00000000000E+00 -0.00000000000E+00 -0.87885111798E+02  0.87885111798E+02  0.00000000000E+00 0. -1.
         23    2    1    2    0    0 -0.26717758525E+01  0.51023791191E+00  0.84188868243E+01  0.94314149575E+02  0.93898255712E+02 0.  0.
          5    1    1    2  502    0  0.32079089132E+02 -0.51756900969E+02  0.39575046551E+02  0.72742707311E+02  0.41800000000E+01 0.  1.
         -5    1    1    2    0  502 -0.29407313279E+02  0.51246663057E+02  0.25813701697E+01  0.59288670256E+02  0.41800000000E+01 0.  1.
        -11    1    3    3    0    0 -0.45121792123E+02  0.12859405617E+02  0.15769063163E+02  0.49497512970E+02  0.00000000000E+00 0.  1.
         11    1    3    3    0    0  0.42450016270E+02 -0.12349167705E+02 -0.73501763385E+01  0.44816636605E+02  0.00000000000E+00 0. -1.
</event>
<event>
 7    1  0.6584658E-006  0.1540269E+03  0.7561462E-02  0.1195610E+00
         -1   -1    0    0    0  501 -0.00000000000E+00  0.00000000000E+00  0.50324364959E+02  0.50324364959E+02  0.00000000000E+00 0.  1.
          1   -1    0    0  501    0  0.00000000000E+00 -0.00000000000E+00 -0.58765592510E+03  0.58765592510E+03  0.00000000000E+00 0. -1.
         23    2    1    2    0    0  0.47069907996E+02 -0.12482629964E+03 -0.23604441271E+03  0.28553621282E+03  0.89536488317E+02 0.  0.
          5    1    1    2  502    0 -0.63058307961E+02  0.42959254079E+02 -0.60137061994E+02  0.97240867639E+02  0.41800000000E+01 0.  1.
         -5    1    1    2    0  502  0.15988399965E+02  0.81867045562E+02 -0.24115008544E+03  0.25520320960E+03  0.41800000000E+01 0.  1.
        -11    1    3    3    0    0  0.40808855533E+02 -0.24499832624E+02 -0.29958375913E+02  0.56241521813E+02  0.00000000000E+00 0.  1.
         11    1    3    3    0    0  0.62610524628E+01 -0.10032646702E+03 -0.20608603679E+03  0.22929469101E+03  0.00000000000E+00 0. -1.
</event>
<event>
 7    1  0.6584658E-006  0.7806289E+02  0.7561462E-02  0.1334640E+00
         -2   -1    0    0    0  501 -0.00000000000E+00  0.00000000000E+00  0.64555766470E+02  0.64555766470E+02  0.00000000000E+00 0.  1.
          2   -1    0    0  501    0  0.00000000000E+00 -0.00000000000E+00 -0.18689317336E+03  0.18689317336E+03  0.00000000000E+00 0. -1.
         23    2    1    2    0    0  0.13150309403E+01  0.18915788448E+02 -0.83837820928E+02  0.11920198978E+03  0.82588121363E+02 0.  0.
          5    1    1    2  502    0 -0.22919041362E+02 -0.68170316604E+02 -0.16000462484E+02  0.73796759567E+02  0.41800000000E+01 0.  1.
         -5    1    1    2    0  502  0.21604010422E+02  0.49254528156E+02 -0.22499123474E+02  0.58450190481E+02  0.41800000000E+01 0.  1.
        -11    1    3    3    0    0  0.11642144439E+02  0.46722626723E+01  0.14574282982E+02  0.19229646124E+02  0.00000000000E+00 0.  1.
         11    1    3    3    0    0 -0.10327113499E+02  0.14243525776E+02 -0.98412103910E+02  0.99972343654E+02  0.00000000000E+00 0. -1.
</event>
<event>
 7    1  0.6584658E-006  0.1128465E+03  0.7561462E-02  0.1255388E+00
          1   -1    0    0  501    0  0.00000000000E+00  0.00000000000E+00  0.24600236969E+03  0.24600236969E+03  0.00000000000E+00 0. -1.
         -1   -1    0    0    0  501 -0.00000000000E+00 -0.00000000000E+00 -0.64345259406E+02  0.64345259406E+02  0.00000000000E+00 0.  1.
         23    2    1    2    0    0  0.81004797709E+01  0.52706411121E+02  0.12392517318E+03  0.16261610122E+03  0.90790772005E+02 0.  0.
          5    1    1    2  502    0  0.23579390477E+01  0.34153805187E+02 -0.11210774964E+02  0.36265633327E+02  0.41800000000E+01 0. -1.
         -5    1    1    2    0  502 -0.10458418819E+02 -0.86860216309E+02  0.68942712065E+02  0.11146589455E+03  0.41800000000E+01 0. -1.
        -11    1    3    3    0    0  0.41961300495E+02  0.12023638500E+01  0.36380958438E+02  0.55549712465E+02  0.00000000000E+00 0. -1.
         11    1    3    3    0    0 -0.33860820724E+02  0.51504047271E+02  0.87544214745E+02  0.10706638875E+03  0.00000000000E+00 0.  1.
</event>
<event>
 7    1  0.6584658E-006  0.4349198E+03  0.7561462E-02  0.1032317E+00
         -2   -1    0    0    0  501 -0.00000000000E+00  0.00000000000E+00  0.94050318752E+02  0.94050318752E+02  0.00000000000E+00 0.  1.
          2   -1    0    0  501    0  0.00000000000E+00 -0.00000000000E+00 -0.21792865155E+04  0.21792865155E+04  0.00000000000E+00 0. -1.
         23    2    1    2    0    0 -0.33178162607E+03 -0.26612566920E+03 -0.13178465283E+04  0.13870895435E+04  0.79975060907E+02 0.  0.
          5    1    1    2  502    0  0.26069217983E+03  0.13467314274E+03 -0.52554834084E+03  0.60192673886E+03  0.41800000000E+01 0. -1.
         -5    1    1    2    0  502  0.71089446239E+02  0.13145252647E+03 -0.24184132764E+03  0.28432055190E+03  0.41800000000E+01 0. -1.
        -11    1    3    3    0    0 -0.23545145694E+03 -0.20937730522E+03 -0.86349211015E+03  0.91918162993E+03  0.00000000000E+00 0.  1.
         11    1    3    3    0    0 -0.96330169134E+02 -0.56748363986E+02 -0.45435441813E+03  0.46790791356E+03  0.00000000000E+00 0. -1.
</event>
<event>
 7    1  0.6584658E-006  0.1042456E+03  0.7561462E-02  0.1271613E+00
          3   -1    0    0  501    0  0.00000000000E+00  0.00000000000E+00  0.10134226034E+03  0.10134226034E+03  0.00000000000E+00 0. -1.
         -3   -1    0    0    0  501 -0.00000000000E+00 -0.00000000000E+00 -0.15414012715E+03  0.15414012715E+03  0.00000000000E+00 0.  1.
         23    2    1    2    0    0 -0.47610197664E+01 -0.28460254240E+02  0.33145809356E+02  0.10099402306E+03  0.90931263247E+02 0.  0.
          5    1    1    2  502    0  0.23107346793E+02  0.69464093916E+02 -0.22617089656E+02  0.76734705081E+02  0.41800000000E+01 0. -1.
         -5    1    1    2    0  502 -0.18346327027E+02 -0.41003839676E+02 -0.63326586509E+02  0.77753659351E+02  0.41800000000E+01 0. -1.
        -11    1    3    3    0    0  0.21724429963E+02 -0.50896521277E+02  0.36774421925E+01  0.55461070278E+02  0.00000000000E+00 0.  1.
         11    1    3    3    0    0 -0.26485449729E+02  0.22436267037E+02  0.29468367163E+02  0.45532952783E+02  0.00000000000E+00 0. -1.
</event>
<event>
 7    1  0.6584658E-006  0.1123584E+03  0.7561462E-02  0.1256264E+00
          1   -1    0    0  501    0  0.00000000000E+00  0.00000000000E+00  0.12122398574E+04  0.12122398574E+04  0.00000000000E+00 0. -1.
         -1   -1    0    0    0  501 -0.00000000000E+00 -0.00000000000E+00 -0.14753910833E+02  0.14753910833E+02  0.00000000000E+00 0.  1.
         23    2    1    2    0    0 -0.71014172986E+02  0.25972249362E+02  0.49760516612E+03  0.51201282053E+03  0.93960930909E+02 0.  0.
          5    1    1    2  502    0  0.20574744443E+02 -0.54447626998E+02  0.13434774121E+03  0.14647406652E+03  0.41800000000E+01 0. -1.
         -5    1    1    2    0  502  0.50439428543E+02  0.28475377636E+02  0.56553303925E+03  0.56850688120E+03  0.41800000000E+01 0. -1.
        -11    1    3    3    0    0 -0.57560141455E+02  0.52906573389E+02  0.44121876805E+03  0.44809181723E+03  0.00000000000E+00 0. -1.
         11    1    3    3    0    0 -0.13454031532E+02 -0.26934324027E+02  0.56386398068E+02  0.63921003296E+02  0.00000000000E+00 0.  1.
</event>
<event>
 7    1  0.6584658E-006  0.8756161E+02  0.7561462E-02  0.1308866E+00
         -2   -1    0    0    0  501 -0.00000000000E+00  0.00000000000E+00  0.23999553481E+03  0.23999553481E+03  0.00000000000E+00 0.  1.
          2   -1    0    0  501    0  0.00000000000E+00 -0.00000000000E+00 -0.66112555561E+02  0.66112555561E+02  0.00000000000E+00 0. -1.
         23    2    1    2    0    0  0.31520556321E+02 -0.45299765419E+02  0.56195206642E+02  0.12571012227E+03  0.97977136990E+02 0.  0.
          5    1    1    2  502    0  0.27085982762E+02  0.49164852510E+02  0.93029849142E+01  0.57051302464E+02  0.41800000000E+01 0.  1.
         -5    1    1    2    0  502 -0.58606539083E+02 -0.38650870916E+01  0.10838478769E+03  0.12334666564E+03  0.41800000000E+01 0.  1.
        -11    1    3    3    0    0  0.32656947301E+02 -0.29183181680E+02  0.83324971614E+02  0.94133868477E+02  0.00000000000E+00 0.  1.
         11    1    3    3    0    0 -0.11363909799E+01 -0.16116583738E+02 -0.27129764972E+02  0.31576253788E+02  0.00000000000E+00 0. -1.
</event>
<event>
 7    1  0.6584658E-006  0.9600965E+02  0.7561462E-02  0.1288918E+00
          1   -1    0    0  501    0  0.00000000000E+00  0.00000000000E+00  0.13231763153E+03  0.13231763153E+03  0.00000000000E+00 0. -1.
         -1   -1    0    0    0  501 -0.00000000000E+00 -0.00000000000E+00 -0.10141226658E+03  0.10141226658E+03  0.00000000000E+00 0.  1.
         23    2    1    2    0    0  0.34837792174E+02  0.48611403645E+01  0.42430658410E+02  0.10329472640E+03  0.87362104371E+02 0.  0.
          5    1    1    2  502    0  0.24414311469E+01  0.55945295971E+02  0.70979891213E+01  0.56601153495E+02  0.41800000000E+01 0.  1.
         -5    1    1    2    0  502 -0.37279223321E+02 -0.60806436336E+02 -0.18623282577E+02  0.73834018211E+02  0.41800000000E+01 0.  1.
        -11    1    3    3    0    0  0.10237148544E+02  0.28511107184E+02  0.58269198516E+02  0.65673297000E+02  0.00000000000E+00 0.  1.
         11    1    3    3    0    0  0.24600643629E+02 -0.23649966820E+02 -0.15838540106E+02  0.37621429402E+02  0.00000000000E+00 0. -1.
</event>
<event>
 7    1  0.6584658E-006  0.2340254E+03  0.7561462E-02  0.1123838E+00
          1   -1    0    0  501    0  0.00000000000E+00  0.00000000000E+00  0.79334301884E+02  0.79334301884E+02  0.00000000000E+00 0. -1.
         -1   -1    0    0    0  501 -0.00000000000E+00 -0.00000000000E+00 -0.78935540858E+03  0.78935540858E+03  0.00000000000E+00 0.  1.
         23    2    1    2    0    0 -0.39005908656E+01  0.22122838728E+03 -0.27232173687E+03  0.36254200014E+03  0.91216004870E+02 0.  0.
          5    1    1    2  502    0  0.53096635003E+01 -0.22495994167E+03 -0.44388638784E+03  0.49768239429E+03  0.41800000000E+01 0.  1.
         -5    1    1    2    0  502 -0.14090726347E+01  0.37315543885E+01  0.61870180052E+01  0.84653160391E+01  0.41800000000E+01 0.  1.
        -11    1    3    3    0    0 -0.44686131684E+02  0.10916664153E+03 -0.11138095946E+03  0.16223416446E+03  0.00000000000E+00 0. -1.
         11    1    3    3    0    0  0.40785540819E+02  0.11206174575E+03 -0.16094077741E+03  0.20030783568E+03  0.00000000000E+00 0.  1.
</event>
<event>
 7    1  0.6584658E-006  0.9131990E+02  0.7561462E-02  0.1299686E+00
          2   -1    0    0  501    0  0.00000000000E+00  0.00000000000E+00  0.64942178657E+03  0.64942178657E+03  0.00000000000E+00 0. -1.
         -2   -1    0    0    0  501 -0.00000000000E+00 -0.00000000000E+00 -0.22749294133E+02  0.22749294133E+02  0.00000000000E+00 0.  1.
         23    2    1    2    0    0  0.48351701101E+02 -0.18611847651E+02  0.28832688819E+03  0.30774109790E+03  0.94275664991E+02 0.  0.
          5    1    1    2  502    0 -0.31717384629E+02 -0.22009655608E+02  0.30907556872E+03  0.31150537235E+03  0.41800000000E+01 0.  1.
         -5    1    1    2    0  502 -0.16634316471E+02  0.40621503259E+02  0.29270035528E+02  0.52924610450E+02  0.41800000000E+01 0.  1.
        -11    1    3    3    0    0 -0.23544935664E+02  0.49414820426E+01  0.29406674399E+02  0.37993877657E+02  0.00000000000E+00 0. -1.
         11    1    3    3    0    0  0.71896636765E+02 -0.23553329693E+02  0.25892021379E+03  0.26974722024E+03  0.00000000000E+00 0.  1.
</event>
<event>
 7    1  0.6584658E-006  0.1055097E+03  0.7561462E-02  0.1269119E+00
         -2   -1    0    0    0  501 -0.00000000000E+00  0.00000000000E+00  0.50101425846E+02  0.50101425846E+02  0.00000000000E+00 0.  1.
          2   -1    0    0  501    0  0.00000000000E+00 -0.00000000000E+00 -0.31327503815E+03  0.31327503815E+03  0.00000000000E+00 0. -1.
         23    2    1    2    0    0  0.45093953324E+02  0.29123237619E+02 -0.16130355851E+03  0.19335182206E+03  0.92111136721E+02 0.  0.
          5    1    1    2  502    0 -0.29825375073E+02 -0.76794366194E+02 -0.44336533801E+02  0.93648963192E+02  0.41800000000E+01 0.  1.
         -5    1    1    2    0  502 -0.15268578251E+02  0.47671128575E+02 -0.57533519987E+02  0.76375678744E+02  0.41800000000E+01 0.  1.
        -11    1    3    3    0    0 -0.11721484980E+02  0.16263106638E+02  0.18292888005E+01  0.20130279312E+02  0.00000000000E+00 0.  1.
         11    1    3    3    0    0  0.56815438304E+02  0.12860130981E+02 -0.16313284731E+03  0.17322154275E+03  0.00000000000E+00 0. -1.
</event>
<event>
 7    1  0.6584658E-006  0.8942527E+02  0.7561462E-02  0.1304249E+00
         -3   -1    0    0    0  501 -0.00000000000E+00  0.00000000000E+00  0.12210229255E+03  0.12210229255E+03  0.00000000000E+00 0.  1.
          3   -1    0    0  501    0  0.00000000000E+00 -0.00000000000E+00 -0.11296251068E+03  0.11296251068E+03  0.00000000000E+00 0. -1.
         23    2    1    2    0    0  0.14951543467E+02  0.43240989808E+02  0.12266298040E+02  0.10183124645E+03  0.90143268382E+02 0.  0.
          5    1    1    2  502    0 -0.10823139181E+02 -0.64999240595E+02  0.45128030590E+02  0.79975328474E+02  0.41800000000E+01 0.  1.
         -5    1    1    2    0  502 -0.41284042858E+01  0.21758250787E+02 -0.48254546760E+02  0.53258228306E+02  0.41800000000E+01 0.  1.
        -11    1    3    3    0    0 -0.23860495005E+02 -0.87430148431E+01  0.25079335393E+02  0.35703453533E+02  0.00000000000E+00 0.  1.
         11    1    3    3    0    0  0.38812038472E+02  0.51984004651E+02 -0.12813037354E+02  0.66127792917E+02  0.00000000000E+00 0. -1.
</event>
<event>
 7    1  0.6584658E-006  0.1203074E+03  0.7561462E-02  0.1242591E+00
          2   -1    0    0  501    0  0.00000000000E+00  0.00000000000E+00  0.47593049745E+03  0.47593049745E+03  0.00000000000E+00 0. -1.
         -2   -1    0    0    0  501 -0.00000000000E+00 -0.00000000000E+00 -0.71599934221E+02  0.71599934221E+02  0.00000000000E+00 0.  1.
         23    2    1    2    0    0  0.26725676899E+02  0.47167150865E+02  0.13037688925E+03  0.16721760395E+03  0.89580086481E+02 0.  0.
          5    1    1    2  502    0  0.37825673416E+02  0.22167350407E+02  0.28174750863E+03  0.28516890436E+03  0.41800000000E+01 0. -1.
         -5    1    1    2    0  502 -0.64551350315E+02 -0.69334501272E+02 -0.77938346521E+01  0.95143923362E+02  0.41800000000E+01 0.  1.
        -11    1    3    3    0    0 -0.16852736194E+02  0.54954513750E+02  0.53606721548E+02  0.78598307195E+02  0.00000000000E+00 0.  1.
         11    1    3    3    0    0  0.43578413094E+02 -0.77873628855E+01  0.76770167701E+02  0.88619296755E+02  0.00000000000E+00 0. -1.
</event>
<event>
 7    1  0.6584658E-006  0.9742745E+02  0.7561462E-02  0.1285801E+00
         -1   -1    0    0    0  501 -0.00000000000E+00  0.00000000000E+00  0.16097979909E+03  0.16097979909E+03  0.00000000000E+00 0.  1.
          1   -1    0    0  501    0  0.00000000000E+00 -0.00000000000E+00 -0.10569912550E+03  0.10569912550E+03  0.00000000000E+00 0. -1.
         23    2    1    2    0    0  0.37785114563E+02  0.31015642738E+02 -0.30535429124E+02  0.10730006238E+03  0.90505281493E+02 0.  0.
          5    1    1    2  502    0 -0.52647869842E+02 -0.71856433217E+02  0.46253074931E+02  0.10045877032E+03  0.41800000000E+01 0.  1.
         -5    1    1    2    0  502  0.14862755280E+02  0.40840790479E+02  0.39563027777E+02  0.58920091890E+02  0.41800000000E+01 0.  1.
        -11    1    3    3    0    0  0.10530872841E+02 -0.88285613714E+01  0.28141543592E+02  0.31317555052E+02  0.00000000000E+00 0.  1.
         11    1    3    3    0    0  0.27254241722E+02  0.39844204110E+02 -0.58676972716E+02  0.75982507330E+02  0.00000000000E+00 0. -1.
</event>
<event>
 7    1  0.6584658E-006  0.1264539E+03  0.7561462E-02  0.1232814E+00
          1   -1    0    0  501    0  0.00000000000E+00  0.00000000000E+00  0.16360640967E+03  0.16360640967E+03  0.00000000000E+00 0. -1.
         -1   -1    0    0    0  501 -0.00000000000E+00 -0.00000000000E+00 -0.11374309214E+03  0.11374309214E+03  0.00000000000E+00 0.  1.
         23    2    1    2    0    0 -0.77890380705E+02  0.77684210205E+01  0.44538538795E+02  0.12969087944E+03  0.93320860472E+02 0.  0.
          5    1    1    2  502    0 -0.19791596398E+02  0.21659587547E+02  0.30467994573E+02  0.42504307005E+02  0.41800000000E+01 0. -1.
         -5    1    1    2    0  502  0.97681977103E+02 -0.29428008568E+02 -0.25143215840E+02  0.10515431537E+03  0.41800000000E+01 0. -1.
        -11    1    3    3    0    0 -0.43679458471E+01 -0.35560118473E+02  0.19310439802E+02  0.40700049903E+02  0.00000000000E+00 0. -1.
         11    1    3    3    0    0 -0.73522434858E+02  0.43328539494E+02  0.25228098993E+02  0.88990829533E+02  0.00000000000E+00 0.  1.
</event>
<event>
 7    1  0.6584658E-006  0.1675825E+03  0.7561462E-02  0.1180393E+00
         -2   -1    0    0    0  501 -0.00000000000E+00  0.00000000000E+00  0.41783736483E+02  0.41783736483E+02  0.00000000000E+00 0.  1.
          2   -1    0    0  501    0  0.00000000000E+00 -0.00000000000E+00 -0.92085648249E+03  0.92085648249E+03  0.00000000000E+00 0. -1.
         23    2    1    2    0    0  0.13331103233E+03  0.69156267348E+02 -0.58597272904E+03  0.61034867974E+03  0.81283768525E+02 0.  0.
          5    1    1    2  502    0 -0.66576784234E+02 -0.71113324237E+02 -0.71760521670E+02  0.12106451980E+03  0.41800000000E+01 0. -1.
         -5    1    1    2    0  502 -0.66734248095E+02  0.19570568894E+01 -0.22133949529E+03  0.23122701944E+03  0.41800000000E+01 0. -1.
        -11    1    3    3    0    0  0.10766060607E+02  0.44477577992E+02 -0.15683037080E+03  0.16337052430E+03  0.00000000000E+00 0.  1.
         11    1    3    3    0    0  0.12254497172E+03  0.24678689356E+02 -0.42914235824E+03  0.44697815544E+03  0.00000000000E+00 0. -1.
</event>
<event>
 7    1  0.6584658E-006  0.9378491E+02  0.7561462E-02  0.1293936E+00
          1   -1    0    0  501    0  0.00000000000E+00  0.00000000000E+00  0.27252634806E+02  0.27252634806E+02  0.00000000000E+00 0. -1.
         -1   -1    0    0    0  501 -0.00000000000E+00 -0.00000000000E+00 -0.67450378836E+03  0.67450378836E+03  0.00000000000E+00 0.  1.
         23    2    1    2    0    0 -0.59451354944E+02  0.39466260342E+02 -0.18879108228E+03  0.22120768681E+03  0.90546776000E+02 0.  0.
          5    1    1    2  502    0  0.55983219312E+02 -0.23781156750E+02 -0.74665567125E+02  0.96395454120E+02  0.41800000000E+01 0.  1.
         -5    1    1    2    0  502  0.34681356321E+01 -0.15685103592E+02 -0.38379450415E+03  0.38415328224E+03  0.41800000000E+01 0.  1.
        -11    1    3    3    0    0  0.18365546920E+02 -0.66673675557E+01 -0.65075998894E+02  0.67945807345E+02  0.00000000000E+00 0.  1.
         11    1    3    3    0    0 -0.77816901864E+02  0.46133627898E+02 -0.12371508339E+03  0.15326187946E+03  0.00000000000E+00 0. -1.
</event>
<event>
 7    1  0.6584658E-006  0.1127851E+03  0.7561462E-02  0.1255498E+00
          1   -1    0    0  501    0  0.00000000000E+00  0.00000000000E+00  0.20892247308E+03  0.20892247308E+03  0.00000000000E+00 0. -1.
         -1   -1    0    0    0  501 -0.00000000000E+00 -0.00000000000E+00 -0.64704489091E+02  0.64704489091E+02  0.00000000000E+00 0.  1.
         23    2    1    2    0    0  0.19957010822E+02  0.33115349363E+02  0.83139204789E+02  0.12915007279E+03  0.90954413219E+02 0.  0.
          5    1    1    2  502    0 -0.72641361297E+02 -0.11197379815E+02  0.31584122294E+02  0.80107289724E+02  0.41800000000E+01 0.  1.
         -5    1    1    2    0  502  0.52684350475E+02 -0.21917969549E+02  0.29494656905E+02  0.64369599658E+02  0.41800000000E+01 0.  1.
        -11    1    3    3    0    0 -0.17540621732E+02  0.50460663304E+02  0.64705585797E+02  0.83909265192E+02  0.00000000000E+00 0. -1.
         11    1    3    3    0    0  0.37497632554E+02 -0.17345313941E+02  0.18433618992E+02  0.45240807597E+02  0.00000000000E+00 0.  1.
</event>
<event>
 7    1  0.6584658E-006  0.1697987E+03  0.7561462E-02  0.1178058E+00
         -1   -1    0    0    0  501 -0.00000000000E+00  0.00000000000E+00  0.14173724307E+03  0.14173724307E+03  0.00000000000E+00 0.  1.
          1   -1    0    0  501    0  0.00000000000E+00 -0.00000000000E+00 -0.21900170522E+03  0.21900170522E+03  0.00000000000E+00 0. -1.
         23    2    1    2    0    0  0.10640575386E+03  0.87506153252E+02 -0.35681051613E+02  0.17006892504E+03  0.93117079574E+02 0.  0.
          5    1    1    2  502    0 -0.24809979665E+02 -0.91594728747E+02  0.74773910282E+01  0.95281232159E+02  0.41800000000E+01 0.  1.
         -5    1    1    2    0  502 -0.81595774190E+02  0.40885754951E+01 -0.49060801565E+02  0.95388791089E+02  0.41800000000E+01 0.  1.
        -11    1    3    3    0    0  0.98793668418E+02  0.27820656751E+02 -0.39030280886E+02  0.10980683352E+03  0.00000000000E+00 0. -1.
         11    1    3    3    0    0  0.76120854373E+01  0.59685496501E+02  0.33492292733E+01  0.60262091517E+02  0.00000000000E+00 0.  1.
</event>
<event>
 6    1  0.6584658E-006  0.1788046E+03  0.7561462E-02  0.1168965E+00
         -1   -1    0    0    0  501 -0.00000000000E+00  0.00000000000E+00  0.10596510964E+03  0.10596510964E+03  0.00000000000E+00 0.  1.
          1   -1    0    0  501    0  0.00000000000E+00 -0.00000000000E+00 -0.33276244775E+03  0.33276244775E+03  0.00000000000E+00 0. -1.
          5    1    1    2  502    0  0.19664194245E+02 -0.86476410441E+02 -0.58665817358E+01  0.88976060147E+02  0.41800000000E+01 0. -1.
         -5    1    1    2    0  502 -0.78976271686E+02 -0.28947912958E+02 -0.57956864813E+02  0.10223357439E+03  0.41800000000E+01 0. -1.
        -11    1    1    2    0    0  0.96307277006E+02  0.47779226264E+02 -0.11104415128E+03  0.15455985766E+03  0.00000000000E+00 0. -1.
         11    1    1    2    0    0 -0.36995199566E+02  0.67645097135E+02 -0.51929740291E+02  0.92958065191E+02  0.00000000000E+00 0.  1.
</event>
<event>
 7    1  0.6584658E-006  0.1217639E+03  0.7561462E-02  0.1240215E+00
          1   -1    0    0  501    0  0.00000000000E+00  0.00000000000E+00  0.29833247846E+03  0.29833247846E+03  0.00000000000E+00 0. -1.
         -1   -1    0    0    0  501 -0.00000000000E+00 -0.00000000000E+00 -0.75336196703E+02  0.75336196703E+02  0.00000000000E+00 0.  1.
         23    2    1    2    0    0  0.78274883369E+02  0.62872701866E+02  0.13021362587E+03  0.18836448230E+03  0.91900249318E+02 0.  0.
          5    1    1    2  502    0 -0.94983070612E+02 -0.71534612095E+02  0.10804329996E+03  0.16071655639E+03  0.41800000000E+01 0.  1.
         -5    1    1    2    0  502  0.16708187243E+02  0.86619102290E+01 -0.15260644073E+02  0.24587636472E+02  0.41800000000E+01 0.  1.
        -11    1    3    3    0    0  0.66470744295E+02  0.35272139198E+02  0.25530826148E+02  0.79462612180E+02  0.00000000000E+00 0.  1.
         11    1    3    3    0    0  0.11804139074E+02  0.27600562668E+02  0.10468279972E+03  0.10890187012E+03  0.00000000000E+00 0. -1.
</event>
<event>
 7    1  0.6584658E-006  0.1597216E+03  0.7561462E-02  0.1189011E+00
         -1   -1    0    0    0  501 -0.00000000000E+00  0.00000000000E+00  0.13084546513E+03  0.13084546513E+03  0.00000000000E+00 0.  1.
          1   -1    0    0  501    0  0.00000000000E+00 -0.00000000000E+00 -0.22270235467E+03  0.22270235467E+03  0.00000000000E+00 0. -1.
         23    2    1    2    0    0 -0.10717355534E+03  0.69863742098E+02 -0.77284636211E+02  0.17402648183E+03  0.89135783835E+02 0.  0.
          5    1    1    2  502    0  0.61488957078E+02 -0.10386583003E+03 -0.78095799865E+00  0.12077700438E+03  0.41800000000E+01 0.  1.
         -5    1    1    2    0  502  0.45684598263E+02  0.34002087932E+02 -0.13791295336E+02  0.58744333593E+02  0.41800000000E+01 0.  1.
        -11    1    3    3    0    0 -0.49535500404E+01  0.32276959573E+02 -0.53296128999E+02  0.62504536984E+02  0.00000000000E+00 0.  1.
         11    1    3    3    0    0 -0.10222000530E+03  0.37586782525E+02 -0.23988507212E+02  0.11152194485E+03  0.00000000000E+00 0. -1.
</event>
<event>
 7    1  0.6584658E-006  0.1301929E+03  0.7561462E-02  0.1227170E+00
          2   -1    0    0  501    0  0.00000000000E+00  0.00000000000E+00  0.44296593884E+03  0.44296593884E+03  0.00000000000E+00 0.  1.
         -2   -1    0    0    0  501 -0.00000000000E+00 -0.00000000000E+00 -0.41000808254E+02  0.41000808254E+02  0.00000000000E+00 0. -1.
         23    2    1    2    0    0  0.71686009892E+02  0.27668048345E+02  0.22318588543E+03  0.25263183008E+03  0.90036088341E+02 0.  0.
          5    1    1    2  502    0  0.32668598507E+02 -0.21082970651E+02  0.29289177411E+02  0.48857520335E+02  0.41800000000E+01 0. -1.
         -5    1    1    2    0  502 -0.10435460840E+03 -0.65850776939E+01  0.14949006775E+03  0.18247739667E+03  0.41800000000E+01 0. -1.
        -11    1    3    3    0    0 -0.96107805377E+01  0.33768691974E+02  0.88282926735E+02  0.95008246027E+02  0.00000000000E+00 0.  1.
         11    1    3    3    0    0  0.81296790429E+02 -0.61006436290E+01  0.13490295869E+03  0.15762358406E+03  0.00000000000E+00 0. -1.
</event>
<event>
 7    1  0.6584658E-006  0.1400330E+03  0.7561462E-02  0.1213285E+00
          2   -1    0    0  501    0  0.00000000000E+00  0.00000000000E+00  0.22162328960E+03  0.22162328960E+03  0.00000000000E+00 0. -1.
         -2   -1    0    0    0  501 -0.00000000000E+00 -0.00000000000E+00 -0.12788024820E+03  0.12788024820E+03  0.00000000000E+00 0.  1.
         23    2    1    2    0    0  0.78225462509E+02 -0.21028647215E+02  0.13980938134E+03  0.18734957131E+03  0.94824953323E+02 0.  0.
          5    1    1    2  502    0  0.68783402703E+01  0.60838352274E+02 -0.20336147992E+02  0.64650197119E+02  0.41800000000E+01 0. -1.
         -5    1    1    2    0  502 -0.85103802779E+02 -0.39809705059E+02 -0.25730191949E+02  0.97503769374E+02  0.41800000000E+01 0.  1.
        -11    1    3    3    0    0  0.91506339259E+02  0.88691033312E+01  0.10047231489E+03  0.13618647942E+03  0.00000000000E+00 0. -1.
         11    1    3    3    0    0 -0.13280876750E+02 -0.29897750546E+02  0.39337066448E+02  0.51163091890E+02  0.00000000000E+00 0.  1.
</event>
<event>
 7    1  0.6584658E-006  0.1546975E+03  0.7561462E-02  0.1194817E+00
          1   -1    0    0  501    0  0.00000000000E+00  0.00000000000E+00  0.83988479262E+02  0.83988479262E+02  0.00000000000E+00 0. -1.
         -1   -1    0    0    0  501 -0.00000000000E+00 -0.00000000000E+00 -0.44679856554E+03  0.44679856554E+03  0.00000000000E+00 0.  1.
         23    2    1    2    0    0  0.13082923735E+03 -0.22047637041E+02 -0.50475434195E+02  0.16912034926E+03  0.91932232826E+02 0.  0.
          5    1    1    2  502    0 -0.15151804122E+03  0.28998923808E+02 -0.29689209417E+03  0.33460580147E+03  0.41800000000E+01 0. -1.
         -5    1    1    2    0  502  0.20688803865E+02 -0.69512867670E+01 -0.15442557917E+02  0.27060894074E+02  0.41800000000E+01 0. -1.
        -11    1    3    3    0    0  0.18312576433E+02 -0.71039303116E+00  0.25709348154E+02  0.31572546562E+02  0.00000000000E+00 0. -1.
         11    1    3    3    0    0  0.11251666092E+03 -0.21337244010E+02 -0.76184782349E+02  0.13754780270E+03  0.00000000000E+00 0.  1.
</event>
<event>
 7    1  0.6584658E-006  0.1316416E+03  0.7561462E-02  0.1225040E+00
         -1   -1    0    0    0  501 -0.00000000000E+00  0.00000000000E+00  0.25152578428E+03  0.25152578428E+03  0.00000000000E+00 0.  1.
          1   -1    0    0  501    0  0.00000000000E+00 -0.00000000000E+00 -0.13052624614E+03  0.13052624614E+03  0.00000000000E+00 0. -1.
         23    2    1    2    0    0 -0.55485888994E+02 -0.74386311712E+02 -0.59594441378E+02  0.14356927958E+03  0.91916447649E+02 0.  0.
          5    1    1    2  502    0  0.60341661648E+02 -0.10189899354E+02  0.36782373233E+02  0.71521783815E+02  0.41800000000E+01 0.  1.
         -5    1    1    2    0  502 -0.48557726539E+01  0.84576211066E+02  0.14381160629E+03  0.16696096702E+03  0.41800000000E+01 0.  1.
        -11    1    3    3    0    0 -0.58530854162E+02 -0.18828218908E+02  0.74763377674E+00  0.61489199640E+02  0.00000000000E+00 0.  1.
         11    1    3    3    0    0  0.30449651676E+01 -0.55558092805E+02 -0.60342075155E+02  0.82080079940E+02  0.00000000000E+00 0. -1.
</event>
<event>
 7    1  0.6584658E-006  0.1029138E+03  0.7561462E-02  0.1274285E+00
          1   -1    0    0  501    0  0.00000000000E+00  0.00000000000E+00  0.47558435921E+03  0.47558435921E+03  0.00000000000E+00 0. -1.
         -1   -1    0    0    0  501 -0.00000000000E+00 -0.00000000000E+00 -0.27880233854E+02  0.27880233854E+02  0.00000000000E+00 0.  1.
         23    2    1    2    0    0  0.21652027145E+02 -0.31150307292E+02  0.21304551674E+03  0.23485458854E+03  0.91264087305E+02 0.  0.
          5    1    1    2  502    0 -0.53281105885E+02 -0.13415036953E+02  0.19024896414E+03  0.19806812014E+03  0.41800000000E+01 0. -1.
         -5    1    1    2    0  502  0.31629078740E+02  0.44565344245E+02  0.44409644481E+02  0.70541884385E+02  0.41800000000E+01 0. -1.
        -11    1    3    3    0    0  0.40218545145E+02  0.17487181904E+02  0.69714871825E+02  0.82361983087E+02  0.00000000000E+00 0. -1.
         11    1    3    3    0    0 -0.18566518000E+02 -0.48637489197E+02  0.14333064491E+03  0.15249260545E+03  0.00000000000E+00 0.  1.
</event>
<event>
 7    1  0.6584658E-006  0.8979080E+02  0.7561462E-02  0.1303359E+00
          1   -1    0    0  501    0  0.00000000000E+00  0.00000000000E+00  0.25240358206E+02  0.25240358206E+02  0.00000000000E+00 0. -1.
         -1   -1    0    0    0  501 -0.00000000000E+00 -0.00000000000E+00 -0.67009799815E+03  0.67009799815E+03  0.00000000000E+00 0.  1.
         23    2    1    2    0    0  0.31955770755E+02 -0.60897080108E+02 -0.22461085970E+03  0.25150907102E+03  0.89872959556E+02 0.  0.
          5    1    1    2  502    0  0.13037948938E+02  0.17673382602E+02 -0.34615753874E+03  0.34687872606E+03  0.41800000000E+01 0.  1.
         -5    1    1    2    0  502 -0.44993719693E+02  0.43223697506E+02 -0.74089241502E+02  0.96950559277E+02  0.41800000000E+01 0.  1.
        -11    1    3    3    0    0  0.34105374818E+02 -0.73965392227E+02 -0.22389035568E+03  0.23824556073E+03  0.00000000000E+00 0.  1.
         11    1    3    3    0    0 -0.21496040624E+01  0.13068312118E+02 -0.72050401886E+00  0.13263510293E+02  0.00000000000E+00 0. -1.
</event>
<event>
 7    1  0.6584658E-006  0.1022652E+03  0.7561462E-02  0.1275603E+00
          1   -1    0    0  501    0  0.00000000000E+00  0.00000000000E+00  0.25289877671E+03  0.25289877671E+03  0.00000000000E+00 0. -1.
         -1   -1    0    0    0  501 -0.00000000000E+00 -0.00000000000E+00 -0.48638266536E+02  0.48638266536E+02  0.00000000000E+00 0.  1.
         23    2    1    2    0    0 -0.93558240903E+01 -0.18934704612E+02  0.97518715625E+02  0.13574244580E+03  0.92032913734E+02 0.  0.
          5    1    1    2  502    0  0.59903823391E+02  0.44492948981E+01  0.93829689356E+02  0.11148877650E+03  0.41800000000E+01 0.  1.
         -5    1    1    2    0  502 -0.50547999301E+02  0.14485409714E+02  0.12912105192E+02  0.54305820944E+02  0.41800000000E+01 0.  1.
        -11    1    3    3    0    0 -0.17437072235E+02  0.33898467924E+02  0.24734034437E+02  0.45441501684E+02  0.00000000000E+00 0.  1.
         11    1    3    3    0    0  0.80812481452E+01 -0.52833172537E+02  0.72784681188E+02  0.90300944112E+02  0.00000000000E+00 0. -1.
</event>
<event>
 7    1  0.6584658E-006  0.8901548E+02  0.7561462E-02  0.1305254E+00
         -1   -1    0    0    0  501 -0.00000000000E+00  0.00000000000E+00  0.91275426039E+02  0.91275426039E+02  0.00000000000E+00 0.  1.
          1   -1    0    0  501    0  0.00000000000E+00 -0.00000000000E+00 -0.22230618512E+03  0.22230618512E+03  0.00000000000E+00 0. -1.
         23    2    1    2    0    0 -0.35438083603E+02 -0.74315064508E+02 -0.10504750714E+03  0.16159505858E+03  0.91101029728E+02 0.  0.
          5    1    1    2  502    0  0.15808433011E+02  0.11567769945E+02 -0.69964818017E+02  0.72775463007E+02  0.41800000000E+01 0. -1.
         -5    1    1    2    0  502  0.19629650592E+02  0.62747294563E+02  0.43981566076E+02  0.79211089576E+02  0.41800000000E+01 0. -1.
        -11    1    3    3    0    0  0.86985698950E+01 -0.52540117912E+01  0.13854513310E+02  0.17181888638E+02  0.00000000000E+00 0.  1.
         11    1    3    3    0    0 -0.44136653498E+02 -0.69061052717E+02 -0.11890202045E+03  0.14441316994E+03  0.00000000000E+00 0. -1.
</event>
<event>
 7    1  0.6584658E-006  0.1047396E+03  0.7561462E-02  0.1270633E+00
         -1   -1    0    0    0  501 -0.00000000000E+00  0.00000000000E+00  0.20055867152E+03  0.20055867152E+03  0.00000000000E+00 0.  1.
          1   -1    0    0  501    0  0.00000000000E+00 -0.00000000000E+00 -0.94398966793E+02  0.94398966793E+02  0.00000000000E+00 0. -1.
         23    2    1    2    0    0 -0.28393067997E+02 -0.22758888493E+02 -0.33201676235E+02  0.10329613331E+03  0.90794308938E+02 0.  0.
          5    1    1    2  502    0 -0.21921125978E+02  0.50712178167E+02  0.11757717362E+03  0.12997740164E+03  0.41800000000E+01 0. -1.
         -5    1    1    2    0  502  0.50314193976E+02 -0.27953289674E+02  0.21784207336E+02  0.61684103368E+02  0.41800000000E+01 0.  1.
        -11    1    3    3    0    0  0.20718124013E+02  0.21783650925E+02 -0.23116624530E+01  0.30151482443E+02  0.00000000000E+00 0.  1.
         11    1    3    3    0    0 -0.49111192010E+02 -0.44542539418E+02 -0.30890013782E+02  0.73144650863E+02  0.00000000000E+00 0. -1.
</event>
<event>
 7    1  0.6584658E-006  0.1060845E+03  0.7561462E-02  0.1267998E+00
         -2   -1    0    0    0  501 -0.00000000000E+00  0.00000000000E+00  0.10782627303E+03  0.10782627303E+03  0.00000000000E+00 0. -1.
          2   -1    0    0  501    0  0.00000000000E+00 -0.00000000000E+00 -0.14821203034E+03  0.14821203034E+03  0.00000000000E+00 0.  1.
         23    2    1    2    0    0 -0.62184200748E+02 -0.21072589785E+02 -0.24601457128E+02  0.11388570720E+03  0.89742931474E+02 0.  0.
          5    1    1    2  502    0  0.43282087248E+01 -0.39436938764E+02 -0.38359181007E+02  0.55343515404E+02  0.41800000000E+01 0. -1.
         -5    1    1    2    0  502  0.57855992023E+02  0.60509528549E+02  0.22574880821E+02  0.86809080760E+02  0.41800000000E+01 0. -1.
        -11    1    3    3    0    0 -0.44796056848E+02 -0.41888934819E+02 -0.48144744003E+02  0.77969775840E+02  0.00000000000E+00 0.  1.
         11    1    3    3    0    0 -0.17388143900E+02  0.20816345034E+02  0.23543286875E+02  0.35915931364E+02  0.00000000000E+00 0. -1.
</event>
<event>
 7    1  0.6584658E-006  0.8101275E+02  0.7561462E-02  0.1326202E+00
          1   -1    0    0  501    0  0.00000000000E+00  0.00000000000E+00  0.51523221254E+03  0.51523221254E+03  0.00000000000E+00 0. -1.
         -1   -1    0    0    0  501 -0.00000000000E+00 -0.00000000000E+00 -0.32217093527E+02  0.32217093527E+02  0.00000000000E+00 0.  1.
         23    2    1    2    0    0 -0.45582865693E+02  0.28581358042E+02  0.30735384427E+03  0.32518976893E+03  0.91582250217E+02 0.  0.
          5    1    1    2  502    0 -0.84386623281E+01 -0.17803836288E+01  0.15936423386E+03  0.15965216009E+03  0.41800000000E+01 0. -1.
         -5    1    1    2    0  502  0.54021528022E+02 -0.26800974413E+02  0.16297040880E+02  0.62607377047E+02  0.41800000000E+01 0. -1.
        -11    1    3    3    0    0 -0.41868655745E+02 -0.17776414055E+02  0.23367625695E+03  0.23806213116E+03  0.00000000000E+00 0. -1.
         11    1    3    3    0    0 -0.37142099486E+01  0.46357772097E+02  0.73677587317E+02  0.87127637763E+02  0.00000000000E+00 0.  1.
</event>
<event>
 7    1  0.6584658E-006  0.2186023E+03  0.7561462E-02  0.1134929E+00
          1   -1    0    0  501    0  0.00000000000E+00  0.00000000000E+00  0.48599758624E+02  0.48599758624E+02  0.00000000000E+00 0. -1.
         -1   -1    0    0    0  501 -0.00000000000E+00 -0.00000000000E+00 -0.11456895920E+04  0.11456895920E+04  0.00000000000E+00 0.  1.
         23    2    1    2    0    0 -0.39875292022E+02  0.20500470321E+03 -0.56892155803E+03  0.61271757974E+03  0.90189390034E+02 0.  0.
          5    1    1    2  502    0  0.38319584706E+02 -0.19513743054E+03 -0.53359253748E+03  0.56946068857E+03  0.41800000000E+01 0. -1.
         -5    1    1    2    0  502  0.15557073158E+01 -0.98672726707E+01  0.54242621351E+01  0.12111082318E+02  0.41800000000E+01 0. -1.
        -11    1    3    3    0    0 -0.21212286266E+02 -0.40097149921E+00 -0.50695761944E+02  0.54956183873E+02  0.00000000000E+00 0.  1.
         11    1    3    3    0    0 -0.18663005755E+02  0.20540567471E+03 -0.51822579609E+03  0.55776139587E+03  0.00000000000E+00 0. -1.
</event>
<event>
 7    1  0.6584658E-006  0.1534266E+03  0.7561462E-02  0.1196325E+00
         -1   -1    0    0    0  501 -0.00000000000E+00  0.00000000000E+00  0.62880783422E+02  0.62880783422E+02  0.00000000000E+00 0.  1.
          1   -1    0    0  501    0  0.00000000000E+00 -0.00000000000E+00 -0.47016089450E+03  0.47016089450E+03  0.00000000000E+00 0. -1.
         23    2    1    2    0    0  0.11613721074E+03 -0.64382005384E+02 -0.18190497837E+03  0.24309398451E+03  0.91500654702E+02 0.  0.
          5    1    1    2  502    0 -0.43223355837E+02 -0.25329669898E+02 -0.19743807885E+02  0.54010563937E+02  0.41800000000E+01 0.  1.
         -5    1    1    2    0  502 -0.72913854904E+02  0.89711675282E+02 -0.20563132482E+03  0.23593712948E+03  0.41800000000E+01 0.  1.
        -11    1    3    3    0    0  0.29121993906E+02 -0.41900961030E+02 -0.14429863909E+02  0.53028313538E+02  0.00000000000E+00 0.  1.
         11    1    3    3    0    0  0.87015216835E+02 -0.22481044354E+02 -0.16747511447E+03  0.19006567097E+03  0.00000000000E+00 0. -1.
</event>
<event>
 7    1  0.6584658E-006  0.1183658E+03  0.7561462E-02  0.1245818E+00
         -1   -1    0    0    0  501 -0.00000000000E+00  0.00000000000E+00  0.43345072653E+03  0.43345072653E+03  0.00000000000E+00 0.  1.
          1   -1    0    0  501    0  0.00000000000E+00 -0.00000000000E+00 -0.43563247919E+02  0.43563247919E+02  0.00000000000E+00 0. -1.
         23    2    1    2    0    0 -0.50582623974E+02 -0.42837413744E+02  0.10404757477E+03  0.15803799889E+03  0.98774821762E+02 0.  0.
          5    1    1    2  502    0  0.79807797345E+02  0.15465356218E+02  0.10057911436E+03  0.12939123775E+03  0.41800000000E+01 0.  1.
         -5    1    1    2    0  502 -0.29225173371E+02  0.27372057526E+02  0.18526078948E+03  0.18958473781E+03  0.41800000000E+01 0.  1.
        -11    1    3    3    0    0 -0.65713950181E+02  0.40156838654E+01  0.78872944437E+02  0.10273942928E+03  0.00000000000E+00 0. -1.
         11    1    3    3    0    0  0.15131326208E+02 -0.46853097610E+02  0.25174630335E+02  0.55298569610E+02  0.00000000000E+00 0.  1.
</event>
<event>
 7    1  0.6584658E-006  0.1000402E+03  0.7561462E-02  0.1280211E+00
         -1   -1    0    0    0  501 -0.00000000000E+00  0.00000000000E+00  0.16814697024E+03  0.16814697024E+03  0.00000000000E+00 0.  1.
          1   -1    0    0  501    0  0.00000000000E+00 -0.00000000000E+00 -0.82172361413E+02  0.82172361413E+02  0.00000000000E+00 0. -1.
         23    2    1    2    0    0 -0.77201638279E+01 -0.33217907821E+01 -0.22098652537E+02  0.94903247004E+02  0.91911047347E+02 0.  0.
          5    1    1    2  502    0 -0.22369831168E+01 -0.53316134199E+02  0.44679176289E+02  0.69723134276E+02  0.41800000000E+01 0. -1.
         -5    1    1    2    0  502  0.99571469447E+01  0.56637924981E+02  0.63394085078E+02  0.85692950377E+02  0.41800000000E+01 0.  1.
        -11    1    3    3    0    0  0.37606893281E+02  0.14341415317E+02  0.26248983875E+01  0.40334163027E+02  0.00000000000E+00 0.  1.
         11    1    3    3    0    0 -0.45327057109E+02 -0.17663206099E+02 -0.24723550925E+02  0.54569083977E+02  0.00000000000E+00 0. -1.
</event>
<event>
 7    1  0.6584658E-006  0.1370878E+03  0.7561462E-02  0.1217302E+00
         -1   -1    0    0    0  501 -0.00000000000E+00  0.00000000000E+00  0.16642740018E+02  0.16642740018E+02  0.00000000000E+00 0.  1.
          1   -1    0    0  501    0  0.00000000000E+00 -0.00000000000E+00 -0.11828725400E+04  0.11828725400E+04  0.00000000000E+00 0. -1.
         23    2    1    2    0    0  0.56395883488E+01  0.83420852731E+02 -0.64875023410E+03  0.66060602168E+03  0.92372106274E+02 0.  0.
          5    1    1    2  502    0 -0.30052484746E+02 -0.10955719512E+03 -0.36830233218E+03  0.38544780597E+03  0.41800000000E+01 0. -1.
         -5    1    1    2    0  502  0.24412896398E+02  0.26136342391E+02 -0.14917723371E+03  0.15346145236E+03  0.41800000000E+01 0. -1.
        -11    1    3    3    0    0  0.37784574420E+02  0.84245765025E+02 -0.46894964809E+03  0.47795271255E+03  0.00000000000E+00 0. -1.
         11    1    3    3    0    0 -0.32144986071E+02 -0.82491229415E+00 -0.17980058601E+03  0.18265330914E+03  0.00000000000E+00 0.  1.
</event>
<event>
 7    1  0.6584658E-006  0.1016674E+03  0.7561462E-02  0.1276828E+00
          1   -1    0    0  501    0  0.00000000000E+00  0.00000000000E+00  0.12558977383E+03  0.12558977383E+03  0.00000000000E+00 0. -1.
         -1   -1    0    0    0  501 -0.00000000000E+00 -0.00000000000E+00 -0.13106302242E+03  0.13106302242E+03  0.00000000000E+00 0.  1.
         23    2    1    2    0    0 -0.46018088349E+02  0.10760052844E+02  0.56701107397E+02  0.10918581385E+03  0.80455473240E+02 0.  0.
          5    1    1    2  502    0 -0.84267190173E+01  0.39589480856E+02 -0.60823096709E+02  0.73179628867E+02  0.41800000000E+01 0. -1.
         -5    1    1    2    0  502  0.54444807366E+02 -0.50349533700E+02 -0.13512592876E+01  0.74287353530E+02  0.41800000000E+01 0. -1.
        -11    1    3    3    0    0 -0.24345096528E+02  0.43062980231E+02  0.48807833103E+02  0.69493226745E+02  0.00000000000E+00 0.  1.
         11    1    3    3    0    0 -0.21672991821E+02 -0.32302927387E+02  0.78932742942E+01  0.39692587108E+02  0.00000000000E+00 0. -1.
</event>
<event>
 7    1  0.6584658E-006  0.8641266E+02  0.7561462E-02  0.1311779E+00
          1   -1    0    0  501    0  0.00000000000E+00  0.00000000000E+00  0.77274874846E+03  0.77274874846E+03  0.00000000000E+00 0. -1.
         -1   -1    0    0    0  501 -0.00000000000E+00 -0.00000000000E+00 -0.18250872086E+02  0.18250872086E+02  0.00000000000E+00 0.  1.
         23    2    1    2    0    0 -0.82290706358E+01 -0.53498138883E+02  0.31188023138E+03  0.32787250399E+03  0.85447830159E+02 0.  0.
          5    1    1    2  502    0  0.24956804653E+02 -0.77915328965E+01  0.34845553715E+03  0.34945998892E+03  0.41800000000E+01 0. -1.
         -5    1    1    2    0  502 -0.16727734017E+02  0.61289671779E+02  0.94162107842E+02  0.11366712764E+03  0.41800000000E+01 0. -1.
        -11    1    3    3    0    0 -0.13024292197E+02 -0.67050636231E+02  0.30379522048E+03  0.31137911939E+03  0.00000000000E+00 0. -1.
         11    1    3    3    0    0  0.47952215608E+01  0.13552497349E+02  0.80850108975E+01  0.16493384595E+02  0.00000000000E+00 0.  1.
</event>
<event>
 7    1  0.6584658E-006  0.6226784E+02  0.7561462E-02  0.1388554E+00
          1   -1    0    0  501    0  0.00000000000E+00  0.00000000000E+00  0.12329956786E+03  0.12329956786E+03  0.00000000000E+00 0. -1.
         -1   -1    0    0    0  501 -0.00000000000E+00 -0.00000000000E+00 -0.97770109804E+02  0.97770109804E+02  0.00000000000E+00 0.  1.
         23    2    1    2    0    0  0.98696195574E+01  0.88338537984E+00  0.33280959479E+02  0.95351415262E+02  0.88803605606E+02 0.  0.
          5    1    1    2  502    0 -0.11747414168E+02 -0.18135318660E+02 -0.63487347722E+02  0.67193803608E+02  0.41800000000E+01 0. -1.
         -5    1    1    2    0  502  0.18777946106E+01  0.17251933280E+02  0.55735846298E+02  0.58524458793E+02  0.41800000000E+01 0. -1.
        -11    1    3    3    0    0  0.44006623839E+02  0.16681062002E+02  0.31700179279E+01  0.47168737368E+02  0.00000000000E+00 0.  1.
         11    1    3    3    0    0 -0.34137004281E+02 -0.15797676622E+02  0.30110941551E+02  0.48182677894E+02  0.00000000000E+00 0. -1.
</event>
<event>
 7    1  0.6584658E-006  0.1419665E+03  0.7561462E-02  0.1210707E+00
         -2   -1    0    0    0  501 -0.00000000000E+00  0.00000000000E+00  0.31184390366E+02  0.31184390366E+02  0.00000000000E+00 0.  1.
          2   -1    0    0  501    0  0.00000000000E+00 -0.00000000000E+00 -0.16915194657E+04  0.16915194657E+04  0.00000000000E+00 0. -1.
         23    2    1    2    0    0 -0.36657125768E+02 -0.12291738166E+03 -0.63634663403E+03  0.65550087396E+03  0.91060032654E+02 0.  0.
          5    1    1    2  502    0  0.44179374162E+00  0.10812658034E+02 -0.88448922238E+03  0.88456529757E+03  0.41800000000E+01 0. -1.
         -5    1    1    2    0  502  0.36215332026E+02  0.11210472363E+03 -0.13949921896E+03  0.18263768457E+03  0.41800000000E+01 0.  1.
        -11    1    3    3    0    0 -0.64834049909E+02 -0.92809697577E+02 -0.40584738561E+03  0.42134213461E+03  0.00000000000E+00 0. -1.
         11    1    3    3    0    0  0.28176924141E+02 -0.30107684084E+02 -0.23049924842E+03  0.23415873935E+03  0.00000000000E+00 0.  1.
</event>
<event>
 7    1  0.6584658E-006  0.1239542E+03  0.7561462E-02  0.1236713E+00
         -2   -1    0    0    0  501 -0.00000000000E+00  0.00000000000E+00  0.13928137885E+03  0.13928137885E+03  0.00000000000E+00 0. -1.
          2   -1    0    0  501    0  0.00000000000E+00 -0.00000000000E+00 -0.13787493222E+03  0.13787493222E+03  0.00000000000E+00 0.  1.
         23    2    1    2    0    0  0.67980170097E+01  0.79342155068E+02 -0.34547918083E+02  0.12457245821E+03  0.89349583624E+02 0.  0.
          5    1    1    2  502    0 -0.22332833626E+02  0.29990049681E+02  0.12167472067E+02  0.39543372569E+02  0.41800000000E+01 0. -1.
         -5    1    1    2    0  502  0.15534816617E+02 -0.10933220475E+03  0.23786892656E+02  0.11304048029E+03  0.41800000000E+01 0. -1.
        -11    1    3    3    0    0  0.51668384270E+01 -0.95547252509E+01 -0.33964005051E+02  0.35658696458E+02  0.00000000000E+00 0.  1.
         11    1    3    3    0    0  0.16311785827E+01  0.88896880319E+02 -0.58391303241E+00  0.88913761750E+02  0.00000000000E+00 0. -1.
</event>
<event>
 7    1  0.6584658E-006  0.1980446E+03  0.7561462E-02  0.1151399E+00
         -2   -1    0    0    0  501 -0.00000000000E+00  0.00000000000E+00  0.10058066780E+04  0.10058066780E+04  0.00000000000E+00 0.  1.
          2   -1    0    0  501    0  0.00000000000E+00 -0.00000000000E+00 -0.39945338719E+02  0.39945338719E+02  0.00000000000E+00 0. -1.
         23    2    1    2    0    0 -0.98925852668E+02  0.13417315447E+03  0.46006748078E+03  0.49870248763E+03  0.96194202510E+02 0.  0.
          5    1    1    2  502    0  0.91699386389E+02 -0.24659171031E+02  0.28527773459E+03  0.30069537814E+03  0.41800000000E+01 0. -1.
         -5    1    1    2    0  502  0.72264662792E+01 -0.10951398343E+03  0.22051612387E+03  0.24635415091E+03  0.41800000000E+01 0. -1.
        -11    1    3    3    0    0 -0.11657364481E+03  0.10384430615E+03  0.39584882917E+03  0.42552244375E+03  0.00000000000E+00 0.  1.
         11    1    3    3    0    0  0.17647792143E+02  0.30328848314E+02  0.64218651613E+02  0.73180043882E+02  0.00000000000E+00 0. -1.
</event>
<event>
 7    1  0.6584658E-006  0.1760948E+03  0.7561462E-02  0.1171637E+00
          1   -1    0    0  501    0  0.00000000000E+00  0.00000000000E+00  0.47792758298E+03  0.47792758298E+03  0.00000000000E+00 0. -1.
         -1   -1    0    0    0  501 -0.00000000000E+00 -0.00000000000E+00 -0.11460894827E+03  0.11460894827E+03  0.00000000000E+00 0.  1.
         23    2    1    2    0    0  0.14669770380E+03  0.51280433916E+02  0.34823689419E+03  0.39247125612E+03  0.92816233515E+02 0.  0.
          5    1    1    2  502    0 -0.19387079797E+00 -0.21201598828E+02 -0.35982321764E+02  0.41973149254E+02  0.41800000000E+01 0. -1.
         -5    1    1    2    0  502 -0.14650383300E+03 -0.30078835087E+02  0.51064062289E+02  0.15809212587E+03  0.41800000000E+01 0. -1.
        -11    1    3    3    0    0  0.15238258178E+03  0.25426607310E+02  0.30047403294E+03  0.33786329789E+03  0.00000000000E+00 0.  1.
         11    1    3    3    0    0 -0.56848779759E+01  0.25853826606E+02  0.47762861246E+02  0.54607958231E+02  0.00000000000E+00 0. -1.
</event>
<event>
 7    1  0.6698852E-006  0.1605540E+03  0.7561462E-02  0.1188073E+00
          3   -1    0    0  501    0  0.00000000000E+00  0.00000000000E+00  0.24556858141E+03  0.24556858141E+03  0.00000000000E+00 0. -1.
         -3   -1    0    0    0  501 -0.00000000000E+00 -0.00000000000E+00 -0.14571028555E+03  0.14571028555E+03  0.00000000000E+00 0.  1.
         23    2    1    2    0    0 -0.85427374874E+02  0.10979214150E+03  0.11712718831E+03  0.20340138075E+03  0.91110881563E+02 0.  0.
          5    1    1    2  502    0 -0.25406199933E+02 -0.51637158637E+01  0.17411243878E+02  0.31508138154E+02  0.41800000000E+01 0.  1.
         -5    1    1    2    0  502  0.11083357481E+03 -0.10462842563E+03 -0.34680136328E+02  0.15636934805E+03  0.41800000000E+01 0.  1.
        -11    1    3    3    0    0 -0.14388527063E+02  0.41131878469E+02  0.91482695817E+02  0.10133086781E+03  0.00000000000E+00 0. -1.
         11    1    3    3    0    0 -0.71038847811E+02  0.68660263028E+02  0.25644492494E+02  0.10207051294E+03  0.00000000000E+00 0.  1.
</event>
<event>
 7    1  0.6584658E-006  0.1072290E+03  0.7561462E-02  0.1265789E+00
         -1   -1    0    0    0  501 -0.00000000000E+00  0.00000000000E+00  0.29609483578E+03  0.29609483578E+03  0.00000000000E+00 0.  1.
          1   -1    0    0  501    0  0.00000000000E+00 -0.00000000000E+00 -0.65158799596E+02  0.65158799596E+02  0.00000000000E+00 0. -1.
         23    2    1    2    0    0  0.82389374418E+02  0.38566528940E+02  0.12736895947E+03  0.18186943431E+03  0.92618859464E+02 0.  0.
          5    1    1    2  502    0 -0.13887968738E+02 -0.14999780820E+02 -0.24505028703E+02  0.32184436177E+02  0.41800000000E+01 0. -1.
         -5    1    1    2    0  502 -0.68501405681E+02 -0.23566748119E+02  0.12807210542E+03  0.14719976489E+03  0.41800000000E+01 0.  1.
        -11    1    3    3    0    0  0.74597148872E+02 -0.68866639572E+01  0.44780951660E+02  0.87278258414E+02  0.00000000000E+00 0.  1.
         11    1    3    3    0    0  0.77922255463E+01  0.45453192897E+02  0.82588007807E+02  0.94591175894E+02  0.00000000000E+00 0. -1.
</event>
<event>
 7    1  0.6584658E-006  0.1555965E+03  0.7561462E-02  0.1193760E+00
         -1   -1    0    0    0  501 -0.00000000000E+00  0.00000000000E+00  0.55636677254E+03  0.55636677254E+03  0.00000000000E+00 0.  1.
          1   -1    0    0  501    0  0.00000000000E+00 -0.00000000000E+00 -0.57745916306E+02  0.57745916306E+02  0.00000000000E+00 0. -1.
         23    2    1    2    0    0 -0.11619016898E+03 -0.57243076928E+02  0.13366198200E+03  0.20714844696E+03  0.90928699665E+02 0.  0.
          5    1    1    2  502    0  0.33409729825E+01 -0.30657666021E+02  0.32415393536E+02  0.44936452068E+02  0.41800000000E+01 0.  1.
         -5    1    1    2    0  502  0.11284919599E+03  0.87900742949E+02  0.33254348069E+03  0.36202778982E+03  0.41800000000E+01 0.  1.
        -11    1    3    3    0    0 -0.81122748244E+02 -0.15745160335E+02  0.26128109528E+02  0.86668843676E+02  0.00000000000E+00 0. -1.
         11    1    3    3    0    0 -0.35067420733E+02 -0.41497916593E+02  0.10753387248E+03  0.12047960329E+03  0.00000000000E+00 0.  1.
</event>
<event>
 7    1  0.6584658E-006  0.1836759E+03  0.7561462E-02  0.1164292E+00
         -2   -1    0    0    0  501 -0.00000000000E+00  0.00000000000E+00  0.54705215974E+03  0.54705215974E+03  0.00000000000E+00 0.  1.
          2   -1    0    0  501    0  0.00000000000E+00 -0.00000000000E+00 -0.17389964199E+03  0.17389964199E+03  0.00000000000E+00 0. -1.
         23    2    1    2    0    0 -0.82500389228E+01 -0.15505787544E+03 -0.79753758670E+02  0.19782768011E+03  0.93081260831E+02 0.  0.
          5    1    1    2  502    0 -0.29555457656E+02 -0.14366250697E+02 -0.49060493444E+01  0.33488146507E+02  0.41800000000E+01 0. -1.
         -5    1    1    2    0  502  0.37805496579E+02  0.16942412614E+03  0.45781232577E+03  0.48963597510E+03  0.41800000000E+01 0.  1.
        -11    1    3    3    0    0 -0.18643426022E+02 -0.31604505679E+02 -0.62866947591E+02  0.72791999646E+02  0.00000000000E+00 0.  1.
         11    1    3    3    0    0  0.10393387099E+02 -0.12345336976E+03 -0.16886811079E+02  0.12503568047E+03  0.00000000000E+00 0. -1.
</event>
<event>
 7    1  0.6584658E-006  0.1435506E+03  0.7561462E-02  0.1208630E+00
         -2   -1    0    0    0  501 -0.00000000000E+00  0.00000000000E+00  0.35031337951E+03  0.35031337951E+03  0.00000000000E+00 0.  1.
          2   -1    0    0  501    0  0.00000000000E+00 -0.00000000000E+00 -0.76536301597E+02  0.76536301597E+02  0.00000000000E+00 0. -1.
         23    2    1    2    0    0  0.36576622401E+02 -0.10199535854E+03  0.51928013059E+02  0.15007068964E+03  0.89909904217E+02 0.  0.
          5    1    1    2  502    0 -0.47147727263E+01  0.12083872533E+03  0.12967645549E+03  0.17736313633E+03  0.41800000000E+01 0.  1.
         -5    1    1    2    0  502 -0.31861849674E+02 -0.18843366784E+02  0.92172609365E+02  0.99415855142E+02  0.41800000000E+01 0.  1.
        -11    1    3    3    0    0  0.55080225678E+02 -0.52856601135E+02  0.59805350148E+02  0.96975932327E+02  0.00000000000E+00 0.  1.
         11    1    3    3    0    0 -0.18503603277E+02 -0.49138757410E+02 -0.78773370889E+01  0.53094757308E+02  0.00000000000E+00 0. -1.
</event>
<event>
 7    1  0.6584658E-006  0.1482104E+03  0.7561462E-02  0.1202689E+00
         -2   -1    0    0    0  501 -0.00000000000E+00  0.00000000000E+00  0.48182121947E+02  0.48182121947E+02  0.00000000000E+00 0. -1.
          2   -1    0    0  501    0  0.00000000000E+00 -0.00000000000E+00 -0.46613518368E+03  0.46613518368E+03  0.00000000000E+00 0.  1.
         23    2    1    2    0    0  0.16989675042E+02 -0.98958307917E+02 -0.23009034414E+03  0.26729736776E+03  0.91787366117E+02 0.  0.
          5    1    1    2  502    0  0.49787851132E+02  0.73333940495E+02 -0.10250245097E+03  0.13557625826E+03  0.41800000000E+01 0.  1.
         -5    1    1    2    0  502 -0.66777526174E+02  0.25624367422E+02 -0.85360266621E+02  0.11144367961E+03  0.41800000000E+01 0.  1.
        -11    1    3    3    0    0 -0.20652727427E+02 -0.96091413644E+02 -0.16584773845E+03  0.19278373188E+03  0.00000000000E+00 0. -1.
         11    1    3    3    0    0  0.37642402468E+02 -0.28668942721E+01 -0.64242605689E+02  0.74513635880E+02  0.00000000000E+00 0.  1.
</event>
<event>
 7    1  0.6584658E-006  0.1100564E+03  0.7561462E-02  0.1260466E+00
         -1   -1    0    0    0  501 -0.00000000000E+00  0.00000000000E+00  0.64250215007E+03  0.64250215007E+03  0.00000000000E+00 0.  1.
          1   -1    0    0  501    0  0.00000000000E+00 -0.00000000000E+00 -0.21716847016E+02  0.21716847016E+02  0.00000000000E+00 0. -1.
         23    2    1    2    0    0  0.10021326069E+02 -0.34343035875E+02  0.16646421608E+03  0.19407951792E+03  0.93148553147E+02 0.  0.
          5    1    1    2  502    0  0.19845430813E+01 -0.42535004981E+02  0.14772920084E+03  0.15380037140E+03  0.41800000000E+01 0. -1.
         -5    1    1    2    0  502 -0.12005869150E+02  0.76878040857E+02  0.30659188613E+03  0.31633910776E+03  0.41800000000E+01 0.  1.
        -11    1    3    3    0    0  0.18416577285E+02 -0.65031339414E+02  0.10508432090E+03  0.12494382707E+03  0.00000000000E+00 0. -1.
         11    1    3    3    0    0 -0.83952512164E+01  0.30688303539E+02  0.61379895179E+02  0.69135690850E+02  0.00000000000E+00 0.  1.
</event>
<event>
 7    1  0.6584658E-006  0.1494443E+03  0.7561462E-02  0.1201158E+00
          2   -1    0    0  501    0  0.00000000000E+00  0.00000000000E+00  0.50129001001E+03  0.50129001001E+03  0.00000000000E+00 0. -1.
         -2   -1    0    0    0  501 -0.00000000000E+00 -0.00000000000E+00 -0.48793609841E+02  0.48793609841E+02  0.00000000000E+00 0.  1.
         23    2    1    2    0    0  0.96470912421E+01 -0.11168085040E+03  0.19470825472E+03  0.24240236985E+03  0.91005086317E+02 0.  0.
          5    1    1    2  502    0 -0.19675354923E+02  0.13704741433E+03  0.23019903065E+03  0.26865996999E+03  0.41800000000E+01 0. -1.
         -5    1    1    2    0  502  0.10028263681E+02 -0.25366563930E+02  0.27589114800E+02  0.39021280009E+02  0.41800000000E+01 0. -1.
        -11    1    3    3    0    0 -0.10549033723E+02 -0.11208218200E+03  0.11803709610E+03  0.16311484816E+03  0.00000000000E+00 0.  1.
         11    1    3    3    0    0  0.20196124965E+02  0.40133160272E+00  0.76671158625E+02  0.79287521689E+02  0.00000000000E+00 0. -1.
</event>
<event>
 7    1  0.6584658E-006  0.2157600E+03  0.7561462E-02  0.1137084E+00
          2   -1    0    0  501    0  0.00000000000E+00  0.00000000000E+00  0.66355566603E+03  0.66355566603E+03  0.00000000000E+00 0. -1.
         -2   -1    0    0    0  501 -0.00000000000E+00 -0.00000000000E+00 -0.13643070401E+03  0.13643070401E+03  0.00000000000E+00 0.  1.
         23    2    1    2    0    0 -0.19307270000E+03  0.58612399528E+02  0.51708506699E+03  0.56236921803E+03  0.90386337578E+02 0.  0.
          5    1    1    2  502    0  0.16455315936E+03 -0.20018535502E+01  0.36805081178E+02  0.16868264900E+03  0.41800000000E+01 0.  1.
         -5    1    1    2    0  502  0.28519540642E+02 -0.56610545978E+02 -0.26765186157E+02  0.68934503004E+02  0.41800000000E+01 0.  1.
        -11    1    3    3    0    0 -0.14982849984E+03  0.34074469693E+02  0.27299467626E+03  0.31326624797E+03  0.00000000000E+00 0.  1.
         11    1    3    3    0    0 -0.43244200163E+02  0.24537929835E+02  0.24409039073E+03  0.24910297006E+03  0.00000000000E+00 0. -1.
</event>
<event>
 7    1  0.6584658E-006  0.2191046E+03  0.7561462E-02  0.1134552E+00
          1   -1    0    0  501    0  0.00000000000E+00  0.00000000000E+00  0.13972232043E+04  0.13972232043E+04  0.00000000000E+00 0. -1.
         -1   -1    0    0    0  501 -0.00000000000E+00 -0.00000000000E+00 -0.44441985252E+02  0.44441985252E+02  0.00000000000E+00 0.  1.
         23    2    1    2    0    0 -0.19679623700E+03  0.79019656608E+02  0.87471343039E+03  0.90392025043E+03  0.83518673448E+02 0.  0.
          5    1    1    2  502    0  0.17202173722E+03 -0.80775571334E+02  0.47590789947E+03  0.51246655713E+03  0.41800000000E+01 0. -1.
         -5    1    1    2    0  502  0.24774499784E+02  0.17559147251E+01  0.21598892208E+01  0.25278382019E+02  0.41800000000E+01 0. -1.
        -11    1    3    3    0    0 -0.17731497256E+03  0.43734604101E+02  0.63104260122E+03  0.65693841389E+03  0.00000000000E+00 0.  1.
         11    1    3    3    0    0 -0.19481264437E+02  0.35285052507E+02  0.24367082917E+03  0.24698183654E+03  0.00000000000E+00 0. -1.
</event>
<event>
 7    1  0.6584658E-006  0.1169159E+03  0.7561462E-02  0.1248273E+00
          4   -1    0    0  501    0  0.00000000000E+00  0.00000000000E+00  0.39342313348E+03  0.39342313348E+03  0.00000000000E+00 0. -1.
         -4   -1    0    0    0  501 -0.00000000000E+00 -0.00000000000E+00 -0.55110131681E+02  0.55110131681E+02  0.00000000000E+00 0.  1.
         23    2    1    2    0    0 -0.33418960303E+02  0.58217391021E+02  0.25616958789E+03  0.28002360828E+03  0.91017975756E+02 0.  0.
          5    1    1    2  502    0  0.86806598617E+01  0.34719058662E+02  0.59595272638E+02  0.69640762566E+02  0.41800000000E+01 0. -1.
         -5    1    1    2    0  502  0.24738300442E+02 -0.92936449683E+02  0.22548141275E+02  0.98868894316E+02  0.41800000000E+01 0.  1.
        -11    1    3    3    0    0 -0.54687275696E+02  0.20822481248E+02  0.20491997137E+03  0.21311139930E+03  0.00000000000E+00 0. -1.
         11    1    3    3    0    0  0.21268315393E+02  0.37394909773E+02  0.51249616523E+02  0.66912208978E+02  0.00000000000E+00 0.  1.
</event>
<event>
 7    1  0.6584658E-006  0.1119195E+03  0.7561462E-02  0.1257056E+00
         -1   -1    0    0    0  501 -0.00000000000E+00  0.00000000000E+00  0.94158972235E+02  0.94158972235E+02  0.00000000000E+00 0.  1.
          1   -1    0    0  501    0  0.00000000000E+00 -0.00000000000E+00 -0.15319557563E+03  0.15319557563E+03  0.00000000000E+00 0. -1.
         23    2    1    2    0    0 -0.49945797155E+02 -0.98399644676E+01 -0.20550711092E+02  0.10692958808E+03  0.91761634288E+02 0.  0.
          5    1    1    2  502    0  0.57968531419E+02  0.60066494393E+02 -0.18417523752E+02  0.85586283741E+02  0.41800000000E+01 0.  1.
         -5    1    1    2    0  502 -0.80227342635E+01 -0.50226529925E+02 -0.20068368548E+02  0.54838676038E+02  0.41800000000E+01 0.  1.
        -11    1    3    3    0    0 -0.65854697625E+02  0.67963790350E+01 -0.39519041907E+02  0.77102442507E+02  0.00000000000E+00 0. -1.
         11    1    3    3    0    0  0.15908900470E+02 -0.16636343503E+02  0.18968330816E+02  0.29827145576E+02  0.00000000000E+00 0.  1.
</event>
<event>
 7    1  0.6584658E-006  0.1379783E+03  0.7561462E-02  0.1216075E+00
         -1   -1    0    0    0  501 -0.00000000000E+00  0.00000000000E+00  0.59628182013E+02  0.59628182013E+02  0.00000000000E+00 0.  1.
          1   -1    0    0  501    0  0.00000000000E+00 -0.00000000000E+00 -0.39344186627E+03  0.39344186627E+03  0.00000000000E+00 0. -1.
         23    2    1    2    0    0  0.10216750594E+03 -0.29312661575E+02 -0.17993135257E+03  0.22806988402E+03  0.91340839496E+02 0.  0.
          5    1    1    2  502    0 -0.11076459712E+03  0.54258322168E+02 -0.15516063134E+03  0.19825502621E+03  0.41800000000E+01 0.  1.
         -5    1    1    2    0  502  0.85970911773E+01 -0.24945660593E+02  0.12782996634E+01  0.26745138048E+02  0.41800000000E+01 0.  1.
        -11    1    3    3    0    0  0.89284673011E+02 -0.49345649543E+02 -0.17670062645E+03  0.20403396127E+03  0.00000000000E+00 0. -1.
         11    1    3    3    0    0  0.12882832929E+02  0.20032987968E+02 -0.32307261233E+01  0.24035922751E+02  0.00000000000E+00 0.  1.
</event>
<event>
 7    1  0.6584658E-006  0.1081412E+03  0.7561462E-02  0.1264051E+00
         -2   -1    0    0    0  501 -0.00000000000E+00  0.00000000000E+00  0.25650407570E+02  0.25650407570E+02  0.00000000000E+00 0.  1.
          2   -1    0    0  501    0  0.00000000000E+00 -0.00000000000E+00 -0.64785669401E+03  0.64785669401E+03  0.00000000000E+00 0. -1.
         23    2    1    2    0    0  0.40929735473E+02  0.31941144758E+02 -0.39812828084E+03  0.41167887242E+03  0.90982888632E+02 0.  0.
          5    1    1    2  502    0  0.38736134872E+02 -0.52655937956E+01 -0.27411796422E+02  0.47928004402E+02  0.41800000000E+01 0. -1.
         -5    1    1    2    0  502 -0.79665870345E+02 -0.26675550962E+02 -0.19666620918E+03  0.21390022476E+03  0.41800000000E+01 0. -1.
        -11    1    3    3    0    0 -0.21031244054E+02 -0.37227942828E+01 -0.30942409565E+02  0.37597940548E+02  0.00000000000E+00 0.  1.
         11    1    3    3    0    0  0.61960979527E+02  0.35663939041E+02 -0.36718587127E+03  0.37408093187E+03  0.00000000000E+00 0. -1.
</event>
<event>
 7    1  0.9324109E-006  0.1621331E+03  0.7561462E-02  0.1186309E+00
         -1   -1    0    0    0  501 -0.00000000000E+00  0.00000000000E+00  0.43660494167E+02  0.43660494167E+02  0.00000000000E+00 0.  1.
          1   -1    0    0  501    0  0.00000000000E+00 -0.00000000000E+00 -0.81356861769E+03  0.81356861769E+03  0.00000000000E+00 0. -1.
         23    2    1    2    0    0  0.28364744419E+02 -0.14323056183E+03 -0.47313812023E+03  0.50361943481E+03  0.91941838861E+02 0.  0.
          5    1    1    2  502    0 -0.53657374823E+02  0.50505706780E+02 -0.21511614304E+03  0.22742552119E+03  0.41800000000E+01 0. -1.
         -5    1    1    2    0  502  0.25292630404E+02  0.92724855050E+02 -0.81653860251E+02  0.12618415586E+03  0.41800000000E+01 0. -1.
        -11    1    3    3    0    0 -0.12478146641E+01 -0.10894772505E+03 -0.41946282602E+03  0.43338230957E+03  0.00000000000E+00 0. -1.
         11    1    3    3    0    0  0.29612559083E+02 -0.34282836784E+02 -0.53675294213E+02  0.70237125242E+02  0.00000000000E+00 0.  1.
</event>
<event>
 7    1  0.6584658E-006  0.9906543E+02  0.7561462E-02  0.1282274E+00
         -2   -1    0    0    0  501 -0.00000000000E+00  0.00000000000E+00  0.16075414174E+03  0.16075414174E+03  0.00000000000E+00 0. -1.
          2   -1    0    0  501    0  0.00000000000E+00 -0.00000000000E+00 -0.81198768890E+02  0.81198768890E+02  0.00000000000E+00 0.  1.
         23    2    1    2    0    0 -0.27737358234E+02 -0.17823506415E+02  0.35940938579E+02  0.10543233017E+03  0.93472919910E+02 0.  0.
          5    1    1    2  502    0 -0.44686742708E+02  0.13571206034E+02 -0.77584883580E+01  0.47526299547E+02  0.41800000000E+01 0.  1.
         -5    1    1    2    0  502  0.72424100941E+02  0.42523003808E+01  0.51372922630E+02  0.88994280913E+02  0.41800000000E+01 0.  1.
        -11    1    3    3    0    0 -0.43994591739E+02  0.11118246587E+02 -0.12169450754E+02  0.46981220089E+02  0.00000000000E+00 0.  1.
         11    1    3    3    0    0  0.16257233505E+02 -0.28941753002E+02  0.48110389333E+02  0.58451110082E+02  0.00000000000E+00 0. -1.
</event>
<event>
 7    1  0.6584658E-006  0.1585412E+03  0.7561462E-02  0.1190354E+00
         -1   -1    0    0    0  501 -0.00000000000E+00  0.00000000000E+00  0.41496962242E+02  0.41496962242E+02  0.00000000000E+00 0.  1.
          1   -1    0    0  501    0  0.00000000000E+00 -0.00000000000E+00 -0.86937732662E+03  0.86937732662E+03  0.00000000000E+00 0. -1.
         23    2    1    2    0    0 -0.43074488570E+02  0.13939119112E+03 -0.52123000275E+03  0.54901811754E+03  0.91950322949E+02 0.  0.
          5    1    1    2  502    0  0.51195180001E+02 -0.10767605420E+03 -0.10941036532E+03  0.16187396191E+03  0.41800000000E+01 0. -1.
         -5    1    1    2    0  502 -0.81206914313E+01 -0.31715136919E+02 -0.19723999631E+03  0.19998220941E+03  0.41800000000E+01 0. -1.
        -11    1    3    3    0    0 -0.43870967661E+01  0.12247565100E+03 -0.44827043936E+03  0.46472133425E+03  0.00000000000E+00 0.  1.
         11    1    3    3    0    0 -0.38687391804E+02  0.16915540123E+02 -0.72959563391E+02  0.84296783287E+02  0.00000000000E+00 0. -1.
</event>
<event>
 7    1  0.6584658E-006  0.2995099E+03  0.7561462E-02  0.1085486E+00
         -1   -1    0    0    0  501 -0.00000000000E+00  0.00000000000E+00  0.22155495025E+03  0.22155495025E+03  0.00000000000E+00 0.  1.
          1   -1    0    0  501    0  0.00000000000E+00 -0.00000000000E+00 -0.43163372855E+03  0.43163372855E+03  0.00000000000E+00 0. -1.
         23    2    1    2    0    0 -0.37556618010E+02 -0.28153655648E+03 -0.16229679504E+03  0.33917508955E+03  0.89588835788E+02 0.  0.
          5    1    1    2  502    0  0.79191136374E+01 -0.11764057141E+02  0.23125643651E+01  0.14964148996E+02  0.41800000000E+01 0.  1.
         -5    1    1    2    0  502  0.29637504373E+02  0.29330061362E+03 -0.50094547633E+02  0.29904944026E+03  0.41800000000E+01 0.  1.
        -11    1    3    3    0    0  0.12711024479E+02 -0.25562575940E+02 -0.44681799988E+02  0.53023378638E+02  0.00000000000E+00 0.  1.
         11    1    3    3    0    0 -0.50267642489E+02 -0.25597398054E+03 -0.11761499505E+03  0.28615171091E+03  0.00000000000E+00 0. -1.
</event>
<event>
 7    1  0.6584658E-006  0.1810400E+03  0.7561462E-02  0.1166800E+00
          2   -1    0    0  501    0  0.00000000000E+00  0.00000000000E+00  0.64745588101E+03  0.64745588101E+03  0.00000000000E+00 0. -1.
         -2   -1    0    0    0  501 -0.00000000000E+00 -0.00000000000E+00 -0.64074056008E+02  0.64074056008E+02  0.00000000000E+00 0.  1.
         23    2    1    2    0    0 -0.96444341796E+02  0.10988679508E+03  0.43598561973E+03  0.46914641776E+03  0.92942357890E+02 0.  0.
          5    1    1    2  502    0  0.86565672639E+02 -0.48210804853E+01  0.67287101680E+02  0.10982661312E+03  0.41800000000E+01 0.  1.
         -5    1    1    2    0  502  0.98786691572E+01 -0.10506571459E+03  0.80109103594E+02  0.13255690614E+03  0.41800000000E+01 0.  1.
        -11    1    3    3    0    0 -0.10100424572E+03  0.55807359528E+02  0.33770682330E+03  0.35687843523E+03  0.00000000000E+00 0. -1.
         11    1    3    3    0    0  0.45599039284E+01  0.54079435548E+02  0.98278796437E+02  0.11226798253E+03  0.00000000000E+00 0.  1.
</event>
<event>
 7    1  0.6584658E-006  0.1344679E+03  0.7561462E-02  0.1220973E+00
          1   -1    0    0  501    0  0.00000000000E+00  0.00000000000E+00  0.60199420149E+03  0.60199420149E+03  0.00000000000E+00 0. -1.
         -1   -1    0    0    0  501 -0.00000000000E+00 -0.00000000000E+00 -0.48463090779E+02  0.48463090779E+02  0.00000000000E+00 0.  1.
         23    2    1    2    0    0 -0.55198806676E+02  0.10545510839E+03  0.39612964878E+03  0.42347082032E+03  0.90780773721E+02 0.  0.
          5    1    1    2  502    0 -0.19146837090E+02 -0.28764892909E+02 -0.22223656040E+01  0.34877381546E+02  0.41800000000E+01 0. -1.
         -5    1    1    2    0  502  0.74345643766E+02 -0.76690215482E+02  0.15962382753E+03  0.19210909040E+03  0.41800000000E+01 0.  1.
        -11    1    3    3    0    0  0.16213753607E+01  0.42110383386E+02  0.42899937567E+02  0.60135828673E+02  0.00000000000E+00 0.  1.
         11    1    3    3    0    0 -0.56820182036E+02  0.63344725006E+02  0.35322971121E+03  0.36333499165E+03  0.00000000000E+00 0. -1.
</event>
<event>
 7    1  0.6584658E-006  0.1220214E+03  0.7561462E-02  0.1239799E+00
         -3   -1    0    0    0  501 -0.00000000000E+00  0.00000000000E+00  0.73684118226E+02  0.73684118226E+02  0.00000000000E+00 0.  1.
          3   -1    0    0  501    0  0.00000000000E+00 -0.00000000000E+00 -0.27728019687E+03  0.27728019687E+03  0.00000000000E+00 0. -1.
         23    2    1    2    0    0 -0.40964014438E+02  0.22302229962E+02 -0.11861983536E+03  0.15617385453E+03  0.90245041729E+02 0.  0.
          5    1    1    2  502    0 -0.38459297699E+02 -0.62034458324E+02 -0.75963676252E+02  0.10542933230E+03  0.41800000000E+01 0. -1.
         -5    1    1    2    0  502  0.79423312136E+02  0.39732228362E+02 -0.90125670318E+01  0.89361128271E+02  0.41800000000E+01 0.  1.
        -11    1    3    3    0    0  0.72011277567E+01  0.32082436699E+02 -0.61726427371E+01  0.33455051993E+02  0.00000000000E+00 0.  1.
         11    1    3    3    0    0 -0.48165142194E+02 -0.97802067364E+01 -0.11244719262E+03  0.12271880253E+03  0.00000000000E+00 0. -1.
</event>
<event>
 7    1  0.6584658E-006  0.1165586E+03  0.7561462E-02  0.1248885E+00
         -2   -1    0    0    0  501 -0.00000000000E+00  0.00000000000E+00  0.21930120020E+02  0.21930120020E+02  0.00000000000E+00 0.  1.
          2   -1    0    0  501    0  0.00000000000E+00 -0.00000000000E+00 -0.90515414417E+03  0.90515414417E+03  0.00000000000E+00 0. -1.
         23    2    1    2    0    0  0.59550850595E+02 -0.66569489675E+02 -0.37487336467E+03  0.39600376795E+03  0.91165475529E+02 0.  0.
          5    1    1    2  502    0 -0.10125629587E+02 -0.15281100728E+02 -0.60619923861E+01  0.19755013685E+02  0.41800000000E+01 0.  1.
         -5    1    1    2    0  502 -0.49425221008E+02  0.81850590403E+02 -0.50228866709E+03  0.51132548255E+03  0.41800000000E+01 0.  1.
        -11    1    3    3    0    0  0.71119217696E+02 -0.24883416273E+02 -0.30199332116E+03  0.31125085311E+03  0.00000000000E+00 0. -1.
         11    1    3    3    0    0 -0.11568367101E+02 -0.41686073402E+02 -0.72880043508E+02  0.84752914846E+02  0.00000000000E+00 0.  1.
</event>
<event>
 7    1  0.6584658E-006  0.9743673E+02  0.7561462E-02  0.1285780E+00
          2   -1    0    0  501    0  0.00000000000E+00  0.00000000000E+00  0.21555504601E+03  0.21555504601E+03  0.00000000000E+00 0. -1.
         -2   -1    0    0    0  501 -0.00000000000E+00 -0.00000000000E+00 -0.17708643944E+03  0.17708643944E+03  0.00000000000E+00 0.  1.
         23    2    1    2    0    0  0.56974435301E+02  0.39751397771E+02  0.16541946077E+03  0.20135585754E+03  0.91401988292E+02 0.  0.
          5    1    1    2  502    0 -0.58716536624E+02 -0.10424635415E+02  0.11505477525E+01  0.59792147117E+02  0.41800000000E+01 0. -1.
         -5    1    1    2    0  502  0.17421013235E+01 -0.29326762356E+02 -0.12810140195E+03  0.13149348079E+03  0.41800000000E+01 0. -1.
        -11    1    3    3    0    0  0.19829910447E+02  0.59944644782E+02  0.57298018917E+02  0.85262235240E+02  0.00000000000E+00 0.  1.
         11    1    3    3    0    0  0.37144524854E+02 -0.20193247011E+02  0.10812144185E+03  0.11609362230E+03  0.00000000000E+00 0. -1.
</event>
<event>
 7    1  0.6584658E-006  0.1207645E+03  0.7561462E-02  0.1241841E+00
          2   -1    0    0  501    0  0.00000000000E+00  0.00000000000E+00  0.31906371433E+03  0.31906371433E+03  0.00000000000E+00 0.  1.
         -2   -1    0    0    0  501 -0.00000000000E+00 -0.00000000000E+00 -0.77017157276E+02  0.77017157276E+02  0.00000000000E+00 0. -1.
         23    2    1    2    0    0  0.30919127846E+02 -0.59986450551E+02  0.22698907765E+03  0.25314272884E+03  0.89458555081E+02 0.  0.
          5    1    1    2  502    0 -0.59410206734E+02  0.83458440987E+02 -0.83011481827E+00  0.10253314355E+03  0.41800000000E+01 0. -1.
         -5    1    1    2    0  502  0.28491078888E+02 -0.23471990436E+02  0.15887594226E+02  0.40404999214E+02  0.41800000000E+01 0. -1.
        -11    1    3    3    0    0 -0.54515945730E+01 -0.64917010880E+02  0.19073338686E+03  0.20155188674E+03  0.00000000000E+00 0.  1.
         11    1    3    3    0    0  0.36370722419E+02  0.49305603288E+01  0.36255690794E+02  0.51590842108E+02  0.00000000000E+00 0. -1.
</event>
<event>
 7    1  0.6584658E-006  0.1330248E+03  0.7561462E-02  0.1223035E+00
          2   -1    0    0  501    0  0.00000000000E+00  0.00000000000E+00  0.68857765547E+02  0.68857765547E+02  0.00000000000E+00 0.  1.
         -2   -1    0    0    0  501 -0.00000000000E+00 -0.00000000000E+00 -0.36319323034E+03  0.36319323034E+03  0.00000000000E+00 0. -1.
         23    2    1    2    0    0 -0.11465981381E+03  0.81568387002E+00 -0.11414312071E+03  0.18453004538E+03  0.88742027248E+02 0.  0.
          5    1    1    2  502    0 -0.78127026946E+01  0.11569061991E+02  0.12250559106E+02  0.19037597463E+02  0.41800000000E+01 0.  1.
         -5    1    1    2    0  502  0.12247251650E+03 -0.12384745861E+02 -0.19244290319E+03  0.22848335304E+03  0.41800000000E+01 0.  1.
        -11    1    3    3    0    0 -0.21497810944E+02  0.24086249846E+02 -0.73463073422E+02  0.80244167785E+02  0.00000000000E+00 0.  1.
         11    1    3    3    0    0 -0.93162002866E+02 -0.23270565975E+02 -0.40680047290E+02  0.10428587760E+03  0.00000000000E+00 0. -1.
</event>
<event>
 7    1  0.6584658E-006  0.1113333E+03  0.7561462E-02  0.1258121E+00
         -1   -1    0    0    0  501 -0.00000000000E+00  0.00000000000E+00  0.36202969035E+03  0.36202969035E+03  0.00000000000E+00 0.  1.
          1   -1    0    0  501    0  0.00000000000E+00 -0.00000000000E+00 -0.57196773129E+02  0.57196773129E+02  0.00000000000E+00 0. -1.
         23    2    1    2    0    0 -0.20010050685E+02 -0.24570508445E+02  0.13338854094E+02  0.10044682095E+03  0.94379694835E+02 0.  0.
          5    1    1    2  502    0  0.53721362639E+02  0.59043037151E+02  0.16498445998E+03  0.18332869245E+03  0.41800000000E+01 0.  1.
         -5    1    1    2    0  502 -0.33711311954E+02 -0.34472528706E+02  0.12650960315E+03  0.13545095008E+03  0.41800000000E+01 0.  1.
        -11    1    3    3    0    0 -0.31640774446E+02 -0.54057648963E+02 -0.66245627082E+01  0.62986132204E+02  0.00000000000E+00 0. -1.
         11    1    3    3    0    0  0.11630723761E+02  0.29487140518E+02  0.19963416802E+02  0.37460688749E+02  0.00000000000E+00 0.  1.
</event>
<event>
 7    1  0.6584658E-006  0.1047661E+03  0.7561462E-02  0.1270581E+00
          1   -1    0    0  501    0  0.00000000000E+00  0.00000000000E+00  0.36938897328E+02  0.36938897328E+02  0.00000000000E+00 0. -1.
         -1   -1    0    0    0  501 -0.00000000000E+00 -0.00000000000E+00 -0.40074127270E+03  0.40074127270E+03  0.00000000000E+00 0.  1.
         23    2    1    2    0    0 -0.42214240561E+02  0.12076177562E+02 -0.10055048979E+03  0.14293069678E+03  0.91601893616E+02 0.  0.
          5    1    1    2  502    0  0.32145826752E+02 -0.67433360264E+02 -0.17035229921E+03  0.18605910485E+03  0.41800000000E+01 0.  1.
         -5    1    1    2    0  502  0.10068413809E+02  0.55357182702E+02 -0.92899586370E+02  0.10869036839E+03  0.41800000000E+01 0.  1.
        -11    1    3    3    0    0  0.24248130671E+01  0.30066037268E+02 -0.88240483732E+02  0.93253575184E+02  0.00000000000E+00 0. -1.
         11    1    3    3    0    0 -0.44639053628E+02 -0.17989859705E+02 -0.12310006063E+02  0.49677121598E+02  0.00000000000E+00 0.  1.
</event>
<event>
 7    1  0.6584658E-006  0.2214790E+03  0.7561462E-02  0.1132785E+00
         -1   -1    0    0    0  501 -0.00000000000E+00  0.00000000000E+00  0.80897944201E+03  0.80897944201E+03  0.00000000000E+00 0.  1.
          1   -1    0    0  501    0  0.00000000000E+00 -0.00000000000E+00 -0.75742185271E+02  0.75742185271E+02  0.00000000000E+00 0. -1.
         23    2    1    2    0    0  0.15014262623E+03 -0.12234974634E+03  0.16077661343E+03  0.26757865231E+03  0.90757628342E+02 0.  0.
          5    1    1    2  502    0 -0.69885586397E+02 -0.13444589035E+02  0.14728380271E+03  0.16362989672E+03  0.41800000000E+01 0.  1.
         -5    1    1    2    0  502 -0.80257039837E+02  0.13579433538E+03  0.42517684060E+03  0.45351307825E+03  0.41800000000E+01 0.  1.
        -11    1    3    3    0    0  0.19170974968E+02 -0.70421768500E+02  0.53330384220E+02  0.90392929154E+02  0.00000000000E+00 0. -1.
         11    1    3    3    0    0  0.13097165127E+03 -0.51927977843E+02  0.10744622921E+03  0.17718572315E+03  0.00000000000E+00 0.  1.
</event>
<event>
 7    1  0.6584658E-006  0.8472439E+02  0.7561462E-02  0.1316155E+00
         -2   -1    0    0    0  501 -0.00000000000E+00  0.00000000000E+00  0.90419622920E+02  0.90419622920E+02  0.00000000000E+00 0.  1.
          2   -1    0    0  501    0  0.00000000000E+00 -0.00000000000E+00 -0.16687133049E+03  0.16687133049E+03  0.00000000000E+00 0. -1.
         23    2    1    2    0    0  0.92980858836E+01 -0.47537548889E+02 -0.67054594439E+02  0.12281988362E+03  0.90786189592E+02 0.  0.
          5    1    1    2  502    0  0.37739677751E+02  0.45992824189E+02  0.35405000376E+02  0.69358558269E+02  0.41800000000E+01 0.  1.
         -5    1    1    2    0  502 -0.47037763634E+02  0.15447247005E+01 -0.44802113504E+02  0.65112511521E+02  0.41800000000E+01 0.  1.
        -11    1    3    3    0    0  0.18670081407E+02 -0.54624500458E+01  0.18610056607E+02  0.26921079235E+02  0.00000000000E+00 0.  1.
         11    1    3    3    0    0 -0.93719955237E+01 -0.42075098843E+02 -0.85664651046E+02  0.95898804380E+02  0.00000000000E+00 0. -1.
</event>
<event>
 7    1  0.6584658E-006  0.1046136E+03  0.7561462E-02  0.1270883E+00
         -1   -1    0    0    0  501 -0.00000000000E+00  0.00000000000E+00  0.30074429957E+02  0.30074429957E+02  0.00000000000E+00 0.  1.
          1   -1    0    0  501    0  0.00000000000E+00 -0.00000000000E+00 -0.44440231407E+03  0.44440231407E+03  0.00000000000E+00 0. -1.
         23    2    1    2    0    0  0.43772083550E+02 -0.90150738496E+01 -0.19622285730E+03  0.21910444678E+03  0.86637647800E+02 0.  0.
          5    1    1    2  502    0  0.11982934504E+02  0.56672923779E+02 -0.11418618846E+03  0.12810686572E+03  0.41800000000E+01 0.  1.
         -5    1    1    2    0  502 -0.55755018054E+02 -0.47657849930E+02 -0.10391883835E+03  0.12726543153E+03  0.41800000000E+01 0.  1.
        -11    1    3    3    0    0  0.13521834477E+02  0.27272959690E+02 -0.19442118968E+02  0.36119943630E+02  0.00000000000E+00 0.  1.
         11    1    3    3    0    0  0.30250249074E+02 -0.36288033540E+02 -0.17678073834E+03  0.18298450315E+03  0.00000000000E+00 0. -1.
</event>
<event>
 7    1  0.6584658E-006  0.1419237E+03  0.7561462E-02  0.1210764E+00
          3   -1    0    0  501    0  0.00000000000E+00  0.00000000000E+00  0.26396845052E+03  0.26396845052E+03  0.00000000000E+00 0. -1.
         -3   -1    0    0    0  501 -0.00000000000E+00 -0.00000000000E+00 -0.13854648839E+03  0.13854648839E+03  0.00000000000E+00 0.  1.
         23    2    1    2    0    0  0.50647057962E+02  0.10494453449E+03  0.16932283634E+03  0.22424357793E+03  0.89646413980E+02 0.  0.
          5    1    1    2  502    0 -0.66730695305E+02 -0.18314093754E+02  0.16628832102E+02  0.71290828183E+02  0.41800000000E+01 0. -1.
         -5    1    1    2    0  502  0.16083637343E+02 -0.86630440732E+02 -0.60529706313E+02  0.10698053280E+03  0.41800000000E+01 0.  1.
        -11    1    3    3    0    0  0.29847965791E+02  0.13905158925E+02  0.24516038974E+01  0.33019159109E+02  0.00000000000E+00 0.  1.
         11    1    3    3    0    0  0.20799092170E+02  0.91039375561E+02  0.16687123244E+03  0.19122441883E+03  0.00000000000E+00 0. -1.
</event>
<event>
 7    1  0.6584658E-006  0.1239031E+03  0.7561462E-02  0.1236794E+00
         -1   -1    0    0    0  501 -0.00000000000E+00  0.00000000000E+00  0.14762911325E+03  0.14762911325E+03  0.00000000000E+00 0.  1.
          1   -1    0    0  501    0  0.00000000000E+00 -0.00000000000E+00 -0.18246382569E+03  0.18246382569E+03  0.00000000000E+00 0. -1.
         23    2    1    2    0    0  0.10065975089E+03  0.36657263874E+02 -0.78531326185E+02  0.15970150630E+03  0.88663755145E+02 0.  0.
          5    1    1    2  502    0 -0.38230619852E+02 -0.22656595095E+02  0.83672441745E+02  0.94833809915E+02  0.41800000000E+01 0. -1.
         -5    1    1    2    0  502 -0.62429131040E+02 -0.14000668779E+02 -0.39975827998E+02  0.75557622731E+02  0.41800000000E+01 0. -1.
        -11    1    3    3    0    0  0.85397736232E+02 -0.13650715971E+02 -0.48180747194E+02  0.98997473706E+02  0.00000000000E+00 0.  1.
         11    1    3    3    0    0  0.15262014659E+02  0.50307979845E+02 -0.30350578991E+02  0.60704032589E+02  0.00000000000E+00 0. -1.
</event>
<event>
 7    1  0.6584658E-006  0.1282887E+03  0.7561462E-02  0.1230017E+00
          1   -1    0    0  501    0  0.00000000000E+00  0.00000000000E+00  0.56899325233E+03  0.56899325233E+03  0.00000000000E+00 0. -1.
         -1   -1    0    0    0  501 -0.00000000000E+00 -0.00000000000E+00 -0.47460823478E+02  0.47460823478E+02  0.00000000000E+00 0.  1.
         23    2    1    2    0    0 -0.66172044311E+02 -0.25043500700E+02  0.43224838099E+03  0.44726190619E+03  0.90546305761E+02 0.  0.
          5    1    1    2  502    0  0.10246260888E+03  0.24465348197E+02  0.54211837002E+02  0.11854760711E+03  0.41800000000E+01 0. -1.
         -5    1    1    2    0  502 -0.36290564566E+02  0.57815250380E+00  0.35072210860E+02  0.50644562506E+02  0.41800000000E+01 0. -1.
        -11    1    3    3    0    0 -0.59600100110E+02  0.24645442652E+02  0.25896662694E+03  0.26687690729E+03  0.00000000000E+00 0. -1.
         11    1    3    3    0    0 -0.65719442012E+01 -0.49688943352E+02  0.17328175404E+03  0.18038499890E+03  0.00000000000E+00 0.  1.
</event>
<event>
 7    1  0.6584658E-006  0.3845472E+03  0.7561462E-02  0.1049266E+00
         -2   -1    0    0    0  501 -0.00000000000E+00  0.00000000000E+00  0.15392677045E+03  0.15392677045E+03  0.00000000000E+00 0. -1.
          2   -1    0    0  501    0  0.00000000000E+00 -0.00000000000E+00 -0.10291237511E+04  0.10291237511E+04  0.00000000000E+00 0.  1.
         23    2    1    2    0    0  0.37229092247E+03  0.78950776120E+02 -0.49518642209E+03  0.63088339002E+03  0.89277674551E+02 0.  0.
          5    1    1    2  502    0 -0.18213035566E+03 -0.67198798316E+02 -0.11475067723E+03  0.22554896424E+03  0.41800000000E+01 0.  1.
         -5    1    1    2    0  502 -0.19016056682E+03 -0.11751977804E+02 -0.26525988130E+03  0.32661816726E+03  0.41800000000E+01 0.  1.
        -11    1    3    3    0    0  0.20897702325E+03  0.71480346646E+02 -0.34022228548E+03  0.40562549198E+03  0.00000000000E+00 0.  1.
         11    1    3    3    0    0  0.16331389922E+03  0.74704294749E+01 -0.15496413661E+03  0.22525789804E+03  0.00000000000E+00 0. -1.
</event>
<event>
 7    1  0.6584658E-006  0.1442785E+03  0.7561462E-02  0.1207685E+00
          1   -1    0    0  501    0  0.00000000000E+00  0.00000000000E+00  0.54330864697E+03  0.54330864697E+03  0.00000000000E+00 0. -1.
         -1   -1    0    0    0  501 -0.00000000000E+00 -0.00000000000E+00 -0.49617684200E+02  0.49617684200E+02  0.00000000000E+00 0.  1.
         23    2    1    2    0    0  0.10622027275E+03  0.51444230964E+02  0.29524723657E+03  0.33033905999E+03  0.89575156199E+02 0.  0.
          5    1    1    2  502    0  0.15497073272E+02 -0.42915610607E+02  0.30838035145E+02  0.55230116109E+02  0.41800000000E+01 0.  1.
         -5    1    1    2    0  502 -0.12171734602E+03 -0.85286203574E+01  0.16760569105E+03  0.20735715507E+03  0.41800000000E+01 0.  1.
        -11    1    3    3    0    0  0.54527022901E+02  0.12532273510E+02  0.44816977044E+02  0.71685532272E+02  0.00000000000E+00 0.  1.
         11    1    3    3    0    0  0.51693249846E+02  0.38911957454E+02  0.25043025953E+03  0.25865352771E+03  0.00000000000E+00 0. -1.
</event>
<event>
 7    1  0.6584658E-006  0.1611667E+03  0.7561462E-02  0.1187386E+00
          2   -1    0    0  501    0  0.00000000000E+00  0.00000000000E+00  0.14632555178E+04  0.14632555178E+04  0.00000000000E+00 0.  1.
         -2   -1    0    0    0  501 -0.00000000000E+00 -0.00000000000E+00 -0.23424719306E+02  0.23424719306E+02  0.00000000000E+00 0. -1.
         23    2    1    2    0    0  0.12572498178E+03 -0.77376305630E+02  0.59420676072E+03  0.61919990219E+03  0.92374134228E+02 0.  0.
          5    1    1    2  502    0 -0.39513820627E+02 -0.99797313766E+01  0.62135616420E+02  0.74426099500E+02  0.41800000000E+01 0.  1.
         -5    1    1    2    0  502 -0.86211161154E+02  0.87356037006E+02  0.78348842132E+03  0.79305423538E+03  0.41800000000E+01 0.  1.
        -11    1    3    3    0    0  0.62866855108E+02 -0.71833934302E+02  0.22157481717E+03  0.24126283426E+03  0.00000000000E+00 0. -1.
         11    1    3    3    0    0  0.62858126673E+02 -0.55423713278E+01  0.37263194354E+03  0.37793706793E+03  0.00000000000E+00 0.  1.
</event>
<event>
 7    1  0.6584658E-006  0.1510491E+03  0.7561462E-02  0.1199190E+00
         -1   -1    0    0    0  501 -0.00000000000E+00  0.00000000000E+00  0.23410970623E+03  0.23410970623E+03  0.00000000000E+00 0.  1.
          1   -1    0    0  501    0  0.00000000000E+00 -0.00000000000E+00 -0.13598709839E+03  0.13598709839E+03  0.00000000000E+00 0. -1.
         23    2    1    2    0    0  0.11277674850E+03  0.79516573494E+02  0.74575558755E+02  0.18236363642E+03  0.93024198273E+02 0.  0.
          5    1    1    2  502    0 -0.12395714193E+03 -0.63854562325E+02 -0.19059571953E+02  0.14079601503E+03  0.41800000000E+01 0. -1.
         -5    1    1    2    0  502  0.11180393431E+02 -0.15662011169E+02  0.42606621043E+02  0.46937153171E+02  0.41800000000E+01 0. -1.
        -11    1    3    3    0    0  0.66223726165E+02  0.23962693233E+02  0.83614827699E+02  0.10932169037E+03  0.00000000000E+00 0.  1.
         11    1    3    3    0    0  0.46553022333E+02  0.55553880262E+02 -0.90392689443E+01  0.73041946055E+02  0.00000000000E+00 0. -1.
</event>
<event>
 7    1  0.6584658E-006  0.7187474E+02  0.7561462E-02  0.1353832E+00
         -2   -1    0    0    0  501 -0.00000000000E+00  0.00000000000E+00  0.52464031664E+02  0.52464031664E+02  0.00000000000E+00 0.  1.
          2   -1    0    0  501    0  0.00000000000E+00 -0.00000000000E+00 -0.28009629558E+03  0.28009629558E+03  0.00000000000E+00 0. -1.
         23    2    1    2    0    0  0.16011315559E+02  0.60917137835E+02 -0.11110371088E+03  0.15036904045E+03  0.79369728779E+02 0.  0.
          5    1    1    2  502    0  0.15030525227E+02 -0.36465776730E+02 -0.13328916231E+03  0.13906524638E+03  0.41800000000E+01 0.  1.
         -5    1    1    2    0  502 -0.31041840786E+02 -0.24451361105E+02  0.16760609270E+02  0.43126040421E+02  0.41800000000E+01 0.  1.
        -11    1    3    3    0    0  0.28235474373E+01  0.36421300545E+02 -0.72438330536E+00  0.36537765185E+02  0.00000000000E+00 0.  1.
         11    1    3    3    0    0  0.13187768122E+02  0.24495837290E+02 -0.11037932757E+03  0.11383127527E+03  0.00000000000E+00 0. -1.
</event>
<event>
 7    1  0.6584658E-006  0.1045216E+03  0.7561462E-02  0.1271065E+00
          1   -1    0    0  501    0  0.00000000000E+00  0.00000000000E+00  0.85844774817E+02  0.85844774817E+02  0.00000000000E+00 0. -1.
         -1   -1    0    0    0  501 -0.00000000000E+00 -0.00000000000E+00 -0.16032749540E+03  0.16032749540E+03  0.00000000000E+00 0.  1.
         23    2    1    2    0    0 -0.17541577675E+02 -0.57843369518E-01  0.11783726744E+02  0.93231689588E+02  0.90805183961E+02 0.  0.
          5    1    1    2  502    0  0.70486753482E+02 -0.10810028540E+02 -0.56633992396E+02  0.91159863034E+02  0.41800000000E+01 0.  1.
         -5    1    1    2    0  502 -0.52945175807E+02  0.10867871910E+02 -0.29632454927E+02  0.61780717591E+02  0.41800000000E+01 0.  1.
        -11    1    3    3    0    0  0.69523936317E+01  0.37731282572E+02  0.25604402702E+02  0.46125599177E+02  0.00000000000E+00 0. -1.
         11    1    3    3    0    0 -0.24493971307E+02 -0.37789125942E+02 -0.13820675958E+02  0.47106090410E+02  0.00000000000E+00 0.  1.
</event>
<event>
 7    1  0.6584658E-006  0.2084896E+03  0.7561462E-02  0.1142768E+00
         -2   -1    0    0    0  501 -0.00000000000E+00  0.00000000000E+00  0.16923143049E+04  0.16923143049E+04  0.00000000000E+00 0.  1.
          2   -1    0    0  501    0  0.00000000000E+00 -0.00000000000E+00 -0.40313613733E+02  0.40313613733E+02  0.00000000000E+00 0. -1.
         23    2    1    2    0    0 -0.16953404140E+03 -0.95387705080E+02  0.34743112229E+03  0.40771849207E+03  0.87666290929E+02 0.  0.
          5    1    1    2  502    0  0.10061565912E+03  0.90166322853E+02  0.11136153172E+04  0.11217887608E+04  0.41800000000E+01 0.  1.
         -5    1    1    2    0  502  0.68918382280E+02  0.52213822273E+01  0.19095425172E+03  0.20312066585E+03  0.41800000000E+01 0.  1.
        -11    1    3    3    0    0 -0.40623812656E+02 -0.70366174232E+02  0.15026538743E+03  0.17082558149E+03  0.00000000000E+00 0. -1.
         11    1    3    3    0    0 -0.12891022875E+03 -0.25021530848E+02  0.19716573485E+03  0.23689291058E+03  0.00000000000E+00 0.  1.
</event>
<event>
 7    1  0.6584658E-006  0.1090987E+03  0.7561462E-02  0.1262248E+00
          2   -1    0    0  501    0  0.00000000000E+00  0.00000000000E+00  0.24403076466E+02  0.24403076466E+02  0.00000000000E+00 0. -1.
         -2   -1    0    0    0  501 -0.00000000000E+00 -0.00000000000E+00 -0.61526122127E+03  0.61526122127E+03  0.00000000000E+00 0.  1.
         23    2    1    2    0    0 -0.45527761490E+01  0.31748301408E+02 -0.13112611864E+03  0.16214018775E+03  0.89814804353E+02 0.  0.
          5    1    1    2  502    0  0.61492487630E+02 -0.13877461269E+02 -0.30823173121E+03  0.31463976623E+03  0.41800000000E+01 0. -1.
         -5    1    1    2    0  502 -0.56939711481E+02 -0.17870840139E+02 -0.15150029495E+03  0.16288434375E+03  0.41800000000E+01 0. -1.
        -11    1    3    3    0    0  0.42596291720E+02  0.15118143654E+02 -0.67162717673E+02  0.80955747054E+02  0.00000000000E+00 0.  1.
         11    1    3    3    0    0 -0.47149067869E+02  0.16630157754E+02 -0.63963400968E+02  0.81184440696E+02  0.00000000000E+00 0. -1.
</event>
<event>
 7    1  0.6584658E-006  0.9499085E+02  0.7561462E-02  0.1291197E+00
         -1   -1    0    0    0  501 -0.00000000000E+00  0.00000000000E+00  0.24289518570E+03  0.24289518570E+03  0.00000000000E+00 0.  1.
          1   -1    0    0  501    0  0.00000000000E+00 -0.00000000000E+00 -0.50278268982E+02  0.50278268982E+02  0.00000000000E+00 0. -1.
         23    2    1    2    0    0 -0.27989482930E+02  0.99184368453E+01  0.46142717781E+02  0.10488347983E+03  0.89384603779E+02 0.  0.
          5    1    1    2  502    0 -0.26375642580E+02  0.24703371837E+02  0.10673674465E+02  0.37912146184E+02  0.41800000000E+01 0. -1.
         -5    1    1    2    0  502  0.54365125510E+02 -0.34621808682E+02  0.13580052447E+03  0.15037782867E+03  0.41800000000E+01 0.  1.
        -11    1    3    3    0    0  0.26553742581E+02 -0.13343411314E+02  0.32498387734E+02  0.44037405417E+02  0.00000000000E+00 0.  1.
         11    1    3    3    0    0 -0.54543225511E+02  0.23261848160E+02  0.13644330047E+02  0.60846074412E+02  0.00000000000E+00 0. -1.
</event>
<event>
 7    1  0.6584658E-006  0.1051625E+03  0.7561462E-02  0.1269800E+00
         -2   -1    0    0    0  501 -0.00000000000E+00  0.00000000000E+00  0.63207899817E+02  0.63207899817E+02  0.00000000000E+00 0.  1.
          2   -1    0    0  501    0  0.00000000000E+00 -0.00000000000E+00 -0.22301168823E+03  0.22301168823E+03  0.00000000000E+00 0. -1.
         23    2    1    2    0    0 -0.58842003919E+01  0.27449471325E+02 -0.68854886055E+02  0.12903389062E+03  0.10545450348E+03 0.  0.
          5    1    1    2  502    0  0.54247901190E+02 -0.25903360822E+02 -0.90363784735E+02  0.10861355752E+03  0.41800000000E+01 0.  1.
         -5    1    1    2    0  502 -0.48363700798E+02 -0.15461105029E+01 -0.58511762076E+00  0.48572139908E+02  0.41800000000E+01 0.  1.
        -11    1    3    3    0    0 -0.49483031297E+02 -0.89949190347E+00 -0.99941514305E+01  0.50490222171E+02  0.00000000000E+00 0.  1.
         11    1    3    3    0    0  0.43598830905E+02  0.28348963228E+02 -0.58860734625E+02  0.78543668446E+02  0.00000000000E+00 0. -1.
</event>
<event>
 7    1  0.6584658E-006  0.1284537E+03  0.7561462E-02  0.1229768E+00
          2   -1    0    0  501    0  0.00000000000E+00  0.00000000000E+00  0.49636299402E+03  0.49636299402E+03  0.00000000000E+00 0. -1.
         -2   -1    0    0    0  501 -0.00000000000E+00 -0.00000000000E+00 -0.54558330787E+02  0.54558330787E+02  0.00000000000E+00 0.  1.
         23    2    1    2    0    0  0.10650221882E+03  0.45738129201E+02  0.27000399590E+03  0.30645867391E+03  0.87063551137E+02 0.  0.
          5    1    1    2  502    0  0.46419819047E+01 -0.13754799514E+02  0.11419211008E+03  0.11518703447E+03  0.41800000000E+01 0. -1.
         -5    1    1    2    0  502 -0.11114420073E+03 -0.31983329687E+02  0.57608557256E+02  0.12927561643E+03  0.41800000000E+01 0.  1.
        -11    1    3    3    0    0  0.30113624527E+02 -0.97535213594E+01  0.15235409924E+03  0.15560762550E+03  0.00000000000E+00 0.  1.
         11    1    3    3    0    0  0.76388594296E+02  0.55491650560E+02  0.11764989666E+03  0.15085104841E+03  0.00000000000E+00 0. -1.
</event>
<event>
 7    1  0.6584658E-006  0.1019860E+03  0.7561462E-02  0.1276174E+00
         -1   -1    0    0    0  501 -0.00000000000E+00  0.00000000000E+00  0.47659617596E+02  0.47659617596E+02  0.00000000000E+00 0.  1.
          1   -1    0    0  501    0  0.00000000000E+00 -0.00000000000E+00 -0.36886190204E+03  0.36886190204E+03  0.00000000000E+00 0. -1.
         23    2    1    2    0    0 -0.20333630650E+01  0.11079120522E+02 -0.26196414579E+03  0.27765771076E+03  0.91332957835E+02 0.  0.
          5    1    1    2  502    0  0.21163548139E+02 -0.58047380163E+02 -0.62356420270E+02  0.87881679902E+02  0.41800000000E+01 0. -1.
         -5    1    1    2    0  502 -0.19130185074E+02  0.46968259640E+02  0.31182816180E+01  0.50982128975E+02  0.41800000000E+01 0. -1.
        -11    1    3    3    0    0  0.43164225812E+02 -0.43916717661E+01 -0.14377728553E+03  0.15018104077E+03  0.00000000000E+00 0. -1.
         11    1    3    3    0    0 -0.45197588877E+02  0.15470792288E+02 -0.11818686026E+03  0.12747666999E+03  0.00000000000E+00 0.  1.
</event>
<event>
 7    1  0.6584658E-006  0.1990605E+03  0.7561462E-02  0.1150534E+00
          3   -1    0    0  501    0  0.00000000000E+00  0.00000000000E+00  0.13400591329E+03  0.13400591329E+03  0.00000000000E+00 0. -1.
         -3   -1    0    0    0  501 -0.00000000000E+00 -0.00000000000E+00 -0.87223025211E+03  0.87223025211E+03  0.00000000000E+00 0.  1.
         23    2    1    2    0    0 -0.99179221080E+02  0.15792677109E+03  0.26043574682E+02  0.20966177986E+03  0.92208520385E+02 0.  0.
          5    1    1    2  502    0 -0.76075061262E+01 -0.74803057723E+02 -0.41893813346E+03  0.42565244468E+03  0.41800000000E+01 0.  1.
         -5    1    1    2    0  502  0.10678672721E+03 -0.83123713362E+02 -0.34532978005E+03  0.37092194087E+03  0.41800000000E+01 0.  1.
        -11    1    3    3    0    0 -0.35985146952E+02  0.74801993612E+02 -0.33438487572E+02  0.89489672592E+02  0.00000000000E+00 0.  1.
         11    1    3    3    0    0 -0.63194074128E+02  0.83124777473E+02  0.59482062254E+02  0.12017210727E+03  0.00000000000E+00 0. -1.
</event>
<event>
 7    1  0.6584658E-006  0.1211956E+03  0.7561462E-02  0.1241138E+00
         -2   -1    0    0    0  501 -0.00000000000E+00  0.00000000000E+00  0.67478350375E+02  0.67478350375E+02  0.00000000000E+00 0.  1.
          2   -1    0    0  501    0  0.00000000000E+00 -0.00000000000E+00 -0.27646408445E+03  0.27646408445E+03  0.00000000000E+00 0. -1.
         23    2    1    2    0    0 -0.10306600800E+02 -0.82540379316E+02 -0.99931837609E+02  0.15831077430E+03  0.90314942592E+02 0.  0.
          5    1    1    2  502    0  0.56950580817E+01  0.10365773796E+03 -0.12187811864E+03  0.16015339063E+03  0.41800000000E+01 0.  1.
         -5    1    1    2    0  502  0.46115427179E+01 -0.21117358641E+02  0.12824222179E+02  0.25478269892E+02  0.41800000000E+01 0.  1.
        -11    1    3    3    0    0  0.28712080702E+02 -0.42796640916E+01 -0.53878322383E+01  0.29525037497E+02  0.00000000000E+00 0.  1.
         11    1    3    3    0    0 -0.39018681502E+02 -0.78260715225E+02 -0.94544005370E+02  0.12878573681E+03  0.00000000000E+00 0. -1.
</event>
<event>
 7    1  0.6584658E-006  0.1320501E+03  0.7561462E-02  0.1224445E+00
         -1   -1    0    0    0  501 -0.00000000000E+00  0.00000000000E+00  0.16121131656E+02  0.16121131656E+02  0.00000000000E+00 0.  1.
          1   -1    0    0  501    0  0.00000000000E+00 -0.00000000000E+00 -0.19078254731E+04  0.19078254731E+04  0.00000000000E+00 0. -1.
         23    2    1    2    0    0  0.11156426262E+03 -0.47834682293E+02 -0.53899166058E+03  0.56005005331E+03  0.91702292803E+02 0.  0.
          5    1    1    2  502    0 -0.71451095432E+02  0.65949767957E+02 -0.46461540293E+03  0.47469945858E+03  0.41800000000E+01 0.  1.
         -5    1    1    2    0  502 -0.40113167188E+02 -0.18115085664E+02 -0.88809727793E+03  0.88919709288E+03  0.41800000000E+01 0.  1.
        -11    1    3    3    0    0  0.73759916131E+01 -0.83577030744E+01 -0.16374127125E+01  0.11266657594E+02  0.00000000000E+00 0.  1.
         11    1    3    3    0    0  0.10418827101E+03 -0.39476979218E+02 -0.53735424787E+03  0.54878339571E+03  0.00000000000E+00 0. -1.
</event>
<event>
 7    1  0.6584658E-006  0.1301324E+03  0.7561462E-02  0.1227259E+00
         -2   -1    0    0    0  501 -0.00000000000E+00  0.00000000000E+00  0.67966015780E+02  0.67966015780E+02  0.00000000000E+00 0.  1.
          2   -1    0    0  501    0  0.00000000000E+00 -0.00000000000E+00 -0.26753079556E+03  0.26753079556E+03  0.00000000000E+00 0. -1.
         23    2    1    2    0    0 -0.77693983790E+02 -0.46564041639E+01 -0.11917689055E+03  0.16766486551E+03  0.88602136935E+02 0.  0.
          5    1    1    2  502    0  0.79544896218E+02  0.54192021869E+02 -0.63105897317E+02  0.11516940750E+03  0.41800000000E+01 0.  1.
         -5    1    1    2    0  502 -0.18509124273E+01 -0.49535617705E+02 -0.17281991913E+02  0.52662538324E+02  0.41800000000E+01 0.  1.
        -11    1    3    3    0    0  0.24267536042E+01 -0.30035310068E+02 -0.14548085033E+02  0.33461257628E+02  0.00000000000E+00 0.  1.
         11    1    3    3    0    0 -0.80120737394E+02  0.25378905904E+02 -0.10462880552E+03  0.13420360788E+03  0.00000000000E+00 0. -1.
</event>
<event>
 7    1  0.6584658E-006  0.8541411E+02  0.7561462E-02  0.1314353E+00
          1   -1    0    0  501    0  0.00000000000E+00  0.00000000000E+00  0.72451378212E+02  0.72451378212E+02  0.00000000000E+00 0. -1.
         -1   -1    0    0    0  501 -0.00000000000E+00 -0.00000000000E+00 -0.18632305652E+03  0.18632305652E+03  0.00000000000E+00 0.  1.
         23    2    1    2    0    0  0.36081462887E+01  0.14248746246E+02 -0.40379556295E+01  0.91661645059E+02  0.90385322924E+02 0.  0.
          5    1    1    2  502    0 -0.13426292919E+02  0.50502957563E+02 -0.78488509217E+02  0.94386082360E+02  0.41800000000E+01 0.  1.
         -5    1    1    2    0  502  0.98181466307E+01 -0.64751703809E+02 -0.31345213457E+02  0.72726707310E+02  0.41800000000E+01 0.  1.
        -11    1    3    3    0    0 -0.11992967420E+02 -0.15254759129E+02  0.35172850734E+02  0.40170491313E+02  0.00000000000E+00 0. -1.
         11    1    3    3    0    0  0.15601113709E+02  0.29503505375E+02 -0.39210806363E+02  0.51491153745E+02  0.00000000000E+00 0.  1.
</event>
<event>
 7    1  0.6584658E-006  0.1078574E+03  0.7561462E-02  0.1264590E+00
          1   -1    0    0  501    0  0.00000000000E+00  0.00000000000E+00  0.52359564552E+03  0.52359564552E+03  0.00000000000E+00 0. -1.
         -1   -1    0    0    0  501 -0.00000000000E+00 -0.00000000000E+00 -0.23549722911E+02  0.23549722911E+02  0.00000000000E+00 0.  1.
         23    2    1    2    0    0  0.50383770299E+01  0.14758384592E+02  0.23596966330E+03  0.25452249489E+03  0.94110696768E+02 0.  0.
          5    1    1    2  502    0 -0.14566676528E+02 -0.66250326885E+02  0.19016724287E+03  0.20194639521E+03  0.41800000000E+01 0.  1.
         -5    1    1    2    0  502  0.95282994976E+01  0.51491942293E+02  0.73909016441E+02  0.90676478337E+02  0.41800000000E+01 0.  1.
        -11    1    3    3    0    0 -0.15541192128E+02 -0.36670121819E+02  0.10633313484E+03  0.11354717985E+03  0.00000000000E+00 0.  1.
         11    1    3    3    0    0  0.20579569158E+02  0.51428506411E+02  0.12963652847E+03  0.14097531504E+03  0.00000000000E+00 0. -1.
</event>
<event>
 7    1  0.6584658E-006  0.1164000E+03  0.7561462E-02  0.1249157E+00
         -2   -1    0    0    0  501 -0.00000000000E+00  0.00000000000E+00  0.35634715025E+02  0.35634715025E+02  0.00000000000E+00 0.  1.
          2   -1    0    0  501    0  0.00000000000E+00 -0.00000000000E+00 -0.50209045186E+03  0.50209045186E+03  0.00000000000E+00 0. -1.
         23    2    1    2    0    0 -0.18521765550E+02  0.76818727333E+02 -0.17260992631E+03  0.20873339026E+03  0.86782883566E+02 0.  0.
          5    1    1    2  502    0  0.52912935255E+02  0.68619166446E+01 -0.74928364746E+02  0.92079296592E+02  0.41800000000E+01 0. -1.
         -5    1    1    2    0  502 -0.34391169704E+02 -0.83680643977E+02 -0.21891744577E+03  0.23691248003E+03  0.41800000000E+01 0. -1.
        -11    1    3    3    0    0  0.63286062102E+00  0.67335100531E+02 -0.48974762263E+02  0.83264299761E+02  0.00000000000E+00 0.  1.
         11    1    3    3    0    0 -0.19154626171E+02  0.94836268019E+01 -0.12363516405E+03  0.12546909050E+03  0.00000000000E+00 0. -1.
</event>
<event>
 7    1  0.6584658E-006  0.1176047E+03  0.7561462E-02  0.1247102E+00
         -2   -1    0    0    0  501 -0.00000000000E+00  0.00000000000E+00  0.91938911799E+02  0.91938911799E+02  0.00000000000E+00 0.  1.
          2   -1    0    0  501    0  0.00000000000E+00 -0.00000000000E+00 -0.20134394166E+03  0.20134394166E+03  0.00000000000E+00 0. -1.
         23    2    1    2    0    0  0.59093204156E+02 -0.57459624856E+02 -0.56027966820E+02  0.13425575452E+03  0.89954762463E+02 0.  0.
          5    1    1    2  502    0  0.76813231349E+01 -0.30755686857E+02  0.72658895551E+01  0.32789945870E+02  0.41800000000E+01 0.  1.
         -5    1    1    2    0  502 -0.66774527291E+02  0.88215311713E+02 -0.60642952598E+02  0.12623715307E+03  0.41800000000E+01 0.  1.
        -11    1    3    3    0    0  0.63334229961E+02 -0.40827245932E+02  0.31759471943E+00  0.75353762756E+02  0.00000000000E+00 0.  1.
         11    1    3    3    0    0 -0.42410258048E+01 -0.16632378924E+02 -0.56345561539E+02  0.58901991764E+02  0.00000000000E+00 0. -1.
</event>
<event>
 7    1  0.9816058E-006  0.1012481E+03  0.7561462E-02  0.1277693E+00
          2   -1    0    0  501    0  0.00000000000E+00  0.00000000000E+00  0.26058810788E+03  0.26058810788E+03  0.00000000000E+00 0.  1.
         -2   -1    0    0    0  501 -0.00000000000E+00 -0.00000000000E+00 -0.63272915338E+02  0.63272915338E+02  0.00000000000E+00 0. -1.
         23    2    1    2    0    0  0.60571900865E+02 -0.10385260643E+02  0.10301509445E+03  0.15558511219E+03  0.99084855738E+02 0.  0.
          5    1    1    2  502    0 -0.13918890765E+02  0.64863237857E+02  0.35026477648E+02  0.75135222645E+02  0.41800000000E+01 0.  1.
         -5    1    1    2    0  502 -0.46653010100E+02 -0.54477977214E+02  0.59273620447E+02  0.93140688389E+02  0.41800000000E+01 0.  1.
        -11    1    3    3    0    0  0.25804608173E+02  0.47878941294E+01  0.11328507814E+03  0.11628547056E+03  0.00000000000E+00 0.  1.
         11    1    3    3    0    0  0.34767292693E+02 -0.15173154772E+02 -0.10269983695E+02  0.39299641627E+02  0.00000000000E+00 0. -1.
</event>
<event>
 7    1  0.6584658E-006  0.1596508E+03  0.7561462E-02  0.1189092E+00
          1   -1    0    0  501    0  0.00000000000E+00  0.00000000000E+00  0.85276586229E+03  0.85276586229E+03  0.00000000000E+00 0. -1.
         -1   -1    0    0    0  501 -0.00000000000E+00 -0.00000000000E+00 -0.94587703593E+02  0.94587703593E+02  0.00000000000E+00 0.  1.
         23    2    1    2    0    0  0.15171054667E+03 -0.43369008253E+02  0.71983885923E+03  0.74237613993E+03  0.89762960190E+02 0.  0.
          5    1    1    2  502    0 -0.71354926087E+02  0.19160722703E+02 -0.45017567057E+02  0.86618199677E+02  0.41800000000E+01 0.  1.
         -5    1    1    2    0  502 -0.80355620586E+02  0.24208285550E+02  0.83356866520E+02  0.11835922628E+03  0.41800000000E+01 0.  1.
        -11    1    3    3    0    0  0.12543820521E+02  0.56077737950E+01  0.90858881069E+01  0.16472641649E+02  0.00000000000E+00 0.  1.
         11    1    3    3    0    0  0.13916672615E+03 -0.48976782048E+02  0.71075297112E+03  0.72590349828E+03  0.00000000000E+00 0. -1.
</event>
<event>
 7    1  0.7208390E-006  0.3211679E+03  0.7561462E-02  0.1075113E+00
         -2   -1    0    0    0  501 -0.00000000000E+00  0.00000000000E+00  0.25017359454E+03  0.25017359454E+03  0.00000000000E+00 0.  1.
          2   -1    0    0  501    0  0.00000000000E+00 -0.00000000000E+00 -0.54024478559E+03  0.54024478559E+03  0.00000000000E+00 0. -1.
         23    2    1    2    0    0  0.16997963518E+03 -0.26915104895E+03 -0.30241301825E+03  0.44816818249E+03  0.89809368464E+02 0.  0.
          5    1    1    2  502    0 -0.13057670001E+02  0.46274963960E+02  0.47096479128E+02  0.67434603740E+02  0.41800000000E+01 0. -1.
         -5    1    1    2    0  502 -0.15692196518E+03  0.22287608499E+03 -0.34754651934E+02  0.27481559390E+03  0.41800000000E+01 0. -1.
        -11    1    3    3    0    0  0.11936697575E+03 -0.22314744666E+03 -0.27701936568E+03  0.37521058995E+03  0.00000000000E+00 0.  1.
         11    1    3    3    0    0  0.50612659429E+02 -0.46003602294E+02 -0.25393652567E+02  0.72957592539E+02  0.00000000000E+00 0. -1.
</event>
<event>
 7    1  0.6584658E-006  0.1223807E+03  0.7561462E-02  0.1239221E+00
          1   -1    0    0  501    0  0.00000000000E+00  0.00000000000E+00  0.68908404078E+03  0.68908404078E+03  0.00000000000E+00 0. -1.
         -1   -1    0    0    0  501 -0.00000000000E+00 -0.00000000000E+00 -0.29638286498E+02  0.29638286498E+02  0.00000000000E+00 0.  1.
         23    2    1    2    0    0  0.78162526214E+02  0.18211492381E+02  0.41180517142E+03  0.42990881949E+03  0.93792616504E+02 0.  0.
          5    1    1    2  502    0 -0.79099174797E+02  0.20945203260E+02  0.72837799677E+02  0.10962754424E+03  0.41800000000E+01 0.  1.
         -5    1    1    2    0  502  0.93664858259E+00 -0.39156695641E+02  0.17480278319E+03  0.17918596356E+03  0.41800000000E+01 0.  1.
        -11    1    3    3    0    0  0.53104950399E+02 -0.35699665680E+02  0.21512793138E+03  0.22444292982E+03  0.00000000000E+00 0. -1.
         11    1    3    3    0    0  0.25057575816E+02  0.53911158061E+02  0.19667724003E+03  0.20546588966E+03  0.00000000000E+00 0.  1.
</event>
<event>
 7    1  0.6584658E-006  0.1373068E+03  0.7561462E-02  0.1217000E+00
         -1   -1    0    0    0  501 -0.00000000000E+00  0.00000000000E+00  0.15621399573E+03  0.15621399573E+03  0.00000000000E+00 0.  1.
          1   -1    0    0  501    0  0.00000000000E+00 -0.00000000000E+00 -0.15173972404E+03  0.15173972404E+03  0.00000000000E+00 0. -1.
         23    2    1    2    0    0 -0.10381824052E+03 -0.32198997378E+02  0.12934018335E+02  0.14202065419E+03  0.90485219185E+02 0.  0.
          5    1    1    2  502    0  0.12975364993E+02 -0.44630373247E+02 -0.19755909456E+01  0.46707661818E+02  0.41800000000E+01 0. -1.
         -5    1    1    2    0  502  0.90842875525E+02  0.76829370625E+02 -0.64841556996E+01  0.11922540375E+03  0.41800000000E+01 0. -1.
        -11    1    3    3    0    0 -0.21268864677E+02 -0.38319112744E+01  0.44282539001E+02  0.49274652805E+02  0.00000000000E+00 0.  1.
         11    1    3    3    0    0 -0.82549375842E+02 -0.28367086103E+02 -0.31348520666E+02  0.92746001390E+02  0.00000000000E+00 0. -1.
</event>
<event>
 7    1  0.6584658E-006  0.9230876E+02  0.7561462E-02  0.1297355E+00
         -2   -1    0    0    0  501 -0.00000000000E+00  0.00000000000E+00  0.16419558794E+03  0.16419558794E+03  0.00000000000E+00 0.  1.
          2   -1    0    0  501    0  0.00000000000E+00 -0.00000000000E+00 -0.12332048459E+03  0.12332048459E+03  0.00000000000E+00 0. -1.
         23    2    1    2    0    0  0.53881048455E+01 -0.49535596646E+02 -0.59437864047E+02  0.11959639590E+03  0.91036427994E+02 0.  0.
          5    1    1    2  502    0  0.15168054509E+02 -0.39844406807E+02  0.30680531894E+02  0.52691688801E+02  0.41800000000E+01 0.  1.
         -5    1    1    2    0  502 -0.20556159354E+02  0.89380003454E+02  0.69632435498E+02  0.11522798782E+03  0.41800000000E+01 0.  1.
        -11    1    3    3    0    0  0.10256240081E+01 -0.26840647743E+02  0.22139624491E+02  0.34808551370E+02  0.00000000000E+00 0.  1.
         11    1    3    3    0    0  0.43624808374E+01 -0.22694948903E+02 -0.81577488537E+02  0.84787844535E+02  0.00000000000E+00 0. -1.
</event>
<event>
 7    1  0.6584658E-006  0.3286790E+03  0.7561462E-02  0.1071723E+00
          1   -1    0    0  501    0  0.00000000000E+00  0.00000000000E+00  0.13538153723E+04  0.13538153723E+04  0.00000000000E+00 0. -1.
         -1   -1    0    0    0  501 -0.00000000000E+00 -0.00000000000E+00 -0.81684302943E+02  0.81684302943E+02  0.00000000000E+00 0.  1.
         23    2    1    2    0    0  0.14959628086E+03 -0.27483175137E+03  0.68814980686E+03  0.76126465387E+03  0.89789630420E+02 0.  0.
          5    1    1    2  502    0  0.20406950619E+02  0.22869370140E+02  0.78726716403E+02  0.84586169081E+02  0.41800000000E+01 0. -1.
         -5    1    1    2    0  502 -0.17000323148E+03  0.25196238123E+03  0.50525454607E+03  0.58964885227E+03  0.41800000000E+01 0. -1.
        -11    1    3    3    0    0  0.12175415185E+01 -0.67375913554E+02  0.19036495603E+03  0.20194012137E+03  0.00000000000E+00 0. -1.
         11    1    3    3    0    0  0.14837873934E+03 -0.20745583781E+03  0.49778485083E+03  0.55932453249E+03  0.00000000000E+00 0.  1.
</event>
<event>
 7    1  0.6584658E-006  0.1136990E+03  0.7561462E-02  0.1253869E+00
         -1   -1    0    0    0  501 -0.00000000000E+00  0.00000000000E+00  0.50258917782E+02  0.50258917782E+02  0.00000000000E+00 0.  1.
          1   -1    0    0  501    0  0.00000000000E+00 -0.00000000000E+00 -0.38592374126E+03  0.38592374126E+03  0.00000000000E+00 0. -1.
         23    2    1    2    0    0  0.47036741148E+02 -0.73059766952E+01 -0.26843454675E+03  0.28639446878E+03  0.87743111083E+02 0.  0.
          5    1    1    2  502    0  0.36403246692E+02  0.28949998030E+02 -0.15676344921E+02  0.49259709151E+02  0.41800000000E+01 0. -1.
         -5    1    1    2    0  502 -0.83439987840E+02 -0.21644021334E+02 -0.51553931803E+02  0.10052848111E+03  0.41800000000E+01 0. -1.
        -11    1    3    3    0    0  0.57582980923E+02 -0.33178197430E+02 -0.14022709615E+03  0.15517806214E+03  0.00000000000E+00 0.  1.
         11    1    3    3    0    0 -0.10546239775E+02  0.25872220735E+02 -0.12820745061E+03  0.13121640664E+03  0.00000000000E+00 0. -1.
</event>
<event>
 7    1  0.6584658E-006  0.1025692E+03  0.7561462E-02  0.1274984E+00
          1   -1    0    0  501    0  0.00000000000E+00  0.00000000000E+00  0.15633940558E+02  0.15633940558E+02  0.00000000000E+00 0.  1.
         -1   -1    0    0    0  501 -0.00000000000E+00 -0.00000000000E+00 -0.11431008213E+04  0.11431008213E+04  0.00000000000E+00 0. -1.
         23    2    1    2    0    0  0.30250789743E+02 -0.50906792343E+02 -0.29528867300E+03  0.31512660650E+03  0.92751096671E+02 0.  0.
          5    1    1    2  502    0 -0.11273745648E+02  0.72061889491E+02 -0.24336021482E+03  0.25408990499E+03  0.41800000000E+01 0. -1.
         -5    1    1    2    0  502 -0.18977044095E+02 -0.21155097148E+02 -0.58881799287E+03  0.58951825033E+03  0.41800000000E+01 0. -1.
        -11    1    3    3    0    0 -0.50305194114E+01 -0.65123290702E+02 -0.12961896447E+03  0.14514621961E+03  0.00000000000E+00 0.  1.
         11    1    3    3    0    0  0.35281309155E+02  0.14216498359E+02 -0.16566970853E+03  0.16998038689E+03  0.00000000000E+00 0. -1.
</event>
<event>
 7    1  0.6584658E-006  0.9711434E+02  0.7561462E-02  0.1286484E+00
         -2   -1    0    0    0  501 -0.00000000000E+00  0.00000000000E+00  0.25850172156E+03  0.25850172156E+03  0.00000000000E+00 0. -1.
          2   -1    0    0  501    0  0.00000000000E+00 -0.00000000000E+00 -0.52385773047E+02  0.52385773047E+02  0.00000000000E+00 0.  1.
         23    2    1    2    0    0  0.54030271935E+01  0.17628799412E+02  0.40574072553E+02  0.10258159620E+03  0.92394595318E+02 0.  0.
          5    1    1    2  502    0 -0.58762346804E+02  0.58319293484E+01  0.12141570674E+03  0.13507875868E+03  0.41800000000E+01 0. -1.
         -5    1    1    2    0  502  0.53359319611E+02 -0.23460728761E+02  0.44126169223E+02  0.73227139734E+02  0.41800000000E+01 0. -1.
        -11    1    3    3    0    0  0.30921576914E+02  0.34244961474E+02 -0.64198565806E+01  0.46584073069E+02  0.00000000000E+00 0.  1.
         11    1    3    3    0    0 -0.25518549720E+02 -0.16616162062E+02  0.46993929134E+02  0.55997523132E+02  0.00000000000E+00 0. -1.
</event>
<event>
 7    1  0.6584658E-006  0.9449816E+02  0.7561462E-02  0.1292310E+00
         -1   -1    0    0    0  501 -0.00000000000E+00  0.00000000000E+00  0.33227942414E+02  0.33227942414E+02  0.00000000000E+00 0.  1.
          1   -1    0    0  501    0  0.00000000000E+00 -0.00000000000E+00 -0.38546945279E+03  0.38546945279E+03  0.00000000000E+00 0. -1.
         23    2    1    2    0    0  0.17533305873E+02 -0.19334649634E+02 -0.18715552144E+03  0.20993335475E+03  0.91452603797E+02 0.  0.
          5    1    1    2  502    0  0.40065756661E+02  0.19950493088E+02 -0.13768915204E+03  0.14484150656E+03  0.41800000000E+01 0.  1.
         -5    1    1    2    0  502 -0.57599062534E+02 -0.61584345377E+00 -0.27396836897E+02  0.63922533898E+02  0.41800000000E+01 0.  1.
        -11    1    3    3    0    0 -0.32669224640E+02 -0.50831513123E+00 -0.11793035303E+03  0.12237281066E+03  0.00000000000E+00 0. -1.
         11    1    3    3    0    0  0.50202530513E+02 -0.18826334503E+02 -0.69225168409E+02  0.87560544093E+02  0.00000000000E+00 0.  1.
</event>
<event>
 7    1  0.6584658E-006  0.1111476E+03  0.7561462E-02  0.1258459E+00
         -3   -1    0    0    0  501 -0.00000000000E+00  0.00000000000E+00  0.61754222318E+03  0.61754222318E+03  0.00000000000E+00 0.  1.
          3   -1    0    0  501    0  0.00000000000E+00 -0.00000000000E+00 -0.23733224473E+02  0.23733224473E+02  0.00000000000E+00 0. -1.
         23    2    1    2    0    0  0.44166652567E+02  0.13632602178E+02  0.16161940568E+03  0.18897957831E+03  0.86347598011E+02 0.  0.
          5    1    1    2  502    0 -0.78965336969E+02  0.14064098202E+02  0.34620840533E+03  0.35540266687E+03  0.41800000000E+01 0. -1.
         -5    1    1    2    0  502  0.34798684402E+02 -0.27696700380E+02  0.85981187701E+02  0.96893202478E+02  0.41800000000E+01 0. -1.
        -11    1    3    3    0    0  0.35179722223E+02 -0.33946059936E+02  0.91926236933E+02  0.10411714978E+03  0.00000000000E+00 0.  1.
         11    1    3    3    0    0  0.89869303442E+01  0.47578662114E+02  0.69693168750E+02  0.84862428530E+02  0.00000000000E+00 0. -1.
</event>
<event>
 7    1  0.6584658E-006  0.2025078E+03  0.7561462E-02  0.1147640E+00
         -2   -1    0    0    0  501 -0.00000000000E+00  0.00000000000E+00  0.63190002953E+02  0.63190002953E+02  0.00000000000E+00 0.  1.
          2   -1    0    0  501    0  0.00000000000E+00 -0.00000000000E+00 -0.88786004519E+03  0.88786004519E+03  0.00000000000E+00 0. -1.
         23    2    1    2    0    0 -0.88007859203E+02 -0.15479961466E+03 -0.62383119872E+03  0.65492111485E+03  0.89710635909E+02 0.  0.
          5    1    1    2  502    0  0.70212173860E+02  0.25122662682E+02 -0.12265816160E+03  0.14360847658E+03  0.41800000000E+01 0.  1.
         -5    1    1    2    0  502  0.17795685343E+02  0.12967695198E+03 -0.78180681915E+02  0.15252045671E+03  0.41800000000E+01 0.  1.
        -11    1    3    3    0    0 -0.90619060381E+02 -0.69944960323E+02 -0.36297132750E+03  0.38059466124E+03  0.00000000000E+00 0.  1.
         11    1    3    3    0    0  0.26112011775E+01 -0.84854654340E+02 -0.26085987123E+03  0.27432645361E+03  0.00000000000E+00 0. -1.
</event>
<event>
 7    1  0.6584658E-006  0.9850255E+02  0.7561462E-02  0.1283477E+00
         -2   -1    0    0    0  501 -0.00000000000E+00  0.00000000000E+00  0.16375886932E+03  0.16375886932E+03  0.00000000000E+00 0.  1.
          2   -1    0    0  501    0  0.00000000000E+00 -0.00000000000E+00 -0.88111342385E+02  0.88111342385E+02  0.00000000000E+00 0. -1.
         23    2    1    2    0    0  0.14762858768E+02  0.52257255013E+02  0.12087590717E+02  0.10141645788E+03  0.84796375974E+02 0.  0.
          5    1    1    2  502    0  0.32754167499E+02 -0.52083036163E+02 -0.10307222479E+02  0.62523510616E+02  0.41800000000E+01 0.  1.
         -5    1    1    2    0  502 -0.47517026267E+02 -0.17421885055E+00  0.73867158695E+02  0.87930243211E+02  0.41800000000E+01 0.  1.
        -11    1    3    3    0    0  0.32016108883E+00 -0.16942398131E+02 -0.17881642461E+02  0.24635350508E+02  0.00000000000E+00 0.  1.
         11    1    3    3    0    0  0.14442697679E+02  0.69199653144E+02  0.29969233178E+02  0.76781107369E+02  0.00000000000E+00 0. -1.
</event>
<event>
 7    1  0.6584658E-006  0.1659987E+03  0.7561462E-02  0.1182086E+00
         -2   -1    0    0    0  501 -0.00000000000E+00  0.00000000000E+00  0.22208865456E+03  0.22208865456E+03  0.00000000000E+00 0.  1.
          2   -1    0    0  501    0  0.00000000000E+00 -0.00000000000E+00 -0.14379061514E+03  0.14379061514E+03  0.00000000000E+00 0. -1.
         23    2    1    2    0    0 -0.21976857868E+02  0.13858235539E+03  0.54599387958E+02  0.17641166940E+03  0.91934391981E+02 0.  0.
          5    1    1    2  502    0 -0.33142646368E+02  0.52334449971E+01  0.65693879784E+01  0.34444930153E+02  0.41800000000E+01 0.  1.
         -5    1    1    2    0  502  0.55119504236E+02 -0.14381580039E+03  0.17129263485E+02  0.15502267014E+03  0.41800000000E+01 0.  1.
        -11    1    3    3    0    0 -0.30601335871E+02  0.11498599729E+03  0.77839970936E+02  0.14218749033E+03  0.00000000000E+00 0.  1.
         11    1    3    3    0    0  0.86244780025E+01  0.23596358103E+02 -0.23240582977E+02  0.34224179080E+02  0.00000000000E+00 0. -1.
</event>
<event>
 7    1  0.6584658E-006  0.9239457E+02  0.7561462E-02  0.1297154E+00
         -1   -1    0    0    0  501 -0.00000000000E+00  0.00000000000E+00  0.23283719012E+03  0.23283719012E+03  0.00000000000E+00 0.  1.
          1   -1    0    0  501    0  0.00000000000E+00 -0.00000000000E+00 -0.68212026222E+02  0.68212026222E+02  0.00000000000E+00 0. -1.
         23    2    1    2    0    0  0.26254534880E+02  0.11984972416E+02  0.26500095534E+02  0.11248404852E+03  0.10543939464E+03 0.  0.
          5    1    1    2  502    0 -0.68902380811E+02  0.23182285622E+02  0.74454060832E+02  0.10414334363E+03  0.41800000000E+01 0. -1.
         -5    1    1    2    0  502  0.42647845931E+02 -0.35167258038E+02  0.63671007532E+02  0.84421824196E+02  0.41800000000E+01 0. -1.
        -11    1    3    3    0    0  0.71550598545E+01 -0.18907694957E+02 -0.35370721475E+02  0.40740443637E+02  0.00000000000E+00 0. -1.
         11    1    3    3    0    0  0.19099475026E+02  0.30892667373E+02  0.61870817008E+02  0.71743604879E+02  0.00000000000E+00 0.  1.
</event>
<event>
 7    1  0.6584658E-006  0.7802414E+02  0.7561462E-02  0.1334754E+00
         -1   -1    0    0    0  501 -0.00000000000E+00  0.00000000000E+00  0.41913545616E+02  0.41913545616E+02  0.00000000000E+00 0.  1.
          1   -1    0    0  501    0  0.00000000000E+00 -0.00000000000E+00 -0.39774806541E+03  0.39774806541E+03  0.00000000000E+00 0. -1.
         23    2    1    2    0    0  0.24625170874E+02  0.63676435431E+02 -0.18232584357E+03  0.21513186869E+03  0.91530979578E+02 0.  0.
          5    1    1    2  502    0 -0.12825213203E+02  0.72314113037E+01  0.15795345467E+02  0.21994197907E+02  0.41800000000E+01 0. -1.
         -5    1    1    2    0  502 -0.11799957671E+02 -0.70907846735E+02 -0.18930402168E+03  0.20253554443E+03  0.41800000000E+01 0. -1.
        -11    1    3    3    0    0  0.71171927381E+01  0.99645444427E+01  0.92843922255E+01  0.15367059492E+02  0.00000000000E+00 0.  1.
         11    1    3    3    0    0  0.17507978135E+02  0.53711890988E+02 -0.19161023580E+03  0.19976480920E+03  0.00000000000E+00 0. -1.
</event>
<event>
 7    1  0.6584658E-006  0.2853257E+03  0.7561462E-02  0.1092815E+00
          2   -1    0    0  501    0  0.00000000000E+00  0.00000000000E+00  0.65090969917E+03  0.65090969917E+03  0.00000000000E+00 0. -1.
         -2   -1    0    0    0  501 -0.00000000000E+00 -0.00000000000E+00 -0.13982662944E+03  0.13982662944E+03  0.00000000000E+00 0.  1.
         23    2    1    2    0    0 -0.23691962391E+03  0.11653560642E+03  0.37741418232E+03  0.46944630011E+03  0.90702303770E+02 0.  0.
          5    1    1    2  502    0  0.15308178157E+02 -0.61458182380E+02  0.35144924175E+02  0.72554025355E+02  0.41800000000E+01 0. -1.
         -5    1    1    2    0  502  0.22161144575E+03 -0.55077424041E+02  0.98523963233E+02  0.24873600314E+03  0.41800000000E+01 0. -1.
        -11    1    3    3    0    0 -0.28824908456E+02  0.54480315890E+02  0.73457076107E+02  0.95890156935E+02  0.00000000000E+00 0.  1.
         11    1    3    3    0    0 -0.20809471545E+03  0.62055290532E+02  0.30395710622E+03  0.37355614317E+03  0.00000000000E+00 0. -1.
</event>
<event>
 7    1  0.6584658E-006  0.3330939E+03  0.7561462E-02  0.1069776E+00
         -3   -1    0    0    0  501 -0.00000000000E+00  0.00000000000E+00  0.86482446038E+03  0.86482446038E+03  0.00000000000E+00 0.  1.
          3   -1    0    0  501    0  0.00000000000E+00 -0.00000000000E+00 -0.17060877638E+03  0.17060877638E+03  0.00000000000E+00 0. -1.
         23    2    1    2    0    0  0.46705291814E+02 -0.31234232035E+03  0.87465398127E+02  0.34006761692E+03  0.90866269026E+02 0.  0.
          5    1    1    2  502    0  0.17185658438E+02  0.24405474685E+03  0.46583233257E+03  0.52618941531E+03  0.41800000000E+01 0. -1.
         -5    1    1    2    0  502 -0.63890950253E+02  0.68287573491E+02  0.14091795330E+03  0.16917620453E+03  0.41800000000E+01 0. -1.
        -11    1    3    3    0    0  0.73011029537E+02 -0.21550440152E+03  0.50079397049E+02  0.23298219571E+03  0.00000000000E+00 0.  1.
         11    1    3    3    0    0 -0.26305737723E+02 -0.96837918821E+02  0.37386001078E+02  0.10708542121E+03  0.00000000000E+00 0. -1.
</event>
<event>
 7    1  0.6584658E-006  0.1101037E+03  0.7561462E-02  0.1260378E+00
          1   -1    0    0  501    0  0.00000000000E+00  0.00000000000E+00  0.39109060113E+03  0.39109060113E+03  0.00000000000E+00 0. -1.
         -1   -1    0    0    0  501 -0.00000000000E+00 -0.00000000000E+00 -0.34868954325E+02  0.34868954325E+02  0.00000000000E+00 0.  1.
         23    2    1    2    0    0  0.46959091572E+01 -0.40630498429E+02  0.18510240082E+03  0.21008426422E+03  0.90551699688E+02 0.  0.
          5    1    1    2  502    0 -0.25790126758E+02  0.81399218902E+02  0.10916802059E+03  0.13865818618E+03  0.41800000000E+01 0.  1.
         -5    1    1    2    0  502  0.21094217601E+02 -0.40768720473E+02  0.61951225392E+02  0.77217105053E+02  0.41800000000E+01 0.  1.
        -11    1    3    3    0    0 -0.26304540944E+02  0.10912359189E+02  0.11125384463E+03  0.11484087426E+03  0.00000000000E+00 0.  1.
         11    1    3    3    0    0  0.31000450101E+02 -0.51542857617E+02  0.73848556195E+02  0.95243389954E+02  0.00000000000E+00 0. -1.
</event>
<event>
 7    1  0.6584658E-006  0.1140350E+03  0.7561462E-02  0.1253275E+00
         -2   -1    0    0    0  501 -0.00000000000E+00  0.00000000000E+00  0.94473469477E+02  0.94473469477E+02  0.00000000000E+00 0.  1.
          2   -1    0    0  501    0  0.00000000000E+00 -0.00000000000E+00 -0.27293032070E+03  0.27293032070E+03  0.00000000000E+00 0. -1.
         23    2    1    2    0    0  0.41097191373E+02 -0.81144365818E+02 -0.17105298521E+03  0.21256325461E+03  0.87467858218E+02 0.  0.
          5    1    1    2  502    0 -0.62164285602E+02  0.90855906425E+02  0.26726129110E+02  0.11336204177E+03  0.41800000000E+01 0.  1.
         -5    1    1    2    0  502  0.21067094229E+02 -0.97115406066E+01 -0.34129995132E+02  0.41478493800E+02  0.41800000000E+01 0.  1.
        -11    1    3    3    0    0  0.22035800322E+02 -0.67183255242E+02 -0.43880566694E+02  0.83214604572E+02  0.00000000000E+00 0.  1.
         11    1    3    3    0    0  0.19061391051E+02 -0.13961110576E+02 -0.12717241851E+03  0.12934865004E+03  0.00000000000E+00 0. -1.
</event>
<event>
 7    1  0.6584658E-006  0.1776794E+03  0.7561462E-02  0.1170068E+00
          4   -1    0    0  501    0  0.00000000000E+00  0.00000000000E+00  0.40393865111E+03  0.40393865111E+03  0.00000000000E+00 0. -1.
         -4   -1    0    0    0  501 -0.00000000000E+00 -0.00000000000E+00 -0.95464559092E+02  0.95464559092E+02  0.00000000000E+00 0.  1.
         23    2    1    2    0    0  0.69717269895E+02 -0.14675166437E+03  0.12301111640E+03  0.22294178570E+03  0.90414359114E+02 0.  0.
          5    1    1    2  502    0  0.65092366024E+01  0.46386958547E+02  0.13084909299E+03  0.13904343789E+03  0.41800000000E+01 0. -1.
         -5    1    1    2    0  502 -0.76226506498E+02  0.10036470583E+03  0.54613882625E+02  0.13741798661E+03  0.41800000000E+01 0. -1.
        -11    1    3    3    0    0  0.68446035926E+02 -0.48299861671E+02  0.34680587921E+02  0.90666860815E+02  0.00000000000E+00 0.  1.
         11    1    3    3    0    0  0.12712339690E+01 -0.98451802703E+02  0.88330528483E+02  0.13227492489E+03  0.00000000000E+00 0. -1.
</event>
<event>
 7    1  0.6584658E-006  0.8301656E+02  0.7561462E-02  0.1320702E+00
         -1   -1    0    0    0  501 -0.00000000000E+00  0.00000000000E+00  0.20336170183E+03  0.20336170183E+03  0.00000000000E+00 0.  1.
          1   -1    0    0  501    0  0.00000000000E+00 -0.00000000000E+00 -0.65561221027E+02  0.65561221027E+02  0.00000000000E+00 0. -1.
         23    2    1    2    0    0  0.30407129271E+02  0.63431144527E+01  0.37465824673E+02  0.10558588201E+03  0.93700917014E+02 0.  0.
          5    1    1    2  502    0 -0.52489130669E+02 -0.40859547680E+02  0.10230697631E+03  0.12210160227E+03  0.41800000000E+01 0.  1.
         -5    1    1    2    0  502  0.22082001397E+02  0.34516433228E+02 -0.19723201758E+01  0.41235438586E+02  0.41800000000E+01 0.  1.
        -11    1    3    3    0    0 -0.83799602788E+01  0.16144326431E+02 -0.25296523311E+02  0.31157296125E+02  0.00000000000E+00 0. -1.
         11    1    3    3    0    0  0.38787089550E+02 -0.98012119778E+01  0.62762347984E+02  0.74428585882E+02  0.00000000000E+00 0.  1.
</event>
<event>
 7    1  0.6584658E-006  0.1258245E+03  0.7561462E-02  0.1233786E+00
         -2   -1    0    0    0  501 -0.00000000000E+00  0.00000000000E+00  0.18767632873E+03  0.18767632873E+03  0.00000000000E+00 0.  1.
          2   -1    0    0  501    0  0.00000000000E+00 -0.00000000000E+00 -0.11961751818E+03  0.11961751818E+03  0.00000000000E+00 0. -1.
         23    2    1    2    0    0 -0.37538296492E+02 -0.72577550214E+02 -0.33302268894E+02  0.12674378443E+03  0.90985280568E+02 0.  0.
          5    1    1    2  502    0  0.89803881619E+01 -0.27061282095E+02  0.64180775626E+02  0.70353427209E+02  0.41800000000E+01 0.  1.
         -5    1    1    2    0  502  0.28557908331E+02  0.99638832309E+02  0.37180303821E+02  0.11019663527E+03  0.41800000000E+01 0.  1.
        -11    1    3    3    0    0  0.18247155103E+02 -0.58896539806E+02 -0.28315799421E+01  0.61723406544E+02  0.00000000000E+00 0.  1.
         11    1    3    3    0    0 -0.55785451595E+02 -0.13681010408E+02 -0.30470688952E+02  0.65020377888E+02  0.00000000000E+00 0. -1.
</event>
<event>
 7    1  0.6584658E-006  0.1145783E+03  0.7561462E-02  0.1252319E+00
          1   -1    0    0  501    0  0.00000000000E+00  0.00000000000E+00  0.93412385279E+02  0.93412385279E+02  0.00000000000E+00 0. -1.
         -1   -1    0    0    0  501 -0.00000000000E+00 -0.00000000000E+00 -0.15703772142E+03  0.15703772142E+03  0.00000000000E+00 0.  1.
         23    2    1    2    0    0  0.33302553307E+02 -0.34950043949E+02 -0.11742051689E+01  0.10253321702E+03  0.90449522970E+02 0.  0.
          5    1    1    2  502    0  0.22618236408E+02  0.62477363736E+02 -0.12067106149E+02  0.67661606901E+02  0.41800000000E+01 0. -1.
         -5    1    1    2    0  502 -0.55920789714E+02 -0.27527319787E+02 -0.50384024824E+02  0.80255282782E+02  0.41800000000E+01 0. -1.
        -11    1    3    3    0    0 -0.24185796518E+02 -0.35095678361E+02  0.10442211324E+02  0.43882788997E+02  0.00000000000E+00 0.  1.
         11    1    3    3    0    0  0.57488349824E+02  0.14563441206E+00 -0.11616416493E+02  0.58650428021E+02  0.00000000000E+00 0. -1.
</event>
<event>
 7    1  0.6584658E-006  0.1881526E+03  0.7561462E-02  0.1160138E+00
         -1   -1    0    0    0  501 -0.00000000000E+00  0.00000000000E+00  0.91161540682E+02  0.91161540682E+02  0.00000000000E+00 0.  1.
          1   -1    0    0  501    0  0.00000000000E+00 -0.00000000000E+00 -0.42737594664E+03  0.42737594664E+03  0.00000000000E+00 0. -1.
         23    2    1    2    0    0  0.16066821459E+03  0.17047127609E+02 -0.20196672867E+03  0.27406034233E+03  0.90629090306E+02 0.  0.
          5    1    1    2  502    0 -0.82246819155E+02 -0.65511014104E+02 -0.40013271279E+02  0.11258226552E+03  0.41800000000E+01 0.  1.
         -5    1    1    2    0  502 -0.78421395433E+02  0.48463886495E+02 -0.94234406012E+02  0.13189487948E+03  0.41800000000E+01 0.  1.
        -11    1    3    3    0    0  0.45272971493E+02  0.40835871642E+02 -0.36928175088E+02  0.71280435436E+02  0.00000000000E+00 0.  1.
         11    1    3    3    0    0  0.11539524310E+03 -0.23788744034E+02 -0.16503855358E+03  0.20277990689E+03  0.00000000000E+00 0. -1.
</event>
<event>
 7    1  0.6584658E-006  0.8977288E+02  0.7561462E-02  0.1303403E+00
         -1   -1    0    0    0  501 -0.00000000000E+00  0.00000000000E+00  0.12893898498E+03  0.12893898498E+03  0.00000000000E+00 0.  1.
          1   -1    0    0  501    0  0.00000000000E+00 -0.00000000000E+00 -0.16965899661E+03  0.16965899661E+03  0.00000000000E+00 0. -1.
         23    2    1    2    0    0  0.41431735185E+01  0.86330405668E+02 -0.77841681331E+02  0.14209823490E+03  0.81623992677E+02 0.  0.
          5    1    1    2  502    0 -0.10099554823E+02 -0.49252454280E+02 -0.44043129036E+02  0.66970701620E+02  0.41800000000E+01 0.  1.
         -5    1    1    2    0  502  0.59563813046E+01 -0.37077951389E+02  0.81164798736E+02  0.89529045071E+02  0.41800000000E+01 0.  1.
        -11    1    3    3    0    0 -0.92447540414E+01  0.67919622700E+02 -0.92420893117E+02  0.11506590333E+03  0.00000000000E+00 0.  1.
         11    1    3    3    0    0  0.13387927560E+02  0.18410782968E+02  0.14579211787E+02  0.27032331571E+02  0.00000000000E+00 0. -1.
</event>
<event>
 7    1  0.6584658E-006  0.1183168E+03  0.7561462E-02  0.1245900E+00
         -1   -1    0    0    0  501 -0.00000000000E+00  0.00000000000E+00  0.20973287715E+02  0.20973287715E+02  0.00000000000E+00 0.  1.
          1   -1    0    0  501    0  0.00000000000E+00 -0.00000000000E+00 -0.10582883313E+04  0.10582883313E+04  0.00000000000E+00 0. -1.
         23    2    1    2    0    0 -0.51399985246E+02 -0.67579639865E+02 -0.68096473737E+03  0.69217018315E+03  0.90430208946E+02 0.  0.
          5    1    1    2  502    0 -0.35508640624E+00  0.60048089543E+02 -0.56073933148E+02  0.82265773702E+02  0.41800000000E+01 0.  1.
         -5    1    1    2    0  502  0.51755071652E+02  0.75315503224E+01 -0.30027637304E+03  0.30482566214E+03  0.41800000000E+01 0.  1.
        -11    1    3    3    0    0 -0.13932615303E+02  0.22469906484E+02 -0.13588028358E+03  0.13842855895E+03  0.00000000000E+00 0. -1.
         11    1    3    3    0    0 -0.37467369943E+02 -0.90049546349E+02 -0.54508445379E+03  0.55374162420E+03  0.00000000000E+00 0.  1.
</event>
<event>
 7    1  0.6584658E-006  0.1914997E+03  0.7561462E-02  0.1157116E+00
         -2   -1    0    0    0  501 -0.00000000000E+00  0.00000000000E+00  0.54340719197E+03  0.54340719197E+03  0.00000000000E+00 0.  1.
          2   -1    0    0  501    0  0.00000000000E+00 -0.00000000000E+00 -0.13027576288E+03  0.13027576288E+03  0.00000000000E+00 0. -1.
         23    2    1    2    0    0 -0.60542213584E+02  0.15686811841E+03 -0.19650449735E+02  0.19282877369E+03  0.92324588217E+02 0.  0.
          5    1    1    2  502    0  0.16337531000E+02 -0.14621174381E+03  0.23049823308E+03  0.27348070645E+03  0.41800000000E+01 0.  1.
         -5    1    1    2    0  502  0.44204682584E+02 -0.10656374593E+02  0.20228364573E+03  0.20737347471E+03  0.41800000000E+01 0.  1.
        -11    1    3    3    0    0 -0.86671005465E+01  0.13260281215E+03 -0.20002862654E+01  0.13290081101E+03  0.00000000000E+00 0.  1.
         11    1    3    3    0    0 -0.51875113038E+02  0.24265306257E+02 -0.17650163469E+02  0.59927962679E+02  0.00000000000E+00 0. -1.
</event>
<event>
 7    1  0.6584658E-006  0.1427763E+03  0.7561462E-02  0.1209641E+00
         -2   -1    0    0    0  501 -0.00000000000E+00  0.00000000000E+00  0.17204220928E+02  0.17204220928E+02  0.00000000000E+00 0.  1.
          2   -1    0    0  501    0  0.00000000000E+00 -0.00000000000E+00 -0.13528512326E+04  0.13528512326E+04  0.00000000000E+00 0. -1.
         23    2    1    2    0    0  0.87015562291E+02  0.63119527248E+02 -0.56033494739E+03  0.57739443038E+03  0.88618802552E+02 0.  0.
          5    1    1    2  502    0 -0.98971042068E+02 -0.19327088040E+02 -0.33175392313E+03  0.34676640756E+03  0.41800000000E+01 0. -1.
         -5    1    1    2    0  502  0.11955479777E+02 -0.43792439207E+02 -0.44355814112E+03  0.44589461555E+03  0.41800000000E+01 0. -1.
        -11    1    3    3    0    0  0.29408549350E+02 -0.21670383014E+02 -0.16380678945E+03  0.16783066628E+03  0.00000000000E+00 0.  1.
         11    1    3    3    0    0  0.57607012941E+02  0.84789910261E+02 -0.39652815793E+03  0.40956376409E+03  0.00000000000E+00 0. -1.
</event>
<event>
 7    1  0.6584658E-006  0.1262133E+03  0.7561462E-02  0.1233185E+00
          1   -1    0    0  501    0  0.00000000000E+00  0.00000000000E+00  0.44941530619E+03  0.44941530619E+03  0.00000000000E+00 0. -1.
         -1   -1    0    0    0  501 -0.00000000000E+00 -0.00000000000E+00 -0.55326438108E+02  0.55326438108E+02  0.00000000000E+00 0.  1.
         23    2    1    2    0    0 -0.23367072427E+01 -0.10145637089E+03  0.26628470839E+03  0.29912141688E+03  0.90924258128E+02 0.  0.
          5    1    1    2  502    0  0.25701082380E+01 -0.21390789529E+02  0.62899589047E+02  0.66618331075E+02  0.41800000000E+01 0. -1.
         -5    1    1    2    0  502 -0.23340099535E+00  0.12284716041E+03  0.64904570640E+02  0.13900199634E+03  0.41800000000E+01 0. -1.
        -11    1    3    3    0    0 -0.11535237688E+02 -0.89528059472E+01 -0.24110073849E+01  0.14799574300E+02  0.00000000000E+00 0.  1.
         11    1    3    3    0    0  0.91985304454E+01 -0.92503564938E+02  0.26869571578E+03  0.28432184258E+03  0.00000000000E+00 0. -1.
</event>
<event>
 7    1  0.7602933E-006  0.1953656E+03  0.7561462E-02  0.1153709E+00
          3   -1    0    0  501    0  0.00000000000E+00  0.00000000000E+00  0.48131201432E+03  0.48131201432E+03  0.00000000000E+00 0. -1.
         -3   -1    0    0    0  501 -0.00000000000E+00 -0.00000000000E+00 -0.10629783312E+03  0.10629783312E+03  0.00000000000E+00 0.  1.
         23    2    1    2    0    0 -0.11869137966E+03  0.15012652800E+03  0.25074683645E+03  0.32738692752E+03  0.87650478077E+02 0.  0.
          5    1    1    2  502    0  0.63623547582E+02 -0.12043018092E+03  0.18848348744E+02  0.13756495533E+03  0.41800000000E+01 0. -1.
         -5    1    1    2    0  502  0.55067832077E+02 -0.29696347073E+02  0.10541899600E+03  0.12265796459E+03  0.41800000000E+01 0. -1.
        -11    1    3    3    0    0 -0.67402536801E+02  0.94774061329E+02  0.21375954051E+03  0.24334823983E+03  0.00000000000E+00 0.  1.
         11    1    3    3    0    0 -0.51288842858E+02  0.55352466666E+02  0.36987295938E+02  0.84038687689E+02  0.00000000000E+00 0. -1.
</event>
<event>
 7    1  0.6759358E-006  0.1600704E+03  0.7561462E-02  0.1188617E+00
         -1   -1    0    0    0  501 -0.00000000000E+00  0.00000000000E+00  0.12387903814E+03  0.12387903814E+03  0.00000000000E+00 0.  1.
          1   -1    0    0  501    0  0.00000000000E+00 -0.00000000000E+00 -0.29129816706E+03  0.29129816706E+03  0.00000000000E+00 0. -1.
         23    2    1    2    0    0  0.13460353075E+03  0.37345461354E+02 -0.15318121625E+03  0.22712659235E+03  0.92785828466E+02 0.  0.
          5    1    1    2  502    0  0.69150807536E+01  0.24349104875E+02 -0.21454886905E+02  0.33443711249E+02  0.41800000000E+01 0.  1.
         -5    1    1    2    0  502 -0.14151861151E+03 -0.61694566229E+02  0.72169742331E+01  0.15460690160E+03  0.41800000000E+01 0.  1.
        -11    1    3    3    0    0  0.82559204669E+02  0.17815783365E+02 -0.14913646175E+03  0.17139168193E+03  0.00000000000E+00 0. -1.
         11    1    3    3    0    0  0.52044326083E+02  0.19529677989E+02 -0.40447545015E+01  0.55734910413E+02  0.00000000000E+00 0.  1.
</event>
<event>
 7    1  0.6584658E-006  0.1458604E+03  0.7561462E-02  0.1205654E+00
          1   -1    0    0  501    0  0.00000000000E+00  0.00000000000E+00  0.71042815697E+03  0.71042815697E+03  0.00000000000E+00 0. -1.
         -1   -1    0    0    0  501 -0.00000000000E+00 -0.00000000000E+00 -0.34708796239E+02  0.34708796239E+02  0.00000000000E+00 0.  1.
         23    2    1    2    0    0 -0.90514745302E+02  0.66956678794E+02  0.37556664603E+03  0.40225021308E+03  0.89882213789E+02 0.  0.
          5    1    1    2  502    0  0.61264130562E+02  0.22725061755E+02  0.80275690582E+02  0.10359237918E+03  0.41800000000E+01 0. -1.
         -5    1    1    2    0  502  0.29250614740E+02 -0.89681740550E+02  0.21987702411E+03  0.23929436095E+03  0.41800000000E+01 0.  1.
        -11    1    3    3    0    0 -0.74166730753E+02  0.12816878652E+02  0.29055729467E+03  0.30014749344E+03  0.00000000000E+00 0. -1.
         11    1    3    3    0    0 -0.16348014549E+02  0.54139800143E+02  0.85009351361E+02  0.10210271964E+03  0.00000000000E+00 0.  1.
</event>
<event>
 7    1  0.6584658E-006  0.8879217E+02  0.7561462E-02  0.1305803E+00
         -1   -1    0    0    0  501 -0.00000000000E+00  0.00000000000E+00  0.28105441652E+03  0.28105441652E+03  0.00000000000E+00 0.  1.
          1   -1    0    0  501    0  0.00000000000E+00 -0.00000000000E+00 -0.82418281304E+02  0.82418281304E+02  0.00000000000E+00 0. -1.
         23    2    1    2    0    0  0.16014095801E+02 -0.74984498328E+01 -0.34943508713E+02  0.97920534807E+02  0.89748004554E+02 0.  0.
          5    1    1    2  502    0  0.51868941923E+02 -0.14953402128E+02  0.88309367897E+02  0.10358575302E+03  0.41800000000E+01 0.  1.
         -5    1    1    2    0  502 -0.67883037724E+02  0.22451851961E+02  0.14527027603E+03  0.16196640999E+03  0.41800000000E+01 0.  1.
        -11    1    3    3    0    0 -0.17057074428E+02 -0.77793103815E+01 -0.55770208673E+02  0.58836873077E+02  0.00000000000E+00 0. -1.
         11    1    3    3    0    0  0.33071170230E+02  0.28086054870E+00  0.20826699960E+02  0.39083661730E+02  0.00000000000E+00 0.  1.
</event>
<event>
 7    1  0.6584658E-006  0.8368917E+02  0.7561462E-02  0.1318897E+00
         -1   -1    0    0    0  501 -0.00000000000E+00  0.00000000000E+00  0.13328300018E+03  0.13328300018E+03  0.00000000000E+00 0. -1.
          1   -1    0    0  501    0  0.00000000000E+00 -0.00000000000E+00 -0.12632682271E+03  0.12632682271E+03  0.00000000000E+00 0.  1.
         23    2    1    2    0    0 -0.85360418133E+01 -0.53099973936E+02 -0.43043198590E+02  0.11455859649E+03  0.91534058374E+02 0.  0.
          5    1    1    2  502    0  0.26631686072E+02 -0.19974176345E+02  0.60248356923E+02  0.68960505622E+02  0.41800000000E+01 0. -1.
         -5    1    1    2    0  502 -0.18095644259E+02  0.73074150281E+02 -0.10248980870E+02  0.76090720783E+02  0.41800000000E+01 0. -1.
        -11    1    3    3    0    0 -0.14881357442E+02 -0.21180411383E+02  0.26950873159E+02  0.37368625740E+02  0.00000000000E+00 0. -1.
         11    1    3    3    0    0  0.63453156290E+01 -0.31919562553E+02 -0.69994071749E+02  0.77189970747E+02  0.00000000000E+00 0.  1.
</event>
<event>
 7    1  0.6584658E-006  0.1144281E+03  0.7561462E-02  0.1252583E+00
          1   -1    0    0  501    0  0.00000000000E+00  0.00000000000E+00  0.31675016322E+03  0.31675016322E+03  0.00000000000E+00 0. -1.
         -1   -1    0    0    0  501 -0.00000000000E+00 -0.00000000000E+00 -0.52824904590E+02  0.52824904590E+02  0.00000000000E+00 0.  1.
         23    2    1    2    0    0  0.12686858360E+02 -0.68398414191E+02  0.13827591503E+03  0.17911583972E+03  0.90127442673E+02 0.  0.
          5    1    1    2  502    0 -0.48155994003E+02  0.63997400094E+02  0.13147508765E+03  0.15400596758E+03  0.41800000000E+01 0. -1.
         -5    1    1    2    0  502  0.35469135643E+02  0.44010140969E+01 -0.58257440457E+01  0.36453260513E+02  0.41800000000E+01 0. -1.
        -11    1    3    3    0    0 -0.32796562724E+02 -0.57030603867E+02  0.67811864123E+02  0.94480438291E+02  0.00000000000E+00 0. -1.
         11    1    3    3    0    0  0.45483421084E+02 -0.11367810324E+02  0.70464050903E+02  0.84635401427E+02  0.00000000000E+00 0.  1.
</event>
<event>
 7    1  0.6584658E-006  0.1096727E+03  0.7561462E-02  0.1261177E+00
          1   -1    0    0  501    0  0.00000000000E+00  0.00000000000E+00  0.24183206750E+03  0.24183206750E+03  0.00000000000E+00 0. -1.
         -1   -1    0    0    0  501 -0.00000000000E+00 -0.00000000000E+00 -0.58598531192E+02  0.58598531192E+02  0.00000000000E+00 0.  1.
         23    2    1    2    0    0 -0.38701193951E+02  0.17431604711E+02  0.11132205032E+03  0.15002807323E+03  0.91182128813E+02 0.  0.
          5    1    1    2  502    0  0.44706258120E+02 -0.64450772273E+02  0.22287407164E+02  0.81650183586E+02  0.41800000000E+01 0. -1.
         -5    1    1    2    0  502 -0.60050641681E+01  0.47019167561E+02  0.49624078827E+02  0.68752341875E+02  0.41800000000E+01 0. -1.
        -11    1    3    3    0    0 -0.12476889100E+01  0.46055137828E+02  0.26935643970E+02  0.53368168079E+02  0.00000000000E+00 0.  1.
         11    1    3    3    0    0 -0.37453505041E+02 -0.28623533117E+02  0.84386406350E+02  0.96659905155E+02  0.00000000000E+00 0. -1.
</event>
<event>
 7    1  0.6584658E-006  0.1307415E+03  0.7561462E-02  0.1226360E+00
          1   -1    0    0  501    0  0.00000000000E+00  0.00000000000E+00  0.19795963876E+03  0.19795963876E+03  0.00000000000E+00 0. -1.
         -1   -1    0    0    0  501 -0.00000000000E+00 -0.00000000000E+00 -0.11053250230E+03  0.11053250230E+03  0.00000000000E+00 0.  1.
         23    2    1    2    0    0 -0.84677365948E+02 -0.56702021387E+02  0.36431256516E+02  0.13927988924E+03  0.87671406761E+02 0.  0.
          5    1    1    2  502    0  0.11446427567E+03  0.29380021921E+02  0.50482485690E+02  0.12857375259E+03  0.41800000000E+01 0. -1.
         -5    1    1    2    0  502 -0.29786909727E+02  0.27321999466E+02  0.51339425475E+00  0.40638499228E+02  0.41800000000E+01 0. -1.
        -11    1    3    3    0    0 -0.48994087603E+02 -0.25679367136E+02  0.63963729701E+02  0.84564822674E+02  0.00000000000E+00 0. -1.
         11    1    3    3    0    0 -0.35683278344E+02 -0.31022654251E+02 -0.27532473185E+02  0.54715066571E+02  0.00000000000E+00 0.  1.
</event>
<event>
 7    1  0.9509445E-006  0.1359633E+03  0.7561462E-02  0.1218866E+00
          2   -1    0    0  501    0  0.00000000000E+00  0.00000000000E+00  0.82119750371E+02  0.82119750371E+02  0.00000000000E+00 0. -1.
         -2   -1    0    0    0  501 -0.00000000000E+00 -0.00000000000E+00 -0.32816428549E+03  0.32816428549E+03  0.00000000000E+00 0.  1.
         23    2    1    2    0    0 -0.11946837348E+03 -0.49509194441E+01 -0.83696820399E+02  0.17300418108E+03  0.92887486030E+02 0.  0.
          5    1    1    2  502    0  0.22472458645E+02 -0.33304091505E+02 -0.11649465042E+03  0.12329902630E+03  0.41800000000E+01 0. -1.
         -5    1    1    2    0  502  0.96995914833E+02  0.38255010949E+02 -0.45853064297E+02  0.11398082849E+03  0.41800000000E+01 0. -1.
        -11    1    3    3    0    0 -0.79196992676E+02  0.17454268151E+02 -0.43116229762E+01  0.81212100196E+02  0.00000000000E+00 0.  1.
         11    1    3    3    0    0 -0.40271380802E+02 -0.22405187595E+02 -0.79385197423E+02  0.91792080883E+02  0.00000000000E+00 0. -1.
</event>
<event>
 7    1  0.6584658E-006  0.1695005E+03  0.7561462E-02  0.1178370E+00
         -1   -1    0    0    0  501 -0.00000000000E+00  0.00000000000E+00  0.13565737858E+03  0.13565737858E+03  0.00000000000E+00 0.  1.
          1   -1    0    0  501    0  0.00000000000E+00 -0.00000000000E+00 -0.25503105311E+03  0.25503105311E+03  0.00000000000E+00 0. -1.
         23    2    1    2    0    0 -0.10779107625E+03  0.10596013022E+03 -0.50926713954E+02  0.18289238090E+03  0.89496522177E+02 0.  0.
          5    1    1    2  502    0  0.13094663523E+03 -0.94843100452E+02 -0.78643658554E+02  0.17984585737E+03  0.41800000000E+01 0. -1.
         -5    1    1    2    0  502 -0.23155558980E+02 -0.11117029771E+02  0.10196697973E+02  0.27950193419E+02  0.41800000000E+01 0. -1.
        -11    1    3    3    0    0 -0.75349270366E+02  0.70724545327E+02  0.11753175846E+02  0.10400774490E+03  0.00000000000E+00 0.  1.
         11    1    3    3    0    0 -0.32441805884E+02  0.35235584896E+02 -0.62679889801E+02  0.78884636004E+02  0.00000000000E+00 0. -1.
</event>
<event>
 7    1  0.6584658E-006  0.1315627E+03  0.7561462E-02  0.1225155E+00
         -1   -1    0    0    0  501 -0.00000000000E+00  0.00000000000E+00  0.28916063270E+03  0.28916063270E+03  0.00000000000E+00 0.  1.
          1   -1    0    0  501    0  0.00000000000E+00 -0.00000000000E+00 -0.97599528847E+02  0.97599528847E+02  0.00000000000E+00 0. -1.
         23    2    1    2    0    0  0.59236760733E+02  0.83861150293E+02  0.15777016601E+01  0.13719394167E+03  0.90983526742E+02 0.  0.
          5    1    1    2  502    0 -0.22297906276E+02 -0.10345220989E+03  0.17575908864E+03  0.20520303603E+03  0.41800000000E+01 0.  1.
         -5    1    1    2    0  502 -0.36938854457E+02  0.19591059599E+02  0.14224313552E+02  0.44363183844E+02  0.41800000000E+01 0.  1.
        -11    1    3    3    0    0 -0.32425501097E+01  0.36878572319E+02  0.36126378046E+02  0.51726766942E+02  0.00000000000E+00 0.  1.
         11    1    3    3    0    0  0.62479310843E+02  0.46982577973E+02 -0.34548676386E+02  0.85467174730E+02  0.00000000000E+00 0. -1.
</event>
<event>
 7    1  0.6584658E-006  0.1299850E+03  0.7561462E-02  0.1227478E+00
          1   -1    0    0  501    0  0.00000000000E+00  0.00000000000E+00  0.13887151411E+03  0.13887151411E+03  0.00000000000E+00 0. -1.
         -1   -1    0    0    0  501 -0.00000000000E+00 -0.00000000000E+00 -0.19236114540E+03  0.19236114540E+03  0.00000000000E+00 0.  1.
         23    2    1    2    0    0  0.12398254413E+03  0.12028303160E+02 -0.22800659239E+02  0.15204150310E+03  0.84145096574E+02 0.  0.
          5    1    1    2  502    0 -0.55859596468E+02 -0.13732094044E+02  0.47983895259E+02  0.75025272599E+02  0.41800000000E+01 0. -1.
         -5    1    1    2    0  502 -0.68122947657E+02  0.17037908833E+01 -0.78672867307E+02  0.10416588382E+03  0.41800000000E+01 0. -1.
        -11    1    3    3    0    0  0.88696180522E+02 -0.14504698017E+02 -0.47288647010E+02  0.10155596900E+03  0.00000000000E+00 0.  1.
         11    1    3    3    0    0  0.35286363603E+02  0.26533001178E+02  0.24487987771E+02  0.50485534095E+02  0.00000000000E+00 0. -1.
</event>
<event>
 7    1  0.6584658E-006  0.8831260E+02  0.7561462E-02  0.1306990E+00
         -1   -1    0    0    0  501 -0.00000000000E+00  0.00000000000E+00  0.18789745586E+02  0.18789745586E+02  0.00000000000E+00 0.  1.
          1   -1    0    0  501    0  0.00000000000E+00 -0.00000000000E+00 -0.77670596223E+03  0.77670596223E+03  0.00000000000E+00 0. -1.
         23    2    1    2    0    0  0.54490014163E+02 -0.18437486277E+01 -0.34111220016E+03  0.35692417499E+03  0.89804078644E+02 0.  0.
          5    1    1    2  502    0 -0.17245086839E+02  0.36306863601E+02 -0.35218203080E+02  0.53603876659E+02  0.41800000000E+01 0. -1.
         -5    1    1    2    0  502 -0.37244927324E+02 -0.34463114974E+02 -0.38158581341E+03  0.38496765617E+03  0.41800000000E+01 0. -1.
        -11    1    3    3    0    0  0.68672966137E+02 -0.92591821860E+01 -0.33058132745E+03  0.33776578097E+03  0.00000000000E+00 0. -1.
         11    1    3    3    0    0 -0.14182951974E+02  0.74154335583E+01 -0.10530872712E+02  0.19158394025E+02  0.00000000000E+00 0.  1.
</event>
<event>
 7    1  0.6584658E-006  0.1357005E+03  0.7561462E-02  0.1219234E+00
         -2   -1    0    0    0  501 -0.00000000000E+00  0.00000000000E+00  0.25518973107E+03  0.25518973107E+03  0.00000000000E+00 0. -1.
          2   -1    0    0  501    0  0.00000000000E+00 -0.00000000000E+00 -0.14094867740E+03  0.14094867740E+03  0.00000000000E+00 0.  1.
         23    2    1    2    0    0  0.76783218904E+02  0.52846296228E+01 -0.77455868197E+02  0.14126017853E+03  0.89618282200E+02 0.  0.
          5    1    1    2  502    0 -0.17796567639E+02  0.65812266488E+02  0.46133239436E+02  0.82424028177E+02  0.41800000000E+01 0.  1.
         -5    1    1    2    0  502 -0.58986651265E+02 -0.71096896111E+02  0.14556368243E+03  0.17245420176E+03  0.41800000000E+01 0. -1.
        -11    1    3    3    0    0 -0.14895026860E+02 -0.96317197241E+01  0.34624335826E+01  0.18072639439E+02  0.00000000000E+00 0. -1.
         11    1    3    3    0    0  0.91678245764E+02  0.14916349347E+02 -0.80918301779E+02  0.12318753909E+03  0.00000000000E+00 0.  1.
</event>
<event>
 7    1  0.6584658E-006  0.1374459E+03  0.7561462E-02  0.1216808E+00
         -3   -1    0    0    0  501 -0.00000000000E+00  0.00000000000E+00  0.39832038011E+02  0.39832038011E+02  0.00000000000E+00 0.  1.
          3   -1    0    0  501    0  0.00000000000E+00 -0.00000000000E+00 -0.76066204507E+03  0.76066204507E+03  0.00000000000E+00 0. -1.
         23    2    1    2    0    0 -0.18376966739E+02  0.11994562101E+03 -0.47823289015E+03  0.50178774373E+03  0.91430725887E+02 0.  0.
          5    1    1    2  502    0 -0.55775108511E+01 -0.37702964409E+02 -0.19869469162E+03  0.20236026050E+03  0.41800000000E+01 0.  1.
         -5    1    1    2    0  502  0.23954477590E+02 -0.82242656605E+02 -0.43902425289E+02  0.96346078842E+02  0.41800000000E+01 0.  1.
        -11    1    3    3    0    0  0.33097714707E+02  0.20841451017E+02 -0.98743929411E+02  0.10620823130E+03  0.00000000000E+00 0.  1.
         11    1    3    3    0    0 -0.51474681446E+02  0.99104169997E+02 -0.37948896074E+03  0.39557951244E+03  0.00000000000E+00 0. -1.
</event>
<event>
 7    1  0.8229815E-006  0.2857480E+03  0.7561462E-02  0.1092590E+00
         -2   -1    0    0    0  501 -0.00000000000E+00  0.00000000000E+00  0.16180168589E+03  0.16180168589E+03  0.00000000000E+00 0.  1.
          2   -1    0    0  501    0  0.00000000000E+00 -0.00000000000E+00 -0.51948443224E+03  0.51948443224E+03  0.00000000000E+00 0. -1.
         23    2    1    2    0    0  0.22196330823E+03  0.14826088915E+03 -0.20808101001E+03  0.35071525154E+03  0.91948243516E+02 0.  0.
          5    1    1    2  502    0 -0.23004991650E+03 -0.15922696141E+03 -0.14703308285E+03  0.31608921078E+03  0.41800000000E+01 0.  1.
         -5    1    1    2    0  502  0.80866082691E+01  0.10966072257E+02 -0.25686534928E+01  0.14481655804E+02  0.41800000000E+01 0.  1.
        -11    1    3    3    0    0  0.20739183357E+03  0.10636631558E+03 -0.19653981457E+03  0.30488205004E+03  0.00000000000E+00 0.  1.
         11    1    3    3    0    0  0.14571474660E+02  0.41894573567E+02 -0.11541195436E+02  0.45833201505E+02  0.00000000000E+00 0. -1.
</event>
<event>
 7    1  0.6584658E-006  0.9716651E+02  0.7561462E-02  0.1286370E+00
         -2   -1    0    0    0  501 -0.00000000000E+00  0.00000000000E+00  0.29694418281E+02  0.29694418281E+02  0.00000000000E+00 0. -1.
          2   -1    0    0  501    0  0.00000000000E+00 -0.00000000000E+00 -0.49580375735E+03  0.49580375735E+03  0.00000000000E+00 0.  1.
         23    2    1    2    0    0 -0.74772136401E+01 -0.31795742962E+02 -0.10432325344E+03  0.14130648217E+03  0.89539391893E+02 0.  0.
          5    1    1    2  502    0 -0.81486032043E+01 -0.38243646672E+02 -0.23651356200E+03  0.23976053398E+03  0.41800000000E+01 0.  1.
         -5    1    1    2    0  502  0.15625816844E+02  0.70039389635E+02 -0.12527252363E+03  0.14443115948E+03  0.41800000000E+01 0.  1.
        -11    1    3    3    0    0  0.16763188246E+02  0.19905303047E+02 -0.70005284446E+02  0.74685777896E+02  0.00000000000E+00 0.  1.
         11    1    3    3    0    0 -0.24240401886E+02 -0.51701046009E+02 -0.34317968995E+02  0.66620704274E+02  0.00000000000E+00 0. -1.
</event>
<event>
 7    1  0.6584658E-006  0.1084573E+03  0.7561462E-02  0.1263454E+00
          1   -1    0    0  501    0  0.00000000000E+00  0.00000000000E+00  0.35090856690E+03  0.35090856690E+03  0.00000000000E+00 0. -1.
         -1   -1    0    0    0  501 -0.00000000000E+00 -0.00000000000E+00 -0.63119336481E+02  0.63119336481E+02  0.00000000000E+00 0.  1.
         23    2    1    2    0    0  0.55778438111E+02  0.85082821691E+02  0.15351371198E+03  0.20419940951E+03  0.88207813552E+02 0.  0.
          5    1    1    2  502    0 -0.41386817413E+02 -0.55331343190E+02 -0.22872490086E+01  0.69261317507E+02  0.41800000000E+01 0. -1.
         -5    1    1    2    0  502 -0.14391620698E+02 -0.29751478501E+02  0.13656276744E+03  0.14056717637E+03  0.41800000000E+01 0. -1.
        -11    1    3    3    0    0  0.42006360830E+02  0.90346592490E+02  0.15968286300E+03  0.18821704986E+03  0.00000000000E+00 0. -1.
         11    1    3    3    0    0  0.13772077282E+02 -0.52637707990E+01 -0.61691510107E+01  0.15982359646E+02  0.00000000000E+00 0.  1.
</event>
<event>
 7    1  0.6584658E-006  0.1651681E+03  0.7561462E-02  0.1182983E+00
         -2   -1    0    0    0  501 -0.00000000000E+00  0.00000000000E+00  0.30226113483E+03  0.30226113483E+03  0.00000000000E+00 0.  1.
          2   -1    0    0  501    0  0.00000000000E+00 -0.00000000000E+00 -0.11585873454E+03  0.11585873454E+03  0.00000000000E+00 0. -1.
         23    2    1    2    0    0 -0.17205910435E+01 -0.14469744215E+03  0.27136437005E+02  0.17333701165E+03  0.91482365488E+02 0.  0.
          5    1    1    2  502    0  0.54459464274E+02  0.38009895784E+02  0.50992312580E+02  0.83834800463E+02  0.41800000000E+01 0. -1.
         -5    1    1    2    0  502 -0.52738873231E+02  0.10668754637E+03  0.10827365071E+03  0.16094805726E+03  0.41800000000E+01 0.  1.
        -11    1    3    3    0    0 -0.53455536410E+00 -0.31861588096E+02  0.48947469514E+02  0.58406346550E+02  0.00000000000E+00 0.  1.
         11    1    3    3    0    0 -0.11860356794E+01 -0.11283585406E+03 -0.21811032509E+02  0.11493066510E+03  0.00000000000E+00 0. -1.
</event>
<event>
 7    1  0.6584658E-006  0.1190796E+03  0.7561462E-02  0.1244623E+00
          2   -1    0    0  501    0  0.00000000000E+00  0.00000000000E+00  0.20983077657E+03  0.20983077657E+03  0.00000000000E+00 0. -1.
         -2   -1    0    0    0  501 -0.00000000000E+00 -0.00000000000E+00 -0.92433607415E+02  0.92433607415E+02  0.00000000000E+00 0.  1.
         23    2    1    2    0    0 -0.53018520585E+02  0.43896456033E+02  0.11163740285E+03  0.15938769135E+03  0.90574080523E+02 0.  0.
          5    1    1    2  502    0 -0.26677678456E+02  0.22749912803E+02  0.15267276664E+02  0.38468418178E+02  0.41800000000E+01 0.  1.
         -5    1    1    2    0  502  0.79696199041E+02 -0.66646368836E+02 -0.95075103606E+01  0.10440827445E+03  0.41800000000E+01 0.  1.
        -11    1    3    3    0    0 -0.14560766435E+01  0.47185939258E+02  0.93298799986E+02  0.10456241725E+03  0.00000000000E+00 0.  1.
         11    1    3    3    0    0 -0.51562443941E+02 -0.32894832252E+01  0.18338602861E+02  0.54825274099E+02  0.00000000000E+00 0. -1.
</event>
<event>
 7    1  0.6584658E-006  0.7744064E+02  0.7561462E-02  0.1336476E+00
          2   -1    0    0  501    0  0.00000000000E+00  0.00000000000E+00  0.70915080450E+03  0.70915080450E+03  0.00000000000E+00 0. -1.
         -2   -1    0    0    0  501 -0.00000000000E+00 -0.00000000000E+00 -0.24066850232E+02  0.24066850232E+02  0.00000000000E+00 0.  1.
         23    2    1    2    0    0 -0.53366577136E+01  0.49363933953E+02  0.45614387531E+03  0.46764941230E+03  0.90351867472E+02 0.  0.
          5    1    1    2  502    0  0.10651687346E+02 -0.26862243969E+02  0.23844266227E+03  0.24022367532E+03  0.41800000000E+01 0. -1.
         -5    1    1    2    0  502 -0.53150296323E+01 -0.22501689984E+02 -0.95025833132E+01  0.25344567105E+02  0.41800000000E+01 0. -1.
        -11    1    3    3    0    0  0.38123961888E+02  0.23991578753E+01  0.14154275360E+03  0.14660676494E+03  0.00000000000E+00 0. -1.
         11    1    3    3    0    0 -0.43460619601E+02  0.46964776078E+02  0.31460112171E+03  0.32104264737E+03  0.00000000000E+00 0.  1.
</event>
<event>
 7    1  0.6584658E-006  0.8921724E+02  0.7561462E-02  0.1304758E+00
          2   -1    0    0  501    0  0.00000000000E+00  0.00000000000E+00  0.17168795743E+02  0.17168795743E+02  0.00000000000E+00 0. -1.
         -2   -1    0    0    0  501 -0.00000000000E+00 -0.00000000000E+00 -0.80148532924E+03  0.80148532924E+03  0.00000000000E+00 0.  1.
         23    2    1    2    0    0 -0.37413438694E+02 -0.22303620013E+02 -0.24876934883E+03  0.26895687841E+03  0.92489981416E+02 0.  0.
          5    1    1    2  502    0  0.66726545925E+02  0.18727164090E+02 -0.18039617699E+03  0.19329612432E+03  0.41800000000E+01 0. -1.
         -5    1    1    2    0  502 -0.29313107231E+02  0.35764559232E+01 -0.35515100768E+03  0.35640112226E+03  0.41800000000E+01 0.  1.
        -11    1    3    3    0    0 -0.44867202242E+02 -0.39916874604E+02 -0.24090539543E+03  0.24827773211E+03  0.00000000000E+00 0.  1.
         11    1    3    3    0    0  0.74537635480E+01  0.17613254590E+02 -0.78639534017E+01  0.20679146293E+02  0.00000000000E+00 0. -1.
</event>
<event>
 7    1  0.6584658E-006  0.6671356E+02  0.7561462E-02  0.1371639E+00
          1   -1    0    0  501    0  0.00000000000E+00  0.00000000000E+00  0.31633084185E+03  0.31633084185E+03  0.00000000000E+00 0. -1.
         -1   -1    0    0    0  501 -0.00000000000E+00 -0.00000000000E+00 -0.90026245964E+02  0.90026245964E+02  0.00000000000E+00 0.  1.
         23    2    1    2    0    0 -0.11460024873E+02 -0.22801738864E+02  0.25069597124E+03  0.27636870041E+03  0.11348981060E+03 0.  0.
          5    1    1    2  502    0  0.16921025793E+02  0.31596597642E+01 -0.74053178397E+02  0.76142302266E+02  0.41800000000E+01 0. -1.
         -5    1    1    2    0  502 -0.54610009199E+01  0.19642079100E+02  0.49661803046E+02  0.53846085134E+02  0.41800000000E+01 0. -1.
        -11    1    3    3    0    0 -0.53656097797E+01 -0.58470666400E+02  0.22354999959E+03  0.23113245319E+03  0.00000000000E+00 0. -1.
         11    1    3    3    0    0 -0.60944150931E+01  0.35668927536E+02  0.27145971642E+02  0.45236247228E+02  0.00000000000E+00 0.  1.
</event>
<event>
 7    1  0.6584658E-006  0.9019228E+02  0.7561462E-02  0.1302387E+00
         -1   -1    0    0    0  501 -0.00000000000E+00  0.00000000000E+00  0.12978730666E+03  0.12978730666E+03  0.00000000000E+00 0.  1.
          1   -1    0    0  501    0  0.00000000000E+00 -0.00000000000E+00 -0.10491295457E+03  0.10491295457E+03  0.00000000000E+00 0. -1.
         23    2    1    2    0    0 -0.37115112667E+02 -0.19477140934E+02 -0.12246810791E+01  0.10021619895E+03  0.91021404523E+02 0.  0.
          5    1    1    2  502    0  0.54189189776E+02 -0.15820698941E+02 -0.31423627131E+02  0.64743181460E+02  0.41800000000E+01 0.  1.
         -5    1    1    2    0  502 -0.17074077108E+02  0.35297839875E+02  0.57522660299E+02  0.69740880815E+02  0.41800000000E+01 0.  1.
        -11    1    3    3    0    0 -0.39904167900E+02 -0.44152822174E+02 -0.26174243101E+02  0.65014654684E+02  0.00000000000E+00 0. -1.
         11    1    3    3    0    0  0.27890552327E+01  0.24675681240E+02  0.24949562022E+02  0.35201544268E+02  0.00000000000E+00 0.  1.
</event>
<event>
 7    1  0.6584658E-006  0.1019062E+03  0.7561462E-02  0.1276338E+00
          1   -1    0    0  501    0  0.00000000000E+00  0.00000000000E+00  0.16151847336E+02  0.16151847336E+02  0.00000000000E+00 0. -1.
         -1   -1    0    0    0  501 -0.00000000000E+00 -0.00000000000E+00 -0.19294332300E+04  0.19294332300E+04  0.00000000000E+00 0.  1.
         23    2    1    2    0    0  0.49199715713E+02  0.47421036121E+01 -0.18299271121E+03  0.21007741958E+03  0.90570913046E+02 0.  0.
          5    1    1    2  502    0 -0.90196674521E+02  0.46561859820E+01 -0.10381883002E+04  0.10421178145E+04  0.41800000000E+01 0. -1.
         -5    1    1    2    0  502  0.40996958809E+02 -0.93982895942E+01 -0.69210037128E+03  0.69338984331E+03  0.41800000000E+01 0. -1.
        -11    1    3    3    0    0  0.24610912966E+02  0.28004844461E+02 -0.17548117622E+02  0.41205640177E+02  0.00000000000E+00 0. -1.
         11    1    3    3    0    0  0.24588802746E+02 -0.23262740849E+02 -0.16544459359E+03  0.16887177941E+03  0.00000000000E+00 0.  1.
</event>
<event>
 7    1  0.6584658E-006  0.1116389E+03  0.7561462E-02  0.1257565E+00
          1   -1    0    0  501    0  0.00000000000E+00  0.00000000000E+00  0.10810051407E+03  0.10810051407E+03  0.00000000000E+00 0. -1.
         -1   -1    0    0    0  501 -0.00000000000E+00 -0.00000000000E+00 -0.18092645654E+03  0.18092645654E+03  0.00000000000E+00 0.  1.
         23    2    1    2    0    0 -0.61585907937E+02 -0.11759804245E+02  0.31246518141E+02  0.11464454923E+03  0.90751918545E+02 0.  0.
          5    1    1    2  502    0  0.93044816566E+02 -0.10570578580E+02 -0.97088543278E+02  0.13495455775E+03  0.41800000000E+01 0. -1.
         -5    1    1    2    0  502 -0.31458908629E+02  0.22330382826E+02 -0.69839173328E+01  0.39427863632E+02  0.41800000000E+01 0. -1.
        -11    1    3    3    0    0 -0.73206558780E+02 -0.20698042034E+02 -0.42956081957E+01  0.76197515985E+02  0.00000000000E+00 0.  1.
         11    1    3    3    0    0  0.11620650843E+02  0.89382377886E+01  0.35542126337E+02  0.38447033244E+02  0.00000000000E+00 0. -1.
</event>
<event>
 7    1  0.6584658E-006  0.1116451E+03  0.7561462E-02  0.1257553E+00
          2   -1    0    0  501    0  0.00000000000E+00  0.00000000000E+00  0.12482086054E+03  0.12482086054E+03  0.00000000000E+00 0. -1.
         -2   -1    0    0    0  501 -0.00000000000E+00 -0.00000000000E+00 -0.15408564288E+03  0.15408564288E+03  0.00000000000E+00 0.  1.
         23    2    1    2    0    0 -0.83251100262E+02  0.13012402214E+02 -0.32573391805E+02  0.12804555571E+03  0.90744532496E+02 0.  0.
          5    1    1    2  502    0  0.20579638180E+02 -0.28609275085E+02 -0.53865170010E+02  0.64505356899E+02  0.41800000000E+01 0.  1.
         -5    1    1    2    0  502  0.62671462082E+02  0.15596872871E+02  0.57173779474E+02  0.86355590799E+02  0.41800000000E+01 0.  1.
        -11    1    3    3    0    0 -0.53515669929E+02 -0.36886090420E+02 -0.24215802845E+02  0.69360764860E+02  0.00000000000E+00 0.  1.
         11    1    3    3    0    0 -0.29735430333E+02  0.49898492634E+02 -0.83575889602E+01  0.58684790853E+02  0.00000000000E+00 0. -1.
</event>
<event>
 7    1  0.6584658E-006  0.2531468E+03  0.7561462E-02  0.1111332E+00
          2   -1    0    0  501    0  0.00000000000E+00  0.00000000000E+00  0.15975743963E+04  0.15975743963E+04  0.00000000000E+00 0. -1.
         -2   -1    0    0    0  501 -0.00000000000E+00 -0.00000000000E+00 -0.44581105353E+02  0.44581105353E+02  0.00000000000E+00 0.  1.
         23    2    1    2    0    0  0.58963624972E+02  0.23062666681E+03  0.91354568981E+03  0.94846543513E+03  0.91408893221E+02 0.  0.
          5    1    1    2  502    0  0.21104258754E+02 -0.77797825388E+02  0.10739511868E+03  0.13434684696E+03  0.41800000000E+01 0.  1.
         -5    1    1    2    0  502 -0.80067883726E+02 -0.15282884142E+03  0.53205248250E+03  0.55934321959E+03  0.41800000000E+01 0.  1.
        -11    1    3    3    0    0  0.80549727091E+02  0.19917046362E+03  0.81353877409E+03  0.84142882590E+03  0.00000000000E+00 0. -1.
         11    1    3    3    0    0 -0.21586102119E+02  0.31456203190E+02  0.10000691572E+03  0.10703660923E+03  0.00000000000E+00 0.  1.
</event>
<event>
 7    1  0.6584658E-006  0.1701571E+03  0.7561462E-02  0.1177684E+00
          1   -1    0    0  501    0  0.00000000000E+00  0.00000000000E+00  0.74843992841E+02  0.74843992841E+02  0.00000000000E+00 0. -1.
         -1   -1    0    0    0  501 -0.00000000000E+00 -0.00000000000E+00 -0.54807501247E+03  0.54807501247E+03  0.00000000000E+00 0.  1.
         23    2    1    2    0    0 -0.53705285746E+02  0.13478221861E+03 -0.86415267113E+02  0.19126817472E+03  0.89807639422E+02 0.  0.
          5    1    1    2  502    0 -0.16578874333E+02 -0.11789636860E+03 -0.24411937750E+03  0.27163607212E+03  0.41800000000E+01 0.  1.
         -5    1    1    2    0  502  0.70284160079E+02 -0.16885850006E+02 -0.14269637502E+03  0.16001475848E+03  0.41800000000E+01 0.  1.
        -11    1    3    3    0    0 -0.37018763809E+02  0.49120746205E+02  0.87703486046E+01  0.62130150461E+02  0.00000000000E+00 0. -1.
         11    1    3    3    0    0 -0.16686521937E+02  0.85661472405E+02 -0.95185615718E+02  0.12913802426E+03  0.00000000000E+00 0.  1.
</event>
<event>
 7    1  0.6584658E-006  0.1581739E+03  0.7561462E-02  0.1190774E+00
         -1   -1    0    0    0  501 -0.00000000000E+00  0.00000000000E+00  0.47668603099E+02  0.47668603099E+02  0.00000000000E+00 0.  1.
          1   -1    0    0  501    0  0.00000000000E+00 -0.00000000000E+00 -0.62719374052E+03  0.62719374052E+03  0.00000000000E+00 0. -1.
         23    2    1    2    0    0  0.40164040877E+02  0.42966773623E+02 -0.27890692029E+03  0.29900174118E+03  0.90297714405E+02 0.  0.
          5    1    1    2  502    0 -0.12156889305E+03 -0.14607871862E+02 -0.24285932411E+03  0.27201196552E+03  0.41800000000E+01 0. -1.
         -5    1    1    2    0  502  0.81404852177E+02 -0.28358901761E+02 -0.57758893019E+02  0.10384863692E+03  0.41800000000E+01 0.  1.
        -11    1    3    3    0    0 -0.29097329013E+02  0.95259741901E+01 -0.88580956551E+02  0.93722913973E+02  0.00000000000E+00 0.  1.
         11    1    3    3    0    0  0.69261369890E+02  0.33440799433E+02 -0.19032596374E+03  0.20527882720E+03  0.00000000000E+00 0. -1.
</event>
<event>
 7    1  0.9718747E-006  0.2781687E+03  0.7561462E-02  0.1096693E+00
         -2   -1    0    0    0  501 -0.00000000000E+00  0.00000000000E+00  0.66559213132E+03  0.66559213132E+03  0.00000000000E+00 0. -1.
          2   -1    0    0  501    0  0.00000000000E+00 -0.00000000000E+00 -0.13150530459E+03  0.13150530459E+03  0.00000000000E+00 0.  1.
         23    2    1    2    0    0 -0.14685176416E+03 -0.21592126293E+03  0.14320632210E+03  0.31065879122E+03  0.88393446895E+02 0.  0.
          5    1    1    2  502    0  0.10631666302E+03  0.63202367631E+02  0.22831782474E+03  0.25970035349E+03  0.41800000000E+01 0. -1.
         -5    1    1    2    0  502  0.40535101147E+02  0.15271889530E+03  0.16256267989E+03  0.22673829121E+03  0.41800000000E+01 0. -1.
        -11    1    3    3    0    0 -0.96878630318E+01 -0.82846802355E+02  0.56862574954E+02  0.10094949124E+03  0.00000000000E+00 0.  1.
         11    1    3    3    0    0 -0.13716390113E+03 -0.13307446057E+03  0.86343747145E+02  0.20970929999E+03  0.00000000000E+00 0. -1.
</event>
<event>
 7    1  0.6584658E-006  0.2086905E+03  0.7561462E-02  0.1142607E+00
          1   -1    0    0  501    0  0.00000000000E+00  0.00000000000E+00  0.36797644329E+03  0.36797644329E+03  0.00000000000E+00 0. -1.
         -1   -1    0    0    0  501 -0.00000000000E+00 -0.00000000000E+00 -0.17770734332E+03  0.17770734332E+03  0.00000000000E+00 0.  1.
         23    2    1    2    0    0  0.14030015754E+03  0.12498362239E+03  0.23628807448E+03  0.31531994678E+03  0.91047101146E+02 0.  0.
          5    1    1    2  502    0 -0.14652635545E+03 -0.56966113702E+02 -0.33636622803E+02  0.16082290180E+03  0.41800000000E+01 0.  1.
         -5    1    1    2    0  502  0.62261979083E+01 -0.68017508689E+02 -0.12382351706E+02  0.69540938032E+02  0.41800000000E+01 0.  1.
        -11    1    3    3    0    0  0.38338157128E+02  0.13596622147E+02  0.11389295558E+03  0.12093919032E+03  0.00000000000E+00 0. -1.
         11    1    3    3    0    0  0.10196200041E+03  0.11138700024E+03  0.12239511890E+03  0.19438075646E+03  0.00000000000E+00 0.  1.
</event>
<event>
 7    1  0.6584658E-006  0.1909128E+03  0.7561462E-02  0.1157641E+00
         -2   -1    0    0    0  501 -0.00000000000E+00  0.00000000000E+00  0.26104972560E+02  0.26104972560E+02  0.00000000000E+00 0.  1.
          2   -1    0    0  501    0  0.00000000000E+00 -0.00000000000E+00 -0.14650624820E+04  0.14650624820E+04  0.00000000000E+00 0. -1.
         23    2    1    2    0    0  0.89897762845E+02 -0.14421544910E+02 -0.59830614058E+03  0.61561217485E+03  0.11277643038E+03 0.  0.
          5    1    1    2  502    0  0.57258482393E+02  0.60735704894E+02 -0.40063598469E+03  0.40926033802E+03  0.41800000000E+01 0. -1.
         -5    1    1    2    0  502 -0.14715624524E+03 -0.46314159983E+02 -0.44001538414E+03  0.46629494164E+03  0.41800000000E+01 0.  1.
        -11    1    3    3    0    0 -0.22996162583E+02 -0.20578787478E+02 -0.10065517461E+03  0.10527950496E+03  0.00000000000E+00 0.  1.
         11    1    3    3    0    0  0.11289392543E+03  0.61572425676E+01 -0.49765096597E+03  0.51033266990E+03  0.00000000000E+00 0. -1.
</event>
<event>
 7    1  0.6584658E-006  0.1486244E+03  0.7561462E-02  0.1202174E+00
         -3   -1    0    0    0  501 -0.00000000000E+00  0.00000000000E+00  0.61887090355E+03  0.61887090355E+03  0.00000000000E+00 0.  1.
          3   -1    0    0  501    0  0.00000000000E+00 -0.00000000000E+00 -0.41918742486E+02  0.41918742486E+02  0.00000000000E+00 0. -1.
         23    2    1    2    0    0  0.71317799645E+02  0.77922054178E+02  0.15419810113E+03  0.20743934322E+03  0.89977506371E+02 0.  0.
          5    1    1    2  502    0 -0.20046421322E+02 -0.10369620703E+03  0.29008280169E+03  0.30873980404E+03  0.41800000000E+01 0. -1.
         -5    1    1    2    0  502 -0.51271378323E+02  0.25774152854E+02  0.13267125825E+03  0.14461049877E+03  0.41800000000E+01 0. -1.
        -11    1    3    3    0    0  0.89076382838E+02  0.53813175972E+02  0.94141855705E+02  0.14033228026E+03  0.00000000000E+00 0.  1.
         11    1    3    3    0    0 -0.17758583194E+02  0.24108878206E+02  0.60056245421E+02  0.67107062962E+02  0.00000000000E+00 0. -1.
</event>
<event>
 7    1  0.6584658E-006  0.1368728E+03  0.7561462E-02  0.1217600E+00
          2   -1    0    0  501    0  0.00000000000E+00  0.00000000000E+00  0.15954552333E+03  0.15954552333E+03  0.00000000000E+00 0. -1.
         -2   -1    0    0    0  501 -0.00000000000E+00 -0.00000000000E+00 -0.20150814019E+03  0.20150814019E+03  0.00000000000E+00 0.  1.
         23    2    1    2    0    0  0.12311335763E+03 -0.10702846287E+02  0.49432215153E+02  0.16288203069E+03  0.93891225796E+02 0.  0.
          5    1    1    2  502    0 -0.67076209596E+02  0.12610460920E+02  0.21809868774E+02  0.71773145357E+02  0.41800000000E+01 0.  1.
         -5    1    1    2    0  502 -0.56037148037E+02 -0.19076146333E+01 -0.11320470079E+03  0.12639848747E+03  0.41800000000E+01 0.  1.
        -11    1    3    3    0    0  0.43157724715E+02 -0.44811110948E+02 -0.13114856563E+01  0.62228167750E+02  0.00000000000E+00 0.  1.
         11    1    3    3    0    0  0.79955632919E+02  0.34108264661E+02  0.50743700809E+02  0.10065386294E+03  0.00000000000E+00 0. -1.
</event>
<event>
 7    1  0.6584658E-006  0.1332110E+03  0.7561462E-02  0.1222768E+00
          1   -1    0    0  501    0  0.00000000000E+00  0.00000000000E+00  0.20394654627E+03  0.20394654627E+03  0.00000000000E+00 0. -1.
         -1   -1    0    0    0  501 -0.00000000000E+00 -0.00000000000E+00 -0.15926214020E+03  0.15926214020E+03  0.00000000000E+00 0.  1.
         23    2    1    2    0    0  0.10226479539E+03  0.96924438297E+01  0.12127068858E+03  0.18414817366E+03  0.93015794952E+02 0.  0.
          5    1    1    2  502    0 -0.68561238764E+02 -0.50833601781E+02 -0.89944884630E+02  0.12406551979E+03  0.41800000000E+01 0. -1.
         -5    1    1    2    0  502 -0.33703556625E+02  0.41141157952E+02  0.13358602122E+02  0.54994993021E+02  0.41800000000E+01 0. -1.
        -11    1    3    3    0    0  0.22969076381E+02 -0.30930014222E+02  0.73666866658E+02  0.83132734184E+02  0.00000000000E+00 0. -1.
         11    1    3    3    0    0  0.79295719007E+02  0.40622458052E+02  0.47603821917E+02  0.10101543947E+03  0.00000000000E+00 0.  1.
</event>
<event>
 7    1  0.6584658E-006  0.1612395E+03  0.7561462E-02  0.1187304E+00
          1   -1    0    0  501    0  0.00000000000E+00  0.00000000000E+00  0.52600098805E+03  0.52600098805E+03  0.00000000000E+00 0. -1.
         -1   -1    0    0    0  501 -0.00000000000E+00 -0.00000000000E+00 -0.56528380706E+02  0.56528380706E+02  0.00000000000E+00 0.  1.
         23    2    1    2    0    0  0.10502389326E+03 -0.75108596563E+02  0.28045251828E+03  0.32167117856E+03  0.90263019432E+02 0.  0.
          5    1    1    2  502    0 -0.11421119885E+03  0.91321187984E+02  0.19215452753E+03  0.24150484916E+03  0.41800000000E+01 0.  1.
         -5    1    1    2    0  502  0.91873055923E+01 -0.16212591421E+02 -0.31344384655E+01  0.19353341033E+02  0.41800000000E+01 0.  1.
        -11    1    3    3    0    0  0.94188720432E+02 -0.14234081219E+02  0.18176765415E+03  0.20521599406E+03  0.00000000000E+00 0. -1.
         11    1    3    3    0    0  0.10835172824E+02 -0.60874515344E+02  0.98684864129E+02  0.11645518450E+03  0.00000000000E+00 0.  1.
</event>
<event>
 7    1  0.6584658E-006  0.1114982E+03  0.7561462E-02  0.1257820E+00
          2   -1    0    0  501    0  0.00000000000E+00  0.00000000000E+00  0.26875858698E+03  0.26875858698E+03  0.00000000000E+00 0.  1.
         -2   -1    0    0    0  501 -0.00000000000E+00 -0.00000000000E+00 -0.59489622088E+02  0.59489622088E+02  0.00000000000E+00 0. -1.
         23    2    1    2    0    0  0.64177484202E+02  0.18289709329E+02  0.97539367988E+02  0.14773907104E+03  0.88654621184E+02 0.  0.
          5    1    1    2  502    0 -0.63515753941E+02 -0.62907380347E+02  0.45116763727E+02  0.10022267343E+03  0.41800000000E+01 0. -1.
         -5    1    1    2    0  502 -0.66173026083E+00  0.44617671018E+02  0.66612833179E+02  0.80286464601E+02  0.41800000000E+01 0. -1.
        -11    1    3    3    0    0  0.77699874991E+01 -0.19363948342E+02 -0.79511220254E+01  0.22328357365E+02  0.00000000000E+00 0. -1.
         11    1    3    3    0    0  0.56407496703E+02  0.37653657671E+02  0.10549049001E+03  0.12541071367E+03  0.00000000000E+00 0.  1.
</event>
<event>
 7    1  0.6584658E-006  0.2228323E+03  0.7561462E-02  0.1131789E+00
          1   -1    0    0  501    0  0.00000000000E+00  0.00000000000E+00  0.16543665084E+03  0.16543665084E+03  0.00000000000E+00 0. -1.
         -1   -1    0    0    0  501 -0.00000000000E+00 -0.00000000000E+00 -0.36742745327E+03  0.36742745327E+03  0.00000000000E+00 0.  1.
         23    2    1    2    0    0  0.91182162462E+01 -0.19569961223E+03  0.13237122795E+02  0.21607856765E+03  0.90184510225E+02 0.  0.
          5    1    1    2  502    0  0.55828185286E+02  0.11955178125E+03 -0.12979730585E+03  0.18513299997E+03  0.41800000000E+01 0. -1.
         -5    1    1    2    0  502 -0.64946401532E+02  0.76147830977E+02 -0.85430619377E+02  0.13165253648E+03  0.41800000000E+01 0. -1.
        -11    1    3    3    0    0  0.46575265033E+02 -0.89886454579E+02 -0.90494881294E+01  0.10164016561E+03  0.00000000000E+00 0.  1.
         11    1    3    3    0    0 -0.37457048786E+02 -0.10581315765E+03  0.22286610924E+02  0.11443840204E+03  0.00000000000E+00 0. -1.
</event>
<event>
 7    1  0.6584658E-006  0.1255133E+03  0.7561462E-02  0.1234269E+00
         -1   -1    0    0    0  501 -0.00000000000E+00  0.00000000000E+00  0.91100442183E+02  0.91100442183E+02  0.00000000000E+00 0.  1.
          1   -1    0    0  501    0  0.00000000000E+00 -0.00000000000E+00 -0.18936974811E+03  0.18936974811E+03  0.00000000000E+00 0. -1.
         23    2    1    2    0    0 -0.41896076180E+02  0.56305758258E+02 -0.65859884738E+02  0.13343468678E+03  0.92421164280E+02 0.  0.
          5    1    1    2  502    0 -0.34724266354E+02 -0.47620754523E+02  0.84209802881E+01  0.59681624007E+02  0.41800000000E+01 0.  1.
         -5    1    1    2    0  502  0.76620342533E+02 -0.86850037352E+01 -0.40830401482E+02  0.87353879507E+02  0.41800000000E+01 0.  1.
        -11    1    3    3    0    0 -0.92392376412E+01  0.76014980960E+02 -0.53216467431E+02  0.93250379347E+02  0.00000000000E+00 0. -1.
         11    1    3    3    0    0 -0.32656838539E+02 -0.19709222702E+02 -0.12643417308E+02  0.40184307436E+02  0.00000000000E+00 0.  1.
</event>
<event>
 7    1  0.6584658E-006  0.9753762E+02  0.7561462E-02  0.1285561E+00
          3   -1    0    0  501    0  0.00000000000E+00  0.00000000000E+00  0.89412135407E+02  0.89412135407E+02  0.00000000000E+00 0. -1.
         -3   -1    0    0    0  501 -0.00000000000E+00 -0.00000000000E+00 -0.27113878299E+03  0.27113878299E+03  0.00000000000E+00 0.  1.
         23    2    1    2    0    0  0.32925574590E+02 -0.24831320225E+01  0.39841174596E+02  0.10397681087E+03  0.90186465721E+02 0.  0.
          5    1    1    2  502    0  0.10510978611E+02  0.50556236740E+02 -0.45618871913E+02  0.69028744878E+02  0.41800000000E+01 0.  1.
         -5    1    1    2    0  502 -0.43436553201E+02 -0.48073104718E+02 -0.17594895027E+03  0.18754536265E+03  0.41800000000E+01 0.  1.
        -11    1    3    3    0    0  0.55599972934E+02 -0.77213966149E+00 -0.27740639233E+01  0.55674488058E+02  0.00000000000E+00 0.  1.
         11    1    3    3    0    0 -0.22674398344E+02 -0.17109923610E+01  0.42615238520E+02  0.48302322814E+02  0.00000000000E+00 0. -1.
</event>
<event>
 7    1  0.6584658E-006  0.9629660E+02  0.7561462E-02  0.1288282E+00
          2   -1    0    0  501    0  0.00000000000E+00  0.00000000000E+00  0.22470290626E+03  0.22470290626E+03  0.00000000000E+00 0. -1.
         -2   -1    0    0    0  501 -0.00000000000E+00 -0.00000000000E+00 -0.82644905645E+02  0.82644905645E+02  0.00000000000E+00 0.  1.
         23    2    1    2    0    0 -0.44821969615E+02  0.31199628968E+02  0.13521965987E+03  0.17068628393E+03  0.88696253007E+02 0.  0.
          5    1    1    2  502    0  0.47701225530E+02 -0.52331878784E+02 -0.42540478593E+02  0.82711529868E+02  0.41800000000E+01 0. -1.
         -5    1    1    2    0  502 -0.28792559158E+01  0.21132249816E+02  0.49378819341E+02  0.53949998113E+02  0.41800000000E+01 0. -1.
        -11    1    3    3    0    0  0.19709482466E+02  0.29368916993E+02  0.72553977316E+02  0.80716024486E+02  0.00000000000E+00 0.  1.
         11    1    3    3    0    0 -0.64531452080E+02  0.18307119744E+01  0.62665682553E+02  0.89970259440E+02  0.00000000000E+00 0. -1.
</event>
<event>
 7    1  0.6584658E-006  0.9334355E+02  0.7561462E-02  0.1294951E+00
         -2   -1    0    0    0  501 -0.00000000000E+00  0.00000000000E+00  0.25590776301E+02  0.25590776301E+02  0.00000000000E+00 0.  1.
          2   -1    0    0  501    0  0.00000000000E+00 -0.00000000000E+00 -0.58984116816E+03  0.58984116816E+03  0.00000000000E+00 0. -1.
         23    2    1    2    0    0 -0.29719609430E+02 -0.55607700487E+02 -0.28076912604E+03  0.30113683980E+03  0.88750338636E+02 0.  0.
          5    1    1    2  502    0  0.19168332684E+02 -0.14578383648E+01 -0.24209767494E+03  0.24289567078E+03  0.41800000000E+01 0. -1.
         -5    1    1    2    0  502  0.10551276746E+02  0.57065538851E+02 -0.41383590878E+02  0.71399433887E+02  0.41800000000E+01 0.  1.
        -11    1    3    3    0    0 -0.46307594926E+02  0.44535271708E+01 -0.11618737077E+03  0.12515483362E+03  0.00000000000E+00 0. -1.
         11    1    3    3    0    0  0.16587985496E+02 -0.60061227657E+02 -0.16458175527E+03  0.17598200618E+03  0.00000000000E+00 0.  1.
</event>
<event>
 7    1  0.6584658E-006  0.1414395E+03  0.7561462E-02  0.1211405E+00
         -1   -1    0    0    0  501 -0.00000000000E+00  0.00000000000E+00  0.81655490316E+02  0.81655490316E+02  0.00000000000E+00 0.  1.
          1   -1    0    0  501    0  0.00000000000E+00 -0.00000000000E+00 -0.33314427710E+03  0.33314427710E+03  0.00000000000E+00 0. -1.
         23    2    1    2    0    0  0.11921513695E+03  0.31493080298E+02 -0.12814549883E+03  0.20017161975E+03  0.91887678695E+02 0.  0.
          5    1    1    2  502    0 -0.10011794806E+03 -0.49935047568E+02 -0.14279473290E+03  0.18145225445E+03  0.41800000000E+01 0. -1.
         -5    1    1    2    0  502 -0.19097188889E+02  0.18441967270E+02  0.19451444950E+02  0.33175893219E+02  0.41800000000E+01 0. -1.
        -11    1    3    3    0    0  0.37351988429E+02 -0.24674905227E+02 -0.10033571268E+02  0.45876949985E+02  0.00000000000E+00 0.  1.
         11    1    3    3    0    0  0.81863148524E+02  0.56167985525E+02 -0.11811192756E+03  0.15429466976E+03  0.00000000000E+00 0. -1.
</event>
<event>
 7    1  0.6584658E-006  0.7852340E+02  0.7561462E-02  0.1333295E+00
          1   -1    0    0  501    0  0.00000000000E+00  0.00000000000E+00  0.15294756881E+03  0.15294756881E+03  0.00000000000E+00 0. -1.
         -1   -1    0    0    0  501 -0.00000000000E+00 -0.00000000000E+00 -0.84504524856E+02  0.84504524856E+02  0.00000000000E+00 0.  1.
         23    2    1    2    0    0  0.79863647943E+01  0.33953744686E+02  0.70540481680E+02  0.12031327755E+03  0.91009265452E+02 0.  0.
          5    1    1    2  502    0 -0.29488559873E+02  0.33955361249E+02 -0.65817743070E+01  0.45643552381E+02  0.41800000000E+01 0. -1.
         -5    1    1    2    0  502  0.21502195079E+02 -0.67909105934E+02  0.44843365802E+01  0.71495263735E+02  0.41800000000E+01 0.  1.
        -11    1    3    3    0    0  0.10132917431E+02  0.46592786288E+01 -0.21216656048E+02  0.23969384365E+02  0.00000000000E+00 0.  1.
         11    1    3    3    0    0 -0.21465526364E+01  0.29294466057E+02  0.91757137728E+02  0.96343893183E+02  0.00000000000E+00 0. -1.
</event>
<event>
 7    1  0.6584658E-006  0.1218241E+03  0.7561462E-02  0.1240118E+00
         -1   -1    0    0    0  501 -0.00000000000E+00  0.00000000000E+00  0.74202650009E+02  0.74202650009E+02  0.00000000000E+00 0.  1.
          1   -1    0    0  501    0  0.00000000000E+00 -0.00000000000E+00 -0.28965730184E+03  0.28965730184E+03  0.00000000000E+00 0. -1.
         23    2    1    2    0    0 -0.72125286467E+02 -0.64788525532E+02 -0.11620934793E+03  0.17705764692E+03  0.91897702888E+02 0.  0.
          5    1    1    2  502    0  0.62245328153E+02  0.39375040896E+01  0.80109580344E+01  0.63020890695E+02  0.41800000000E+01 0. -1.
         -5    1    1    2    0  502  0.98799583140E+01  0.60851021443E+02 -0.10725626193E+03  0.12378141423E+03  0.41800000000E+01 0. -1.
        -11    1    3    3    0    0 -0.41750429532E+01 -0.49531458464E+02 -0.89678674731E+02  0.10253321931E+03  0.00000000000E+00 0. -1.
         11    1    3    3    0    0 -0.67950243514E+02 -0.15257067068E+02 -0.26530673204E+02  0.74524427605E+02  0.00000000000E+00 0.  1.
</event>
<event>
 7    1  0.6584658E-006  0.1669230E+03  0.7561462E-02  0.1181095E+00
          1   -1    0    0  501    0  0.00000000000E+00  0.00000000000E+00  0.18531919783E+04  0.18531919783E+04  0.00000000000E+00 0. -1.
         -1   -1    0    0    0  501 -0.00000000000E+00 -0.00000000000E+00 -0.18857036270E+02  0.18857036270E+02  0.00000000000E+00 0.  1.
         23    2    1    2    0    0 -0.20439105545E+02  0.14985234353E+03  0.92537951523E+03  0.94214516538E+03  0.91851965376E+02 0.  0.
          5    1    1    2  502    0  0.33518399224E+02 -0.85829321901E+02  0.23010877340E+03  0.24790658640E+03  0.41800000000E+01 0.  1.
         -5    1    1    2    0  502 -0.13079293679E+02 -0.64023021630E+02  0.67884665339E+03  0.68199726278E+03  0.41800000000E+01 0.  1.
        -11    1    3    3    0    0 -0.55294706149E+02  0.11048862838E+03  0.68883513700E+03  0.69982789848E+03  0.00000000000E+00 0. -1.
         11    1    3    3    0    0  0.34855600604E+02  0.39363715146E+02  0.23654437824E+03  0.24231726690E+03  0.00000000000E+00 0.  1.
</event>
<event>
 7    1  0.6584658E-006  0.1016962E+03  0.7561462E-02  0.1276769E+00
         -1   -1    0    0    0  501 -0.00000000000E+00  0.00000000000E+00  0.21343907546E+03  0.21343907546E+03  0.00000000000E+00 0.  1.
          1   -1    0    0  501    0  0.00000000000E+00 -0.00000000000E+00 -0.84606234674E+02  0.84606234674E+02  0.00000000000E+00 0. -1.
         23    2    1    2    0    0  0.74878412664E+02  0.82468828049E-01  0.27049162737E+02  0.12023666299E+03  0.90102244351E+02 0.  0.
          5    1    1    2  502    0 -0.16772763255E+02  0.48164812565E+02  0.22089685881E+00  0.51173195641E+02  0.41800000000E+01 0.  1.
         -5    1    1    2    0  502 -0.58105649409E+02 -0.48247281393E+02  0.10156278119E+03  0.12663545151E+03  0.41800000000E+01 0.  1.
        -11    1    3    3    0    0  0.35935834624E+02 -0.79779379973E+01 -0.32181150811E+02  0.48894357265E+02  0.00000000000E+00 0. -1.
         11    1    3    3    0    0  0.38942578040E+02  0.80604068253E+01  0.59230313548E+02  0.71342305721E+02  0.00000000000E+00 0.  1.
</event>
<event>
 7    1  0.6584658E-006  0.6730193E+02  0.7561462E-02  0.1369516E+00
         -2   -1    0    0    0  501 -0.00000000000E+00  0.00000000000E+00  0.32632357049E+02  0.32632357049E+02  0.00000000000E+00 0.  1.
          2   -1    0    0  501    0  0.00000000000E+00 -0.00000000000E+00 -0.39775789153E+03  0.39775789153E+03  0.00000000000E+00 0. -1.
         23    2    1    2    0    0  0.10323671411E+01  0.77070137358E+01 -0.20001331331E+03  0.22001886017E+03  0.91337338953E+02 0.  0.
          5    1    1    2  502    0 -0.16856219932E+02 -0.17015630401E+02 -0.18287633225E+03  0.18448547132E+03  0.41800000000E+01 0. -1.
         -5    1    1    2    0  502  0.15823852791E+02  0.93086166648E+01  0.17764111080E+02  0.25885917094E+02  0.41800000000E+01 0.  1.
        -11    1    3    3    0    0  0.41982301178E+02  0.22854773095E+02 -0.97151501673E+02  0.10827404372E+03  0.00000000000E+00 0. -1.
         11    1    3    3    0    0 -0.40949934036E+02 -0.15147759359E+02 -0.10286181163E+03  0.11174481645E+03  0.00000000000E+00 0.  1.
</event>
<event>
 7    1  0.6584658E-006  0.9897893E+02  0.7561462E-02  0.1282458E+00
         -1   -1    0    0    0  501 -0.00000000000E+00  0.00000000000E+00  0.17095331656E+03  0.17095331656E+03  0.00000000000E+00 0.  1.
          1   -1    0    0  501    0  0.00000000000E+00 -0.00000000000E+00 -0.92004701750E+02  0.92004701750E+02  0.00000000000E+00 0. -1.
         23    2    1    2    0    0  0.67052599912E+02  0.93804667334E+01  0.27589886155E+02  0.11173496695E+03  0.84495305847E+02 0.  0.
          5    1    1    2  502    0 -0.96348816793E+02 -0.32669207369E+01  0.66729730847E+02  0.11732048690E+03  0.41800000000E+01 0. -1.
         -5    1    1    2    0  502  0.29296216881E+02 -0.61135459965E+01 -0.15371002193E+02  0.33902564455E+02  0.41800000000E+01 0. -1.
        -11    1    3    3    0    0  0.12943012835E+02  0.11183976450E+02  0.50222029941E+02  0.53055208998E+02  0.00000000000E+00 0. -1.
         11    1    3    3    0    0  0.54109587077E+02 -0.18035097169E+01 -0.22632143786E+02  0.58679757952E+02  0.00000000000E+00 0.  1.
</event>
<event>
 7    1  0.6584658E-006  0.8998749E+02  0.7561462E-02  0.1302882E+00
          2   -1    0    0  501    0  0.00000000000E+00  0.00000000000E+00  0.23036121200E+03  0.23036121200E+03  0.00000000000E+00 0.  1.
         -2   -1    0    0    0  501 -0.00000000000E+00 -0.00000000000E+00 -0.83472818300E+02  0.83472818300E+02  0.00000000000E+00 0. -1.
         23    2    1    2    0    0  0.82773294911E+02  0.57684624001E+01  0.94965929881E+02  0.15500018145E+03  0.90121223379E+02 0.  0.
          5    1    1    2  502    0 -0.19959497356E+02  0.11791257299E+02 -0.39776276451E+02  0.46228128361E+02  0.41800000000E+01 0. -1.
         -5    1    1    2    0  502 -0.62813797555E+02 -0.17559719699E+02  0.91698740274E+02  0.11260572049E+03  0.41800000000E+01 0. -1.
        -11    1    3    3    0    0  0.53521966057E+02 -0.14529465148E+02  0.10435722879E+03  0.11817841347E+03  0.00000000000E+00 0.  1.
         11    1    3    3    0    0  0.29251328854E+02  0.20297927548E+02 -0.93912989108E+01  0.36821767988E+02  0.00000000000E+00 0. -1.
</event>
<event>
 7    1  0.6584658E-006  0.1221011E+03  0.7561462E-02  0.1239671E+00
          1   -1    0    0  501    0  0.00000000000E+00  0.00000000000E+00  0.31474475295E+03  0.31474475295E+03  0.00000000000E+00 0. -1.
         -1   -1    0    0    0  501 -0.00000000000E+00 -0.00000000000E+00 -0.54571900341E+02  0.54571900341E+02  0.00000000000E+00 0.  1.
         23    2    1    2    0    0  0.32621031241E+02 -0.66478508808E+02  0.11533506646E+03  0.16411018331E+03  0.90257691620E+02 0.  0.
          5    1    1    2  502    0  0.41645257981E+02  0.44374205276E+02  0.95278859698E+02  0.11313236103E+03  0.41800000000E+01 0. -1.
         -5    1    1    2    0  502 -0.74266289222E+02  0.22104303532E+02  0.49558926450E+02  0.92074108957E+02  0.41800000000E+01 0. -1.
        -11    1    3    3    0    0  0.55932354918E+02 -0.58573407797E+02  0.11349162745E+03  0.13942604465E+03  0.00000000000E+00 0. -1.
         11    1    3    3    0    0 -0.23311323677E+02 -0.79051010115E+01  0.18434390143E+01  0.24684138651E+02  0.00000000000E+00 0.  1.
</event>
<event>
 7    1  0.6584658E-006  0.9308521E+02  0.7561462E-02  0.1295548E+00
          1   -1    0    0  501    0  0.00000000000E+00  0.00000000000E+00  0.31207715183E+02  0.31207715183E+02  0.00000000000E+00 0. -1.
         -1   -1    0    0    0  501 -0.00000000000E+00 -0.00000000000E+00 -0.46393472805E+03  0.46393472805E+03  0.00000000000E+00 0.  1.
         23    2    1    2    0    0 -0.41140342147E+02  0.12504048239E+02 -0.12176390053E+03  0.15726367432E+03  0.89758213067E+02 0.  0.
          5    1    1    2  502    0  0.46133619562E+02  0.25769595320E+02 -0.46294431881E+02  0.70377764386E+02  0.41800000000E+01 0. -1.
         -5    1    1    2    0  502 -0.49932774153E+01 -0.38273643559E+02 -0.26466868045E+03  0.26750100453E+03  0.41800000000E+01 0. -1.
        -11    1    3    3    0    0 -0.39584629859E+02 -0.31326453353E+02 -0.39723228502E+02  0.64235694776E+02  0.00000000000E+00 0. -1.
         11    1    3    3    0    0 -0.15557122885E+01  0.43830501592E+02 -0.82040672031E+02  0.93027979543E+02  0.00000000000E+00 0.  1.
</event>
<event>
 7    1  0.6584658E-006  0.1349207E+03  0.7561462E-02  0.1220332E+00
          2   -1    0    0  501    0  0.00000000000E+00  0.00000000000E+00  0.63145226652E+03  0.63145226652E+03  0.00000000000E+00 0.  1.
         -2   -1    0    0    0  501 -0.00000000000E+00 -0.00000000000E+00 -0.31063566195E+02  0.31063566195E+02  0.00000000000E+00 0. -1.
         23    2    1    2    0    0 -0.62884785500E+02 -0.58367130899E+02  0.22576386256E+03  0.25834655174E+03  0.91719141610E+02 0.  0.
          5    1    1    2  502    0  0.99198453719E+02  0.35341619724E+02  0.29959537567E+03  0.31759128582E+03  0.41800000000E+01 0.  1.
         -5    1    1    2    0  502 -0.36313668219E+02  0.23025511175E+02  0.75029462091E+02  0.86577995161E+02  0.41800000000E+01 0.  1.
        -11    1    3    3    0    0  0.16625728626E+02 -0.34400390529E+02  0.10542743110E+03  0.11213717024E+03  0.00000000000E+00 0.  1.
         11    1    3    3    0    0 -0.79510514125E+02 -0.23966740370E+02  0.12033643147E+03  0.14620938150E+03  0.00000000000E+00 0. -1.
</event>
<event>
 7    1  0.6584658E-006  0.1105218E+03  0.7561462E-02  0.1259607E+00
         -2   -1    0    0    0  501 -0.00000000000E+00  0.00000000000E+00  0.36969065090E+02  0.36969065090E+02  0.00000000000E+00 0.  1.
          2   -1    0    0  501    0  0.00000000000E+00 -0.00000000000E+00 -0.47613936405E+03  0.47613936405E+03  0.00000000000E+00 0. -1.
         23    2    1    2    0    0 -0.61305984787E+02 -0.39638858386E+02 -0.24473046881E+03  0.27065363000E+03  0.89614296884E+02 0.  0.
          5    1    1    2  502    0  0.71467236234E+02  0.64178685754E+02 -0.80532003458E+02  0.12541668765E+03  0.41800000000E+01 0.  1.
         -5    1    1    2    0  502 -0.10161251448E+02 -0.24539827368E+02 -0.11390782669E+03  0.11703811149E+03  0.41800000000E+01 0.  1.
        -11    1    3    3    0    0 -0.17613675706E+02 -0.50080912490E+02 -0.58138119268E+02  0.78729792834E+02  0.00000000000E+00 0.  1.
         11    1    3    3    0    0 -0.43692309081E+02  0.10442054104E+02 -0.18659234954E+03  0.19192383717E+03  0.00000000000E+00 0. -1.
</event>
<event>
 7    1  0.6584658E-006  0.1089153E+03  0.7561462E-02  0.1262592E+00
          2   -1    0    0  501    0  0.00000000000E+00  0.00000000000E+00  0.24352662506E+03  0.24352662506E+03  0.00000000000E+00 0. -1.
         -2   -1    0    0    0  501 -0.00000000000E+00 -0.00000000000E+00 -0.95375473591E+02  0.95375473591E+02  0.00000000000E+00 0.  1.
         23    2    1    2    0    0 -0.89277514964E+02 -0.37875834925E+02  0.10111216643E+03  0.17377553985E+03  0.10280668510E+03 0.  0.
          5    1    1    2  502    0  0.37345827206E+02 -0.50197327559E+01 -0.39918836760E+02  0.55053559875E+02  0.41800000000E+01 0. -1.
         -5    1    1    2    0  502  0.51931687758E+02  0.42895567681E+02  0.86957821797E+02  0.11007299892E+03  0.41800000000E+01 0. -1.
        -11    1    3    3    0    0 -0.62605004376E+02  0.40550596245E+01  0.10668991226E+03  0.12376820052E+03  0.00000000000E+00 0. -1.
         11    1    3    3    0    0 -0.26672510588E+02 -0.41930894550E+02 -0.55777458282E+01  0.50007339335E+02  0.00000000000E+00 0.  1.
</event>
<event>
 7    1  0.6584658E-006  0.1911455E+03  0.7561462E-02  0.1157432E+00
         -1   -1    0    0    0  501 -0.00000000000E+00  0.00000000000E+00  0.11641499412E+03  0.11641499412E+03  0.00000000000E+00 0.  1.
          1   -1    0    0  501    0  0.00000000000E+00 -0.00000000000E+00 -0.33635239957E+03  0.33635239957E+03  0.00000000000E+00 0. -1.
         23    2    1    2    0    0  0.52473316089E+02 -0.15657258043E+03 -0.89709212706E+02  0.20807334714E+03  0.89321627287E+02 0.  0.
          5    1    1    2  502    0  0.14301535440E+02  0.13226333188E+03 -0.10369345495E+03  0.16872441399E+03  0.41800000000E+01 0.  1.
         -5    1    1    2    0  502 -0.66774851529E+02  0.24309248549E+02 -0.26534737799E+02  0.75969632563E+02  0.41800000000E+01 0.  1.
        -11    1    3    3    0    0 -0.12670758526E+02 -0.61269128411E+02 -0.11488545869E+01  0.62576146291E+02  0.00000000000E+00 0.  1.
         11    1    3    3    0    0  0.65144074614E+02 -0.95303452021E+02 -0.88560358119E+02  0.14549720085E+03  0.00000000000E+00 0. -1.
</event>
<event>
 7    1  0.6584658E-006  0.1112238E+03  0.7561462E-02  0.1258320E+00
          3   -1    0    0  501    0  0.00000000000E+00  0.00000000000E+00  0.16376456588E+02  0.16376456588E+02  0.00000000000E+00 0. -1.
         -3   -1    0    0    0  501 -0.00000000000E+00 -0.00000000000E+00 -0.10955626326E+04  0.10955626326E+04  0.00000000000E+00 0.  1.
         23    2    1    2    0    0 -0.52104724400E+02  0.12353611656E+02 -0.22700868488E+03  0.24896676671E+03  0.87086129152E+02 0.  0.
          5    1    1    2  502    0  0.30798713676E+02 -0.67598441894E+02 -0.39372669207E+03  0.40069475983E+03  0.41800000000E+01 0. -1.
         -5    1    1    2    0  502  0.21306010724E+02  0.55244830238E+02 -0.45845079905E+03  0.46227756263E+03  0.41800000000E+01 0. -1.
        -11    1    3    3    0    0 -0.71080715405E+01 -0.27607633942E+02 -0.14187376943E+03  0.14470961469E+03  0.00000000000E+00 0.  1.
         11    1    3    3    0    0 -0.44996652859E+02  0.39961245598E+02 -0.85134915453E+02  0.10425715202E+03  0.00000000000E+00 0. -1.
</event>
<event>
 7    1  0.6584658E-006  0.1665964E+03  0.7561462E-02  0.1181444E+00
         -1   -1    0    0    0  501 -0.00000000000E+00  0.00000000000E+00  0.46122894823E+03  0.46122894823E+03  0.00000000000E+00 0.  1.
          1   -1    0    0  501    0  0.00000000000E+00 -0.00000000000E+00 -0.75487942653E+02  0.75487942653E+02  0.00000000000E+00 0. -1.
         23    2    1    2    0    0  0.13810460078E+03  0.44400252132E+02  0.10765992944E+03  0.19904688696E+03  0.83574754890E+02 0.  0.
          5    1    1    2  502    0  0.78067167026E+01  0.24957876975E+02  0.65361169227E+02  0.70522303504E+02  0.41800000000E+01 0.  1.
         -5    1    1    2    0  502 -0.14591131748E+03 -0.69358129107E+02  0.21271990691E+03  0.26714770042E+03  0.41800000000E+01 0.  1.
        -11    1    3    3    0    0  0.48942445225E+02  0.14184543638E+02 -0.61720426209E+01  0.51328922966E+02  0.00000000000E+00 0. -1.
         11    1    3    3    0    0  0.89162155556E+02  0.30215708494E+02  0.11383197206E+03  0.14771796399E+03  0.00000000000E+00 0.  1.
</event>
<event>
 7    1  0.6584658E-006  0.8659575E+02  0.7561462E-02  0.1311311E+00
         -1   -1    0    0    0  501 -0.00000000000E+00  0.00000000000E+00  0.82348413047E+02  0.82348413047E+02  0.00000000000E+00 0.  1.
          1   -1    0    0  501    0  0.00000000000E+00 -0.00000000000E+00 -0.22590063580E+03  0.22590063580E+03  0.00000000000E+00 0. -1.
         23    2    1    2    0    0  0.42889041570E+02  0.56780847639E+02 -0.11307618365E+03  0.16114707392E+03  0.90103393829E+02 0.  0.
          5    1    1    2  502    0 -0.24112568231E+01 -0.36585469226E+02 -0.74940863327E+02  0.83533921937E+02  0.41800000000E+01 0. -1.
         -5    1    1    2    0  502 -0.40477784747E+02 -0.20195378413E+02  0.44464824224E+02  0.63568052987E+02  0.41800000000E+01 0. -1.
        -11    1    3    3    0    0  0.42156846054E+02  0.90416821086E+01 -0.10395136416E+03  0.11253816150E+03  0.00000000000E+00 0. -1.
         11    1    3    3    0    0  0.73219551600E+00  0.47739165530E+02 -0.91248194936E+01  0.48608912419E+02  0.00000000000E+00 0.  1.
</event>
<event>
 7    1  0.6584658E-006  0.1768421E+03  0.7561462E-02  0.1170895E+00
         -3   -1    0    0    0  501 -0.00000000000E+00  0.00000000000E+00  0.21973958771E+03  0.21973958771E+03  0.00000000000E+00 0.  1.
          3   -1    0    0  501    0  0.00000000000E+00 -0.00000000000E+00 -0.18483774302E+03  0.18483774302E+03  0.00000000000E+00 0. -1.
         23    2    1    2    0    0  0.16088998711E+03 -0.41221960151E+02  0.47949874917E+02  0.19625791596E+03  0.92914698098E+02 0.  0.
          5    1    1    2  502    0 -0.68002360700E+02  0.29809019710E+02 -0.67100746952E+02  0.10016427187E+03  0.41800000000E+01 0. -1.
         -5    1    1    2    0  502 -0.92887626409E+02  0.11412940440E+02  0.54052716729E+02  0.10815514290E+03  0.41800000000E+01 0. -1.
        -11    1    3    3    0    0  0.19297421527E+01 -0.25866263267E+02  0.22908867886E+02  0.34606411371E+02  0.00000000000E+00 0. -1.
         11    1    3    3    0    0  0.15896024496E+03 -0.15355696884E+02  0.25041007031E+02  0.16165150459E+03  0.00000000000E+00 0.  1.
</event>
<event>
 7    1  0.6584658E-006  0.2258161E+03  0.7561462E-02  0.1129620E+00
          4   -1    0    0  501    0  0.00000000000E+00  0.00000000000E+00  0.95924991893E+03  0.95924991893E+03  0.00000000000E+00 0. -1.
         -4   -1    0    0    0  501 -0.00000000000E+00 -0.00000000000E+00 -0.13010669098E+03  0.13010669098E+03  0.00000000000E+00 0.  1.
         23    2    1    2    0    0  0.19652135232E+03  0.57989285268E+02  0.81991979122E+03  0.85015497259E+03  0.92258410223E+02 0.  0.
          5    1    1    2  502    0 -0.12662968623E+03  0.22816620345E+02 -0.14893386888E+02  0.12959537403E+03  0.41800000000E+01 0. -1.
         -5    1    1    2    0  502 -0.69891666091E+02 -0.80805905613E+02  0.24116823610E+02  0.10960626329E+03  0.41800000000E+01 0.  1.
        -11    1    3    3    0    0  0.87008937229E+02  0.61264737562E+02  0.52179913629E+03  0.53253944629E+03  0.00000000000E+00 0. -1.
         11    1    3    3    0    0  0.10951241509E+03 -0.32754522939E+01  0.29812065494E+03  0.31761552630E+03  0.00000000000E+00 0.  1.
</event>
<event>
 7    1  0.6584658E-006  0.1249433E+03  0.7561462E-02  0.1235158E+00
          4   -1    0    0  501    0  0.00000000000E+00  0.00000000000E+00  0.38168795364E+03  0.38168795364E+03  0.00000000000E+00 0.  1.
         -4   -1    0    0    0  501 -0.00000000000E+00 -0.00000000000E+00 -0.50027884350E+02  0.50027884350E+02  0.00000000000E+00 0. -1.
         23    2    1    2    0    0  0.67675717374E+02 -0.73188337553E+01  0.23063048894E+03  0.25700843939E+03  0.90715750767E+02 0.  0.
          5    1    1    2  502    0  0.35146683186E+02  0.14493548515E+02  0.17922784295E+02  0.42238026521E+02  0.41800000000E+01 0.  1.
         -5    1    1    2    0  502 -0.10282240056E+03 -0.71747147598E+01  0.83106796048E+02  0.13246937208E+03  0.41800000000E+01 0.  1.
        -11    1    3    3    0    0  0.21940291551E+02  0.38138624745E+02  0.58526264777E+02  0.73220589724E+02  0.00000000000E+00 0.  1.
         11    1    3    3    0    0  0.45735425823E+02 -0.45457458500E+02  0.17210422417E+03  0.18378784966E+03  0.00000000000E+00 0. -1.
</event>
<event>
 7    1  0.6584658E-006  0.1168383E+03  0.7561462E-02  0.1248406E+00
         -4   -1    0    0    0  501 -0.00000000000E+00  0.00000000000E+00  0.28651873401E+03  0.28651873401E+03  0.00000000000E+00 0. -1.
          4   -1    0    0  501    0  0.00000000000E+00 -0.00000000000E+00 -0.58861942210E+02  0.58861942210E+02  0.00000000000E+00 0.  1.
         23    2    1    2    0    0 -0.38644255062E+02 -0.60622726426E+02  0.11940450982E+03  0.16500773707E+03  0.88326796150E+02 0.  0.
          5    1    1    2  502    0  0.83204338187E+02  0.26573515688E+02  0.57785674579E+02  0.10481302503E+03  0.41800000000E+01 0. -1.
         -5    1    1    2    0  502 -0.44560083125E+02  0.34049210739E+02  0.50466607399E+02  0.75559914124E+02  0.41800000000E+01 0. -1.
        -11    1    3    3    0    0 -0.22946682960E+02  0.41758072294E+01 -0.50090367410E+01  0.23855357343E+02  0.00000000000E+00 0.  1.
         11    1    3    3    0    0 -0.15697572102E+02 -0.64798533656E+02  0.12441354657E+03  0.14115237973E+03  0.00000000000E+00 0. -1.
</event>
<event>
 7    1  0.6584658E-006  0.2426353E+03  0.7561462E-02  0.1118050E+00
          1   -1    0    0  501    0  0.00000000000E+00  0.00000000000E+00  0.13776454893E+04  0.13776454893E+04  0.00000000000E+00 0. -1.
         -1   -1    0    0    0  501 -0.00000000000E+00 -0.00000000000E+00 -0.50791616226E+02  0.50791616226E+02  0.00000000000E+00 0.  1.
         23    2    1    2    0    0  0.23677089804E+03 -0.85892014910E+01  0.52896267963E+03  0.58676402196E+03  0.91412627600E+02 0.  0.
          5    1    1    2  502    0 -0.16580008672E+03 -0.67210806203E+01  0.34354512127E+03  0.38154365993E+03  0.41800000000E+01 0. -1.
         -5    1    1    2    0  502 -0.70970811328E+02  0.15310282111E+02  0.45434607216E+03  0.46012942363E+03  0.41800000000E+01 0. -1.
        -11    1    3    3    0    0  0.17711697431E+03 -0.36273434246E+02  0.44344050361E+03  0.47887959328E+03  0.00000000000E+00 0. -1.
         11    1    3    3    0    0  0.59653923738E+02  0.27684232755E+02  0.85522176020E+02  0.10788442868E+03  0.00000000000E+00 0.  1.
</event>
<event>
 7    1  0.6584658E-006  0.1797847E+03  0.7561462E-02  0.1168012E+00
         -1   -1    0    0    0  501 -0.00000000000E+00  0.00000000000E+00  0.12160416565E+03  0.12160416565E+03  0.00000000000E+00 0.  1.
          1   -1    0    0  501    0  0.00000000000E+00 -0.00000000000E+00 -0.32750982135E+03  0.32750982135E+03  0.00000000000E+00 0. -1.
         23    2    1    2    0    0 -0.47830671252E+02 -0.15806858517E+03 -0.12247855309E+03  0.22577426515E+03  0.93271496766E+02 0.  0.
          5    1    1    2  502    0 -0.83641089696E+01  0.24776355345E+02  0.29599897284E+02  0.39717155264E+02  0.41800000000E+01 0.  1.
         -5    1    1    2    0  502  0.56194780221E+02  0.13329222982E+03 -0.11302699989E+03  0.18362256659E+03  0.41800000000E+01 0.  1.
        -11    1    3    3    0    0 -0.24233439716E+02  0.40300408990E+01 -0.25519307167E+02  0.35422251035E+02  0.00000000000E+00 0. -1.
         11    1    3    3    0    0 -0.23597231536E+02 -0.16209862606E+03 -0.96959245924E+02  0.19035201412E+03  0.00000000000E+00 0.  1.
</event>
<event>
 7    1  0.6584658E-006  0.6757019E+02  0.7561462E-02  0.1368556E+00
         -3   -1    0    0    0  501 -0.00000000000E+00  0.00000000000E+00  0.85868746910E+03  0.85868746910E+03  0.00000000000E+00 0.  1.
          3   -1    0    0  501    0  0.00000000000E+00 -0.00000000000E+00 -0.15477493217E+02  0.15477493217E+02  0.00000000000E+00 0. -1.
         23    2    1    2    0    0  0.27598020417E+02 -0.20015463629E+02  0.27996182047E+03  0.29618740790E+03  0.90477014542E+02 0.  0.
          5    1    1    2  502    0 -0.19045156251E+02 -0.96620880164E+01  0.10167169604E+02  0.24019110292E+02  0.41800000000E+01 0.  1.
         -5    1    1    2    0  502 -0.85528641656E+01  0.29677551645E+02  0.55308098581E+03  0.55395844413E+03  0.41800000000E+01 0.  1.
        -11    1    3    3    0    0  0.55808015333E+01  0.28443625529E+02  0.34686522666E+02  0.45203318835E+02  0.00000000000E+00 0. -1.
         11    1    3    3    0    0  0.22017218883E+02 -0.48459089158E+02  0.24527529781E+03  0.25098408906E+03  0.00000000000E+00 0.  1.
</event>
<event>
 7    1  0.6584658E-006  0.9823970E+02  0.7561462E-02  0.1284042E+00
          2   -1    0    0  501    0  0.00000000000E+00  0.00000000000E+00  0.30537025536E+03  0.30537025536E+03  0.00000000000E+00 0. -1.
         -2   -1    0    0    0  501 -0.00000000000E+00 -0.00000000000E+00 -0.73296829622E+02  0.73296829622E+02  0.00000000000E+00 0.  1.
         23    2    1    2    0    0 -0.65726876366E+02 -0.30575585692E+01  0.20652853373E+03  0.23503912762E+03  0.90884461405E+02 0.  0.
          5    1    1    2  502    0 -0.11125144368E+02  0.18326319692E+02  0.55496497137E+02  0.59640224891E+02  0.41800000000E+01 0. -1.
         -5    1    1    2    0  502  0.76852020734E+02 -0.15268761123E+02 -0.29951605125E+02  0.83987732477E+02  0.41800000000E+01 0. -1.
        -11    1    3    3    0    0 -0.46680518109E+01  0.27499674476E+02  0.12788477147E+03  0.13089131972E+03  0.00000000000E+00 0.  1.
         11    1    3    3    0    0 -0.61058824555E+02 -0.30557233045E+02  0.78643762260E+02  0.10414780790E+03  0.00000000000E+00 0. -1.
</event>
<event>
 7    1  0.6584658E-006  0.9292634E+02  0.7561462E-02  0.1295916E+00
         -1   -1    0    0    0  501 -0.00000000000E+00  0.00000000000E+00  0.58727436922E+03  0.58727436922E+03  0.00000000000E+00 0.  1.
          1   -1    0    0  501    0  0.00000000000E+00 -0.00000000000E+00 -0.31102956324E+02  0.31102956324E+02  0.00000000000E+00 0. -1.
         23    2    1    2    0    0  0.58060913815E+01 -0.56724793894E+02  0.18148266249E+03  0.21926571962E+03  0.10904167129E+03 0.  0.
          5    1    1    2  502    0 -0.26707075615E+02 -0.29477712753E+02  0.19026371894E+03  0.19442211444E+03  0.41800000000E+01 0. -1.
         -5    1    1    2    0  502  0.20900984234E+02  0.86202506647E+02  0.18442503146E+03  0.20468949148E+03  0.41800000000E+01 0. -1.
        -11    1    3    3    0    0  0.26647579845E+01 -0.35775636246E+02  0.19220427227E+03  0.19552360308E+03  0.00000000000E+00 0.  1.
         11    1    3    3    0    0  0.31413333969E+01 -0.20949157648E+02 -0.10721609776E+02  0.23742116541E+02  0.00000000000E+00 0. -1.
</event>
<event>
 7    1  0.6584658E-006  0.2101097E+03  0.7561462E-02  0.1141479E+00
          2   -1    0    0  501    0  0.00000000000E+00  0.00000000000E+00  0.23261301982E+03  0.23261301982E+03  0.00000000000E+00 0. -1.
         -2   -1    0    0    0  501 -0.00000000000E+00 -0.00000000000E+00 -0.20247417714E+03  0.20247417714E+03  0.00000000000E+00 0.  1.
         23    2    1    2    0    0  0.85630579731E+02  0.16422920386E+03  0.45287950263E+02  0.21108310686E+03  0.90560763991E+02 0.  0.
          5    1    1    2  502    0 -0.31855798365E+02 -0.16422905636E+03 -0.24924891601E+02  0.16918834908E+03  0.41800000000E+01 0. -1.
         -5    1    1    2    0  502 -0.53774781366E+02 -0.14749920292E-03  0.97757840209E+01  0.54815741026E+02  0.41800000000E+01 0. -1.
        -11    1    3    3    0    0  0.84929923340E+02  0.86558336567E+02  0.18988689761E+00  0.12126612703E+03  0.00000000000E+00 0. -1.
         11    1    3    3    0    0  0.70065639169E+00  0.77670867296E+02  0.45098063366E+02  0.89816979827E+02  0.00000000000E+00 0.  1.
</event>
<event>
 7    1  0.6584658E-006  0.2490184E+03  0.7561462E-02  0.1113927E+00
         -2   -1    0    0    0  501 -0.00000000000E+00  0.00000000000E+00  0.48897051508E+03  0.48897051508E+03  0.00000000000E+00 0.  1.
          2   -1    0    0  501    0  0.00000000000E+00 -0.00000000000E+00 -0.16544367745E+03  0.16544367745E+03  0.00000000000E+00 0. -1.
         23    2    1    2    0    0 -0.18719347433E+03 -0.14460204359E+03  0.35983457433E+02  0.26163030976E+03  0.10585113099E+03 0.  0.
          5    1    1    2  502    0  0.74080548636E+02  0.11020645519E+03  0.21875191497E+03  0.25593605286E+03  0.41800000000E+01 0.  1.
         -5    1    1    2    0  502  0.11311292570E+03  0.34395588409E+02  0.68791465234E+02  0.13684782991E+03  0.41800000000E+01 0.  1.
        -11    1    3    3    0    0 -0.74327709431E+02 -0.10207153624E+03 -0.21392224821E+02  0.12806574164E+03  0.00000000000E+00 0.  1.
         11    1    3    3    0    0 -0.11286576490E+03 -0.42530507359E+02  0.57375682254E+02  0.13356456812E+03  0.00000000000E+00 0. -1.
</event>
<event>
 7    1  0.6584658E-006  0.1173471E+03  0.7561462E-02  0.1247539E+00
         -3   -1    0    0    0  501 -0.00000000000E+00  0.00000000000E+00  0.38809229443E+02  0.38809229443E+02  0.00000000000E+00 0.  1.
          3   -1    0    0  501    0  0.00000000000E+00 -0.00000000000E+00 -0.40687043868E+03  0.40687043868E+03  0.00000000000E+00 0. -1.
         23    2    1    2    0    0 -0.18816487541E+02  0.44263684141E+02 -0.23763122926E+03  0.25866844106E+03  0.90152245365E+02 0.  0.
          5    1    1    2  502    0 -0.92840423378E+01 -0.84189453741E+02 -0.77509099180E+02  0.11488772963E+03  0.41800000000E+01 0.  1.
         -5    1    1    2    0  502  0.28100529878E+02  0.39925769600E+02 -0.52920880792E+02  0.72123497429E+02  0.41800000000E+01 0.  1.
        -11    1    3    3    0    0 -0.53468063990E+02  0.38198308946E+02 -0.13431612801E+03  0.14952848196E+03  0.00000000000E+00 0.  1.
         11    1    3    3    0    0  0.34651576449E+02  0.60653751950E+01 -0.10331510125E+03  0.10913995910E+03  0.00000000000E+00 0. -1.
</event>
<event>
 7    1  0.6584658E-006  0.1857549E+03  0.7561462E-02  0.1162347E+00
         -1   -1    0    0    0  501 -0.00000000000E+00  0.00000000000E+00  0.32580215564E+03  0.32580215564E+03  0.00000000000E+00 0.  1.
          1   -1    0    0  501    0  0.00000000000E+00 -0.00000000000E+00 -0.12402371261E+03  0.12402371261E+03  0.00000000000E+00 0. -1.
         23    2    1    2    0    0 -0.37697152155E+02  0.16515679185E+03  0.63282963137E+02  0.19778124164E+03  0.80092727184E+02 0.  0.
          5    1    1    2  502    0 -0.12373499526E+02 -0.11897064945E+03  0.13947846219E+03  0.18379018673E+03  0.41800000000E+01 0.  1.
         -5    1    1    2    0  502  0.50070651681E+02 -0.46186142394E+02 -0.98298229618E+00  0.68254439879E+02  0.41800000000E+01 0.  1.
        -11    1    3    3    0    0  0.42020853844E+01  0.12649814470E+03  0.24733561202E+02  0.12896196022E+03  0.00000000000E+00 0. -1.
         11    1    3    3    0    0 -0.41899237539E+02  0.38658647146E+02  0.38549401935E+02  0.68819281420E+02  0.00000000000E+00 0.  1.
</event>
<event>
 7    1  0.6584658E-006  0.1825459E+03  0.7561462E-02  0.1165362E+00
         -2   -1    0    0    0  501 -0.00000000000E+00  0.00000000000E+00  0.53586001237E+03  0.53586001237E+03  0.00000000000E+00 0.  1.
          2   -1    0    0  501    0  0.00000000000E+00 -0.00000000000E+00 -0.89275682759E+02  0.89275682759E+02  0.00000000000E+00 0. -1.
         23    2    1    2    0    0  0.70208174514E+02  0.10750673278E+03  0.31575924940E+02  0.16084411837E+03  0.91580052510E+02 0.  0.
          5    1    1    2  502    0 -0.87662910722E+02 -0.14318207330E+03  0.34466705217E+03  0.38340414875E+03  0.41800000000E+01 0. -1.
         -5    1    1    2    0  502  0.17454736209E+02  0.35675340516E+02  0.70341352504E+02  0.80887428005E+02  0.41800000000E+01 0.  1.
        -11    1    3    3    0    0  0.51642198345E+02  0.12276586857E+03  0.31284146513E+02  0.13681035399E+03  0.00000000000E+00 0. -1.
         11    1    3    3    0    0  0.18565976168E+02 -0.15259135785E+02  0.29177842613E+00  0.24033764387E+02  0.00000000000E+00 0.  1.
</event>
<event>
 7    1  0.6584658E-006  0.1104766E+03  0.7561462E-02  0.1259690E+00
          1   -1    0    0  501    0  0.00000000000E+00  0.00000000000E+00  0.80703199065E+02  0.80703199065E+02  0.00000000000E+00 0. -1.
         -1   -1    0    0    0  501 -0.00000000000E+00 -0.00000000000E+00 -0.43398901599E+03  0.43398901599E+03  0.00000000000E+00 0.  1.
         23    2    1    2    0    0 -0.21529507649E+01 -0.65498428519E+02  0.17154243641E+02  0.11048342685E+03  0.87279093700E+02 0.  0.
          5    1    1    2  502    0  0.64550723491E+02  0.37541914470E-01 -0.21288508563E+03  0.22249568399E+03  0.41800000000E+01 0. -1.
         -5    1    1    2    0  502 -0.62397772726E+02  0.65460886604E+02 -0.15755497494E+03  0.18171310421E+03  0.41800000000E+01 0.  1.
        -11    1    3    3    0    0  0.18291904715E+00 -0.54075745767E+02  0.51216816024E+02  0.74480749078E+02  0.00000000000E+00 0. -1.
         11    1    3    3    0    0 -0.23358698121E+01 -0.11422682751E+02 -0.34062572383E+02  0.36002677767E+02  0.00000000000E+00 0.  1.
</event>
<event>
 7    1  0.6584658E-006  0.1047984E+03  0.7561462E-02  0.1270517E+00
         -2   -1    0    0    0  501 -0.00000000000E+00  0.00000000000E+00  0.27485312757E+03  0.27485312757E+03  0.00000000000E+00 0.  1.
          2   -1    0    0  501    0  0.00000000000E+00 -0.00000000000E+00 -0.24248522358E+03  0.24248522358E+03  0.00000000000E+00 0. -1.
         23    2    1    2    0    0  0.49305150811E+02  0.46863600139E+02 -0.47998990885E+02  0.12331245997E+03  0.90966283558E+02 0.  0.
          5    1    1    2  502    0 -0.11161366765E+02 -0.64198475641E+02 -0.14802423705E+03  0.16178586940E+03  0.41800000000E+01 0. -1.
         -5    1    1    2    0  502 -0.38143784046E+02  0.17334875502E+02  0.22839113193E+03  0.23224002177E+03  0.41800000000E+01 0.  1.
        -11    1    3    3    0    0 -0.17365273525E+02 -0.46097224298E+01  0.10455470552E+02  0.20787475315E+02  0.00000000000E+00 0.  1.
         11    1    3    3    0    0  0.66670424336E+02  0.51473322569E+02 -0.58454461437E+02  0.10252498466E+03  0.00000000000E+00 0. -1.
</event>
<event>
 7    1  0.6584658E-006  0.9812239E+02  0.7561462E-02  0.1284295E+00
          2   -1    0    0  501    0  0.00000000000E+00  0.00000000000E+00  0.21414026946E+03  0.21414026946E+03  0.00000000000E+00 0. -1.
         -2   -1    0    0    0  501 -0.00000000000E+00 -0.00000000000E+00 -0.83314305537E+02  0.83314305537E+02  0.00000000000E+00 0.  1.
         23    2    1    2    0    0 -0.15895990657E+02  0.73320422547E+02  0.98150512022E+02  0.14797589236E+03  0.81454127131E+02 0.  0.
          5    1    1    2  502    0 -0.21833596651E+02 -0.25139396365E+02  0.70033962919E+02  0.77659021076E+02  0.41800000000E+01 0.  1.
         -5    1    1    2    0  502  0.37729587308E+02 -0.48181026182E+02 -0.37358511016E+02  0.71819661568E+02  0.41800000000E+01 0.  1.
        -11    1    3    3    0    0 -0.35650678109E+02  0.73392514647E+02  0.98892081050E+02  0.12820715951E+03  0.00000000000E+00 0. -1.
         11    1    3    3    0    0  0.19754687452E+02 -0.72092099508E-01 -0.74156902761E+00  0.19768732843E+02  0.00000000000E+00 0.  1.
</event>
<event>
 7    1  0.6584658E-006  0.1337172E+03  0.7561462E-02  0.1222042E+00
          2   -1    0    0  501    0  0.00000000000E+00  0.00000000000E+00  0.31960267751E+03  0.31960267751E+03  0.00000000000E+00 0. -1.
         -2   -1    0    0    0  501 -0.00000000000E+00 -0.00000000000E+00 -0.73635858666E+02  0.73635858666E+02  0.00000000000E+00 0.  1.
         23    2    1    2    0    0  0.15024574290E+02  0.97555147731E+02  0.17362452527E+03  0.21824216716E+03  0.87985357127E+02 0.  0.
          5    1    1    2  502    0 -0.69093413902E+02 -0.70229654742E+02  0.43834962168E+02  0.10791237444E+03  0.41800000000E+01 0.  1.
         -5    1    1    2    0  502  0.54068839612E+02 -0.27325492989E+02  0.28507331402E+02  0.67083994572E+02  0.41800000000E+01 0.  1.
        -11    1    3    3    0    0 -0.13000668590E+02  0.59122708524E+02  0.31235979060E+02  0.68119002010E+02  0.00000000000E+00 0.  1.
         11    1    3    3    0    0  0.28025242880E+02  0.38432439207E+02  0.14238854621E+03  0.15012316515E+03  0.00000000000E+00 0. -1.
</event>
<event>
 7    1  0.6584658E-006  0.7989756E+02  0.7561462E-02  0.1329342E+00
          2   -1    0    0  501    0  0.00000000000E+00  0.00000000000E+00  0.17998225047E+03  0.17998225047E+03  0.00000000000E+00 0. -1.
         -2   -1    0    0    0  501 -0.00000000000E+00 -0.00000000000E+00 -0.69226660306E+02  0.69226660306E+02  0.00000000000E+00 0.  1.
         23    2    1    2    0    0 -0.21056495167E+02 -0.48604466258E+01  0.51383831815E+02  0.10906897157E+03  0.93748293086E+02 0.  0.
          5    1    1    2  502    0 -0.23102324933E+02 -0.12395824539E+02 -0.29277347159E+02  0.39522263852E+02  0.41800000000E+01 0. -1.
         -5    1    1    2    0  502  0.44158820100E+02  0.17256271165E+02  0.88649105508E+02  0.10061767536E+03  0.41800000000E+01 0. -1.
        -11    1    3    3    0    0 -0.50746130272E+02 -0.17083094822E+02  0.65778866824E+01  0.53946922613E+02  0.00000000000E+00 0.  1.
         11    1    3    3    0    0  0.29689635105E+02  0.12222648196E+02  0.44805945133E+02  0.55122048953E+02  0.00000000000E+00 0. -1.
</event>
<event>
 7    1  0.6584658E-006  0.1038132E+03  0.7561462E-02  0.1272476E+00
          2   -1    0    0  501    0  0.00000000000E+00  0.00000000000E+00  0.48020099738E+02  0.48020099738E+02  0.00000000000E+00 0. -1.
         -2   -1    0    0    0  501 -0.00000000000E+00 -0.00000000000E+00 -0.29525138003E+03  0.29525138003E+03  0.00000000000E+00 0.  1.
         23    2    1    2    0    0 -0.10983891245E+02 -0.41032630043E+02 -0.69686874701E+02  0.12197114455E+03  0.90644233139E+02 0.  0.
          5    1    1    2  502    0  0.36673492836E+02  0.64741970046E+02 -0.16953708520E+03  0.18519385363E+03  0.41800000000E+01 0. -1.
         -5    1    1    2    0  502 -0.25689601591E+02 -0.23709340004E+02 -0.80073203877E+01  0.36106481594E+02  0.41800000000E+01 0. -1.
        -11    1    3    3    0    0 -0.52307254572E+00 -0.68500164307E+02 -0.36427266215E+02  0.77585384183E+02  0.00000000000E+00 0. -1.
         11    1    3    3    0    0 -0.10460818699E+02  0.27467534264E+02 -0.33259608486E+02  0.44385760363E+02  0.00000000000E+00 0.  1.
</event>
<event>
 7    1  0.6584658E-006  0.1330485E+03  0.7561462E-02  0.1223001E+00
          2   -1    0    0  501    0  0.00000000000E+00  0.00000000000E+00  0.30712039656E+03  0.30712039656E+03  0.00000000000E+00 0. -1.
         -2   -1    0    0    0  501 -0.00000000000E+00 -0.00000000000E+00 -0.83319977716E+02  0.83319977716E+02  0.00000000000E+00 0.  1.
         23    2    1    2    0    0 -0.10277477996E+03  0.18335506068E+00  0.17110174173E+03  0.22018427034E+03  0.92965681124E+02 0.  0.
          5    1    1    2  502    0  0.55752333878E+02 -0.37520684541E+02 -0.25130508387E+02  0.71868903936E+02  0.41800000000E+01 0. -1.
         -5    1    1    2    0  502  0.47022446082E+02  0.37337329480E+02  0.77829185501E+02  0.98387200001E+02  0.41800000000E+01 0. -1.
        -11    1    3    3    0    0 -0.11459599808E+03  0.19191989635E+02  0.14425205582E+03  0.18522751105E+03  0.00000000000E+00 0.  1.
         11    1    3    3    0    0  0.11821218123E+02 -0.19008634574E+02  0.26849685907E+02  0.34956759283E+02  0.00000000000E+00 0. -1.
</event>
<event>
 7    1  0.6584658E-006  0.9036784E+02  0.7561462E-02  0.1301963E+00
         -2   -1    0    0    0  501 -0.00000000000E+00  0.00000000000E+00  0.17068688211E+03  0.17068688211E+03  0.00000000000E+00 0.  1.
          2   -1    0    0  501    0  0.00000000000E+00 -0.00000000000E+00 -0.71532307414E+02  0.71532307414E+02  0.00000000000E+00 0. -1.
         23    2    1    2    0    0  0.92879453706E+01  0.16047547021E+02  0.35168692034E+02  0.10049527138E+03  0.92296657442E+02 0.  0.
          5    1    1    2  502    0 -0.37521798760E+02  0.35329793384E+02  0.64855620432E+02  0.82944581405E+02  0.41800000000E+01 0.  1.
         -5    1    1    2    0  502  0.28233853390E+02 -0.51377340405E+02 -0.86973776944E+00  0.58779336744E+02  0.41800000000E+01 0.  1.
        -11    1    3    3    0    0 -0.25034872680E+02 -0.10214898871E+02 -0.17619143986E+02  0.32272639245E+02  0.00000000000E+00 0. -1.
         11    1    3    3    0    0  0.34322818051E+02  0.26262445892E+02  0.52787836020E+02  0.68222632131E+02  0.00000000000E+00 0.  1.
</event>
<event>
 7    1  0.6584658E-006  0.2369718E+03  0.7561462E-02  0.1121827E+00
          2   -1    0    0  501    0  0.00000000000E+00  0.00000000000E+00  0.29570573860E+03  0.29570573860E+03  0.00000000000E+00 0.  1.
         -2   -1    0    0    0  501 -0.00000000000E+00 -0.00000000000E+00 -0.19866650996E+03  0.19866650996E+03  0.00000000000E+00 0. -1.
         23    2    1    2    0    0  0.72955685928E+02  0.20365626811E+03  0.49821490051E+02  0.24006517920E+03  0.91382174093E+02 0.  0.
          5    1    1    2  502    0 -0.66901518233E+02 -0.21948299378E+03  0.33113930749E+02  0.23186764006E+03  0.41800000000E+01 0.  1.
         -5    1    1    2    0  502 -0.60541676943E+01  0.15826725666E+02  0.14103807837E+02  0.22439429300E+02  0.41800000000E+01 0.  1.
        -11    1    3    3    0    0  0.29443227104E+02  0.16851823310E+03  0.99133819567E+01  0.17135802768E+03  0.00000000000E+00 0. -1.
         11    1    3    3    0    0  0.43512458824E+02  0.35138035007E+02  0.39908108095E+02  0.68707151511E+02  0.00000000000E+00 0.  1.
</event>
<event>
 7    1  0.6584658E-006  0.1608599E+03  0.7561462E-02  0.1187729E+00
         -2   -1    0    0    0  501 -0.00000000000E+00  0.00000000000E+00  0.14020193092E+03  0.14020193092E+03  0.00000000000E+00 0.  1.
          2   -1    0    0  501    0  0.00000000000E+00 -0.00000000000E+00 -0.23926550558E+03  0.23926550558E+03  0.00000000000E+00 0. -1.
         23    2    1    2    0    0 -0.13187173901E+03  0.58296680229E+02 -0.76210413009E+02  0.18722253724E+03  0.91954298027E+02 0.  0.
          5    1    1    2  502    0  0.11989114178E+03 -0.65682414482E+02 -0.62200291376E+02  0.15024784224E+03  0.41800000000E+01 0.  1.
         -5    1    1    2    0  502  0.11980597222E+02  0.73857342528E+01  0.39347129730E+02  0.41997057019E+02  0.41800000000E+01 0.  1.
        -11    1    3    3    0    0 -0.79633218010E+02  0.80749467777E+02 -0.58859689605E+02  0.12777475892E+03  0.00000000000E+00 0. -1.
         11    1    3    3    0    0 -0.52238520996E+02 -0.22452787548E+02 -0.17350723404E+02  0.59447778320E+02  0.00000000000E+00 0.  1.
</event>
<event>
 7    1  0.6584658E-006  0.1175015E+03  0.7561462E-02  0.1247277E+00
          1   -1    0    0  501    0  0.00000000000E+00  0.00000000000E+00  0.36528675994E+02  0.36528675994E+02  0.00000000000E+00 0. -1.
         -1   -1    0    0    0  501 -0.00000000000E+00 -0.00000000000E+00 -0.88228033730E+03  0.88228033730E+03  0.00000000000E+00 0.  1.
         23    2    1    2    0    0  0.79603877337E+02  0.24748127582E+02 -0.10112722647E+03  0.15916268162E+03  0.90314983153E+02 0.  0.
          5    1    1    2  502    0 -0.96278279688E+02  0.23025400071E+02 -0.46319169828E+03  0.47367045289E+03  0.41800000000E+01 0.  1.
         -5    1    1    2    0  502  0.16674402352E+02 -0.47773527652E+02 -0.28143273656E+03  0.28597587878E+03  0.41800000000E+01 0.  1.
        -11    1    3    3    0    0  0.18200559311E+02 -0.17251951379E+01 -0.89430786557E+02  0.91280349702E+02  0.00000000000E+00 0.  1.
         11    1    3    3    0    0  0.61403318025E+02  0.26473322720E+02 -0.11696439913E+02  0.67882331921E+02  0.00000000000E+00 0. -1.
</event>
<event>
 7    1  0.6584658E-006  0.1904069E+03  0.7561462E-02  0.1158095E+00
          1   -1    0    0  501    0  0.00000000000E+00  0.00000000000E+00  0.26584997218E+03  0.26584997218E+03  0.00000000000E+00 0. -1.
         -1   -1    0    0    0  501 -0.00000000000E+00 -0.00000000000E+00 -0.14710633468E+03  0.14710633468E+03  0.00000000000E+00 0.  1.
         23    2    1    2    0    0  0.52037177740E+02  0.14985949593E+03  0.91920473295E+02  0.20916012137E+03  0.10066204137E+03 0.  0.
          5    1    1    2  502    0  0.17941544043E+02 -0.12661237308E+03  0.21581815620E+02  0.12975299297E+03  0.41800000000E+01 0.  1.
         -5    1    1    2    0  502 -0.69978721783E+02 -0.23247122853E+02  0.52413485859E+01  0.74043192519E+02  0.41800000000E+01 0.  1.
        -11    1    3    3    0    0 -0.19741231648E+02  0.10759247036E+02 -0.75306907675E+01  0.23710523554E+02  0.00000000000E+00 0.  1.
         11    1    3    3    0    0  0.71778409388E+02  0.13910024890E+03  0.99451164062E+02  0.18544959782E+03  0.00000000000E+00 0. -1.
</event>
<event>
 7    1  0.6584658E-006  0.1624983E+03  0.7561462E-02  0.1185905E+00
         -1   -1    0    0    0  501 -0.00000000000E+00  0.00000000000E+00  0.31752281012E+03  0.31752281012E+03  0.00000000000E+00 0.  1.
          1   -1    0    0  501    0  0.00000000000E+00 -0.00000000000E+00 -0.10021761618E+03  0.10021761618E+03  0.00000000000E+00 0. -1.
         23    2    1    2    0    0 -0.81014261975E+02  0.11513963279E+03  0.92187596923E+02  0.19163820749E+03  0.91685352474E+02 0.  0.
          5    1    1    2  502    0  0.11609282897E+02 -0.10406795887E+03  0.32418184099E+02  0.10969652033E+03  0.41800000000E+01 0.  1.
         -5    1    1    2    0  502  0.69404979079E+02 -0.11071673922E+02  0.92699412913E+02  0.11640569848E+03  0.41800000000E+01 0.  1.
        -11    1    3    3    0    0 -0.33402337224E+02  0.89900273242E+02  0.98384978981E+02  0.13739497571E+03  0.00000000000E+00 0.  1.
         11    1    3    3    0    0 -0.47611924751E+02  0.25239359553E+02 -0.61973820582E+01  0.54243231776E+02  0.00000000000E+00 0. -1.
</event>
<event>
 7    1  0.6584658E-006  0.1181448E+03  0.7561462E-02  0.1246189E+00
         -1   -1    0    0    0  501 -0.00000000000E+00  0.00000000000E+00  0.43910076922E+02  0.43910076922E+02  0.00000000000E+00 0.  1.
          1   -1    0    0  501    0  0.00000000000E+00 -0.00000000000E+00 -0.54317273016E+03  0.54317273016E+03  0.00000000000E+00 0. -1.
         23    2    1    2    0    0  0.17666029875E+02 -0.62927773083E+02 -0.42215447794E+03  0.43665771760E+03  0.90463063502E+02 0.  0.
          5    1    1    2  502    0  0.43678525946E+02  0.49437064099E+01 -0.20345641465E+02  0.48617603689E+02  0.41800000000E+01 0. -1.
         -5    1    1    2    0  502 -0.61344555821E+02  0.57984066673E+02 -0.56762533842E+02  0.10180748580E+03  0.41800000000E+01 0.  1.
        -11    1    3    3    0    0  0.51006438091E+02 -0.24017021145E+02 -0.16268155292E+03  0.17217363820E+03  0.00000000000E+00 0.  1.
         11    1    3    3    0    0 -0.33340408216E+02 -0.38910751938E+02 -0.25947292502E+03  0.26448407939E+03  0.00000000000E+00 0. -1.
</event>
<event>
 7    1  0.6584658E-006  0.1042134E+03  0.7561462E-02  0.1271677E+00
         -1   -1    0    0    0  501 -0.00000000000E+00  0.00000000000E+00  0.10266980433E+03  0.10266980433E+03  0.00000000000E+00 0.  1.
          1   -1    0    0  501    0  0.00000000000E+00 -0.00000000000E+00 -0.13682465673E+03  0.13682465673E+03  0.00000000000E+00 0. -1.
         23    2    1    2    0    0  0.50036118042E+02 -0.20804472323E+02 -0.11445548252E+02  0.10129195604E+03  0.84809319098E+02 0.  0.
          5    1    1    2  502    0 -0.79226398453E+02  0.27325961527E+01 -0.50284672014E+02  0.93969728812E+02  0.41800000000E+01 0.  1.
         -5    1    1    2    0  502  0.29190280410E+02  0.18071876171E+02  0.27575367861E+02  0.44232776212E+02  0.41800000000E+01 0.  1.
        -11    1    3    3    0    0  0.22679712974E+02 -0.49722497521E+02  0.10774960200E+02  0.55702745961E+02  0.00000000000E+00 0.  1.
         11    1    3    3    0    0  0.27356405068E+02  0.28918025197E+02 -0.22220508452E+02  0.45589210077E+02  0.00000000000E+00 0. -1.
</event>
<event>
 7    1  0.6584658E-006  0.1294464E+03  0.7561462E-02  0.1228279E+00
         -1   -1    0    0    0  501 -0.00000000000E+00  0.00000000000E+00  0.29967421694E+02  0.29967421694E+02  0.00000000000E+00 0.  1.
          1   -1    0    0  501    0  0.00000000000E+00 -0.00000000000E+00 -0.59137119492E+03  0.59137119492E+03  0.00000000000E+00 0. -1.
         23    2    1    2    0    0 -0.35341641510E+02  0.65931415804E+02 -0.21240717379E+03  0.24312947871E+03  0.91646891503E+02 0.  0.
          5    1    1    2  502    0 -0.37134334565E+02 -0.61079925053E+02 -0.14708706568E+03  0.16359032166E+03  0.41800000000E+01 0.  1.
         -5    1    1    2    0  502  0.72475976075E+02 -0.48514907504E+01 -0.20190953375E+03  0.21461881626E+03  0.41800000000E+01 0.  1.
        -11    1    3    3    0    0 -0.35629449279E+02  0.86712483277E+02 -0.19358563977E+03  0.21509047477E+03  0.00000000000E+00 0. -1.
         11    1    3    3    0    0  0.28780776877E+00 -0.20781067473E+02 -0.18821534021E+02  0.28039003933E+02  0.00000000000E+00 0.  1.
</event>
<event>
 7    1  0.6584658E-006  0.2411430E+03  0.7561462E-02  0.1119034E+00
          1   -1    0    0  501    0  0.00000000000E+00  0.00000000000E+00  0.38038183884E+03  0.38038183884E+03  0.00000000000E+00 0. -1.
         -1   -1    0    0    0  501 -0.00000000000E+00 -0.00000000000E+00 -0.20848350811E+03  0.20848350811E+03  0.00000000000E+00 0.  1.
         23    2    1    2    0    0  0.19258555135E+03  0.11452758941E+03  0.22667397174E+03  0.33175943541E+03  0.92073178464E+02 0.  0.
          5    1    1    2  502    0 -0.51194180998E+02 -0.85545264124E+02 -0.52380373561E+02  0.11269433134E+03  0.41800000000E+01 0. -1.
         -5    1    1    2    0  502 -0.14139137035E+03 -0.28982325289E+02 -0.23952674519E+01  0.14441158020E+03  0.41800000000E+01 0.  1.
        -11    1    3    3    0    0  0.68389021421E+02 -0.11367232523E+01  0.39029283331E+02  0.78750462526E+02  0.00000000000E+00 0.  1.
         11    1    3    3    0    0  0.12419652993E+03  0.11566431267E+03  0.18764468841E+03  0.25300897288E+03  0.00000000000E+00 0. -1.
</event>
<event>
 7    1  0.6584658E-006  0.1325540E+03  0.7561462E-02  0.1223715E+00
         -1   -1    0    0    0  501 -0.00000000000E+00  0.00000000000E+00  0.29355935862E+02  0.29355935862E+02  0.00000000000E+00 0.  1.
          1   -1    0    0  501    0  0.00000000000E+00 -0.00000000000E+00 -0.72780699492E+03  0.72780699492E+03  0.00000000000E+00 0. -1.
         23    2    1    2    0    0  0.12337489073E+02 -0.76189392265E+02 -0.47234148878E+03  0.48749051918E+03  0.92647110786E+02 0.  0.
          5    1    1    2  502    0  0.56376766289E+02  0.29516039684E+02 -0.10014908924E+03  0.11873015140E+03  0.41800000000E+01 0. -1.
         -5    1    1    2    0  502 -0.68714255362E+02  0.46673352581E+02 -0.12596048104E+03  0.15094226020E+03  0.41800000000E+01 0. -1.
        -11    1    3    3    0    0 -0.38945971231E+02 -0.30275310441E+02 -0.24669378982E+03  0.25157744142E+03  0.00000000000E+00 0.  1.
         11    1    3    3    0    0  0.51283460304E+02 -0.45914081824E+02 -0.22564769896E+03  0.23591307776E+03  0.00000000000E+00 0. -1.
</event>
<event>
 7    1  0.6584658E-006  0.1220082E+03  0.7561462E-02  0.1239820E+00
          3   -1    0    0  501    0  0.00000000000E+00  0.00000000000E+00  0.11014233967E+03  0.11014233967E+03  0.00000000000E+00 0. -1.
         -3   -1    0    0    0  501 -0.00000000000E+00 -0.00000000000E+00 -0.17254743481E+03  0.17254743481E+03  0.00000000000E+00 0.  1.
         23    2    1    2    0    0 -0.27369340567E+02  0.83135886531E+02 -0.19398784754E+02  0.12407594884E+03  0.85778037969E+02 0.  0.
          5    1    1    2  502    0  0.18878091530E+02  0.31782592906E+02 -0.73692674373E+01  0.37924847451E+02  0.41800000000E+01 0.  1.
         -5    1    1    2    0  502  0.84912490372E+01 -0.11491847944E+03 -0.35637042950E+02  0.12068897819E+03  0.41800000000E+01 0.  1.
        -11    1    3    3    0    0  0.53708040683E+01  0.93355509349E+01 -0.39444101404E+02  0.40888081187E+02  0.00000000000E+00 0.  1.
         11    1    3    3    0    0 -0.32740144636E+02  0.73800335596E+02  0.20045316649E+02  0.83187867652E+02  0.00000000000E+00 0. -1.
</event>
<event>
 7    1  0.6584658E-006  0.9834136E+02  0.7561462E-02  0.1283823E+00
          1   -1    0    0  501    0  0.00000000000E+00  0.00000000000E+00  0.42709105635E+03  0.42709105635E+03  0.00000000000E+00 0. -1.
         -1   -1    0    0    0  501 -0.00000000000E+00 -0.00000000000E+00 -0.35875998566E+02  0.35875998566E+02  0.00000000000E+00 0.  1.
         23    2    1    2    0    0 -0.24236521694E+02 -0.51649922295E+02  0.21133474928E+03  0.23656920503E+03  0.89707798208E+02 0.  0.
          5    1    1    2  502    0  0.32330171703E+02 -0.62053672863E+01  0.16170436720E+03  0.16507429042E+03  0.41800000000E+01 0. -1.
         -5    1    1    2    0  502 -0.80936500094E+01  0.57855289581E+02  0.18175941302E+02  0.61323559463E+02  0.41800000000E+01 0. -1.
        -11    1    3    3    0    0 -0.56158093170E+02 -0.19042990165E+02  0.10021158293E+03  0.11644195231E+03  0.00000000000E+00 0.  1.
         11    1    3    3    0    0  0.31921571476E+02 -0.32606932130E+02  0.11112316634E+03  0.12012725272E+03  0.00000000000E+00 0. -1.
</event>
<event>
 7    1  0.6584658E-006  0.1037607E+03  0.7561462E-02  0.1272581E+00
         -1   -1    0    0    0  501 -0.00000000000E+00  0.00000000000E+00  0.23232720056E+03  0.23232720056E+03  0.00000000000E+00 0.  1.
          1   -1    0    0  501    0  0.00000000000E+00 -0.00000000000E+00 -0.48466743616E+02  0.48466743616E+02  0.00000000000E+00 0. -1.
         23    2    1    2    0    0 -0.12756297709E+02  0.16910285352E+02  0.76154371876E+02  0.12142733470E+03  0.92176072685E+02 0.  0.
          5    1    1    2  502    0 -0.48890551436E+02 -0.50875186369E+00  0.25722726845E+02  0.55404656162E+02  0.41800000000E+01 0. -1.
         -5    1    1    2    0  502  0.61646849145E+02 -0.16401533489E+02  0.81983358221E+02  0.10396195331E+03  0.41800000000E+01 0.  1.
        -11    1    3    3    0    0 -0.44560012109E+02 -0.17310158656E+02  0.36406163822E+02  0.60088643153E+02  0.00000000000E+00 0.  1.
         11    1    3    3    0    0  0.31803714399E+02  0.34220444008E+02  0.39748208054E+02  0.61338691551E+02  0.00000000000E+00 0. -1.
</event>
<event>
 7    1  0.6584658E-006  0.9728690E+02  0.7561462E-02  0.1286107E+00
         -2   -1    0    0    0  501 -0.00000000000E+00  0.00000000000E+00  0.20840276357E+03  0.20840276357E+03  0.00000000000E+00 0.  1.
          2   -1    0    0  501    0  0.00000000000E+00 -0.00000000000E+00 -0.67485272284E+02  0.67485272284E+02  0.00000000000E+00 0. -1.
         23    2    1    2    0    0 -0.33049971874E+02 -0.25121404331E+02  0.34665447688E+02  0.10659319288E+03  0.91853306470E+02 0.  0.
          5    1    1    2  502    0 -0.32588472659E+01  0.68966328131E+02  0.33591459674E+02  0.76894948237E+02  0.41800000000E+01 0. -1.
         -5    1    1    2    0  502  0.36308819140E+02 -0.43844923800E+02  0.72660583921E+02  0.92399894730E+02  0.41800000000E+01 0. -1.
        -11    1    3    3    0    0  0.13604861867E+02 -0.15614518511E+02  0.51960589731E+02  0.55935751894E+02  0.00000000000E+00 0.  1.
         11    1    3    3    0    0 -0.46654833741E+02 -0.95068858196E+01 -0.17295142044E+02  0.50657440991E+02  0.00000000000E+00 0. -1.
</event>
<event>
 7    1  0.6584658E-006  0.9345666E+02  0.7561462E-02  0.1294690E+00
          1   -1    0    0  501    0  0.00000000000E+00  0.00000000000E+00  0.71334708577E+02  0.71334708577E+02  0.00000000000E+00 0. -1.
         -1   -1    0    0    0  501 -0.00000000000E+00 -0.00000000000E+00 -0.16871961920E+03  0.16871961920E+03  0.00000000000E+00 0.  1.
         23    2    1    2    0    0  0.13010917593E+02 -0.12235612436E+02 -0.28448114624E+02  0.96112547852E+02  0.90051831967E+02 0.  0.
          5    1    1    2  502    0 -0.48881259790E+02  0.35200900329E+02  0.27584161487E+01  0.60444703675E+02  0.41800000000E+01 0. -1.
         -5    1    1    2    0  502  0.35870342198E+02 -0.22965287893E+02 -0.71695212146E+02  0.83497076248E+02  0.41800000000E+01 0. -1.
        -11    1    3    3    0    0  0.37128222813E+02 -0.34668236017E+02 -0.36074573198E+02  0.62303822910E+02  0.00000000000E+00 0.  1.
         11    1    3    3    0    0 -0.24117305220E+02  0.22432623581E+02  0.76264585741E+01  0.33808724942E+02  0.00000000000E+00 0. -1.
</event>
<event>
 7    1  0.6584658E-006  0.5331918E+02  0.7561462E-02  0.1428219E+00
         -2   -1    0    0    0  501 -0.00000000000E+00  0.00000000000E+00  0.30398674676E+03  0.30398674676E+03  0.00000000000E+00 0.  1.
          2   -1    0    0  501    0  0.00000000000E+00 -0.00000000000E+00 -0.41806745819E+02  0.41806745819E+02  0.00000000000E+00 0. -1.
         23    2    1    2    0    0 -0.17172205599E+02  0.20446736056E+02  0.88580990344E+02  0.13016160250E+03  0.91555978799E+02 0.  0.
          5    1    1    2  502    0  0.29364749125E+00 -0.83065608422E+00 -0.19906106035E+02  0.20359314229E+02  0.41800000000E+01 0. -1.
         -5    1    1    2    0  502  0.16878558107E+02 -0.19616079972E+02  0.19350511664E+03  0.19527257586E+03  0.41800000000E+01 0. -1.
        -11    1    3    3    0    0  0.15209834501E+02  0.36841143863E+02  0.84762266903E+02  0.93665633171E+02  0.00000000000E+00 0.  1.
         11    1    3    3    0    0 -0.32382040100E+02 -0.16394407807E+02  0.38187234409E+01  0.36495969327E+02  0.00000000000E+00 0. -1.
</event>
<event>
 7    1  0.6584658E-006  0.1385263E+03  0.7561462E-02  0.1215326E+00
          3   -1    0    0  501    0  0.00000000000E+00  0.00000000000E+00  0.28281407821E+03  0.28281407821E+03  0.00000000000E+00 0. -1.
         -3   -1    0    0    0  501 -0.00000000000E+00 -0.00000000000E+00 -0.10557913024E+03  0.10557913024E+03  0.00000000000E+00 0.  1.
         23    2    1    2    0    0 -0.83685647491E+01  0.87337468923E+02  0.19734677065E+03  0.23428558568E+03  0.90808157218E+02 0.  0.
          5    1    1    2  502    0  0.64001189778E+02 -0.28703473442E+02  0.16908809955E+01  0.70287788123E+02  0.41800000000E+01 0.  1.
         -5    1    1    2    0  502 -0.55632625029E+02 -0.58633995481E+02 -0.21802703674E+02  0.83819834652E+02  0.41800000000E+01 0.  1.
        -11    1    3    3    0    0 -0.37072189434E+02  0.35016805285E+01  0.49949542727E+02  0.62302213561E+02  0.00000000000E+00 0. -1.
         11    1    3    3    0    0  0.28703624685E+02  0.83835788395E+02  0.14739722792E+03  0.17198337212E+03  0.00000000000E+00 0.  1.
</event>
<event>
 7    1  0.6584658E-006  0.6619366E+02  0.7561462E-02  0.1373537E+00
         -2   -1    0    0    0  501 -0.00000000000E+00  0.00000000000E+00  0.82368781563E+02  0.82368781563E+02  0.00000000000E+00 0.  1.
          2   -1    0    0  501    0  0.00000000000E+00 -0.00000000000E+00 -0.17885950895E+03  0.17885950895E+03  0.00000000000E+00 0. -1.
         23    2    1    2    0    0 -0.37190671954E+00 -0.35565180310E+02 -0.88636407874E+02  0.13094180145E+03  0.89578581157E+02 0.  0.
          5    1    1    2  502    0 -0.93360675707E+01 -0.21183465906E+02  0.45793092348E+02  0.51481852067E+02  0.41800000000E+01 0.  1.
         -5    1    1    2    0  502  0.97079742902E+01  0.56748646216E+02 -0.53647411863E+02  0.78804636994E+02  0.41800000000E+01 0.  1.
        -11    1    3    3    0    0 -0.18543551294E+02 -0.19016291450E+02  0.10681282685E+02  0.28628175543E+02  0.00000000000E+00 0.  1.
         11    1    3    3    0    0  0.18171644575E+02 -0.16548888860E+02 -0.99317690559E+02  0.10231362591E+03  0.00000000000E+00 0. -1.
</event>
<event>
 7    1  0.6584658E-006  0.1478677E+03  0.7561462E-02  0.1203118E+00
         -2   -1    0    0    0  501 -0.00000000000E+00  0.00000000000E+00  0.14348038510E+04  0.14348038510E+04  0.00000000000E+00 0.  1.
          2   -1    0    0  501    0  0.00000000000E+00 -0.00000000000E+00 -0.24845106804E+02  0.24845106804E+02  0.00000000000E+00 0. -1.
         23    2    1    2    0    0 -0.10894315215E+03  0.12715830922E+02  0.23253296259E+03  0.27052849755E+03  0.84165233568E+02 0.  0.
          5    1    1    2  502    0 -0.26122025627E+02  0.58702850469E+01  0.29133344606E+03  0.29259095964E+03  0.41800000000E+01 0.  1.
         -5    1    1    2    0  502  0.13506517777E+03 -0.18586115969E+02  0.88609233551E+03  0.89652950057E+03  0.41800000000E+01 0.  1.
        -11    1    3    3    0    0 -0.59388236703E+02  0.43751478726E+02  0.16779931873E+03  0.18329693373E+03  0.00000000000E+00 0. -1.
         11    1    3    3    0    0 -0.49554915443E+02 -0.31035647804E+02  0.64733643861E+02  0.87231563821E+02  0.00000000000E+00 0.  1.
</event>
<event>
 7    1  0.6584658E-006  0.1078052E+03  0.7561462E-02  0.1264689E+00
          1   -1    0    0  501    0  0.00000000000E+00  0.00000000000E+00  0.45949522902E+03  0.45949522902E+03  0.00000000000E+00 0. -1.
         -1   -1    0    0    0  501 -0.00000000000E+00 -0.00000000000E+00 -0.34270514142E+02  0.34270514142E+02  0.00000000000E+00 0.  1.
         23    2    1    2    0    0  0.15587961392E+02 -0.49504989603E+02  0.25866139476E+03  0.27909224137E+03  0.91066094232E+02 0.  0.
          5    1    1    2  502    0  0.44927470669E+02  0.10296722102E+02  0.12031012365E+03  0.12890499742E+03  0.41800000000E+01 0.  1.
         -5    1    1    2    0  502 -0.60515432061E+02  0.39208267500E+02  0.46253196458E+02  0.85768504362E+02  0.41800000000E+01 0.  1.
        -11    1    3    3    0    0  0.33980396332E+02 -0.64807173168E+02  0.23201388048E+03  0.24327983427E+03  0.00000000000E+00 0. -1.
         11    1    3    3    0    0 -0.18392434941E+02  0.15302183565E+02  0.26647514285E+02  0.35812407103E+02  0.00000000000E+00 0.  1.
</event>
<event>
 7    1  0.6584658E-006  0.1785399E+03  0.7561462E-02  0.1169224E+00
          2   -1    0    0  501    0  0.00000000000E+00  0.00000000000E+00  0.10444281287E+04  0.10444281287E+04  0.00000000000E+00 0.  1.
         -2   -1    0    0    0  501 -0.00000000000E+00 -0.00000000000E+00 -0.37803817498E+02  0.37803817498E+02  0.00000000000E+00 0. -1.
         23    2    1    2    0    0 -0.15822164057E+03  0.23691169364E+02  0.36600534283E+03  0.41019464763E+03  0.93297261030E+02 0.  0.
          5    1    1    2  502    0 -0.11183895909E+02  0.14053061152E+02  0.18391382444E+02  0.26043874590E+02  0.41800000000E+01 0.  1.
         -5    1    1    2    0  502  0.16940553648E+03 -0.37744230515E+02  0.62222758590E+03  0.64599342395E+03  0.41800000000E+01 0.  1.
        -11    1    3    3    0    0 -0.73206121030E+02  0.31419727456E+02  0.84943977681E+02  0.11645520501E+03  0.00000000000E+00 0. -1.
         11    1    3    3    0    0 -0.85015519543E+02 -0.77285580929E+01  0.28106136515E+03  0.29373944262E+03  0.00000000000E+00 0.  1.
</event>
<event>
 7    1  0.6584658E-006  0.1755562E+03  0.7561462E-02  0.1172174E+00
          2   -1    0    0  501    0  0.00000000000E+00  0.00000000000E+00  0.80304586828E+03  0.80304586828E+03  0.00000000000E+00 0. -1.
         -2   -1    0    0    0  501 -0.00000000000E+00 -0.00000000000E+00 -0.65312100881E+02  0.65312100881E+02  0.00000000000E+00 0.  1.
         23    2    1    2    0    0  0.12497473742E+03  0.94196554408E+02  0.59609472988E+03  0.62299941266E+03  0.91146395005E+02 0.  0.
          5    1    1    2  502    0 -0.10095029041E+03 -0.10810843753E+02  0.11718317025E+03  0.15510384672E+03  0.41800000000E+01 0. -1.
         -5    1    1    2    0  502 -0.24024447007E+02 -0.83385710654E+02  0.24455867270E+02  0.90254709790E+02  0.41800000000E+01 0. -1.
        -11    1    3    3    0    0  0.64143108044E+02  0.75311566981E+02  0.21562407849E+03  0.23723387965E+03  0.00000000000E+00 0.  1.
         11    1    3    3    0    0  0.60831629375E+02  0.18884987426E+02  0.38047065140E+03  0.38576553301E+03  0.00000000000E+00 0. -1.
</event>
<event>
 7    1  0.6584658E-006  0.1537172E+03  0.7561462E-02  0.1195978E+00
         -2   -1    0    0    0  501 -0.00000000000E+00  0.00000000000E+00  0.31527005066E+03  0.31527005066E+03  0.00000000000E+00 0.  1.
          2   -1    0    0  501    0  0.00000000000E+00 -0.00000000000E+00 -0.98925939927E+02  0.98925939927E+02  0.00000000000E+00 0. -1.
         23    2    1    2    0    0 -0.87779045615E+02 -0.86497424039E+02  0.19425641130E+02  0.15035704727E+03  0.83922112202E+02 0.  0.
          5    1    1    2  502    0  0.11298041692E+03  0.44810616459E+02  0.10935087959E+03  0.16354709787E+03  0.41800000000E+01 0.  1.
         -5    1    1    2    0  502 -0.25201371305E+02  0.41686807580E+02  0.87567590016E+02  0.10029184545E+03  0.41800000000E+01 0.  1.
        -11    1    3    3    0    0 -0.57651061379E+02 -0.15341623768E+02  0.38197591204E+02  0.70838310763E+02  0.00000000000E+00 0.  1.
         11    1    3    3    0    0 -0.30127984236E+02 -0.71155800271E+02 -0.18771950074E+02  0.79518736509E+02  0.00000000000E+00 0. -1.
</event>
<event>
 7    1  0.6584658E-006  0.2945103E+03  0.7561462E-02  0.1088018E+00
          1   -1    0    0  501    0  0.00000000000E+00  0.00000000000E+00  0.66519199748E+03  0.66519199748E+03  0.00000000000E+00 0.  1.
         -1   -1    0    0    0  501 -0.00000000000E+00 -0.00000000000E+00 -0.16637918916E+03  0.16637918916E+03  0.00000000000E+00 0. -1.
         23    2    1    2    0    0  0.18887602455E+03 -0.20246319398E+03  0.43099597185E+03  0.52026328602E+03  0.90834252727E+02 0.  0.
          5    1    1    2  502    0 -0.11164545176E+03  0.31401560815E+02  0.23322593170E+02  0.11837305721E+03  0.41800000000E+01 0. -1.
         -5    1    1    2    0  502 -0.77230572791E+02  0.17106163316E+03  0.44494243296E+02  0.19293484341E+03  0.41800000000E+01 0. -1.
        -11    1    3    3    0    0  0.12851510804E+03 -0.17925675823E+03  0.37333280163E+03  0.43362022455E+03  0.00000000000E+00 0.  1.
         11    1    3    3    0    0  0.60360916507E+02 -0.23206435750E+02  0.57663170217E+02  0.86643061472E+02  0.00000000000E+00 0. -1.
</event>
<event>
 7    1  0.6584658E-006  0.1581217E+03  0.7561462E-02  0.1190834E+00
          1   -1    0    0  501    0  0.00000000000E+00  0.00000000000E+00  0.21649750743E+03  0.21649750743E+03  0.00000000000E+00 0. -1.
         -1   -1    0    0    0  501 -0.00000000000E+00 -0.00000000000E+00 -0.14798004794E+03  0.14798004794E+03  0.00000000000E+00 0.  1.
         23    2    1    2    0    0 -0.24293462598E+02 -0.13972768481E+03  0.42919074134E+02  0.17364352390E+03  0.90531918353E+02 0.  0.
          5    1    1    2  502    0 -0.39195528594E+02  0.67459455666E+02 -0.25037461348E+02  0.82045197856E+02  0.41800000000E+01 0. -1.
         -5    1    1    2    0  502  0.63488991193E+02  0.72268229148E+02  0.50635846697E+02  0.10878883361E+03  0.41800000000E+01 0. -1.
        -11    1    3    3    0    0 -0.13363146904E+02 -0.78945931714E+02  0.69864659612E+02  0.10626431429E+03  0.00000000000E+00 0. -1.
         11    1    3    3    0    0 -0.10930315695E+02 -0.60781753100E+02 -0.26945585478E+02  0.67379209612E+02  0.00000000000E+00 0.  1.
</event>
<event>
 7    1  0.6584658E-006  0.9364536E+02  0.7561462E-02  0.1294257E+00
         -2   -1    0    0    0  501 -0.00000000000E+00  0.00000000000E+00  0.35261824225E+03  0.35261824225E+03  0.00000000000E+00 0.  1.
          2   -1    0    0  501    0  0.00000000000E+00 -0.00000000000E+00 -0.58398875628E+02  0.58398875628E+02  0.00000000000E+00 0. -1.
         23    2    1    2    0    0  0.13203943872E+02  0.52624360323E+02  0.23897552373E+02  0.10829584402E+03  0.90626869021E+02 0.  0.
          5    1    1    2  502    0  0.16622502745E+02  0.31667392959E+02  0.32104797409E+02  0.48242323648E+02  0.41800000000E+01 0.  1.
         -5    1    1    2    0  502 -0.29826446616E+02 -0.84291753283E+02  0.23821701684E+03  0.25447895022E+03  0.41800000000E+01 0.  1.
        -11    1    3    3    0    0  0.22588127460E+02  0.32642778366E+02  0.56422101133E+02  0.68987158065E+02  0.00000000000E+00 0.  1.
         11    1    3    3    0    0 -0.93841835882E+01  0.19981581958E+02 -0.32524548760E+02  0.39308685951E+02  0.00000000000E+00 0. -1.
</event>
<event>
 7    1  0.6584658E-006  0.1345451E+03  0.7561462E-02  0.1220863E+00
          1   -1    0    0  501    0  0.00000000000E+00  0.00000000000E+00  0.24845197053E+03  0.24845197053E+03  0.00000000000E+00 0. -1.
         -1   -1    0    0    0  501 -0.00000000000E+00 -0.00000000000E+00 -0.10638178294E+03  0.10638178294E+03  0.00000000000E+00 0.  1.
         23    2    1    2    0    0 -0.97524957992E+02 -0.26340961252E+01  0.14147782551E+03  0.19620203954E+03  0.94663664173E+02 0.  0.
          5    1    1    2  502    0  0.59603548221E+02 -0.47828778209E+02 -0.37035953897E+02  0.85025344848E+02  0.41800000000E+01 0. -1.
         -5    1    1    2    0  502  0.37921409771E+02  0.50462874334E+02  0.37628315977E+02  0.73606369074E+02  0.41800000000E+01 0. -1.
        -11    1    3    3    0    0 -0.20409524572E+02 -0.39012104018E+02  0.79198034931E+02  0.90613584468E+02  0.00000000000E+00 0. -1.
         11    1    3    3    0    0 -0.77115433420E+02  0.36378007893E+02  0.62279790579E+02  0.10558845507E+03  0.00000000000E+00 0.  1.
</event>
<event>
 7    1  0.6584658E-006  0.1338686E+03  0.7561462E-02  0.1221826E+00
         -4   -1    0    0    0  501 -0.00000000000E+00  0.00000000000E+00  0.20224540879E+02  0.20224540879E+02  0.00000000000E+00 0.  1.
          4   -1    0    0  501    0  0.00000000000E+00 -0.00000000000E+00 -0.94646279301E+03  0.94646279301E+03  0.00000000000E+00 0. -1.
         23    2    1    2    0    0  0.87475635832E+02  0.10019899724E+02 -0.41469008980E+03  0.43275793552E+03  0.86943515705E+02 0.  0.
          5    1    1    2  502    0 -0.12289853875E+02  0.53014588416E+02 -0.19548227288E+03  0.20295905623E+03  0.41800000000E+01 0.  1.
         -5    1    1    2    0  502 -0.75185781957E+02 -0.63034488140E+02 -0.31606588945E+03  0.33097034214E+03  0.41800000000E+01 0.  1.
        -11    1    3    3    0    0  0.17996337121E+02  0.36423451355E+02 -0.23193692809E+03  0.23546820289E+03  0.00000000000E+00 0. -1.
         11    1    3    3    0    0  0.69479298711E+02 -0.26403551631E+02 -0.18275316171E+03  0.19728973263E+03  0.00000000000E+00 0.  1.
</event>
<event>
 7    1  0.6584658E-006  0.7496523E+02  0.7561462E-02  0.1343979E+00
          1   -1    0    0  501    0  0.00000000000E+00  0.00000000000E+00  0.97714330389E+03  0.97714330389E+03  0.00000000000E+00 0. -1.
         -1   -1    0    0    0  501 -0.00000000000E+00 -0.00000000000E+00 -0.12744372238E+02  0.12744372238E+02  0.00000000000E+00 0.  1.
         23    2    1    2    0    0  0.18909738169E+02  0.13174924116E+02  0.46341997669E+03  0.47301817527E+03  0.91961744858E+02 0.  0.
          5    1    1    2  502    0 -0.42782833759E+01  0.18873795887E+02  0.60954710870E+01  0.20715961180E+02  0.41800000000E+01 0.  1.
         -5    1    1    2    0  502 -0.14631454794E+02 -0.32048720003E+02  0.49488348388E+03  0.49615353968E+03  0.41800000000E+01 0.  1.
        -11    1    3    3    0    0 -0.20575186379E+02  0.41323573396E+02  0.21264846704E+03  0.21760134776E+03  0.00000000000E+00 0.  1.
         11    1    3    3    0    0  0.39484924548E+02 -0.28148649280E+02  0.25077150965E+03  0.25541682751E+03  0.00000000000E+00 0. -1.
</event>
<event>
 7    1  0.8879736E-006  0.1852267E+03  0.7561462E-02  0.1162838E+00
          1   -1    0    0  501    0  0.00000000000E+00  0.00000000000E+00  0.11491861287E+04  0.11491861287E+04  0.00000000000E+00 0. -1.
         -1   -1    0    0    0  501 -0.00000000000E+00 -0.00000000000E+00 -0.30830947992E+02  0.30830947992E+02  0.00000000000E+00 0.  1.
         23    2    1    2    0    0  0.76793612903E+02  0.13031489441E+03  0.61329924508E+03  0.63816089805E+03  0.90742146217E+02 0.  0.
          5    1    1    2  502    0 -0.26456725682E+02 -0.14052966707E+03  0.40065010002E+03  0.42542510588E+03  0.41800000000E+01 0. -1.
         -5    1    1    2    0  502 -0.50336887221E+02  0.10214772665E+02  0.10440583558E+03  0.11643107273E+03  0.41800000000E+01 0. -1.
        -11    1    3    3    0    0  0.63413511570E+01  0.98251454286E+02  0.31862815389E+03  0.33349282069E+03  0.00000000000E+00 0.  1.
         11    1    3    3    0    0  0.70452261746E+02  0.32063440124E+02  0.29467109119E+03  0.30466807736E+03  0.00000000000E+00 0. -1.
</event>
<event>
 7    1  0.6584658E-006  0.1090516E+03  0.7561462E-02  0.1262336E+00
          1   -1    0    0  501    0  0.00000000000E+00  0.00000000000E+00  0.17019554353E+03  0.17019554353E+03  0.00000000000E+00 0. -1.
         -1   -1    0    0    0  501 -0.00000000000E+00 -0.00000000000E+00 -0.88995457272E+02  0.88995457272E+02  0.00000000000E+00 0.  1.
         23    2    1    2    0    0  0.39532989473E+02 -0.38997847729E+02  0.51388937560E+02  0.11911847183E+03  0.92003793640E+02 0.  0.
          5    1    1    2  502    0  0.60730197459E+01 -0.28388310027E+02 -0.27700854584E+02  0.40343369464E+02  0.41800000000E+01 0.  1.
         -5    1    1    2    0  502 -0.45606009219E+02  0.67386157756E+02  0.57512003278E+02  0.99729159502E+02  0.41800000000E+01 0.  1.
        -11    1    3    3    0    0  0.27939581297E+02 -0.69371511153E+02  0.32745850595E+02  0.81641395713E+02  0.00000000000E+00 0.  1.
         11    1    3    3    0    0  0.11593408176E+02  0.30373663424E+02  0.18643086964E+02  0.37477076120E+02  0.00000000000E+00 0. -1.
</event>
<event>
 7    1  0.6584658E-006  0.8908534E+02  0.7561462E-02  0.1305082E+00
         -1   -1    0    0    0  501 -0.00000000000E+00  0.00000000000E+00  0.45662151275E+02  0.45662151275E+02  0.00000000000E+00 0.  1.
          1   -1    0    0  501    0  0.00000000000E+00 -0.00000000000E+00 -0.30557254859E+03  0.30557254859E+03  0.00000000000E+00 0. -1.
         23    2    1    2    0    0 -0.49858181836E+01  0.12964063563E+02 -0.17991142729E+03  0.20209826370E+03  0.91009126978E+02 0.  0.
          5    1    1    2  502    0  0.10674631101E+02 -0.59406165685E+02 -0.82251477642E+02  0.10210689617E+03  0.41800000000E+01 0.  1.
         -5    1    1    2    0  502 -0.56888129176E+01  0.46442102122E+02  0.22525076176E+01  0.47029539999E+02  0.41800000000E+01 0.  1.
        -11    1    3    3    0    0  0.17893640545E+02 -0.22340440986E+02 -0.14390419873E+03  0.14672319547E+03  0.00000000000E+00 0. -1.
         11    1    3    3    0    0 -0.22879458729E+02  0.35304504549E+02 -0.36007228558E+02  0.55375068231E+02  0.00000000000E+00 0.  1.
</event>
<event>
 7    1  0.6584658E-006  0.9434277E+02  0.7561462E-02  0.1292663E+00
         -1   -1    0    0    0  501 -0.00000000000E+00  0.00000000000E+00  0.10223683710E+03  0.10223683710E+03  0.00000000000E+00 0.  1.
          1   -1    0    0  501    0  0.00000000000E+00 -0.00000000000E+00 -0.13907786476E+03  0.13907786476E+03  0.00000000000E+00 0. -1.
         23    2    1    2    0    0  0.22142138078E+02  0.42477599187E+02 -0.27100915555E+02  0.10701271467E+03  0.91774946282E+02 0.  0.
          5    1    1    2  502    0 -0.31040501933E+02  0.26280842285E+02  0.33178249140E+02  0.52654193067E+02  0.41800000000E+01 0. -1.
         -5    1    1    2    0  502  0.88983638552E+01 -0.68758441472E+02 -0.42918361243E+02  0.81647794120E+02  0.41800000000E+01 0. -1.
        -11    1    3    3    0    0 -0.20479912778E+02  0.24892661669E+02  0.22485620181E+02  0.39302347860E+02  0.00000000000E+00 0.  1.
         11    1    3    3    0    0  0.42622050856E+02  0.17584937518E+02 -0.49586535736E+02  0.67710366806E+02  0.00000000000E+00 0. -1.
</event>
<event>
 7    1  0.6584658E-006  0.1096812E+03  0.7561462E-02  0.1261161E+00
         -4   -1    0    0    0  501 -0.00000000000E+00  0.00000000000E+00  0.37785312621E+03  0.37785312621E+03  0.00000000000E+00 0.  1.
          4   -1    0    0  501    0  0.00000000000E+00 -0.00000000000E+00 -0.32820902238E+03  0.32820902238E+03  0.00000000000E+00 0. -1.
         23    2    1    2    0    0 -0.77494491290E+02  0.43845324031E+02 -0.29902336278E+03  0.32508416342E+03  0.91306808063E+02 0.  0.
          5    1    1    2  502    0  0.71705952754E+02 -0.33310788702E+02  0.35706037020E+03  0.36573341749E+03  0.41800000000E+01 0.  1.
         -5    1    1    2    0  502  0.57885385360E+01 -0.10534535328E+02 -0.83929035929E+01  0.15244567678E+02  0.41800000000E+01 0.  1.
        -11    1    3    3    0    0  0.12368709333E+02  0.35049207774E+02 -0.82267779867E+02  0.90274135501E+02  0.00000000000E+00 0. -1.
         11    1    3    3    0    0 -0.89863200623E+02  0.87961162565E+01 -0.21675558291E+03  0.23481002791E+03  0.00000000000E+00 0.  1.
</event>
<event>
 7    1  0.6584658E-006  0.1040792E+03  0.7561462E-02  0.1271945E+00
         -2   -1    0    0    0  501 -0.00000000000E+00  0.00000000000E+00  0.17433369125E+02  0.17433369125E+02  0.00000000000E+00 0.  1.
          2   -1    0    0  501    0  0.00000000000E+00 -0.00000000000E+00 -0.86525653736E+03  0.86525653736E+03  0.00000000000E+00 0. -1.
         23    2    1    2    0    0 -0.56533550038E+02  0.29937876670E+02 -0.39882934255E+03  0.41222584646E+03  0.82298148656E+02 0.  0.
          5    1    1    2  502    0 -0.20959607837E+02 -0.21005687400E+01 -0.98126527494E+01  0.23610974222E+02  0.41800000000E+01 0. -1.
         -5    1    1    2    0  502  0.77493157874E+02 -0.27837307930E+02 -0.43918117294E+03  0.44685308580E+03  0.41800000000E+01 0. -1.
        -11    1    3    3    0    0  0.28609563801E+01 -0.23900724342E+02 -0.91270740376E+02  0.94391619036E+02  0.00000000000E+00 0.  1.
         11    1    3    3    0    0 -0.59394506418E+02  0.53838601012E+02 -0.30755860217E+03  0.31783422742E+03  0.00000000000E+00 0. -1.
</event>
<event>
 7    1  0.6584658E-006  0.1179634E+03  0.7561462E-02  0.1246495E+00
          2   -1    0    0  501    0  0.00000000000E+00  0.00000000000E+00  0.27739433094E+03  0.27739433094E+03  0.00000000000E+00 0. -1.
         -2   -1    0    0    0  501 -0.00000000000E+00 -0.00000000000E+00 -0.53289730762E+02  0.53289730762E+02  0.00000000000E+00 0.  1.
         23    2    1    2    0    0  0.52937091277E+02 -0.78439909012E+01  0.11908993418E+03  0.15878137627E+03  0.90361768469E+02 0.  0.
          5    1    1    2  502    0 -0.50028069495E+02  0.61539630539E+02  0.79001734999E+02  0.11202089268E+03  0.41800000000E+01 0. -1.
         -5    1    1    2    0  502 -0.29090217819E+01 -0.53695639638E+02  0.26012931000E+02  0.59881792751E+02  0.41800000000E+01 0. -1.
        -11    1    3    3    0    0  0.68453025158E+02  0.19460953764E+02  0.65788387190E+02  0.96915722479E+02  0.00000000000E+00 0.  1.
         11    1    3    3    0    0 -0.15515933881E+02 -0.27304944665E+02  0.53301546986E+02  0.61865653787E+02  0.00000000000E+00 0. -1.
</event>
<event>
 7    1  0.6584658E-006  0.1087263E+03  0.7561462E-02  0.1262947E+00
         -2   -1    0    0    0  501 -0.00000000000E+00  0.00000000000E+00  0.36192465943E+02  0.36192465943E+02  0.00000000000E+00 0. -1.
          2   -1    0    0  501    0  0.00000000000E+00 -0.00000000000E+00 -0.50125556790E+03  0.50125556790E+03  0.00000000000E+00 0.  1.
         23    2    1    2    0    0  0.16948787285E+02  0.71882172552E+02 -0.26361493189E+03  0.28908728261E+03  0.92867198351E+02 0.  0.
          5    1    1    2  502    0 -0.27590982832E+01 -0.86418640412E+02 -0.59820043334E+02  0.10522216505E+03  0.41800000000E+01 0.  1.
         -5    1    1    2    0  502 -0.14189689002E+02  0.14536467861E+02 -0.14162812674E+03  0.14313858619E+03  0.41800000000E+01 0.  1.
        -11    1    3    3    0    0  0.42937375381E+02  0.72378476378E+02 -0.14495135957E+03  0.16761013898E+03  0.00000000000E+00 0. -1.
         11    1    3    3    0    0 -0.25988588096E+02 -0.49630382681E+00 -0.11866357232E+03  0.12147714363E+03  0.00000000000E+00 0.  1.
</event>
<event>
 7    1  0.6584658E-006  0.1066315E+03  0.7561462E-02  0.1266938E+00
          2   -1    0    0  501    0  0.00000000000E+00  0.00000000000E+00  0.99916857100E+02  0.99916857100E+02  0.00000000000E+00 0. -1.
         -2   -1    0    0    0  501 -0.00000000000E+00 -0.00000000000E+00 -0.17323187470E+03  0.17323187470E+03  0.00000000000E+00 0.  1.
         23    2    1    2    0    0  0.71181933091E+02  0.48407503651E+00 -0.48400237862E+02  0.12708022685E+03  0.93486357847E+02 0.  0.
          5    1    1    2  502    0 -0.31033201419E+02 -0.34961161028E+02 -0.64556837714E+02  0.79814786014E+02  0.41800000000E+01 0.  1.
         -5    1    1    2    0  502 -0.40148731671E+02  0.34477085991E+02  0.39642057973E+02  0.66253718942E+02  0.41800000000E+01 0.  1.
        -11    1    3    3    0    0  0.58677398767E+02 -0.39906285542E+02 -0.13453402402E+02  0.72225638025E+02  0.00000000000E+00 0.  1.
         11    1    3    3    0    0  0.12504534323E+02  0.40390360579E+02 -0.34946835460E+02  0.54854588824E+02  0.00000000000E+00 0. -1.
</event>
<event>
 7    1  0.6584658E-006  0.5851406E+02  0.7561462E-02  0.1404175E+00
         -2   -1    0    0    0  501 -0.00000000000E+00  0.00000000000E+00  0.23778368164E+03  0.23778368164E+03  0.00000000000E+00 0. -1.
          2   -1    0    0  501    0  0.00000000000E+00 -0.00000000000E+00 -0.83890349032E+02  0.83890349032E+02  0.00000000000E+00 0.  1.
         23    2    1    2    0    0 -0.28680126015E+02  0.32579596539E+02 -0.20219176977E+02  0.10293565233E+03  0.91120544684E+02 0.  0.
          5    1    1    2  502    0 -0.41927161251E+01  0.56351163687E+01 -0.18164972578E+02  0.19919137375E+02  0.41800000000E+01 0.  1.
         -5    1    1    2    0  502  0.32872842140E+02 -0.38214712908E+02  0.19227748216E+03  0.19881924097E+03  0.41800000000E+01 0.  1.
        -11    1    3    3    0    0 -0.22762483247E+02 -0.23156347546E+01  0.32312706992E+02  0.39592977168E+02  0.00000000000E+00 0. -1.
         11    1    3    3    0    0 -0.59176427684E+01  0.34895231294E+02 -0.52531883969E+02  0.63342675159E+02  0.00000000000E+00 0.  1.
</event>
<event>
 7    1  0.6584658E-006  0.2065406E+03  0.7561462E-02  0.1144335E+00
         -2   -1    0    0    0  501 -0.00000000000E+00  0.00000000000E+00  0.71343036016E+02  0.71343036016E+02  0.00000000000E+00 0.  1.
          2   -1    0    0  501    0  0.00000000000E+00 -0.00000000000E+00 -0.66331309751E+03  0.66331309751E+03  0.00000000000E+00 0. -1.
         23    2    1    2    0    0 -0.17003305768E+03  0.47712443775E+02 -0.39425155578E+03  0.44152668484E+03  0.91234895737E+02 0.  0.
          5    1    1    2  502    0  0.11726773011E+03  0.30401244403E+02 -0.12383223066E+03  0.17328545795E+03  0.41800000000E+01 0. -1.
         -5    1    1    2    0  502  0.52765327571E+02 -0.78113688178E+02 -0.73886275054E+02  0.11984399074E+03  0.41800000000E+01 0. -1.
        -11    1    3    3    0    0 -0.88249482474E+02  0.70112866124E+02 -0.24928349614E+03  0.27358005520E+03  0.00000000000E+00 0. -1.
         11    1    3    3    0    0 -0.81783575202E+02 -0.22400422349E+02 -0.14496805964E+03  0.16794662965E+03  0.00000000000E+00 0.  1.
</event>
<event>
 7    1  0.6584658E-006  0.1053799E+03  0.7561462E-02  0.1269373E+00
          2   -1    0    0  501    0  0.00000000000E+00  0.00000000000E+00  0.20113649281E+02  0.20113649281E+02  0.00000000000E+00 0. -1.
         -2   -1    0    0    0  501 -0.00000000000E+00 -0.00000000000E+00 -0.16901513462E+04  0.16901513462E+04  0.00000000000E+00 0.  1.
         23    2    1    2    0    0 -0.65767625496E+02  0.11475389201E+02 -0.17083477328E+03  0.20437194548E+03  0.90146032716E+02 0.  0.
          5    1    1    2  502    0  0.13481905221E+02  0.54894686960E+02 -0.66543909277E+03  0.66784867074E+03  0.41800000000E+01 0.  1.
         -5    1    1    2    0  502  0.52285720275E+02 -0.66370076161E+02 -0.83376383084E+03  0.83804437923E+03  0.41800000000E+01 0.  1.
        -11    1    3    3    0    0 -0.29240192620E+02 -0.45582835253E+01 -0.16044263867E+03  0.16314903346E+03  0.00000000000E+00 0.  1.
         11    1    3    3    0    0 -0.36527432876E+02  0.16033672727E+02 -0.10392134608E+02  0.41222912019E+02  0.00000000000E+00 0. -1.
</event>
<event>
 7    1  0.6584658E-006  0.1223805E+03  0.7561462E-02  0.1239221E+00
          1   -1    0    0  501    0  0.00000000000E+00  0.00000000000E+00  0.62520135724E+03  0.62520135724E+03  0.00000000000E+00 0. -1.
         -1   -1    0    0    0  501 -0.00000000000E+00 -0.00000000000E+00 -0.28056824831E+02  0.28056824831E+02  0.00000000000E+00 0.  1.
         23    2    1    2    0    0  0.75863142661E+02 -0.36578545555E+02  0.29791642011E+03  0.32293370195E+03  0.91862811156E+02 0.  0.
          5    1    1    2  502    0 -0.15172308924E+02 -0.29260576971E+02  0.16894619906E+03  0.17218208647E+03  0.41800000000E+01 0. -1.
         -5    1    1    2    0  502 -0.60690833737E+02  0.65839122526E+02  0.13028191324E+03  0.15814239366E+03  0.41800000000E+01 0.  1.
        -11    1    3    3    0    0  0.43083347873E+02  0.26660505131E+02  0.91753090527E+02  0.10481215110E+03  0.00000000000E+00 0.  1.
         11    1    3    3    0    0  0.32779794788E+02 -0.63239050685E+02  0.20616332958E+03  0.21812155084E+03  0.00000000000E+00 0. -1.
</event>
<event>
 7    1  0.6584658E-006  0.7052643E+02  0.7561462E-02  0.1358312E+00
         -4   -1    0    0    0  501 -0.00000000000E+00  0.00000000000E+00  0.42955380532E+02  0.42955380532E+02  0.00000000000E+00 0.  1.
          4   -1    0    0  501    0  0.00000000000E+00 -0.00000000000E+00 -0.43895512652E+03  0.43895512652E+03  0.00000000000E+00 0. -1.
         23    2    1    2    0    0  0.38896543173E+00 -0.39226717841E+02 -0.30832421877E+03  0.32420106945E+03  0.92215090227E+02 0.  0.
          5    1    1    2  502    0 -0.60706884728E+01 -0.36301534243E+01 -0.10900993691E+03  0.10931912009E+03  0.41800000000E+01 0. -1.
         -5    1    1    2    0  502  0.56817230411E+01  0.42856871265E+02  0.21334409696E+02  0.48390317507E+02  0.41800000000E+01 0. -1.
        -11    1    3    3    0    0  0.25330920341E+02  0.15194596226E+02 -0.42744803192E+02  0.51958151234E+02  0.00000000000E+00 0. -1.
         11    1    3    3    0    0 -0.24941954909E+02 -0.54421314067E+02 -0.26557941558E+03  0.27224291822E+03  0.00000000000E+00 0.  1.
</event>
<event>
 7    1  0.6584658E-006  0.8195074E+02  0.7561462E-02  0.1323605E+00
         -1   -1    0    0    0  501 -0.00000000000E+00  0.00000000000E+00  0.11286400704E+03  0.11286400704E+03  0.00000000000E+00 0.  1.
          1   -1    0    0  501    0  0.00000000000E+00 -0.00000000000E+00 -0.12185385937E+03  0.12185385937E+03  0.00000000000E+00 0. -1.
         23    2    1    2    0    0  0.27381230348E+02 -0.12886184402E+02 -0.39677358682E+02  0.10241812198E+03  0.89439328009E+02 0.  0.
          5    1    1    2  502    0  0.33276513952E+02  0.17169924766E+02 -0.28574104295E+02  0.47287255509E+02  0.41800000000E+01 0. -1.
         -5    1    1    2    0  502 -0.60657744300E+02 -0.42837403640E+01  0.59261610645E+02  0.85012488914E+02  0.41800000000E+01 0. -1.
        -11    1    3    3    0    0  0.27186150213E+02  0.19137954210E+02  0.16983364662E+02  0.37333399658E+02  0.00000000000E+00 0.  1.
         11    1    3    3    0    0  0.19508013473E+00 -0.32024138613E+02 -0.56660723345E+02  0.65084722325E+02  0.00000000000E+00 0. -1.
</event>
<event>
 7    1  0.6584658E-006  0.9998608E+02  0.7561462E-02  0.1280325E+00
          2   -1    0    0  501    0  0.00000000000E+00  0.00000000000E+00  0.13105827881E+03  0.13105827881E+03  0.00000000000E+00 0. -1.
         -2   -1    0    0    0  501 -0.00000000000E+00 -0.00000000000E+00 -0.10866335546E+03  0.10866335546E+03  0.00000000000E+00 0.  1.
         23    2    1    2    0    0  0.43700735861E+02 -0.14345884156E+02  0.25065289396E+02  0.10641484275E+03  0.92629861914E+02 0.  0.
          5    1    1    2  502    0 -0.23966266547E+02  0.52039314345E+02  0.42238617421E+02  0.71302492041E+02  0.41800000000E+01 0.  1.
         -5    1    1    2    0  502 -0.19734469314E+02 -0.37693430189E+02 -0.44908983469E+02  0.62004299485E+02  0.41800000000E+01 0.  1.
        -11    1    3    3    0    0 -0.21248058961E+02 -0.26221363173E+02 -0.45437599472E+01  0.34054157613E+02  0.00000000000E+00 0.  1.
         11    1    3    3    0    0  0.64948794822E+02  0.11875479017E+02  0.29609049344E+02  0.72360685138E+02  0.00000000000E+00 0. -1.
</event>
<event>
 7    1  0.6584658E-006  0.1252627E+03  0.7561462E-02  0.1234659E+00
          1   -1    0    0  501    0  0.00000000000E+00  0.00000000000E+00  0.84150995208E+02  0.84150995208E+02  0.00000000000E+00 0. -1.
         -1   -1    0    0    0  501 -0.00000000000E+00 -0.00000000000E+00 -0.24694863005E+03  0.24694863005E+03  0.00000000000E+00 0.  1.
         23    2    1    2    0    0 -0.77687888499E+02 -0.36846267115E+02 -0.28424867431E+02  0.12837817822E+03  0.90994110440E+02 0.  0.
          5    1    1    2  502    0  0.10483144191E+03  0.54839767347E+02 -0.97640702401E+02  0.15345426179E+03  0.41800000000E+01 0. -1.
         -5    1    1    2    0  502 -0.27143553412E+02 -0.17993500231E+02 -0.36732065005E+02  0.49267185245E+02  0.41800000000E+01 0. -1.
        -11    1    3    3    0    0 -0.64605218677E+02 -0.49030861913E+01  0.20985286114E+02  0.68104748497E+02  0.00000000000E+00 0. -1.
         11    1    3    3    0    0 -0.13082669822E+02 -0.31943180924E+02 -0.49410153545E+02  0.60273429723E+02  0.00000000000E+00 0.  1.
</event>
<event>
 7    1  0.6584658E-006  0.1000295E+03  0.7561462E-02  0.1280234E+00
          3   -1    0    0  501    0  0.00000000000E+00  0.00000000000E+00  0.44697478692E+03  0.44697478692E+03  0.00000000000E+00 0. -1.
         -3   -1    0    0    0  501 -0.00000000000E+00 -0.00000000000E+00 -0.27157322337E+02  0.27157322337E+02  0.00000000000E+00 0.  1.
         23    2    1    2    0    0 -0.85991164762E+01 -0.79381189626E+01  0.21372783315E+03  0.23276329483E+03  0.91445099485E+02 0.  0.
          5    1    1    2  502    0  0.66308660702E+02  0.11104294738E+02  0.10198821207E+03  0.12222606779E+03  0.41800000000E+01 0. -1.
         -5    1    1    2    0  502 -0.57709544225E+02 -0.31661757753E+01  0.10410141936E+03  0.11914274664E+03  0.41800000000E+01 0. -1.
        -11    1    3    3    0    0 -0.30702860623E+02  0.21830131663E+02  0.17554037072E+03  0.17953729989E+03  0.00000000000E+00 0.  1.
         11    1    3    3    0    0  0.22103744146E+02 -0.29768250625E+02  0.38187462431E+02  0.53225994941E+02  0.00000000000E+00 0. -1.
</event>
<event>
 7    1  0.6584658E-006  0.1461943E+03  0.7561462E-02  0.1205229E+00
         -1   -1    0    0    0  501 -0.00000000000E+00  0.00000000000E+00  0.22793436656E+03  0.22793436656E+03  0.00000000000E+00 0. -1.
          1   -1    0    0  501    0  0.00000000000E+00 -0.00000000000E+00 -0.12043784129E+03  0.12043784129E+03  0.00000000000E+00 0.  1.
         23    2    1    2    0    0  0.10130948660E+03 -0.61897479620E+02  0.93856554124E+02  0.17537122250E+03  0.88606449383E+02 0.  0.
          5    1    1    2  502    0 -0.81604912374E+02 -0.18248498935E+02  0.29661596880E+02  0.88823713987E+02  0.41800000000E+01 0.  1.
         -5    1    1    2    0  502 -0.19704574224E+02  0.80145978554E+02 -0.16021625736E+02  0.84177271368E+02  0.41800000000E+01 0.  1.
        -11    1    3    3    0    0  0.70571417809E+02 -0.63926563651E+02  0.10579306843E+03  0.14233447889E+03  0.00000000000E+00 0. -1.
         11    1    3    3    0    0  0.30738068789E+02  0.20290840310E+01 -0.11936514309E+02  0.33036743616E+02  0.00000000000E+00 0.  1.
</event>
<event>
 7    1  0.6584658E-006  0.1178682E+03  0.7561462E-02  0.1246656E+00
          4   -1    0    0  501    0  0.00000000000E+00  0.00000000000E+00  0.18667039972E+03  0.18667039972E+03  0.00000000000E+00 0.  1.
         -4   -1    0    0    0  501 -0.00000000000E+00 -0.00000000000E+00 -0.86174353741E+02  0.86174353741E+02  0.00000000000E+00 0. -1.
         23    2    1    2    0    0 -0.33621547760E+02 -0.47605153639E+02  0.68720815848E+02  0.13123610683E+03  0.95413343299E+02 0.  0.
          5    1    1    2  502    0  0.12265367265E+02 -0.37098936417E+02  0.37031460948E+02  0.53996035201E+02  0.41800000000E+01 0.  1.
         -5    1    1    2    0  502  0.21356180494E+02  0.84704090057E+02 -0.52562308209E+01  0.87612611421E+02  0.41800000000E+01 0.  1.
        -11    1    3    3    0    0  0.16917148497E+02  0.18958619725E+02  0.29442629153E+02  0.38890713372E+02  0.00000000000E+00 0. -1.
         11    1    3    3    0    0 -0.50538696257E+02 -0.66563773364E+02  0.39278186695E+02  0.92345393463E+02  0.00000000000E+00 0.  1.
</event>
<event>
 7    1  0.6584658E-006  0.1107768E+03  0.7561462E-02  0.1259138E+00
          2   -1    0    0  501    0  0.00000000000E+00  0.00000000000E+00  0.10506927198E+03  0.10506927198E+03  0.00000000000E+00 0. -1.
         -2   -1    0    0    0  501 -0.00000000000E+00 -0.00000000000E+00 -0.13691419361E+03  0.13691419361E+03  0.00000000000E+00 0.  1.
         23    2    1    2    0    0 -0.80331943895E+01 -0.39193981997E+02  0.21092880464E+02  0.10038400176E+03  0.89617731319E+02 0.  0.
          5    1    1    2  502    0 -0.16123621387E+02 -0.38504066790E+02  0.40881229039E+01  0.42151150339E+02  0.41800000000E+01 0.  1.
         -5    1    1    2    0  502  0.24156815777E+02  0.77698048787E+02 -0.57025924999E+02  0.99448313489E+02  0.41800000000E+01 0.  1.
        -11    1    3    3    0    0  0.28876162832E+02 -0.51648979210E+02  0.13597991057E+02  0.60715362093E+02  0.00000000000E+00 0.  1.
         11    1    3    3    0    0 -0.36909357221E+02  0.12454997213E+02  0.74948894073E+01  0.39668639670E+02  0.00000000000E+00 0. -1.
</event>
<event>
 7    1  0.6584658E-006  0.1233128E+03  0.7561462E-02  0.1237730E+00
         -2   -1    0    0    0  501 -0.00000000000E+00  0.00000000000E+00  0.28213398426E+02  0.28213398426E+02  0.00000000000E+00 0.  1.
          2   -1    0    0  501    0  0.00000000000E+00 -0.00000000000E+00 -0.64960460726E+03  0.64960460726E+03  0.00000000000E+00 0. -1.
         23    2    1    2    0    0  0.16432323640E+02  0.61382151412E+02 -0.38960250672E+03  0.40687453490E+03  0.98584908232E+02 0.  0.
          5    1    1    2  502    0  0.40545698680E+02 -0.69087438327E+02 -0.15902563217E+03  0.17811134693E+03  0.41800000000E+01 0.  1.
         -5    1    1    2    0  502 -0.56978022321E+02  0.77052869155E+01 -0.72763069944E+02  0.92832123867E+02  0.41800000000E+01 0.  1.
        -11    1    3    3    0    0  0.33322190439E+02 -0.10488019046E+02 -0.20674321880E+03  0.20967385492E+03  0.00000000000E+00 0.  1.
         11    1    3    3    0    0 -0.16889866799E+02  0.71870170458E+02 -0.18285928792E+03  0.19720067997E+03  0.00000000000E+00 0. -1.
</event>
<event>
 7    1  0.6584658E-006  0.1086475E+03  0.7561462E-02  0.1263095E+00
          1   -1    0    0  501    0  0.00000000000E+00  0.00000000000E+00  0.40656054156E+03  0.40656054156E+03  0.00000000000E+00 0. -1.
         -1   -1    0    0    0  501 -0.00000000000E+00 -0.00000000000E+00 -0.38483256803E+02  0.38483256803E+02  0.00000000000E+00 0.  1.
         23    2    1    2    0    0 -0.34090789871E+02  0.21423603626E+02  0.25378782164E+03  0.27088920925E+03  0.85741195066E+02 0.  0.
          5    1    1    2  502    0  0.80726233290E+02 -0.27975777501E+01  0.74199135549E+02  0.10976126502E+03  0.41800000000E+01 0. -1.
         -5    1    1    2    0  502 -0.46635443419E+02 -0.18626025876E+02  0.40090327570E+02  0.64393324091E+02  0.41800000000E+01 0. -1.
        -11    1    3    3    0    0  0.28525524857E+01  0.43095808667E+02  0.70619256020E+02  0.82779617668E+02  0.00000000000E+00 0.  1.
         11    1    3    3    0    0 -0.36943342357E+02 -0.21672205041E+02  0.18316856562E+03  0.18810959158E+03  0.00000000000E+00 0. -1.
</event>
<event>
 7    1  0.6584658E-006  0.8506414E+02  0.7561462E-02  0.1315265E+00
          1   -1    0    0  501    0  0.00000000000E+00  0.00000000000E+00  0.15910343951E+03  0.15910343951E+03  0.00000000000E+00 0. -1.
         -1   -1    0    0    0  501 -0.00000000000E+00 -0.00000000000E+00 -0.74552193461E+02  0.74552193461E+02  0.00000000000E+00 0.  1.
         23    2    1    2    0    0  0.98339710645E+01 -0.87152698687E+01  0.41386584692E+02  0.10067141155E+03  0.90825221143E+02 0.  0.
          5    1    1    2  502    0  0.28547218578E+02 -0.32857163133E+02  0.59596911382E+02  0.73917529070E+02  0.41800000000E+01 0.  1.
         -5    1    1    2    0  502 -0.38381189642E+02  0.41572433001E+02 -0.16432250025E+02  0.59066692348E+02  0.41800000000E+01 0.  1.
        -11    1    3    3    0    0  0.36341795417E+02  0.94275787678E+01 -0.11086189239E+02  0.39147272285E+02  0.00000000000E+00 0.  1.
         11    1    3    3    0    0 -0.26507824352E+02 -0.18142848636E+02  0.52472773931E+02  0.61524139267E+02  0.00000000000E+00 0. -1.
</event>
<event>
 7    1  0.6584658E-006  0.9834199E+02  0.7561462E-02  0.1283822E+00
         -1   -1    0    0    0  501 -0.00000000000E+00  0.00000000000E+00  0.14165949018E+03  0.14165949018E+03  0.00000000000E+00 0.  1.
          1   -1    0    0  501    0  0.00000000000E+00 -0.00000000000E+00 -0.14976368252E+03  0.14976368252E+03  0.00000000000E+00 0. -1.
         23    2    1    2    0    0  0.42153473165E+02  0.27323723790E+02 -0.86714635668E+02  0.13541890504E+03  0.91078815445E+02 0.  0.
          5    1    1    2  502    0 -0.70364154481E+02 -0.86220450816E+01  0.76669945054E+00  0.71017702900E+02  0.41800000000E+01 0. -1.
         -5    1    1    2    0  502  0.28210681316E+02 -0.18701678708E+02  0.77843743881E+02  0.84986564751E+02  0.41800000000E+01 0. -1.
        -11    1    3    3    0    0  0.50341625745E+02  0.47858125695E+02 -0.32137064472E+02  0.76534112594E+02  0.00000000000E+00 0.  1.
         11    1    3    3    0    0 -0.81881525805E+01 -0.20534401905E+02 -0.54577571196E+02  0.58884792450E+02  0.00000000000E+00 0. -1.
</event>
<event>
 7    1  0.6584658E-006  0.1299239E+03  0.7561462E-02  0.1227569E+00
          1   -1    0    0  501    0  0.00000000000E+00  0.00000000000E+00  0.12173399663E+03  0.12173399663E+03  0.00000000000E+00 0. -1.
         -1   -1    0    0    0  501 -0.00000000000E+00 -0.00000000000E+00 -0.23794827181E+03  0.23794827181E+03  0.00000000000E+00 0.  1.
         23    2    1    2    0    0  0.94566961671E+02  0.55019790778E+02  0.19635891676E+02  0.14503508064E+03  0.93163934852E+02 0.  0.
          5    1    1    2  502    0 -0.52325925989E+02 -0.83987683619E+02 -0.12925159034E+03  0.16283543698E+03  0.41800000000E+01 0.  1.
         -5    1    1    2    0  502 -0.42241035682E+02  0.28967892842E+02 -0.65985765207E+01  0.51811750823E+02  0.41800000000E+01 0.  1.
        -11    1    3    3    0    0  0.31361124990E+02  0.18947310653E+02 -0.37561687033E+02  0.52472860360E+02  0.00000000000E+00 0.  1.
         11    1    3    3    0    0  0.63205836681E+02  0.36072480125E+02  0.57197578708E+02  0.92562220279E+02  0.00000000000E+00 0. -1.
</event>
<event>
 7    1  0.6584658E-006  0.7965748E+02  0.7561462E-02  0.1330026E+00
         -3   -1    0    0    0  501 -0.00000000000E+00  0.00000000000E+00  0.71918769850E+02  0.71918769850E+02  0.00000000000E+00 0.  1.
          3   -1    0    0  501    0  0.00000000000E+00 -0.00000000000E+00 -0.16890836921E+03  0.16890836921E+03  0.00000000000E+00 0. -1.
         23    2    1    2    0    0 -0.99537366801E+01  0.21164891837E+02 -0.32577393840E+02  0.98196680909E+02  0.89634100832E+02 0.  0.
          5    1    1    2  502    0  0.38970762782E+02 -0.53599438429E+02 -0.72342959183E+02  0.98196722425E+02  0.41800000000E+01 0. -1.
         -5    1    1    2    0  502 -0.29017026102E+02  0.32434546592E+02  0.79307536666E+01  0.44433735721E+02  0.41800000000E+01 0. -1.
        -11    1    3    3    0    0  0.14296689783E+02 -0.33786974260E+01  0.26201784781E+02  0.30039048932E+02  0.00000000000E+00 0.  1.
         11    1    3    3    0    0 -0.24250426463E+02  0.24543589263E+02 -0.58779178620E+02  0.68157631978E+02  0.00000000000E+00 0. -1.
</event>
<event>
 6    1  0.6584658E-006  0.1351019E+03  0.7561462E-02  0.1220076E+00
         -1   -1    0    0    0  501 -0.00000000000E+00  0.00000000000E+00  0.38505519686E+02  0.38505519686E+02  0.00000000000E+00 0.  1.
          1   -1    0    0  501    0  0.00000000000E+00 -0.00000000000E+00 -0.55851994990E+03  0.55851994990E+03  0.00000000000E+00 0. -1.
          5    1    1    2  502    0 -0.79494874151E+01 -0.74021121931E+02 -0.20650409745E+03  0.21955349122E+03  0.41800000000E+01 0.  1.
         -5    1    1    2    0  502  0.72163083804E+02 -0.20016010413E+02 -0.58919046033E+02  0.95378602016E+02  0.41800000000E+01 0.  1.
        -11    1    1    2    0    0 -0.21751530297E+02  0.66645217936E+02 -0.13117621672E+03  0.14873437389E+03  0.00000000000E+00 0.  1.
         11    1    1    2    0    0 -0.42462066092E+02  0.27391914407E+02 -0.12341507001E+03  0.13335900246E+03  0.00000000000E+00 0. -1.
</event>
<event>
 7    1  0.6584658E-006  0.1110145E+03  0.7561462E-02  0.1258703E+00
          2   -1    0    0  501    0  0.00000000000E+00  0.00000000000E+00  0.12289155049E+03  0.12289155049E+03  0.00000000000E+00 0. -1.
         -2   -1    0    0    0  501 -0.00000000000E+00 -0.00000000000E+00 -0.13500939114E+03  0.13500939114E+03  0.00000000000E+00 0.  1.
         23    2    1    2    0    0  0.22188426070E+02 -0.48357364152E+02  0.38255358314E+02  0.11293115203E+03  0.91973973171E+02 0.  0.
          5    1    1    2  502    0  0.46478701546E+02 -0.51436416906E+01 -0.64894827526E+01  0.47395279656E+02  0.41800000000E+01 0. -1.
         -5    1    1    2    0  502 -0.68667127617E+02  0.53501005843E+02 -0.43883716213E+02  0.97574509940E+02  0.41800000000E+01 0. -1.
        -11    1    3    3    0    0  0.37218958716E+02  0.75717519608E-01  0.48560292365E+02  0.61182992863E+02  0.00000000000E+00 0. -1.
         11    1    3    3    0    0 -0.15030532646E+02 -0.48433081672E+02 -0.10304934051E+02  0.51748159172E+02  0.00000000000E+00 0.  1.
</event>
<event>
 7    1  0.6584658E-006  0.1438461E+03  0.7561462E-02  0.1208246E+00
         -3   -1    0    0    0  501 -0.00000000000E+00  0.00000000000E+00  0.22899905019E+03  0.22899905019E+03  0.00000000000E+00 0.  1.
          3   -1    0    0  501    0  0.00000000000E+00 -0.00000000000E+00 -0.98115423615E+02  0.98115423615E+02  0.00000000000E+00 0. -1.
         23    2    1    2    0    0  0.10194475395E+03 -0.10600868228E+02  0.52828157178E+02  0.14754330185E+03  0.92049445752E+02 0.  0.
          5    1    1    2  502    0 -0.90683778699E+02 -0.43724558753E+02  0.71492937401E+02  0.12354795529E+03  0.41800000000E+01 0. -1.
         -5    1    1    2    0  502 -0.11260975253E+02  0.54325426981E+02  0.65625319994E+01  0.56023216675E+02  0.41800000000E+01 0. -1.
        -11    1    3    3    0    0  0.62911932630E+02 -0.46524035099E+02  0.90560523827E+01  0.78768072173E+02  0.00000000000E+00 0. -1.
         11    1    3    3    0    0  0.39032821323E+02  0.35923166870E+02  0.43772104795E+02  0.68775229673E+02  0.00000000000E+00 0.  1.
</event>
<event>
 6    1  0.6584658E-006  0.6986751E+02  0.7561462E-02  0.1360544E+00
         -2   -1    0    0    0  501 -0.00000000000E+00  0.00000000000E+00  0.34877767812E+02  0.34877767812E+02  0.00000000000E+00 0.  1.
          2   -1    0    0  501    0  0.00000000000E+00 -0.00000000000E+00 -0.28863457829E+03  0.28863457829E+03  0.00000000000E+00 0. -1.
          5    1    1    2  502    0  0.44535826503E+02  0.27505744381E+02 -0.17226741158E+03  0.18009314065E+03  0.41800000000E+01 0. -1.
         -5    1    1    2    0  502 -0.84389939314E+01  0.16792251886E+02  0.12690680550E+02  0.23059100477E+02  0.41800000000E+01 0.  1.
        -11    1    1    2    0    0 -0.67395528369E+01 -0.37148967107E+02 -0.26164898866E+02  0.45935490225E+02  0.00000000000E+00 0. -1.
         11    1    1    2    0    0 -0.29357279735E+02 -0.71490291599E+01 -0.68015180586E+02  0.74424614755E+02  0.00000000000E+00 0.  1.
</event>
<event>
 7    1  0.6584658E-006  0.9567574E+02  0.7561462E-02  0.1289661E+00
          3   -1    0    0  501    0  0.00000000000E+00  0.00000000000E+00  0.51248503562E+03  0.51248503562E+03  0.00000000000E+00 0. -1.
         -3   -1    0    0    0  501 -0.00000000000E+00 -0.00000000000E+00 -0.23505445559E+02  0.23505445559E+02  0.00000000000E+00 0.  1.
         23    2    1    2    0    0 -0.56610765732E+01  0.11645508222E+02  0.23287345012E+03  0.25067410102E+03  0.91868359615E+02 0.  0.
          5    1    1    2  502    0  0.51093922837E+01 -0.58616388276E+02  0.21438042416E+03  0.22234753322E+03  0.41800000000E+01 0. -1.
         -5    1    1    2    0  502  0.55168428957E+00  0.46970880054E+02  0.41725715777E+02  0.62968846946E+02  0.41800000000E+01 0. -1.
        -11    1    3    3    0    0 -0.27224285780E+02  0.40734877128E+02  0.18029267064E+03  0.18683131172E+03  0.00000000000E+00 0.  1.
         11    1    3    3    0    0  0.21563209207E+02 -0.29089368905E+02  0.52580779479E+02  0.63842789297E+02  0.00000000000E+00 0. -1.
</event>
<event>
 7    1  0.6584658E-006  0.1368259E+03  0.7561462E-02  0.1217665E+00
         -1   -1    0    0    0  501 -0.00000000000E+00  0.00000000000E+00  0.94577020083E+02  0.94577020083E+02  0.00000000000E+00 0.  1.
          1   -1    0    0  501    0  0.00000000000E+00 -0.00000000000E+00 -0.26161794786E+03  0.26161794786E+03  0.00000000000E+00 0. -1.
         23    2    1    2    0    0 -0.90969147412E+02 -0.37878102486E+02 -0.14153567641E+03  0.19492186603E+03  0.90840793325E+02 0.  0.
          5    1    1    2  502    0 -0.85771658925E+01 -0.27012420438E+02 -0.31043200796E+02  0.42242056631E+02  0.41800000000E+01 0.  1.
         -5    1    1    2    0  502  0.99546313305E+02  0.64890522925E+02  0.55379494212E+01  0.11903104529E+03  0.41800000000E+01 0.  1.
        -11    1    3    3    0    0 -0.62905753747E+02 -0.62567595187E+02 -0.65785482676E+02  0.11045165256E+03  0.00000000000E+00 0.  1.
         11    1    3    3    0    0 -0.28063393665E+02  0.24689492700E+02 -0.75750193730E+02  0.84470213471E+02  0.00000000000E+00 0. -1.
</event>
<event>
 7    1  0.6584658E-006  0.2260485E+03  0.7561462E-02  0.1129452E+00
         -1   -1    0    0    0  501 -0.00000000000E+00  0.00000000000E+00  0.60702534909E+02  0.60702534909E+02  0.00000000000E+00 0.  1.
          1   -1    0    0  501    0  0.00000000000E+00 -0.00000000000E+00 -0.89912527966E+03  0.89912527966E+03  0.00000000000E+00 0. -1.
         23    2    1    2    0    0 -0.18238199350E+03 -0.93089937656E+02 -0.34048911519E+03  0.40709476955E+03  0.88681372262E+02 0.  0.
          5    1    1    2  502    0  0.10737352725E+03 -0.14662794415E+02 -0.21571219369E+03  0.24144004390E+03  0.41800000000E+01 0. -1.
         -5    1    1    2    0  502  0.75008466249E+02  0.10775273207E+03 -0.28222143588E+03  0.31129300112E+03  0.41800000000E+01 0. -1.
        -11    1    3    3    0    0 -0.86133619011E+02 -0.75308632077E+02 -0.24478392201E+03  0.27020281061E+03  0.00000000000E+00 0. -1.
         11    1    3    3    0    0 -0.96248374489E+02 -0.17781305579E+02 -0.95705193184E+02  0.13689195894E+03  0.00000000000E+00 0.  1.
</event>
<event>
 7    1  0.6584658E-006  0.1193445E+03  0.7561462E-02  0.1244182E+00
         -1   -1    0    0    0  501 -0.00000000000E+00  0.00000000000E+00  0.28719099297E+02  0.28719099297E+02  0.00000000000E+00 0.  1.
          1   -1    0    0  501    0  0.00000000000E+00 -0.00000000000E+00 -0.57357738041E+03  0.57357738041E+03  0.00000000000E+00 0. -1.
         23    2    1    2    0    0 -0.62424784985E+02 -0.61911915029E+00 -0.29126906644E+03  0.31272333346E+03  0.95189165018E+02 0.  0.
          5    1    1    2  502    0  0.90136645913E+02  0.21450970455E+02 -0.12096915068E+03  0.15243282746E+03  0.41800000000E+01 0. -1.
         -5    1    1    2    0  502 -0.27711860928E+02 -0.20831851305E+02 -0.13262006399E+03  0.13714031879E+03  0.41800000000E+01 0. -1.
        -11    1    3    3    0    0  0.10961838559E+02 -0.30023992640E+02 -0.11832237382E+03  0.12256339660E+03  0.00000000000E+00 0. -1.
         11    1    3    3    0    0 -0.73386623544E+02  0.29404873490E+02 -0.17294669262E+03  0.19015993687E+03  0.00000000000E+00 0.  1.
</event>
<event>
 7    1  0.6584658E-006  0.1479605E+03  0.7561462E-02  0.1203002E+00
         -1   -1    0    0    0  501 -0.00000000000E+00  0.00000000000E+00  0.55610820745E+02  0.55610820745E+02  0.00000000000E+00 0.  1.
          1   -1    0    0  501    0  0.00000000000E+00 -0.00000000000E+00 -0.57530679764E+03  0.57530679764E+03  0.00000000000E+00 0. -1.
         23    2    1    2    0    0 -0.12405760102E+03 -0.65140823493E+02 -0.28049472837E+03  0.32678621581E+03  0.92077809173E+02 0.  0.
          5    1    1    2  502    0  0.52502949585E+02  0.14746818365E+02 -0.20141971716E+03  0.20871368720E+03  0.41800000000E+01 0. -1.
         -5    1    1    2    0  502  0.71554651432E+02  0.50394005128E+02 -0.37781531365E+02  0.95417715371E+02  0.41800000000E+01 0. -1.
        -11    1    3    3    0    0 -0.16070900183E+02 -0.39462738448E+02 -0.28041465166E+02  0.51008874984E+02  0.00000000000E+00 0.  1.
         11    1    3    3    0    0 -0.10798670083E+03 -0.25678085046E+02 -0.25245326321E+03  0.27577734082E+03  0.00000000000E+00 0. -1.
</event>
<event>
 7    1  0.6584658E-006  0.1501279E+03  0.7561462E-02  0.1200316E+00
         -2   -1    0    0    0  501 -0.00000000000E+00  0.00000000000E+00  0.52647794966E+03  0.52647794966E+03  0.00000000000E+00 0. -1.
          2   -1    0    0  501    0  0.00000000000E+00 -0.00000000000E+00 -0.99470706847E+02  0.99470706847E+02  0.00000000000E+00 0.  1.
         23    2    1    2    0    0  0.56393907658E+02  0.11330062382E+03 -0.65810156703E+01  0.15726579366E+03  0.93123122304E+02 0.  0.
          5    1    1    2  502    0  0.50836562784E+01  0.22651194487E+02  0.10747465750E+03  0.11003269777E+03  0.41800000000E+01 0. -1.
         -5    1    1    2    0  502 -0.61477563936E+02 -0.13595181831E+03  0.32611360098E+03  0.35865016508E+03  0.41800000000E+01 0. -1.
        -11    1    3    3    0    0  0.10105521442E+02  0.10052008875E+02 -0.37374801431E+02  0.40000502847E+02  0.00000000000E+00 0.  1.
         11    1    3    3    0    0  0.46288386216E+02  0.10324861495E+03  0.30793785761E+02  0.11726529081E+03  0.00000000000E+00 0. -1.
</event>
<event>
 7    1  0.6584658E-006  0.8272498E+02  0.7561462E-02  0.1321491E+00
          2   -1    0    0  501    0  0.00000000000E+00  0.00000000000E+00  0.13320844490E+03  0.13320844490E+03  0.00000000000E+00 0. -1.
         -2   -1    0    0    0  501 -0.00000000000E+00 -0.00000000000E+00 -0.10966997379E+03  0.10966997379E+03  0.00000000000E+00 0.  1.
         23    2    1    2    0    0  0.18057642019E+02 -0.47723717074E+02  0.24631394939E+02  0.10777805411E+03  0.91682995826E+02 0.  0.
          5    1    1    2  502    0 -0.46957784301E+01  0.46009121433E+02  0.58027512580E+02  0.74320617639E+02  0.41800000000E+01 0.  1.
         -5    1    1    2    0  502 -0.13361863589E+02  0.17145956416E+01 -0.59120436411E+02  0.60779746941E+02  0.41800000000E+01 0.  1.
        -11    1    3    3    0    0 -0.29844904396E+02 -0.48560311961E+02  0.12404278062E+02  0.58332566636E+02  0.00000000000E+00 0.  1.
         11    1    3    3    0    0  0.47902546415E+02  0.83659488625E+00  0.12227116876E+02  0.49445487470E+02  0.00000000000E+00 0. -1.
</event>
<event>
 7    1  0.6584658E-006  0.1467619E+03  0.7561462E-02  0.1204509E+00
         -1   -1    0    0    0  501 -0.00000000000E+00  0.00000000000E+00  0.13716144855E+03  0.13716144855E+03  0.00000000000E+00 0.  1.
          1   -1    0    0  501    0  0.00000000000E+00 -0.00000000000E+00 -0.21153552673E+03  0.21153552673E+03  0.00000000000E+00 0. -1.
         23    2    1    2    0    0 -0.12395315149E+03  0.29495513491E+02 -0.50542934875E+02  0.16855989172E+03  0.98099336134E+02 0.  0.
          5    1    1    2  502    0  0.11107298183E+03  0.44874226941E+01 -0.61930080148E+02  0.12731909315E+03  0.41800000000E+01 0.  1.
         -5    1    1    2    0  502  0.12880169667E+02 -0.33982936185E+02  0.38098936843E+02  0.52817990410E+02  0.41800000000E+01 0.  1.
        -11    1    3    3    0    0 -0.83469938976E+01 -0.18678136723E+02 -0.37400778237E+02  0.42630544347E+02  0.00000000000E+00 0. -1.
         11    1    3    3    0    0 -0.11560615760E+03  0.48173650214E+02 -0.13142156638E+02  0.12592934737E+03  0.00000000000E+00 0.  1.
</event>
<event>
 7    1  0.6584658E-006  0.1368756E+03  0.7561462E-02  0.1217596E+00
         -2   -1    0    0    0  501 -0.00000000000E+00  0.00000000000E+00  0.39570735935E+02  0.39570735935E+02  0.00000000000E+00 0.  1.
          2   -1    0    0  501    0  0.00000000000E+00 -0.00000000000E+00 -0.67726817204E+03  0.67726817204E+03  0.00000000000E+00 0. -1.
         23    2    1    2    0    0  0.32173127710E+02  0.96289946377E+02 -0.44926061001E+03  0.46892233930E+03  0.88012502920E+02 0.  0.
          5    1    1    2  502    0 -0.59081326469E+02 -0.96015991673E+02 -0.85817903259E+02  0.14174575378E+03  0.41800000000E+01 0.  1.
         -5    1    1    2    0  502  0.26908198758E+02 -0.27395470361E+00 -0.10261892284E+03  0.10617081490E+03  0.41800000000E+01 0.  1.
        -11    1    3    3    0    0  0.43353652531E+01  0.10457109470E+03 -0.33128384904E+03  0.34742322586E+03  0.00000000000E+00 0. -1.
         11    1    3    3    0    0  0.27837762457E+02 -0.82811483217E+01 -0.11797676097E+03  0.12149911343E+03  0.00000000000E+00 0.  1.
</event>
<event>
 7    1  0.6584658E-006  0.2220254E+03  0.7561462E-02  0.1132382E+00
          2   -1    0    0  501    0  0.00000000000E+00  0.00000000000E+00  0.33679379622E+03  0.33679379622E+03  0.00000000000E+00 0. -1.
         -2   -1    0    0    0  501 -0.00000000000E+00 -0.00000000000E+00 -0.19176889993E+03  0.19176889993E+03  0.00000000000E+00 0.  1.
         23    2    1    2    0    0  0.19779839319E+03  0.11371812358E+02  0.19130963662E+03  0.28972754151E+03  0.89939695240E+02 0.  0.
          5    1    1    2  502    0 -0.20339550135E+03  0.15657632635E+02 -0.29237268665E+02  0.20612419001E+03  0.41800000000E+01 0.  1.
         -5    1    1    2    0  502  0.55971081588E+01 -0.27029444993E+02 -0.17047471669E+02  0.32710964625E+02  0.41800000000E+01 0.  1.
        -11    1    3    3    0    0  0.10241737684E+03 -0.32019496886E+02  0.12907018656E+03  0.16785017224E+03  0.00000000000E+00 0.  1.
         11    1    3    3    0    0  0.95381016347E+02  0.43391309245E+02  0.62239450058E+02  0.12187736927E+03  0.00000000000E+00 0. -1.
</event>
<event>
 7    1  0.6584658E-006  0.2423551E+03  0.7561462E-02  0.1118234E+00
         -1   -1    0    0    0  501 -0.00000000000E+00  0.00000000000E+00  0.13691991476E+03  0.13691991476E+03  0.00000000000E+00 0.  1.
          1   -1    0    0  501    0  0.00000000000E+00 -0.00000000000E+00 -0.44474335385E+03  0.44474335385E+03  0.00000000000E+00 0. -1.
         23    2    1    2    0    0 -0.12275411641E+02 -0.22081447657E+03 -0.13995386245E+03  0.27713336485E+03  0.91137805024E+02 0.  0.
          5    1    1    2  502    0  0.59006808500E+02  0.14838667305E+03 -0.71043028648E+02  0.17482846596E+03  0.41800000000E+01 0. -1.
         -5    1    1    2    0  502 -0.46731396859E+02  0.72427803514E+02 -0.96826547991E+02  0.12970143781E+03  0.41800000000E+01 0. -1.
        -11    1    3    3    0    0 -0.24451420392E+02 -0.83210662106E+01 -0.96511888614E+01  0.27572768242E+02  0.00000000000E+00 0.  1.
         11    1    3    3    0    0  0.12176008751E+02 -0.21249341036E+03 -0.13030267359E+03  0.24956059661E+03  0.00000000000E+00 0. -1.
</event>
<event>
 7    1  0.6584658E-006  0.1736195E+03  0.7561462E-02  0.1174125E+00
         -1   -1    0    0    0  501 -0.00000000000E+00  0.00000000000E+00  0.59844912475E+02  0.59844912475E+02  0.00000000000E+00 0.  1.
          1   -1    0    0  501    0  0.00000000000E+00 -0.00000000000E+00 -0.57655651664E+03  0.57655651664E+03  0.00000000000E+00 0. -1.
         23    2    1    2    0    0  0.90385409608E+02 -0.12059609082E+03 -0.27500298938E+03  0.32530062953E+03  0.86492288734E+02 0.  0.
          5    1    1    2  502    0 -0.37266887145E+02  0.12112060739E+03 -0.21925680233E+03  0.25327858215E+03  0.41800000000E+01 0. -1.
         -5    1    1    2    0  502 -0.53118522463E+02 -0.52451656683E+00 -0.22451812453E+02  0.57822217431E+02  0.41800000000E+01 0. -1.
        -11    1    3    3    0    0 -0.10952271389E+02 -0.27305236944E+02 -0.20316384907E+02  0.35753093696E+02  0.00000000000E+00 0.  1.
         11    1    3    3    0    0  0.10133768100E+03 -0.93290853877E+02 -0.25468660448E+03  0.28954753583E+03  0.00000000000E+00 0. -1.
</event>
<event>
 7    1  0.6584658E-006  0.7164015E+02  0.7561462E-02  0.1354603E+00
          1   -1    0    0  501    0  0.00000000000E+00  0.00000000000E+00  0.36390832021E+03  0.36390832021E+03  0.00000000000E+00 0. -1.
         -1   -1    0    0    0  501 -0.00000000000E+00 -0.00000000000E+00 -0.38532547082E+02  0.38532547082E+02  0.00000000000E+00 0.  1.
         23    2    1    2    0    0 -0.69377008877E+01  0.10234180949E+02  0.22046730971E+03  0.23871861319E+03  0.90707615348E+02 0.  0.
          5    1    1    2  502    0  0.26473728071E+02  0.72260956743E+01 -0.21152363762E+02  0.34899421620E+02  0.41800000000E+01 0.  1.
         -5    1    1    2    0  502 -0.19536027183E+02 -0.17460276623E+02  0.12606082718E+03  0.12882283248E+03  0.41800000000E+01 0.  1.
        -11    1    3    3    0    0  0.22578164832E+01 -0.38918188082E+02  0.12514592813E+03  0.13107717737E+03  0.00000000000E+00 0. -1.
         11    1    3    3    0    0 -0.91955173709E+01  0.49152369030E+02  0.95321381572E+02  0.10764143582E+03  0.00000000000E+00 0.  1.
</event>
<event>
 7    1  0.6584658E-006  0.3644481E+03  0.7561462E-02  0.1056836E+00
         -1   -1    0    0    0  501 -0.00000000000E+00  0.00000000000E+00  0.49247157681E+03  0.49247157681E+03  0.00000000000E+00 0.  1.
          1   -1    0    0  501    0  0.00000000000E+00 -0.00000000000E+00 -0.43693853950E+03  0.43693853950E+03  0.00000000000E+00 0. -1.
         23    2    1    2    0    0  0.24686414284E+03  0.25457019915E+03 -0.24882369782E+03  0.44564494352E+03  0.10458628864E+03 0.  0.
          5    1    1    2  502    0 -0.16229187653E+03 -0.10056478309E+03  0.21162693329E+03  0.28505325832E+03  0.41800000000E+01 0. -1.
         -5    1    1    2    0  502 -0.84572266303E+02 -0.15400541606E+03  0.92729801840E+02  0.19871191447E+03  0.41800000000E+01 0. -1.
        -11    1    3    3    0    0  0.43245672601E+02  0.10836270487E+02 -0.42357767203E+01  0.44783420606E+02  0.00000000000E+00 0.  1.
         11    1    3    3    0    0  0.20361847024E+03  0.24373392866E+03 -0.24458792110E+03  0.40086152291E+03  0.00000000000E+00 0. -1.
</event>
<event>
 7    1  0.1004517E-005  0.2672862E+03  0.7561462E-02  0.1102843E+00
         -2   -1    0    0    0  501 -0.00000000000E+00  0.00000000000E+00  0.44609394134E+02  0.44609394134E+02  0.00000000000E+00 0. -1.
          2   -1    0    0  501    0  0.00000000000E+00 -0.00000000000E+00 -0.19820511995E+04  0.19820511995E+04  0.00000000000E+00 0.  1.
         23    2    1    2    0    0 -0.21747469498E+02  0.26396339580E+03 -0.12191695227E+04  0.12509593748E+04  0.91517241628E+02 0.  0.
          5    1    1    2  502    0  0.18058724873E+02 -0.54759802486E+02 -0.32608284798E+03  0.33116800821E+03  0.41800000000E+01 0.  1.
         -5    1    1    2    0  502  0.36887446246E+01 -0.20920359331E+03 -0.39218943468E+03  0.44453321064E+03  0.41800000000E+01 0.  1.
        -11    1    3    3    0    0 -0.32279398384E+02  0.21404484449E+03 -0.11036176416E+04  0.11246461905E+04  0.00000000000E+00 0.  1.
         11    1    3    3    0    0  0.10531928886E+02  0.49918551310E+02 -0.11555188113E+03  0.12631318428E+03  0.00000000000E+00 0. -1.
</event>
<event>
 7    1  0.6584658E-006  0.9533855E+02  0.7561462E-02  0.1290415E+00
         -3   -1    0    0    0  501 -0.00000000000E+00  0.00000000000E+00  0.12900489359E+03  0.12900489359E+03  0.00000000000E+00 0.  1.
          3   -1    0    0  501    0  0.00000000000E+00 -0.00000000000E+00 -0.10158253208E+03  0.10158253208E+03  0.00000000000E+00 0. -1.
         23    2    1    2    0    0  0.29939677589E+02  0.24597941113E+01 -0.10142404330E+02  0.96563815337E+02  0.91210016915E+02 0.  0.
          5    1    1    2  502    0 -0.62020164146E+02 -0.13378298557E+02  0.64471769862E+02  0.90551428162E+02  0.41800000000E+01 0.  1.
         -5    1    1    2    0  502  0.32080486557E+02  0.10918504446E+02 -0.26907004019E+02  0.43472182167E+02  0.41800000000E+01 0.  1.
        -11    1    3    3    0    0  0.18681411123E+02  0.45116387080E+02 -0.17429963855E+02  0.51848694725E+02  0.00000000000E+00 0. -1.
         11    1    3    3    0    0  0.11258266466E+02 -0.42656592969E+02  0.72875595248E+01  0.44715120612E+02  0.00000000000E+00 0.  1.
</event>
<event>
 7    1  0.6584658E-006  0.1745554E+03  0.7561462E-02  0.1173179E+00
         -1   -1    0    0    0  501 -0.00000000000E+00  0.00000000000E+00  0.42987006256E+02  0.42987006256E+02  0.00000000000E+00 0.  1.
          1   -1    0    0  501    0  0.00000000000E+00 -0.00000000000E+00 -0.92363399316E+03  0.92363399316E+03  0.00000000000E+00 0. -1.
         23    2    1    2    0    0  0.37922565785E+01 -0.15086307538E+03 -0.58561165173E+03  0.61240887524E+03  0.96589725687E+02 0.  0.
          5    1    1    2  502    0  0.36922104685E+02  0.24497557714E+01 -0.30480901036E+02  0.48122768475E+02  0.41800000000E+01 0.  1.
         -5    1    1    2    0  502 -0.40714361263E+02  0.14841331961E+03 -0.26455443414E+03  0.30608935570E+03  0.41800000000E+01 0.  1.
        -11    1    3    3    0    0  0.23997469431E+02 -0.55954642085E+02 -0.99050072926E+02  0.11626571918E+03  0.00000000000E+00 0.  1.
         11    1    3    3    0    0 -0.20205212853E+02 -0.94908433298E+02 -0.48656157880E+03  0.49614315606E+03  0.00000000000E+00 0. -1.
</event>
<event>
 7    1  0.6584658E-006  0.1140256E+03  0.7561462E-02  0.1253292E+00
         -1   -1    0    0    0  501 -0.00000000000E+00  0.00000000000E+00  0.34726946923E+03  0.34726946923E+03  0.00000000000E+00 0.  1.
          1   -1    0    0  501    0  0.00000000000E+00 -0.00000000000E+00 -0.45592515270E+02  0.45592515270E+02  0.00000000000E+00 0. -1.
         23    2    1    2    0    0 -0.48773478559E+02 -0.27541248661E+02  0.82723124800E+02  0.13454995903E+03  0.90128816206E+02 0.  0.
          5    1    1    2  502    0  0.22783105050E+02 -0.45345141489E+02  0.45305788025E+02  0.68156720585E+02  0.41800000000E+01 0.  1.
         -5    1    1    2    0  502  0.25990373509E+02  0.72886390150E+02  0.17364804113E+03  0.19015530488E+03  0.41800000000E+01 0.  1.
        -11    1    3    3    0    0 -0.13601044579E+02  0.29579563149E+02  0.50612429377E+02  0.60179373353E+02  0.00000000000E+00 0.  1.
         11    1    3    3    0    0 -0.35172433980E+02 -0.57120811810E+02  0.32110695423E+02  0.74370585680E+02  0.00000000000E+00 0. -1.
</event>
<event>
 7    1  0.6584658E-006  0.1158738E+03  0.7561462E-02  0.1250063E+00
         -1   -1    0    0    0  501 -0.00000000000E+00  0.00000000000E+00  0.72419133496E+02  0.72419133496E+02  0.00000000000E+00 0.  1.
          1   -1    0    0  501    0  0.00000000000E+00 -0.00000000000E+00 -0.30465110393E+03  0.30465110393E+03  0.00000000000E+00 0. -1.
         23    2    1    2    0    0 -0.84069166230E+02 -0.17565792405E+02 -0.17125184668E+03  0.21353541631E+03  0.94307991465E+02 0.  0.
          5    1    1    2  502    0  0.24246439513E+02 -0.39162070957E+02  0.17676254425E+02  0.49512422696E+02  0.41800000000E+01 0. -1.
         -5    1    1    2    0  502  0.59822726717E+02  0.56727863362E+02 -0.78656378185E+02  0.11402239843E+03  0.41800000000E+01 0. -1.
        -11    1    3    3    0    0 -0.24909077497E+02  0.20788574542E+02 -0.12517014107E+03  0.12930657828E+03  0.00000000000E+00 0. -1.
         11    1    3    3    0    0 -0.59160088732E+02 -0.38354366947E+02 -0.46081705612E+02  0.84228838024E+02  0.00000000000E+00 0.  1.
</event>
<event>
 7    1  0.6584658E-006  0.1378975E+03  0.7561462E-02  0.1216186E+00
          2   -1    0    0  501    0  0.00000000000E+00  0.00000000000E+00  0.33033367477E+03  0.33033367477E+03  0.00000000000E+00 0. -1.
         -2   -1    0    0    0  501 -0.00000000000E+00 -0.00000000000E+00 -0.72243808133E+02  0.72243808133E+02  0.00000000000E+00 0.  1.
         23    2    1    2    0    0  0.78917256721E+02  0.39544658748E+02  0.36329857021E+02  0.13310231942E+03  0.92761282228E+02 0.  0.
          5    1    1    2  502    0 -0.66796950385E+02  0.32987167109E+02  0.14512048125E+03  0.16317908031E+03  0.41800000000E+01 0.  1.
         -5    1    1    2    0  502 -0.12120306336E+02 -0.72531825857E+02  0.76639528363E+02  0.10629608316E+03  0.41800000000E+01 0.  1.
        -11    1    3    3    0    0 -0.18619492831E+02 -0.64245037973E+01  0.10081553411E+02  0.22126849788E+02  0.00000000000E+00 0. -1.
         11    1    3    3    0    0  0.97536749552E+02  0.45969162545E+02  0.26248303610E+02  0.11097546964E+03  0.00000000000E+00 0.  1.
</event>
<event>
 7    1  0.6584658E-006  0.1110317E+03  0.7561462E-02  0.1258671E+00
         -1   -1    0    0    0  501 -0.00000000000E+00  0.00000000000E+00  0.32619396596E+02  0.32619396596E+02  0.00000000000E+00 0.  1.
          1   -1    0    0  501    0  0.00000000000E+00 -0.00000000000E+00 -0.48028386801E+03  0.48028386801E+03  0.00000000000E+00 0. -1.
         23    2    1    2    0    0  0.43891257921E+02 -0.22177373324E+02 -0.22203196261E+03  0.25021007106E+03  0.10434849702E+03 0.  0.
          5    1    1    2  502    0 -0.56146435201E+02  0.59999678787E+02 -0.19708176458E+03  0.21356750214E+03  0.41800000000E+01 0.  1.
         -5    1    1    2    0  502  0.12255177280E+02 -0.37822305463E+02 -0.28550744233E+02  0.49125691414E+02  0.41800000000E+01 0.  1.
        -11    1    3    3    0    0  0.31734158512E+02  0.31533654618E+02 -0.39936392034E+02  0.59969522248E+02  0.00000000000E+00 0.  1.
         11    1    3    3    0    0  0.12157099409E+02 -0.53711027942E+02 -0.18209557057E+03  0.19024054881E+03  0.00000000000E+00 0. -1.
</event>
<event>
 7    1  0.6584658E-006  0.1364472E+03  0.7561462E-02  0.1218191E+00
         -2   -1    0    0    0  501 -0.00000000000E+00  0.00000000000E+00  0.38409698048E+02  0.38409698048E+02  0.00000000000E+00 0. -1.
          2   -1    0    0  501    0  0.00000000000E+00 -0.00000000000E+00 -0.75296573911E+03  0.75296573911E+03  0.00000000000E+00 0.  1.
         23    2    1    2    0    0  0.10545536363E+03  0.66778474161E+02 -0.42582141231E+03  0.45286880786E+03  0.90476978367E+02 0.  0.
          5    1    1    2  502    0 -0.16395893257E+02 -0.10028432572E+02  0.96856738824E+01  0.21924403164E+02  0.41800000000E+01 0. -1.
         -5    1    1    2    0  502 -0.89059470375E+02 -0.56750041589E+02 -0.29842030263E+03  0.31658222614E+03  0.41800000000E+01 0. -1.
        -11    1    3    3    0    0  0.46159686557E+02 -0.13169679441E+02 -0.82909541883E+02  0.95802657870E+02  0.00000000000E+00 0.  1.
         11    1    3    3    0    0  0.59295677075E+02  0.79948153602E+02 -0.34291187043E+03  0.35706614999E+03  0.00000000000E+00 0. -1.
</event>
<event>
 7    1  0.6584658E-006  0.1996540E+03  0.7561462E-02  0.1150031E+00
          2   -1    0    0  501    0  0.00000000000E+00  0.00000000000E+00  0.17317096191E+04  0.17317096191E+04  0.00000000000E+00 0. -1.
         -2   -1    0    0    0  501 -0.00000000000E+00 -0.00000000000E+00 -0.23753447242E+02  0.23753447242E+02  0.00000000000E+00 0.  1.
         23    2    1    2    0    0 -0.67990815938E+02  0.15360193311E+03  0.67646324415E+03  0.70292272950E+03  0.91002956315E+02 0.  0.
          5    1    1    2  502    0 -0.17366939266E+02 -0.11287952128E+03  0.52828645120E+03  0.54050665475E+03  0.41800000000E+01 0.  1.
         -5    1    1    2    0  502  0.85357755205E+02 -0.40722411835E+02  0.50320647648E+03  0.51203368207E+03  0.41800000000E+01 0.  1.
        -11    1    3    3    0    0  0.22060744291E+02  0.24724258171E+02  0.14196968302E+03  0.14578530886E+03  0.00000000000E+00 0.  1.
         11    1    3    3    0    0 -0.90051560230E+02  0.12887767494E+03  0.53449356113E+03  0.55713742065E+03  0.00000000000E+00 0. -1.
</event>
<event>
 7    1  0.6584658E-006  0.1494912E+03  0.7561462E-02  0.1201100E+00
          1   -1    0    0  501    0  0.00000000000E+00  0.00000000000E+00  0.11188657130E+04  0.11188657130E+04  0.00000000000E+00 0. -1.
         -1   -1    0    0    0  501 -0.00000000000E+00 -0.00000000000E+00 -0.20214429066E+02  0.20214429066E+02  0.00000000000E+00 0.  1.
         23    2    1    2    0    0 -0.92150389363E+02  0.44078625252E+02  0.56639446244E+03  0.58286140453E+03  0.92141794790E+02 0.  0.
          5    1    1    2  502    0 -0.23104002565E+02  0.18841306586E+02  0.96052987286E+02  0.10066001458E+03  0.41800000000E+01 0.  1.
         -5    1    1    2    0  502  0.11525439193E+03 -0.62919931839E+02  0.43620383421E+03  0.45555872295E+03  0.41800000000E+01 0.  1.
        -11    1    3    3    0    0 -0.10403390490E+03  0.13764096825E+02  0.42444186911E+03  0.43722237361E+03  0.00000000000E+00 0.  1.
         11    1    3    3    0    0  0.11883515538E+02  0.30314528427E+02  0.14195259333E+03  0.14563903093E+03  0.00000000000E+00 0. -1.
</event>
<event>
 7    1  0.6584658E-006  0.1178162E+03  0.7561462E-02  0.1246744E+00
          1   -1    0    0  501    0  0.00000000000E+00  0.00000000000E+00  0.40810523479E+02  0.40810523479E+02  0.00000000000E+00 0. -1.
         -1   -1    0    0    0  501 -0.00000000000E+00 -0.00000000000E+00 -0.42295639122E+03  0.42295639122E+03  0.00000000000E+00 0.  1.
         23    2    1    2    0    0 -0.48426186763E+02  0.53533908544E+02 -0.14650776945E+03  0.18739171496E+03  0.91870307486E+02 0.  0.
          5    1    1    2  502    0  0.43244320042E+02  0.19989780587E+02 -0.26687230046E+02  0.54766259607E+02  0.41800000000E+01 0.  1.
         -5    1    1    2    0  502  0.51818667214E+01 -0.73523689132E+02 -0.20895086824E+03  0.22160894013E+03  0.41800000000E+01 0.  1.
        -11    1    3    3    0    0 -0.28885546047E+02  0.77706083612E+02 -0.86500628682E+02  0.11981222376E+03  0.00000000000E+00 0.  1.
         11    1    3    3    0    0 -0.19540640716E+02 -0.24172175068E+02 -0.60007140765E+02  0.67579491193E+02  0.00000000000E+00 0. -1.
</event>
<event>
 7    1  0.6584658E-006  0.2665565E+03  0.7561462E-02  0.1103267E+00
         -3   -1    0    0    0  501 -0.00000000000E+00  0.00000000000E+00  0.13615676781E+03  0.13615676781E+03  0.00000000000E+00 0.  1.
          3   -1    0    0  501    0  0.00000000000E+00 -0.00000000000E+00 -0.58363647941E+03  0.58363647941E+03  0.00000000000E+00 0. -1.
         23    2    1    2    0    0  0.24000632405E+02 -0.97586299654E+01 -0.16674705566E+03  0.19256466567E+03  0.92764803010E+02 0.  0.
          5    1    1    2  502    0 -0.13564690088E+03 -0.17573530921E+03 -0.19079946469E+03  0.29275397307E+03  0.41800000000E+01 0. -1.
         -5    1    1    2    0  502  0.11164626847E+03  0.18549393917E+03 -0.89933191256E+02  0.23447460848E+03  0.41800000000E+01 0.  1.
        -11    1    3    3    0    0  0.27184887845E+01 -0.49435329967E+02 -0.10559418096E+03  0.11662492479E+03  0.00000000000E+00 0. -1.
         11    1    3    3    0    0  0.21282143620E+02  0.39676700001E+02 -0.61152874702E+02  0.75939740876E+02  0.00000000000E+00 0.  1.
</event>
<event>
 7    1  0.6584658E-006  0.1544126E+03  0.7561462E-02  0.1195153E+00
          2   -1    0    0  501    0  0.00000000000E+00  0.00000000000E+00  0.71835048122E+03  0.71835048122E+03  0.00000000000E+00 0. -1.
         -2   -1    0    0    0  501 -0.00000000000E+00 -0.00000000000E+00 -0.43360495326E+02  0.43360495326E+02  0.00000000000E+00 0.  1.
         23    2    1    2    0    0  0.52637243637E+02  0.12808113289E+03  0.35828998020E+03  0.39412180512E+03  0.88231691217E+02 0.  0.
          5    1    1    2  502    0 -0.21687524214E+01 -0.11876397944E+03  0.28051010641E+03  0.30465222549E+03  0.41800000000E+01 0. -1.
         -5    1    1    2    0  502 -0.50468491215E+02 -0.93171534514E+01  0.36189899286E+02  0.62936945940E+02  0.41800000000E+01 0. -1.
        -11    1    3    3    0    0  0.24492537935E+02  0.58853904395E+02  0.27469175940E+03  0.28199154093E+03  0.00000000000E+00 0. -1.
         11    1    3    3    0    0  0.28144705702E+02  0.69227228495E+02  0.83598220805E+02  0.11213026418E+03  0.00000000000E+00 0.  1.
</event>
<event>
 7    1  0.6584658E-006  0.9815889E+02  0.7561462E-02  0.1284216E+00
          1   -1    0    0  501    0  0.00000000000E+00  0.00000000000E+00  0.37733872198E+03  0.37733872198E+03  0.00000000000E+00 0. -1.
         -1   -1    0    0    0  501 -0.00000000000E+00 -0.00000000000E+00 -0.40817458146E+02  0.40817458146E+02  0.00000000000E+00 0.  1.
         23    2    1    2    0    0 -0.41426931211E+02  0.36566264858E+02  0.20024427442E+03  0.22509571498E+03  0.86700802245E+02 0.  0.
          5    1    1    2  502    0  0.46134544264E+01  0.41162929023E+02  0.80027834353E+02  0.90208632396E+02  0.41800000000E+01 0. -1.
         -5    1    1    2    0  502  0.36813476785E+02 -0.77729193881E+02  0.56249155061E+02  0.10285183275E+03  0.41800000000E+01 0. -1.
        -11    1    3    3    0    0 -0.41429151603E+01  0.30529706504E+02  0.11942121459E+02  0.33043017268E+02  0.00000000000E+00 0.  1.
         11    1    3    3    0    0 -0.37284016051E+02  0.60365583542E+01  0.18830215296E+03  0.19205269771E+03  0.00000000000E+00 0. -1.
</event>
<event>
 7    1  0.6584658E-006  0.3220359E+03  0.7561462E-02  0.1074716E+00
          2   -1    0    0  501    0  0.00000000000E+00  0.00000000000E+00  0.40393895253E+03  0.40393895253E+03  0.00000000000E+00 0. -1.
         -2   -1    0    0    0  501 -0.00000000000E+00 -0.00000000000E+00 -0.32409795852E+03  0.32409795852E+03  0.00000000000E+00 0.  1.
         23    2    1    2    0    0  0.98204145583E+02  0.17937505204E+03  0.14812001787E+03  0.26742099256E+03  0.88062387339E+02 0.  0.
          5    1    1    2  502    0  0.13907757590E+03 -0.10958309636E+03  0.53337132943E+02  0.18496850888E+03  0.41800000000E+01 0. -1.
         -5    1    1    2    0  502 -0.23728172149E+03 -0.69791955686E+02 -0.12161615681E+03  0.27564740961E+03  0.41800000000E+01 0.  1.
        -11    1    3    3    0    0  0.10564345695E+03  0.12051442961E+03  0.87476490505E+02  0.18258259537E+03  0.00000000000E+00 0.  1.
         11    1    3    3    0    0 -0.74393113694E+01  0.58860622431E+02  0.60643527362E+02  0.84838397189E+02  0.00000000000E+00 0. -1.
</event>
<event>
 7    1  0.6584658E-006  0.2049565E+03  0.7561462E-02  0.1145623E+00
          1   -1    0    0  501    0  0.00000000000E+00  0.00000000000E+00  0.45776989035E+03  0.45776989035E+03  0.00000000000E+00 0. -1.
         -1   -1    0    0    0  501 -0.00000000000E+00 -0.00000000000E+00 -0.12563681685E+03  0.12563681685E+03  0.00000000000E+00 0.  1.
         23    2    1    2    0    0  0.21787306326E+02  0.19841797102E+03  0.25567208207E+03  0.33573265566E+03  0.86624618842E+02 0.  0.
          5    1    1    2  502    0 -0.27346127114E+02 -0.48198799291E+02  0.79814980975E+02  0.97256560238E+02  0.41800000000E+01 0. -1.
         -5    1    1    2    0  502  0.55588207888E+01 -0.15021917173E+03 -0.33539895351E+01  0.15041749130E+03  0.41800000000E+01 0. -1.
        -11    1    3    3    0    0  0.69768378974E+01  0.18083754123E+03  0.25505592641E+03  0.31273697923E+03  0.00000000000E+00 0. -1.
         11    1    3    3    0    0  0.14810468428E+02  0.17580429790E+02  0.61615566096E+00  0.22995676430E+02  0.00000000000E+00 0.  1.
</event>
<event>
 7    1  0.6584658E-006  0.9851572E+02  0.7561462E-02  0.1283448E+00
          2   -1    0    0  501    0  0.00000000000E+00  0.00000000000E+00  0.31213486566E+02  0.31213486566E+02  0.00000000000E+00 0. -1.
         -2   -1    0    0    0  501 -0.00000000000E+00 -0.00000000000E+00 -0.40058588219E+03  0.40058588219E+03  0.00000000000E+00 0.  1.
         23    2    1    2    0    0 -0.34652474407E+02 -0.23684256630E+02 -0.13524522128E+03  0.16305266172E+03  0.80827981659E+02 0.  0.
          5    1    1    2  502    0  0.63906058894E+02 -0.11926423796E+02 -0.59962205228E+02  0.88539044515E+02  0.41800000000E+01 0.  1.
         -5    1    1    2    0  502 -0.29253584486E+02  0.35610680425E+02 -0.17416496912E+03  0.18020766252E+03  0.41800000000E+01 0.  1.
        -11    1    3    3    0    0 -0.58128207353E+02 -0.21725808094E+02 -0.11969728769E+03  0.13482707409E+03  0.00000000000E+00 0.  1.
         11    1    3    3    0    0  0.23475732946E+02 -0.19584485362E+01 -0.15547933595E+02  0.28225587630E+02  0.00000000000E+00 0. -1.
</event>
<event>
 7    1  0.6584658E-006  0.9680572E+02  0.7561462E-02  0.1287160E+00
          2   -1    0    0  501    0  0.00000000000E+00  0.00000000000E+00  0.17003495399E+03  0.17003495399E+03  0.00000000000E+00 0. -1.
         -2   -1    0    0    0  501 -0.00000000000E+00 -0.00000000000E+00 -0.14383086474E+03  0.14383086474E+03  0.00000000000E+00 0.  1.
         23    2    1    2    0    0  0.22921856650E+02 -0.85331566330E+02  0.81577852317E+02  0.15101628865E+03  0.91345967207E+02 0.  0.
          5    1    1    2  502    0 -0.37980184207E+02  0.34476279956E+02 -0.86908676294E+02  0.10100345879E+03  0.41800000000E+01 0. -1.
         -5    1    1    2    0  502  0.15058327556E+02  0.50855286374E+02  0.31534913232E+02  0.61846071286E+02  0.41800000000E+01 0. -1.
        -11    1    3    3    0    0  0.89974301569E+01 -0.52759536974E+02  0.98237305270E+02  0.11187086590E+03  0.00000000000E+00 0. -1.
         11    1    3    3    0    0  0.13924426494E+02 -0.32572029357E+02 -0.16659452953E+02  0.39145422750E+02  0.00000000000E+00 0.  1.
</event>
<event>
 7    1  0.6584658E-006  0.1244713E+03  0.7561462E-02  0.1235898E+00
          2   -1    0    0  501    0  0.00000000000E+00  0.00000000000E+00  0.95030016902E+02  0.95030016902E+02  0.00000000000E+00 0.  1.
         -2   -1    0    0    0  501 -0.00000000000E+00 -0.00000000000E+00 -0.17774596615E+03  0.17774596615E+03  0.00000000000E+00 0. -1.
         23    2    1    2    0    0 -0.40097978989E+02 -0.52467755012E+02 -0.10013502548E+02  0.11373605697E+03  0.92059259106E+02 0.  0.
          5    1    1    2  502    0  0.52106054222E+02 -0.24482653911E+02 -0.53531821388E+02  0.78724643729E+02  0.41800000000E+01 0.  1.
         -5    1    1    2    0  502 -0.12008075233E+02  0.76950408923E+02 -0.19170625312E+02  0.80315282351E+02  0.41800000000E+01 0.  1.
        -11    1    3    3    0    0 -0.65189374247E+02 -0.13023700785E+02 -0.39323333256E+01  0.66593802582E+02  0.00000000000E+00 0.  1.
         11    1    3    3    0    0  0.25091395258E+02 -0.39444054227E+02 -0.60811692220E+01  0.47142254390E+02  0.00000000000E+00 0. -1.
</event>
<event>
 7    1  0.6584658E-006  0.1490837E+03  0.7561462E-02  0.1201604E+00
          1   -1    0    0  501    0  0.00000000000E+00  0.00000000000E+00  0.34112563009E+03  0.34112563009E+03  0.00000000000E+00 0. -1.
         -1   -1    0    0    0  501 -0.00000000000E+00 -0.00000000000E+00 -0.83877754419E+02  0.83877754419E+02  0.00000000000E+00 0.  1.
         23    2    1    2    0    0 -0.90904851703E+02  0.84611667777E+02  0.16174429348E+03  0.22451458420E+03  0.93929524945E+02 0.  0.
          5    1    1    2  502    0  0.10497266329E+03 -0.61518641619E+02  0.11454136994E+03  0.16715561950E+03  0.41800000000E+01 0.  1.
         -5    1    1    2    0  502 -0.14067811586E+02 -0.23093026158E+02 -0.19037787753E+02  0.33333180803E+02  0.41800000000E+01 0.  1.
        -11    1    3    3    0    0 -0.32826793919E+02  0.84856124638E+02  0.12894901584E+03  0.15781637740E+03  0.00000000000E+00 0. -1.
         11    1    3    3    0    0 -0.58078057784E+02 -0.24445686128E+00  0.32795277638E+02  0.66698206801E+02  0.00000000000E+00 0.  1.
</event>
<event>
 7    1  0.6584658E-006  0.9614721E+02  0.7561462E-02  0.1288613E+00
         -1   -1    0    0    0  501 -0.00000000000E+00  0.00000000000E+00  0.20368143627E+02  0.20368143627E+02  0.00000000000E+00 0.  1.
          1   -1    0    0  501    0  0.00000000000E+00 -0.00000000000E+00 -0.70258978204E+03  0.70258978204E+03  0.00000000000E+00 0. -1.
         23    2    1    2    0    0  0.27963624563E+02 -0.41413599945E+02 -0.29643435243E+03  0.31433098912E+03  0.91834606025E+02 0.  0.
          5    1    1    2  502    0 -0.18597641488E+02 -0.19186885632E+02 -0.30941412696E+03  0.31059392011E+03  0.41800000000E+01 0.  1.
         -5    1    1    2    0  502 -0.93659830749E+01  0.60600485577E+02 -0.76373159023E+02  0.98033016429E+02  0.41800000000E+01 0.  1.
        -11    1    3    3    0    0 -0.33206966120E+02 -0.83024612983E+01 -0.11634361104E+03  0.12127435546E+03  0.00000000000E+00 0.  1.
         11    1    3    3    0    0  0.61170590683E+02 -0.33111138646E+02 -0.18009074139E+03  0.19305663367E+03  0.00000000000E+00 0. -1.
</event>
<event>
 7    1  0.6584658E-006  0.1006805E+03  0.7561462E-02  0.1278872E+00
          2   -1    0    0  501    0  0.00000000000E+00  0.00000000000E+00  0.30889465505E+03  0.30889465505E+03  0.00000000000E+00 0. -1.
         -2   -1    0    0    0  501 -0.00000000000E+00 -0.00000000000E+00 -0.53060184356E+02  0.53060184356E+02  0.00000000000E+00 0.  1.
         23    2    1    2    0    0 -0.66755475166E+02 -0.11630303574E+02  0.11884491083E+03  0.16445672121E+03  0.91270712145E+02 0.  0.
          5    1    1    2  502    0  0.70502020962E+02  0.52655927802E+02  0.12757150091E+03  0.15503271247E+03  0.41800000000E+01 0. -1.
         -5    1    1    2    0  502 -0.37465457959E+01 -0.41025624227E+02  0.94180589550E+01  0.42465405722E+02  0.41800000000E+01 0. -1.
        -11    1    3    3    0    0 -0.22121961491E+02 -0.15569264094E+02 -0.93776098608E+01  0.28630800397E+02  0.00000000000E+00 0.  1.
         11    1    3    3    0    0 -0.44633513675E+02  0.39389605197E+01  0.12822252069E+03  0.13582592081E+03  0.00000000000E+00 0. -1.
</event>
<event>
 7    1  0.6584658E-006  0.1064168E+03  0.7561462E-02  0.1267353E+00
         -2   -1    0    0    0  501 -0.00000000000E+00  0.00000000000E+00  0.22792479133E+02  0.22792479133E+02  0.00000000000E+00 0.  1.
          2   -1    0    0  501    0  0.00000000000E+00 -0.00000000000E+00 -0.59874901736E+03  0.59874901736E+03  0.00000000000E+00 0. -1.
         23    2    1    2    0    0 -0.39124908883E+02  0.19708188430E+02 -0.25085817753E+03  0.27046371421E+03  0.91113249763E+02 0.  0.
          5    1    1    2  502    0 -0.42153366268E+02 -0.16515760857E+02 -0.16898911692E+03  0.17499848765E+03  0.41800000000E+01 0.  1.
         -5    1    1    2    0  502  0.81278275151E+02 -0.31924275736E+01 -0.15610924378E+03  0.17607929463E+03  0.41800000000E+01 0.  1.
        -11    1    3    3    0    0 -0.44751892369E+02 -0.17674423089E+02 -0.65405969769E+02  0.81197647648E+02  0.00000000000E+00 0.  1.
         11    1    3    3    0    0  0.56269834857E+01  0.37382611519E+02 -0.18545220776E+03  0.18926606656E+03  0.00000000000E+00 0. -1.
</event>
<event>
 7    1  0.6584658E-006  0.1589992E+03  0.7561462E-02  0.1189831E+00
         -2   -1    0    0    0  501 -0.00000000000E+00  0.00000000000E+00  0.34207534858E+03  0.34207534858E+03  0.00000000000E+00 0.  1.
          2   -1    0    0  501    0  0.00000000000E+00 -0.00000000000E+00 -0.11335317717E+03  0.11335317717E+03  0.00000000000E+00 0. -1.
         23    2    1    2    0    0  0.68967819309E+01  0.75234197434E+02 -0.50971992433E+00  0.11510687471E+03  0.86842286510E+02 0.  0.
          5    1    1    2  502    0 -0.22062304298E+01 -0.13980650180E+03  0.48105691867E+02  0.14792685824E+03  0.41800000000E+01 0. -1.
         -5    1    1    2    0  502 -0.46905515011E+01  0.64572304364E+02  0.18112619946E+03  0.19239479280E+03  0.41800000000E+01 0.  1.
        -11    1    3    3    0    0  0.45665897963E+02  0.44486839885E+02 -0.10540810958E+02  0.64618587537E+02  0.00000000000E+00 0. -1.
         11    1    3    3    0    0 -0.38769116032E+02  0.30747357550E+02  0.10031091034E+02  0.50488287172E+02  0.00000000000E+00 0.  1.
</event>
<event>
 7    1  0.6584658E-006  0.1126949E+03  0.7561462E-02  0.1255659E+00
         -1   -1    0    0    0  501 -0.00000000000E+00  0.00000000000E+00  0.41293783721E+02  0.41293783721E+02  0.00000000000E+00 0.  1.
          1   -1    0    0  501    0  0.00000000000E+00 -0.00000000000E+00 -0.41798316765E+03  0.41798316765E+03  0.00000000000E+00 0. -1.
         23    2    1    2    0    0  0.25294150899E+02 -0.37302907191E+02 -0.27102189901E+03  0.28944069149E+03  0.91059009397E+02 0.  0.
          5    1    1    2  502    0  0.23989024638E+02  0.66902919451E+02 -0.78929416787E+02  0.10629580974E+03  0.41800000000E+01 0.  1.
         -5    1    1    2    0  502 -0.49283175538E+02 -0.29600012261E+02 -0.26738068137E+02  0.63540450145E+02  0.41800000000E+01 0.  1.
        -11    1    3    3    0    0 -0.30390026540E+02 -0.25407789995E+02 -0.69150417087E+02  0.79692469462E+02  0.00000000000E+00 0.  1.
         11    1    3    3    0    0  0.55684177439E+02 -0.11895117196E+02 -0.20187148192E+03  0.20974822203E+03  0.00000000000E+00 0. -1.
</event>
<event>
 7    1  0.6584658E-006  0.1258372E+03  0.7561462E-02  0.1233767E+00
         -2   -1    0    0    0  501 -0.00000000000E+00  0.00000000000E+00  0.38393207417E+03  0.38393207417E+03  0.00000000000E+00 0.  1.
          2   -1    0    0  501    0  0.00000000000E+00 -0.00000000000E+00 -0.54173828681E+02  0.54173828681E+02  0.00000000000E+00 0. -1.
         23    2    1    2    0    0 -0.31627028521E+02 -0.88060907537E+02  0.12585238702E+03  0.18124019142E+03  0.90852580036E+02 0.  0.
          5    1    1    2  502    0  0.42467208566E+02  0.11879271010E+02  0.62694329553E+01  0.44736551864E+02  0.41800000000E+01 0.  1.
         -5    1    1    2    0  502 -0.10840180044E+02  0.76181636527E+02  0.19763642551E+03  0.21212915956E+03  0.41800000000E+01 0.  1.
        -11    1    3    3    0    0 -0.72850314283E+01 -0.10200436574E+03  0.95752069742E+02  0.14009432955E+03  0.00000000000E+00 0.  1.
         11    1    3    3    0    0 -0.24341997093E+02  0.13943458200E+02  0.30100317280E+02  0.41145861874E+02  0.00000000000E+00 0. -1.
</event>
<event>
 7    1  0.6584658E-006  0.1274762E+03  0.7561462E-02  0.1231249E+00
         -2   -1    0    0    0  501 -0.00000000000E+00  0.00000000000E+00  0.49841906015E+02  0.49841906015E+02  0.00000000000E+00 0.  1.
          2   -1    0    0  501    0  0.00000000000E+00 -0.00000000000E+00 -0.33063456591E+03  0.33063456591E+03  0.00000000000E+00 0. -1.
         23    2    1    2    0    0 -0.41731991603E+02 -0.54198041667E+02 -0.12874663152E+03  0.17204484668E+03  0.91349588387E+02 0.  0.
          5    1    1    2  502    0  0.40167718960E+02  0.93393431809E+02 -0.12188421429E+03  0.15877346392E+03  0.41800000000E+01 0. -1.
         -5    1    1    2    0  502  0.15642726429E+01 -0.39195390143E+02 -0.30161814092E+02  0.49658161329E+02  0.41800000000E+01 0. -1.
        -11    1    3    3    0    0 -0.68766266729E+02 -0.52771125088E+02 -0.10378052477E+03  0.13521829908E+03  0.00000000000E+00 0.  1.
         11    1    3    3    0    0  0.27034275125E+02 -0.14269165789E+01 -0.24966106742E+02  0.36826547603E+02  0.00000000000E+00 0. -1.
</event>
<event>
 7    1  0.6584658E-006  0.7998866E+02  0.7561462E-02  0.1329084E+00
          1   -1    0    0  501    0  0.00000000000E+00  0.00000000000E+00  0.17976196977E+03  0.17976196977E+03  0.00000000000E+00 0. -1.
         -1   -1    0    0    0  501 -0.00000000000E+00 -0.00000000000E+00 -0.99669465079E+02  0.99669465079E+02  0.00000000000E+00 0.  1.
         23    2    1    2    0    0 -0.82976549465E+01  0.21828431953E+02  0.11166018616E+03  0.14832619406E+03  0.94801535598E+02 0.  0.
          5    1    1    2  502    0  0.50733335566E+01  0.32707189600E+02  0.32657136984E+02  0.46684686579E+02  0.41800000000E+01 0.  1.
         -5    1    1    2    0  502  0.32243213899E+01 -0.54535621554E+02 -0.64224818458E+02  0.84420554207E+02  0.41800000000E+01 0.  1.
        -11    1    3    3    0    0 -0.37744203374E+02  0.54647862945E+01  0.10788497473E+03  0.11442751658E+03  0.00000000000E+00 0. -1.
         11    1    3    3    0    0  0.29446548428E+02  0.16363645659E+02  0.37752114284E+01  0.33898677480E+02  0.00000000000E+00 0.  1.
</event>
<event>
 7    1  0.6584658E-006  0.1324614E+03  0.7561462E-02  0.1223848E+00
         -4   -1    0    0    0  501 -0.00000000000E+00  0.00000000000E+00  0.10681924214E+04  0.10681924214E+04  0.00000000000E+00 0.  1.
          4   -1    0    0  501    0  0.00000000000E+00 -0.00000000000E+00 -0.21112675125E+02  0.21112675125E+02  0.00000000000E+00 0. -1.
         23    2    1    2    0    0  0.51084837604E+02  0.66604724997E+02  0.26446767723E+03  0.29232575435E+03  0.92007305865E+02 0.  0.
          5    1    1    2  502    0  0.55019678510E+01 -0.85127803887E+02  0.35004870727E+03  0.36031733861E+03  0.41800000000E+01 0. -1.
         -5    1    1    2    0  502 -0.56586805455E+02  0.18523078890E+02  0.43256336174E+03  0.43666200353E+03  0.41800000000E+01 0. -1.
        -11    1    3    3    0    0  0.27876199919E+02 -0.17275601338E+02  0.40961831403E+02  0.52472855415E+02  0.00000000000E+00 0. -1.
         11    1    3    3    0    0  0.23208637685E+02  0.83880326334E+02  0.22350584583E+03  0.23985289894E+03  0.00000000000E+00 0.  1.
</event>
<event>
 7    1  0.6584658E-006  0.1044619E+03  0.7561462E-02  0.1271183E+00
          2   -1    0    0  501    0  0.00000000000E+00  0.00000000000E+00  0.18792576425E+03  0.18792576425E+03  0.00000000000E+00 0.  1.
         -2   -1    0    0    0  501 -0.00000000000E+00 -0.00000000000E+00 -0.66572760329E+02  0.66572760329E+02  0.00000000000E+00 0. -1.
         23    2    1    2    0    0  0.17465685405E+02  0.30935482007E+02  0.53046702282E+02  0.10761128112E+03  0.86626675954E+02 0.  0.
          5    1    1    2  502    0 -0.35921367002E+02  0.34866215566E+02  0.59476046774E+02  0.77851590446E+02  0.41800000000E+01 0.  1.
         -5    1    1    2    0  502  0.18455681597E+02 -0.65801697573E+02  0.88302548664E+01  0.69035653018E+02  0.41800000000E+01 0.  1.
        -11    1    3    3    0    0  0.20965761882E+02  0.58650884823E+02  0.49279958321E+02  0.79422942239E+02  0.00000000000E+00 0.  1.
         11    1    3    3    0    0 -0.35000764766E+01 -0.27715402816E+02  0.37667439612E+01  0.28188338877E+02  0.00000000000E+00 0. -1.
</event>
<event>
 7    1  0.6584658E-006  0.1078358E+03  0.7561462E-02  0.1264631E+00
         -1   -1    0    0    0  501 -0.00000000000E+00  0.00000000000E+00  0.30677015618E+03  0.30677015618E+03  0.00000000000E+00 0.  1.
          1   -1    0    0  501    0  0.00000000000E+00 -0.00000000000E+00 -0.49283947348E+02  0.49283947348E+02  0.00000000000E+00 0. -1.
         23    2    1    2    0    0  0.22660168305E+02  0.46773154034E+02  0.80128325606E+02  0.13288605216E+03  0.92395579597E+02 0.  0.
          5    1    1    2  502    0  0.38477738673E+02 -0.30649030487E+01  0.12650531095E+03  0.13232912039E+03  0.41800000000E+01 0.  1.
         -5    1    1    2    0  502 -0.61137906978E+02 -0.43708250985E+02  0.50852572274E+02  0.90838930975E+02  0.41800000000E+01 0.  1.
        -11    1    3    3    0    0  0.34979933591E+02  0.68320444760E+02  0.42291738528E+02  0.87634867912E+02  0.00000000000E+00 0.  1.
         11    1    3    3    0    0 -0.12319765286E+02 -0.21547290727E+02  0.37836587079E+02  0.45251184251E+02  0.00000000000E+00 0. -1.
</event>
<event>
 7    1  0.6584658E-006  0.1534748E+03  0.7561462E-02  0.1196267E+00
         -2   -1    0    0    0  501 -0.00000000000E+00  0.00000000000E+00  0.28138738290E+03  0.28138738290E+03  0.00000000000E+00 0.  1.
          2   -1    0    0  501    0  0.00000000000E+00 -0.00000000000E+00 -0.91170106667E+02  0.91170106667E+02  0.00000000000E+00 0. -1.
         23    2    1    2    0    0 -0.35877614142E+02 -0.10851451882E+03  0.54012297416E+02  0.15516163992E+03  0.89973341832E+02 0.  0.
          5    1    1    2  502    0  0.35837458974E+02 -0.19704397571E+02  0.35107129348E+02  0.54060796150E+02  0.41800000000E+01 0. -1.
         -5    1    1    2    0  502  0.40155167976E-01  0.12821891639E+03  0.10109784947E+03  0.16333505350E+03  0.41800000000E+01 0. -1.
        -11    1    3    3    0    0  0.23758460038E+02 -0.41707407062E+02  0.43886599031E+02  0.65038494768E+02  0.00000000000E+00 0.  1.
         11    1    3    3    0    0 -0.59636074179E+02 -0.66807111757E+02  0.10125698385E+02  0.90123145155E+02  0.00000000000E+00 0. -1.
</event>
<event>
 7    1  0.6584658E-006  0.1191509E+03  0.7561462E-02  0.1244504E+00
         -1   -1    0    0    0  501 -0.00000000000E+00  0.00000000000E+00  0.50343237402E+02  0.50343237402E+02  0.00000000000E+00 0.  1.
          1   -1    0    0  501    0  0.00000000000E+00 -0.00000000000E+00 -0.33665020639E+03  0.33665020639E+03  0.00000000000E+00 0. -1.
         23    2    1    2    0    0 -0.54007715145E+02  0.49831676608E+02 -0.11289731607E+03  0.16089955629E+03  0.87993374463E+02 0.  0.
          5    1    1    2  502    0 -0.39537281977E+02 -0.22894569358E+02 -0.72691497870E+02  0.85958619316E+02  0.41800000000E+01 0.  1.
         -5    1    1    2    0  502  0.93544997122E+02 -0.26937107250E+02 -0.10071815506E+03  0.14013526819E+03  0.41800000000E+01 0.  1.
        -11    1    3    3    0    0 -0.60145784659E+02  0.18306025759E+02 -0.11238824625E+03  0.12877788586E+03  0.00000000000E+00 0.  1.
         11    1    3    3    0    0  0.61380695133E+01  0.31525650849E+02 -0.50906981386E+00  0.32121670425E+02  0.00000000000E+00 0. -1.
</event>
<event>
 6    1  0.1040186E-005  0.5709316E+02  0.7561462E-02  0.1410452E+00
         -2   -1    0    0    0  501 -0.00000000000E+00  0.00000000000E+00  0.59456797977E+03  0.59456797977E+03  0.00000000000E+00 0.  1.
          2   -1    0    0  501    0  0.00000000000E+00 -0.00000000000E+00 -0.54723422963E+02  0.54723422963E+02  0.00000000000E+00 0. -1.
          5    1    1    2  502    0 -0.19317985028E+02  0.36385209652E+02  0.43713239962E+02  0.60211193104E+02  0.41800000000E+01 0. -1.
         -5    1    1    2    0  502  0.37458811204E+02 -0.20035233482E+02  0.53666162734E+03  0.53835652478E+03  0.41800000000E+01 0.  1.
        -11    1    1    2    0    0 -0.17449340341E+01 -0.13303410413E+02 -0.14032235364E+02  0.19414663343E+02  0.00000000000E+00 0. -1.
         11    1    1    2    0    0 -0.16395892142E+02 -0.30465657569E+01 -0.26498075128E+02  0.31309021504E+02  0.00000000000E+00 0.  1.
</event>
<event>
 7    1  0.6584658E-006  0.1186677E+03  0.7561462E-02  0.1245311E+00
         -1   -1    0    0    0  501 -0.00000000000E+00  0.00000000000E+00  0.79963798317E+02  0.79963798317E+02  0.00000000000E+00 0.  1.
          1   -1    0    0  501    0  0.00000000000E+00 -0.00000000000E+00 -0.18249993837E+03  0.18249993837E+03  0.00000000000E+00 0. -1.
         23    2    1    2    0    0 -0.27403661310E+02  0.50595742058E+02 -0.35897701008E+02  0.10949260493E+03  0.85959850103E+02 0.  0.
          5    1    1    2  502    0 -0.40970345086E+02 -0.55249829828E+02 -0.30135929235E+02  0.75211431999E+02  0.41800000000E+01 0.  1.
         -5    1    1    2    0  502  0.68374006396E+02  0.46540877702E+01 -0.36502509812E+02  0.77759699756E+02  0.41800000000E+01 0.  1.
        -11    1    3    3    0    0 -0.96976420638E+01  0.71623178810E+02 -0.12407452137E+02  0.73333954434E+02  0.00000000000E+00 0.  1.
         11    1    3    3    0    0 -0.17706019247E+02 -0.21027436752E+02 -0.23490248871E+02  0.36158650499E+02  0.00000000000E+00 0. -1.
</event>
<event>
 7    1  0.6584658E-006  0.1062231E+03  0.7561462E-02  0.1267728E+00
         -3   -1    0    0    0  501 -0.00000000000E+00  0.00000000000E+00  0.36168364832E+02  0.36168364832E+02  0.00000000000E+00 0.  1.
          3   -1    0    0  501    0  0.00000000000E+00 -0.00000000000E+00 -0.61982443839E+03  0.61982443839E+03  0.00000000000E+00 0. -1.
         23    2    1    2    0    0  0.75243932312E+02  0.43527108903E+02 -0.38536500805E+03  0.40594791751E+03  0.93441231521E+02 0.  0.
          5    1    1    2  502    0 -0.28885322090E+02 -0.36917925877E+01  0.11427846771E+02  0.31560406312E+02  0.41800000000E+01 0.  1.
         -5    1    1    2    0  502 -0.46358610222E+02 -0.39835316316E+02 -0.20971891229E+03  0.21848447940E+03  0.41800000000E+01 0.  1.
        -11    1    3    3    0    0  0.78285113107E+02  0.15687954397E+00 -0.30131934554E+03  0.31132287346E+03  0.00000000000E+00 0.  1.
         11    1    3    3    0    0 -0.30411807949E+01  0.43370229359E+02 -0.84045662508E+02  0.94625044052E+02  0.00000000000E+00 0. -1.
</event>
<event>
 7    1  0.6584658E-006  0.1103647E+03  0.7561462E-02  0.1259896E+00
          3   -1    0    0  501    0  0.00000000000E+00  0.00000000000E+00  0.20679191389E+03  0.20679191389E+03  0.00000000000E+00 0. -1.
         -3   -1    0    0    0  501 -0.00000000000E+00 -0.00000000000E+00 -0.62731680236E+02  0.62731680236E+02  0.00000000000E+00 0.  1.
         23    2    1    2    0    0 -0.28015278873E+02 -0.21151810740E+02  0.70124509346E+02  0.12003664812E+03  0.90879563884E+02 0.  0.
          5    1    1    2  502    0 -0.11189384758E+01  0.70876981795E+02  0.30910409566E+02  0.77444976539E+02  0.41800000000E+01 0.  1.
         -5    1    1    2    0  502  0.29134217348E+02 -0.49725171054E+02  0.43025314742E+02  0.72041969473E+02  0.41800000000E+01 0.  1.
        -11    1    3    3    0    0 -0.55127404241E+02 -0.30814277303E+02  0.28156762092E+02  0.69147332816E+02  0.00000000000E+00 0.  1.
         11    1    3    3    0    0  0.27112125368E+02  0.96624665622E+01  0.41967747254E+02  0.50889315300E+02  0.00000000000E+00 0. -1.
</event>
<event>
 7    1  0.6584658E-006  0.1053848E+03  0.7561462E-02  0.1269363E+00
         -2   -1    0    0    0  501 -0.00000000000E+00  0.00000000000E+00  0.11214713983E+03  0.11214713983E+03  0.00000000000E+00 0.  1.
          2   -1    0    0  501    0  0.00000000000E+00 -0.00000000000E+00 -0.12619531093E+03  0.12619531093E+03  0.00000000000E+00 0. -1.
         23    2    1    2    0    0  0.17513208319E+02 -0.14797279086E+02 -0.47537936079E+02  0.10683154622E+03  0.92884078117E+02 0.  0.
          5    1    1    2  502    0  0.39915062022E+02 -0.26083123990E+02  0.37463633067E+02  0.60782709185E+02  0.41800000000E+01 0. -1.
         -5    1    1    2    0  502 -0.57428270340E+02  0.40880403076E+02 -0.39738680878E+01  0.70728195351E+02  0.41800000000E+01 0. -1.
        -11    1    3    3    0    0 -0.32596896265E+02 -0.25087138861E+02 -0.73649013216E+01  0.41787126652E+02  0.00000000000E+00 0.  1.
         11    1    3    3    0    0  0.50110104584E+02  0.10289859775E+02 -0.40173034757E+02  0.65044419570E+02  0.00000000000E+00 0. -1.
</event>
<event>
 7    1  0.8973104E-006  0.1833655E+03  0.7561462E-02  0.1164585E+00
         -1   -1    0    0    0  501 -0.00000000000E+00  0.00000000000E+00  0.12210241250E+04  0.12210241250E+04  0.00000000000E+00 0.  1.
          1   -1    0    0  501    0  0.00000000000E+00 -0.00000000000E+00 -0.34557575997E+02  0.34557575997E+02  0.00000000000E+00 0. -1.
         23    2    1    2    0    0  0.95411117301E+02 -0.14286884168E+03  0.50358957582E+03  0.54040088039E+03  0.94423849843E+02 0.  0.
          5    1    1    2  502    0 -0.35844658383E+02  0.18876712601E+02  0.38385430551E+03  0.38600876942E+03  0.41800000000E+01 0.  1.
         -5    1    1    2    0  502 -0.59566458919E+02  0.12399212908E+03  0.29902266768E+03  0.32917205119E+03  0.41800000000E+01 0.  1.
        -11    1    3    3    0    0  0.13278587632E+02 -0.89397587160E+02  0.31709086968E+03  0.32971937935E+03  0.00000000000E+00 0.  1.
         11    1    3    3    0    0  0.82132529669E+02 -0.53471254518E+02  0.18649870614E+03  0.21068150104E+03  0.00000000000E+00 0. -1.
</event>
<event>
 7    1  0.6584658E-006  0.1084552E+03  0.7561462E-02  0.1263458E+00
         -2   -1    0    0    0  501 -0.00000000000E+00  0.00000000000E+00  0.23950199787E+02  0.23950199787E+02  0.00000000000E+00 0.  1.
          2   -1    0    0  501    0  0.00000000000E+00 -0.00000000000E+00 -0.86864795327E+03  0.86864795327E+03  0.00000000000E+00 0. -1.
         23    2    1    2    0    0  0.24388920033E+02 -0.84782007194E+02 -0.49267442973E+03  0.50873678449E+03  0.91116485992E+02 0.  0.
          5    1    1    2  502    0 -0.30167209477E+02  0.65908498013E+02 -0.35597348079E+03  0.36330232874E+03  0.41800000000E+01 0. -1.
         -5    1    1    2    0  502  0.57782894435E+01  0.18873509181E+02  0.39501570488E+01  0.20559039822E+02  0.41800000000E+01 0. -1.
        -11    1    3    3    0    0  0.44062644575E+02 -0.78935630037E+01 -0.13035960239E+03  0.13783124072E+03  0.00000000000E+00 0.  1.
         11    1    3    3    0    0 -0.19673724541E+02 -0.76888444190E+02 -0.36231482734E+03  0.37090554377E+03  0.00000000000E+00 0. -1.
</event>
<event>
 7    1  0.6584658E-006  0.1216343E+03  0.7561462E-02  0.1240425E+00
         -2   -1    0    0    0  501 -0.00000000000E+00  0.00000000000E+00  0.30752178719E+02  0.30752178719E+02  0.00000000000E+00 0.  1.
          2   -1    0    0  501    0  0.00000000000E+00 -0.00000000000E+00 -0.60525414492E+03  0.60525414492E+03  0.00000000000E+00 0. -1.
         23    2    1    2    0    0 -0.47437855925E+02  0.62013136469E+02 -0.32973787365E+03  0.35025678161E+03  0.88638414227E+02 0.  0.
          5    1    1    2  502    0 -0.27512706373E+02 -0.37834791613E+02 -0.27068099797E+02  0.54208623806E+02  0.41800000000E+01 0.  1.
         -5    1    1    2    0  502  0.74950562298E+02 -0.24178344856E+02 -0.21769599275E+03  0.23154091822E+03  0.41800000000E+01 0.  1.
        -11    1    3    3    0    0 -0.37291606402E+02 -0.14678962861E+02 -0.13099902587E+03  0.13699226489E+03  0.00000000000E+00 0.  1.
         11    1    3    3    0    0 -0.10146249524E+02  0.76692099330E+02 -0.19873884777E+03  0.21326451672E+03  0.00000000000E+00 0. -1.
</event>
<event>
 7    1  0.6584658E-006  0.2264138E+03  0.7561462E-02  0.1129190E+00
         -2   -1    0    0    0  501 -0.00000000000E+00  0.00000000000E+00  0.48210656686E+02  0.48210656686E+02  0.00000000000E+00 0.  1.
          2   -1    0    0  501    0  0.00000000000E+00 -0.00000000000E+00 -0.14126182550E+04  0.14126182550E+04  0.00000000000E+00 0. -1.
         23    2    1    2    0    0 -0.16605874735E+03  0.14366982455E+03 -0.91223123130E+03  0.94282618248E+03  0.92405978920E+02 0.  0.
          5    1    1    2  502    0  0.40240050167E+01 -0.40872343659E+02 -0.18178369151E+03  0.18641224206E+03  0.41800000000E+01 0.  1.
         -5    1    1    2    0  502  0.16203474233E+03 -0.10279748089E+03 -0.27039267549E+03  0.33159048714E+03  0.41800000000E+01 0.  1.
        -11    1    3    3    0    0 -0.51692601911E+02  0.42695506224E+02 -0.13463306713E+03  0.15040310538E+03  0.00000000000E+00 0.  1.
         11    1    3    3    0    0 -0.11436614544E+03  0.10097431833E+03 -0.77759816417E+03  0.79242307709E+03  0.00000000000E+00 0. -1.
</event>
<event>
 7    1  0.6584658E-006  0.9344802E+02  0.7561462E-02  0.1294710E+00
          1   -1    0    0  501    0  0.00000000000E+00  0.00000000000E+00  0.36347021506E+02  0.36347021506E+02  0.00000000000E+00 0. -1.
         -1   -1    0    0    0  501 -0.00000000000E+00 -0.00000000000E+00 -0.51440730883E+03  0.51440730883E+03  0.00000000000E+00 0.  1.
         23    2    1    2    0    0 -0.32845110032E+02 -0.23366721173E+02 -0.69365398076E+02  0.12144941282E+03  0.91178925810E+02 0.  0.
          5    1    1    2  502    0  0.79487445598E+02  0.26832777195E+02 -0.24444463502E+03  0.25847418426E+03  0.41800000000E+01 0. -1.
         -5    1    1    2    0  502 -0.46642335566E+02 -0.34660560223E+01 -0.16425025423E+03  0.17083073326E+03  0.41800000000E+01 0. -1.
        -11    1    3    3    0    0 -0.38691031854E+02 -0.80139991854E+01 -0.88086433285E+02  0.96542425170E+02  0.00000000000E+00 0.  1.
         11    1    3    3    0    0  0.58459218217E+01 -0.15352721988E+02  0.18721035208E+02  0.24906987647E+02  0.00000000000E+00 0. -1.
</event>
<event>
 7    1  0.6584658E-006  0.1213976E+03  0.7561462E-02  0.1240809E+00
          1   -1    0    0  501    0  0.00000000000E+00  0.00000000000E+00  0.49451940203E+03  0.49451940203E+03  0.00000000000E+00 0. -1.
         -1   -1    0    0    0  501 -0.00000000000E+00 -0.00000000000E+00 -0.33975067652E+02  0.33975067652E+02  0.00000000000E+00 0.  1.
         23    2    1    2    0    0 -0.54784369944E+02  0.32658463185E+02  0.26665515036E+03  0.28911809469E+03  0.91740945374E+02 0.  0.
          5    1    1    2  502    0 -0.25879460653E+02 -0.49788825735E+02  0.96395391456E+02  0.11161638565E+03  0.41800000000E+01 0.  1.
         -5    1    1    2    0  502  0.80663830597E+02  0.17130362550E+02  0.97493792570E+02  0.12775998934E+03  0.41800000000E+01 0.  1.
        -11    1    3    3    0    0 -0.75868020889E+02  0.17142515439E+02  0.23761220545E+03  0.25001876451E+03  0.00000000000E+00 0.  1.
         11    1    3    3    0    0  0.21083650945E+02  0.15515947746E+02  0.29042944909E+02  0.39099330181E+02  0.00000000000E+00 0. -1.
</event>
<event>
 7    1  0.6584658E-006  0.1184036E+03  0.7561462E-02  0.1245754E+00
          1   -1    0    0  501    0  0.00000000000E+00  0.00000000000E+00  0.12425564236E+03  0.12425564236E+03  0.00000000000E+00 0. -1.
         -1   -1    0    0    0  501 -0.00000000000E+00 -0.00000000000E+00 -0.12904325023E+03  0.12904325023E+03  0.00000000000E+00 0.  1.
         23    2    1    2    0    0 -0.32821868184E+02  0.56739225122E+02 -0.97469145663E+01  0.11198982491E+03  0.90277925546E+02 0.  0.
          5    1    1    2  502    0  0.60632091934E+02  0.16268540441E+02  0.44121153536E+01  0.63070239751E+02  0.41800000000E+01 0. -1.
         -5    1    1    2    0  502 -0.27810223750E+02 -0.73007765562E+02  0.54719133769E+00  0.78238827930E+02  0.41800000000E+01 0. -1.
        -11    1    3    3    0    0 -0.54873963966E+02  0.42460182096E+02  0.20092032139E+02  0.72233709170E+02  0.00000000000E+00 0. -1.
         11    1    3    3    0    0  0.22052095782E+02  0.14279043026E+02 -0.29838946706E+02  0.39756115738E+02  0.00000000000E+00 0.  1.
</event>
<event>
 7    1  0.6584658E-006  0.1154558E+03  0.7561462E-02  0.1250788E+00
         -2   -1    0    0    0  501 -0.00000000000E+00  0.00000000000E+00  0.17655222707E+02  0.17655222707E+02  0.00000000000E+00 0.  1.
          2   -1    0    0  501    0  0.00000000000E+00 -0.00000000000E+00 -0.76095443050E+03  0.76095443050E+03  0.00000000000E+00 0. -1.
         23    2    1    2    0    0  0.30166204670E+02  0.23709077422E+02 -0.34213450022E+03  0.35664710642E+03  0.93107583053E+02 0.  0.
          5    1    1    2  502    0 -0.51823281241E+02 -0.65465063259E+02 -0.25297478149E+03  0.26643017745E+03  0.41800000000E+01 0. -1.
         -5    1    1    2    0  502  0.21657076571E+02  0.41755985836E+02 -0.14818992608E+03  0.15553236933E+03  0.41800000000E+01 0. -1.
        -11    1    3    3    0    0  0.52184287839E+02  0.45408869243E+02 -0.25385769277E+03  0.26311384129E+03  0.00000000000E+00 0. -1.
         11    1    3    3    0    0 -0.22018083169E+02 -0.21699791821E+02 -0.88276807449E+02  0.93533265124E+02  0.00000000000E+00 0.  1.
</event>
<event>
 7    1  0.6584658E-006  0.2284551E+03  0.7561462E-02  0.1127732E+00
         -2   -1    0    0    0  501 -0.00000000000E+00  0.00000000000E+00  0.95534675150E+02  0.95534675150E+02  0.00000000000E+00 0.  1.
          2   -1    0    0  501    0  0.00000000000E+00 -0.00000000000E+00 -0.58595664264E+03  0.58595664264E+03  0.00000000000E+00 0. -1.
         23    2    1    2    0    0  0.12445649431E+03 -0.16522284910E+03 -0.18221902756E+03  0.28979717244E+03  0.89390258431E+02 0.  0.
          5    1    1    2  502    0 -0.88382232087E+02  0.18443827187E+02 -0.12194112804E+03  0.15178506125E+03  0.41800000000E+01 0. -1.
         -5    1    1    2    0  502 -0.36074262227E+02  0.14677902192E+03 -0.18626181188E+03  0.23990908410E+03  0.41800000000E+01 0. -1.
        -11    1    3    3    0    0  0.58263531593E+02 -0.31786909367E+02 -0.19452134686E+02  0.69162361619E+02  0.00000000000E+00 0.  1.
         11    1    3    3    0    0  0.66192962721E+02 -0.13343593974E+03 -0.16276689288E+03  0.22063481082E+03  0.00000000000E+00 0. -1.
</event>
<event>
 7    1  0.6584658E-006  0.1027308E+03  0.7561462E-02  0.1274656E+00
         -2   -1    0    0    0  501 -0.00000000000E+00  0.00000000000E+00  0.30851620026E+02  0.30851620026E+02  0.00000000000E+00 0. -1.
          2   -1    0    0  501    0  0.00000000000E+00 -0.00000000000E+00 -0.49694927997E+03  0.49694927997E+03  0.00000000000E+00 0.  1.
         23    2    1    2    0    0 -0.53422099957E+02  0.11205316823E+01 -0.25748359360E+03  0.27875767441E+03  0.92481693954E+02 0.  0.
          5    1    1    2  502    0  0.44021489601E+02  0.38108663626E+02 -0.19897009980E+03  0.20735654030E+03  0.41800000000E+01 0.  1.
         -5    1    1    2    0  502  0.94006103556E+01 -0.39229195308E+02 -0.96439665509E+01  0.41686685290E+02  0.41800000000E+01 0.  1.
        -11    1    3    3    0    0 -0.54517666674E+02  0.40011399629E+02 -0.15359638913E+03  0.16782413066E+03  0.00000000000E+00 0. -1.
         11    1    3    3    0    0  0.10955667172E+01 -0.38890867947E+02 -0.10388720447E+03  0.11093354375E+03  0.00000000000E+00 0.  1.
</event>
<event>
 7    1  0.6584658E-006  0.8531655E+02  0.7561462E-02  0.1314607E+00
         -3   -1    0    0    0  501 -0.00000000000E+00  0.00000000000E+00  0.50778697070E+03  0.50778697070E+03  0.00000000000E+00 0.  1.
          3   -1    0    0  501    0  0.00000000000E+00 -0.00000000000E+00 -0.28303842451E+02  0.28303842451E+02  0.00000000000E+00 0. -1.
         23    2    1    2    0    0  0.30707854888E+02  0.96311491809E+01  0.11925876554E+03  0.15340937679E+03  0.90972811008E+02 0.  0.
          5    1    1    2  502    0  0.19581090403E+01  0.40112835832E+02  0.39604070869E+02  0.56558187903E+02  0.41800000000E+01 0. -1.
         -5    1    1    2    0  502 -0.32665963929E+02 -0.49743985013E+02  0.32062029184E+03  0.32612324846E+03  0.41800000000E+01 0. -1.
        -11    1    3    3    0    0  0.30662685258E+02  0.34255192748E+02  0.12027722448E+03  0.12876423892E+03  0.00000000000E+00 0.  1.
         11    1    3    3    0    0  0.45169630590E-01 -0.24624043567E+02 -0.10184589383E+01  0.24645137867E+02  0.00000000000E+00 0. -1.
</event>
<event>
 7    1  0.6584658E-006  0.8487686E+02  0.7561462E-02  0.1315755E+00
          3   -1    0    0  501    0  0.00000000000E+00  0.00000000000E+00  0.47182823554E+03  0.47182823554E+03  0.00000000000E+00 0. -1.
         -3   -1    0    0    0  501 -0.00000000000E+00 -0.00000000000E+00 -0.32949322865E+02  0.32949322865E+02  0.00000000000E+00 0.  1.
         23    2    1    2    0    0 -0.21783054385E+02  0.50360363645E+02  0.22531967177E+03  0.25127140517E+03  0.96735189481E+02 0.  0.
          5    1    1    2  502    0 -0.11916383505E+01 -0.49326106904E+02  0.22290021013E+03  0.22833409930E+03  0.41800000000E+01 0. -1.
         -5    1    1    2    0  502  0.22974692735E+02 -0.10342567406E+01 -0.93409692308E+01  0.25172053938E+02  0.41800000000E+01 0. -1.
        -11    1    3    3    0    0  0.12006398914E+02 -0.17402068632E+02  0.11829437254E+03  0.12016881535E+03  0.00000000000E+00 0. -1.
         11    1    3    3    0    0 -0.33789453299E+02  0.67762432277E+02  0.10702529923E+03  0.13110258982E+03  0.00000000000E+00 0.  1.
</event>
<event>
 7    1  0.6584658E-006  0.1657542E+03  0.7561462E-02  0.1182349E+00
          2   -1    0    0  501    0  0.00000000000E+00  0.00000000000E+00  0.15984219602E+03  0.15984219602E+03  0.00000000000E+00 0. -1.
         -2   -1    0    0    0  501 -0.00000000000E+00 -0.00000000000E+00 -0.22822579882E+03  0.22822579882E+03  0.00000000000E+00 0.  1.
         23    2    1    2    0    0 -0.95287902882E+02  0.11467142131E+03  0.37597833103E+02  0.16646355323E+03  0.63774588963E+02 0.  0.
          5    1    1    2  502    0  0.78362914210E+02 -0.18190843949E+02 -0.47756779781E+01  0.80696546563E+02  0.41800000000E+01 0. -1.
         -5    1    1    2    0  502  0.16924988672E+02 -0.96480577363E+02 -0.10120575793E+03  0.14090789505E+03  0.41800000000E+01 0. -1.
        -11    1    3    3    0    0 -0.23532961136E+02  0.54141314016E+02  0.42054291164E+02  0.72482036040E+02  0.00000000000E+00 0.  1.
         11    1    3    3    0    0 -0.71754941746E+02  0.60530107296E+02 -0.44564580606E+01  0.93981517187E+02  0.00000000000E+00 0. -1.
</event>
<event>
 7    1  0.7277123E-006  0.2050720E+03  0.7561462E-02  0.1145529E+00
          1   -1    0    0  501    0  0.00000000000E+00  0.00000000000E+00  0.18000874192E+04  0.18000874192E+04  0.00000000000E+00 0. -1.
         -1   -1    0    0    0  501 -0.00000000000E+00 -0.00000000000E+00 -0.28963653335E+02  0.28963653335E+02  0.00000000000E+00 0.  1.
         23    2    1    2    0    0  0.18926103035E+03 -0.58105447904E+02  0.98451016575E+03  0.10083165762E+04  0.90807878019E+02 0.  0.
          5    1    1    2  502    0 -0.49025128293E+02  0.48645788015E+02  0.45946711583E+03  0.46464758562E+03  0.41800000000E+01 0. -1.
         -5    1    1    2    0  502 -0.14023590206E+03  0.94596598885E+01  0.32714648427E+03  0.35608691069E+03  0.41800000000E+01 0. -1.
        -11    1    3    3    0    0  0.21580554740E+02 -0.17564188908E+02  0.43597712244E+02  0.51720224167E+02  0.00000000000E+00 0.  1.
         11    1    3    3    0    0  0.16768047561E+03 -0.40541258996E+02  0.94091245351E+03  0.95659635204E+03  0.00000000000E+00 0. -1.
</event>
<event>
 7    1  0.6584658E-006  0.1863884E+03  0.7561462E-02  0.1161760E+00
          1   -1    0    0  501    0  0.00000000000E+00  0.00000000000E+00  0.16294888867E+03  0.16294888867E+03  0.00000000000E+00 0. -1.
         -1   -1    0    0    0  501 -0.00000000000E+00 -0.00000000000E+00 -0.21913381094E+03  0.21913381094E+03  0.00000000000E+00 0.  1.
         23    2    1    2    0    0 -0.14547900061E+03  0.50136195424E+02  0.24623187143E+01  0.17528674748E+03  0.83914260515E+02 0.  0.
          5    1    1    2  502    0  0.50750240008E+01 -0.56849186322E+02 -0.23341677801E+02  0.61805276285E+02  0.41800000000E+01 0. -1.
         -5    1    1    2    0  502  0.14040397661E+03  0.67129908982E+01 -0.35305563179E+02  0.14499067586E+03  0.41800000000E+01 0. -1.
        -11    1    3    3    0    0 -0.74705835488E+02 -0.17823966860E+02 -0.43920398582E+01  0.76928185112E+02  0.00000000000E+00 0.  1.
         11    1    3    3    0    0 -0.70773165120E+02  0.67960162284E+02  0.68543585725E+01  0.98358562363E+02  0.00000000000E+00 0. -1.
</event>
<event>
 7    1  0.6584658E-006  0.1077807E+03  0.7561462E-02  0.1264736E+00
          1   -1    0    0  501    0  0.00000000000E+00  0.00000000000E+00  0.66026348503E+03  0.66026348503E+03  0.00000000000E+00 0. -1.
         -1   -1    0    0    0  501 -0.00000000000E+00 -0.00000000000E+00 -0.20438574104E+02  0.20438574104E+02  0.00000000000E+00 0.  1.
         23    2    1    2    0    0 -0.19712088940E+02  0.12866768161E+02  0.35442794374E+03  0.36820921780E+03  0.96978041856E+02 0.  0.
          5    1    1    2  502    0  0.69526089833E+02 -0.26489947179E+02  0.14922173123E+03  0.16679386061E+03  0.41800000000E+01 0.  1.
         -5    1    1    2    0  502 -0.49814000892E+02  0.13623179018E+02  0.13617523597E+03  0.14569898072E+03  0.41800000000E+01 0.  1.
        -11    1    3    3    0    0 -0.14098873996E+02 -0.36716505292E+02  0.78457141167E+02  0.87763335220E+02  0.00000000000E+00 0.  1.
         11    1    3    3    0    0 -0.56132149445E+01  0.49583273453E+02  0.27597080257E+03  0.28044588259E+03  0.00000000000E+00 0. -1.
</event>
<event>
 7    1  0.6584658E-006  0.2540516E+03  0.7561462E-02  0.1110771E+00
         -1   -1    0    0    0  501 -0.00000000000E+00  0.00000000000E+00  0.74579366345E+02  0.74579366345E+02  0.00000000000E+00 0.  1.
          1   -1    0    0  501    0  0.00000000000E+00 -0.00000000000E+00 -0.92960260691E+03  0.92960260691E+03  0.00000000000E+00 0. -1.
         23    2    1    2    0    0 -0.13092352685E+03 -0.19827056691E+03 -0.47697072675E+03  0.54047527531E+03  0.90334165498E+02 0.  0.
          5    1    1    2  502    0 -0.16099073752E+02 -0.45926751600E+01 -0.16994827485E+02  0.24219194909E+02  0.41800000000E+01 0. -1.
         -5    1    1    2    0  502  0.14702260060E+03  0.20286324207E+03 -0.36105768632E+03  0.43948750303E+03  0.41800000000E+01 0. -1.
        -11    1    3    3    0    0 -0.43284309687E+02 -0.97813314272E+02 -0.12740748874E+03  0.16635397230E+03  0.00000000000E+00 0.  1.
         11    1    3    3    0    0 -0.87639217160E+02 -0.10045725264E+03 -0.34956323802E+03  0.37412130301E+03  0.00000000000E+00 0. -1.
</event>
<event>
 7    1  0.6584658E-006  0.1333794E+03  0.7561462E-02  0.1222526E+00
         -4   -1    0    0    0  501 -0.00000000000E+00  0.00000000000E+00  0.88941775002E+02  0.88941775002E+02  0.00000000000E+00 0.  1.
          4   -1    0    0  501    0  0.00000000000E+00 -0.00000000000E+00 -0.24311632351E+03  0.24311632351E+03  0.00000000000E+00 0. -1.
         23    2    1    2    0    0 -0.91463596354E+02  0.18335957948E+02 -0.88732930443E+02  0.16283859869E+03  0.99704962096E+02 0.  0.
          5    1    1    2  502    0  0.10861515580E+03  0.19486880229E+02 -0.63611079136E+02  0.12743952433E+03  0.41800000000E+01 0. -1.
         -5    1    1    2    0  502 -0.17151559450E+02 -0.37822838177E+02 -0.18305389234E+01  0.41779975492E+02  0.41800000000E+01 0. -1.
        -11    1    3    3    0    0 -0.11697220940E+02  0.31630128025E+02  0.10038337185E+02  0.35186051072E+02  0.00000000000E+00 0.  1.
         11    1    3    3    0    0 -0.79766375414E+02 -0.13294170077E+02 -0.98771267628E+02  0.12765254762E+03  0.00000000000E+00 0. -1.
</event>
<event>
 7    1  0.6584658E-006  0.1710878E+03  0.7561462E-02  0.1176718E+00
         -1   -1    0    0    0  501 -0.00000000000E+00  0.00000000000E+00  0.92453687612E+02  0.92453687612E+02  0.00000000000E+00 0.  1.
          1   -1    0    0  501    0  0.00000000000E+00 -0.00000000000E+00 -0.36311146552E+03  0.36311146552E+03  0.00000000000E+00 0. -1.
         23    2    1    2    0    0  0.86411404831E+02 -0.11936035623E+03 -0.12162700636E+03  0.21150106807E+03  0.90695907260E+02 0.  0.
          5    1    1    2  502    0 -0.10096180057E+02  0.11558733056E+03 -0.99544450035E+02  0.15293441003E+03  0.41800000000E+01 0. -1.
         -5    1    1    2    0  502 -0.76315224774E+02  0.37730256707E+01 -0.49486321519E+02  0.91129675038E+02  0.41800000000E+01 0. -1.
        -11    1    3    3    0    0  0.18158017607E+02 -0.10252237157E+02  0.13541385952E+02  0.24863449150E+02  0.00000000000E+00 0.  1.
         11    1    3    3    0    0  0.68253387224E+02 -0.10910811908E+03 -0.13516839231E+03  0.18663761892E+03  0.00000000000E+00 0. -1.
</event>
<event>
 7    1  0.6584658E-006  0.9850376E+02  0.7561462E-02  0.1283474E+00
         -2   -1    0    0    0  501 -0.00000000000E+00  0.00000000000E+00  0.55632905856E+02  0.55632905856E+02  0.00000000000E+00 0.  1.
          2   -1    0    0  501    0  0.00000000000E+00 -0.00000000000E+00 -0.32529254461E+03  0.32529254461E+03  0.00000000000E+00 0. -1.
         23    2    1    2    0    0  0.10333590042E+02  0.40361434111E+02 -0.21616889922E+03  0.23818649388E+03  0.90928457762E+02 0.  0.
          5    1    1    2  502    0  0.25879903597E+02 -0.72342999153E+02 -0.99889476518E+01  0.77592076991E+02  0.41800000000E+01 0. -1.
         -5    1    1    2    0  502 -0.36213493639E+02  0.31981565042E+02 -0.43501791890E+02  0.65146879601E+02  0.41800000000E+01 0. -1.
        -11    1    3    3    0    0 -0.13592859366E+02 -0.92809765731E+01 -0.14660960739E+01  0.16524278792E+02  0.00000000000E+00 0.  1.
         11    1    3    3    0    0  0.23926449408E+02  0.49642410684E+02 -0.21470280314E+03  0.22166221509E+03  0.00000000000E+00 0. -1.
</event>
<event>
 7    1  0.6584658E-006  0.9907250E+02  0.7561462E-02  0.1282259E+00
          1   -1    0    0  501    0  0.00000000000E+00  0.00000000000E+00  0.40061729876E+03  0.40061729876E+03  0.00000000000E+00 0. -1.
         -1   -1    0    0    0  501 -0.00000000000E+00 -0.00000000000E+00 -0.32532034741E+02  0.32532034741E+02  0.00000000000E+00 0.  1.
         23    2    1    2    0    0 -0.21418067789E+02 -0.25634018935E+02  0.16965941646E+03  0.19621916897E+03  0.92745933199E+02 0.  0.
          5    1    1    2  502    0  0.11985603534E+02  0.76461539896E+02  0.12341696226E+03  0.14573688877E+03  0.41800000000E+01 0.  1.
         -5    1    1    2    0  502  0.94324642557E+01 -0.50827520961E+02  0.75008885299E+02  0.91193275755E+02  0.41800000000E+01 0.  1.
        -11    1    3    3    0    0  0.10609467077E+02  0.14158519548E+02 -0.13499516480E+01  0.17743923943E+02  0.00000000000E+00 0.  1.
         11    1    3    3    0    0 -0.32027534866E+02 -0.39792538483E+02  0.17100936810E+03  0.17847524503E+03  0.00000000000E+00 0. -1.
</event>
<event>
 7    1  0.6584658E-006  0.1063873E+03  0.7561462E-02  0.1267410E+00
          1   -1    0    0  501    0  0.00000000000E+00  0.00000000000E+00  0.25109588355E+03  0.25109588355E+03  0.00000000000E+00 0. -1.
         -1   -1    0    0    0  501 -0.00000000000E+00 -0.00000000000E+00 -0.65503972635E+02  0.65503972635E+02  0.00000000000E+00 0.  1.
         23    2    1    2    0    0  0.43503025851E+02  0.58431566106E+02  0.99460361600E+02  0.15257521931E+03  0.89889225394E+02 0.  0.
          5    1    1    2  502    0 -0.81478532312E+02 -0.17836252223E+02  0.57150848030E+02  0.10119572596E+03  0.41800000000E+01 0. -1.
         -5    1    1    2    0  502  0.37975506461E+02 -0.40595313883E+02  0.28980701284E+02  0.62828910918E+02  0.41800000000E+01 0.  1.
        -11    1    3    3    0    0  0.13697346363E+02  0.26531053362E+02  0.10444920508E+03  0.10863310054E+03  0.00000000000E+00 0. -1.
         11    1    3    3    0    0  0.29805679487E+02  0.31900512745E+02 -0.49888434809E+01  0.43942118774E+02  0.00000000000E+00 0.  1.
</event>
<event>
 7    1  0.6584658E-006  0.1513532E+03  0.7561462E-02  0.1198820E+00
         -2   -1    0    0    0  501 -0.00000000000E+00  0.00000000000E+00  0.31017784464E+02  0.31017784464E+02  0.00000000000E+00 0. -1.
          2   -1    0    0  501    0  0.00000000000E+00 -0.00000000000E+00 -0.98624940908E+03  0.98624940908E+03  0.00000000000E+00 0.  1.
         23    2    1    2    0    0 -0.50009982231E+02 -0.12206304819E+03 -0.54980834640E+03  0.57295164057E+03  0.92649763081E+02 0.  0.
          5    1    1    2  502    0  0.56983425967E+02  0.77288165933E+02 -0.11289039308E+03  0.14826423937E+03  0.41800000000E+01 0. -1.
         -5    1    1    2    0  502 -0.69734437359E+01  0.44774882259E+02 -0.29253288514E+03  0.29605131360E+03  0.41800000000E+01 0. -1.
        -11    1    3    3    0    0  0.21393812578E+02 -0.68670887619E+02 -0.23492154999E+03  0.24568581700E+03  0.00000000000E+00 0.  1.
         11    1    3    3    0    0 -0.71403794809E+02 -0.53392160573E+02 -0.31488679641E+03  0.32726582357E+03  0.00000000000E+00 0. -1.
</event>
<event>
 7    1  0.6584658E-006  0.7771055E+02  0.7561462E-02  0.1335677E+00
          4   -1    0    0  501    0  0.00000000000E+00  0.00000000000E+00  0.62551732419E+02  0.62551732419E+02  0.00000000000E+00 0. -1.
         -4   -1    0    0    0  501 -0.00000000000E+00 -0.00000000000E+00 -0.21314493570E+03  0.21314493570E+03  0.00000000000E+00 0.  1.
         23    2    1    2    0    0  0.24674164779E+02 -0.19586112382E+02 -0.35641616066E+02  0.10291378916E+03  0.91260577455E+02 0.  0.
          5    1    1    2  502    0  0.18273992185E+02  0.28163702074E+01  0.21516629832E+02  0.28675921796E+02  0.41800000000E+01 0. -1.
         -5    1    1    2    0  502 -0.42948156965E+02  0.16769742175E+02 -0.13646821704E+03  0.14410695716E+03  0.41800000000E+01 0. -1.
        -11    1    3    3    0    0 -0.26265754705E+02 -0.28165619227E+02 -0.33772235366E+02  0.51222610811E+02  0.00000000000E+00 0.  1.
         11    1    3    3    0    0  0.50939919485E+02  0.85795068445E+01 -0.18693807000E+01  0.51691178348E+02  0.00000000000E+00 0. -1.
</event>
<event>
 7    1  0.6584658E-006  0.9957229E+02  0.7561462E-02  0.1281198E+00
         -1   -1    0    0    0  501 -0.00000000000E+00  0.00000000000E+00  0.10085379048E+03  0.10085379048E+03  0.00000000000E+00 0.  1.
          1   -1    0    0  501    0  0.00000000000E+00 -0.00000000000E+00 -0.27239365143E+03  0.27239365143E+03  0.00000000000E+00 0. -1.
         23    2    1    2    0    0  0.50432927494E+02  0.58182613245E+02 -0.19131387059E+03  0.22503660451E+03  0.90065418612E+02 0.  0.
          5    1    1    2  502    0 -0.34113358187E+02 -0.56456897739E+02 -0.45847243241E+02  0.80439695561E+02  0.41800000000E+01 0.  1.
         -5    1    1    2    0  502 -0.16319569307E+02 -0.17257155058E+01  0.65621252877E+02  0.67771141835E+02  0.41800000000E+01 0.  1.
        -11    1    3    3    0    0  0.12316676762E+02  0.73875006178E+02 -0.14379899889E+03  0.16213380013E+03  0.00000000000E+00 0. -1.
         11    1    3    3    0    0  0.38116250732E+02 -0.15692392933E+02 -0.47514871708E+02  0.62902804383E+02  0.00000000000E+00 0.  1.
</event>
<event>
 7    1  0.6584658E-006  0.2305959E+03  0.7561462E-02  0.1126221E+00
          1   -1    0    0  501    0  0.00000000000E+00  0.00000000000E+00  0.11769350163E+04  0.11769350163E+04  0.00000000000E+00 0. -1.
         -1   -1    0    0    0  501 -0.00000000000E+00 -0.00000000000E+00 -0.56385527895E+02  0.56385527895E+02  0.00000000000E+00 0.  1.
         23    2    1    2    0    0  0.17028720863E+03 -0.12944337623E+03  0.74523933607E+03  0.78358919958E+03  0.11347706639E+03 0.  0.
          5    1    1    2  502    0 -0.18853841920E+03  0.11705370265E+03  0.35863715537E+03  0.42176579571E+03  0.41800000000E+01 0. -1.
         -5    1    1    2    0  502  0.18251210576E+02  0.12389673581E+02  0.16672997017E+02  0.27965548957E+02  0.41800000000E+01 0. -1.
        -11    1    3    3    0    0  0.70448958754E+02 -0.75649332168E+02  0.18439837848E+03  0.21139687612E+03  0.00000000000E+00 0.  1.
         11    1    3    3    0    0  0.99838249873E+02 -0.53794044064E+02  0.56084095759E+03  0.57219232346E+03  0.00000000000E+00 0. -1.
</event>
<event>
 7    1  0.6584658E-006  0.1118527E+03  0.7561462E-02  0.1257177E+00
          2   -1    0    0  501    0  0.00000000000E+00  0.00000000000E+00  0.35814381063E+02  0.35814381063E+02  0.00000000000E+00 0. -1.
         -2   -1    0    0    0  501 -0.00000000000E+00 -0.00000000000E+00 -0.57288244601E+03  0.57288244601E+03  0.00000000000E+00 0.  1.
         23    2    1    2    0    0  0.16204855616E+02 -0.72981314480E+02 -0.95232385314E+02  0.14344937639E+03  0.76939240738E+02 0.  0.
          5    1    1    2  502    0  0.19674556178E+02 -0.30190783713E+02 -0.10157252642E+03  0.10785648848E+03  0.41800000000E+01 0. -1.
         -5    1    1    2    0  502 -0.35879411794E+02  0.10317209819E+03 -0.34026315321E+03  0.35739096221E+03  0.41800000000E+01 0. -1.
        -11    1    3    3    0    0  0.17317347309E+02 -0.26721995017E+02  0.57614513654E+01  0.32359694952E+02  0.00000000000E+00 0. -1.
         11    1    3    3    0    0 -0.11124916930E+01 -0.46259319463E+02 -0.10099383668E+03  0.11108968144E+03  0.00000000000E+00 0.  1.
</event>
<event>
 7    1  0.6584658E-006  0.1452852E+03  0.7561462E-02  0.1206389E+00
          2   -1    0    0  501    0  0.00000000000E+00  0.00000000000E+00  0.31865666360E+02  0.31865666360E+02  0.00000000000E+00 0.  1.
         -2   -1    0    0    0  501 -0.00000000000E+00 -0.00000000000E+00 -0.85698160807E+03  0.85698160807E+03  0.00000000000E+00 0. -1.
         23    2    1    2    0    0 -0.10092791596E+03 -0.12006807714E+02 -0.19155577340E+03  0.23510684613E+03  0.90835054476E+02 0.  0.
          5    1    1    2  502    0  0.10443688606E+03 -0.32941150285E+02 -0.52127470707E+03  0.53266966798E+03  0.41800000000E+01 0. -1.
         -5    1    1    2    0  502 -0.35089701026E+01  0.44947957999E+02 -0.11228546123E+03  0.12107076032E+03  0.41800000000E+01 0. -1.
        -11    1    3    3    0    0 -0.62136203398E+02 -0.51234452237E+02 -0.10260119326E+03  0.13043343792E+03  0.00000000000E+00 0.  1.
         11    1    3    3    0    0 -0.38791712562E+02  0.39227644522E+02 -0.88954580142E+02  0.10467340821E+03  0.00000000000E+00 0. -1.
</event>
<event>
 7    1  0.6584658E-006  0.1084238E+03  0.7561462E-02  0.1263517E+00
          2   -1    0    0  501    0  0.00000000000E+00  0.00000000000E+00  0.16978693859E+03  0.16978693859E+03  0.00000000000E+00 0.  1.
         -2   -1    0    0    0  501 -0.00000000000E+00 -0.00000000000E+00 -0.11515342737E+03  0.11515342737E+03  0.00000000000E+00 0. -1.
         23    2    1    2    0    0 -0.42753895120E+02 -0.38001956019E+02  0.93812468339E+02  0.14192243005E+03  0.89828462783E+02 0.  0.
          5    1    1    2  502    0  0.68419781376E+02  0.49437352650E+02  0.11128023198E+02  0.85244493200E+02  0.41800000000E+01 0.  1.
         -5    1    1    2    0  502 -0.25665886256E+02 -0.11435396631E+02 -0.50306980324E+02  0.57773442712E+02  0.41800000000E+01 0.  1.
        -11    1    3    3    0    0 -0.43569195667E+01 -0.59674972185E+02  0.68997557004E+02  0.91327695284E+02  0.00000000000E+00 0.  1.
         11    1    3    3    0    0 -0.38396975553E+02  0.21673016166E+02  0.24814911335E+02  0.50594734765E+02  0.00000000000E+00 0. -1.
</event>
<event>
 7    1  0.6584658E-006  0.1327457E+03  0.7561462E-02  0.1223438E+00
         -1   -1    0    0    0  501 -0.00000000000E+00  0.00000000000E+00  0.39193176422E+02  0.39193176422E+02  0.00000000000E+00 0.  1.
          1   -1    0    0  501    0  0.00000000000E+00 -0.00000000000E+00 -0.50273307687E+03  0.50273307687E+03  0.00000000000E+00 0. -1.
         23    2    1    2    0    0 -0.21190251513E+02 -0.77575280745E+02 -0.28145292764E+03  0.30683075865E+03  0.91991374793E+02 0.  0.
          5    1    1    2  502    0 -0.32461093551E+02  0.84061334787E+02 -0.13966832432E+03  0.16626708580E+03  0.41800000000E+01 0. -1.
         -5    1    1    2    0  502  0.53651345064E+02 -0.64860540417E+01 -0.42418648485E+02  0.68828408840E+02  0.41800000000E+01 0. -1.
        -11    1    3    3    0    0 -0.56767297535E+02 -0.54367418195E+02 -0.16228272899E+03  0.18031646170E+03  0.00000000000E+00 0.  1.
         11    1    3    3    0    0  0.35577046022E+02 -0.23207862550E+02 -0.11917019865E+03  0.12651429695E+03  0.00000000000E+00 0. -1.
</event>
<event>
 7    1  0.6584658E-006  0.1325534E+03  0.7561462E-02  0.1223715E+00
          1   -1    0    0  501    0  0.00000000000E+00  0.00000000000E+00  0.37568279002E+03  0.37568279002E+03  0.00000000000E+00 0. -1.
         -1   -1    0    0    0  501 -0.00000000000E+00 -0.00000000000E+00 -0.75338966480E+02  0.75338966480E+02  0.00000000000E+00 0.  1.
         23    2    1    2    0    0 -0.55687044799E+02  0.98881393676E+02  0.22075738990E+03  0.26431894414E+03  0.90841081363E+02 0.  0.
          5    1    1    2  502    0  0.38863434932E+02 -0.28587675081E+02 -0.28812418665E+02  0.56349353241E+02  0.41800000000E+01 0. -1.
         -5    1    1    2    0  502  0.16823609867E+02 -0.70293718595E+02  0.10839885231E+03  0.13035345912E+03  0.41800000000E+01 0. -1.
        -11    1    3    3    0    0 -0.52842089804E+02  0.81050390145E+01  0.66659773696E+02  0.85448835811E+02  0.00000000000E+00 0. -1.
         11    1    3    3    0    0 -0.28449549950E+01  0.90776354662E+02  0.15409761620E+03  0.17887010833E+03  0.00000000000E+00 0.  1.
</event>
<event>
 7    1  0.6584658E-006  0.1123508E+03  0.7561462E-02  0.1256278E+00
          1   -1    0    0  501    0  0.00000000000E+00  0.00000000000E+00  0.47953968526E+02  0.47953968526E+02  0.00000000000E+00 0. -1.
         -1   -1    0    0    0  501 -0.00000000000E+00 -0.00000000000E+00 -0.28451704855E+03  0.28451704855E+03  0.00000000000E+00 0.  1.
         23    2    1    2    0    0 -0.13053321824E+02 -0.32042370730E+02 -0.57071922640E+02  0.11097233748E+03  0.88659757502E+02 0.  0.
          5    1    1    2  502    0  0.68121537240E+02  0.59147626063E+01 -0.88945597517E+02  0.11226896263E+03  0.41800000000E+01 0.  1.
         -5    1    1    2    0  502 -0.55068215417E+02  0.26127608124E+02 -0.90545559869E+02  0.10922971696E+03  0.41800000000E+01 0.  1.
        -11    1    3    3    0    0  0.32369206927E+02 -0.37286417334E+02 -0.27489903872E+02  0.56513160322E+02  0.00000000000E+00 0. -1.
         11    1    3    3    0    0 -0.45422528750E+02  0.52440466035E+01 -0.29582018768E+02  0.54459177163E+02  0.00000000000E+00 0.  1.
</event>
<event>
 7    1  0.6584658E-006  0.1176234E+03  0.7561462E-02  0.1247070E+00
          1   -1    0    0  501    0  0.00000000000E+00  0.00000000000E+00  0.18372737759E+02  0.18372737759E+02  0.00000000000E+00 0. -1.
         -1   -1    0    0    0  501 -0.00000000000E+00 -0.00000000000E+00 -0.86683896657E+03  0.86683896657E+03  0.00000000000E+00 0.  1.
         23    2    1    2    0    0 -0.25022609178E+02 -0.60423502896E-02 -0.22344338757E+03  0.24222995804E+03  0.90123660124E+02 0.  0.
          5    1    1    2  502    0 -0.59123907917E+02 -0.22982000712E+02 -0.26517709373E+03  0.27269061642E+03  0.41800000000E+01 0. -1.
         -5    1    1    2    0  502  0.84146517095E+02  0.22988043062E+02 -0.35984574751E+03  0.37029112988E+03  0.41800000000E+01 0.  1.
        -11    1    3    3    0    0 -0.10587436872E+02  0.40229263278E+02 -0.16282891481E+03  0.16805874848E+03  0.00000000000E+00 0.  1.
         11    1    3    3    0    0 -0.14435172307E+02 -0.40235305628E+02 -0.60614472764E+02  0.74171209556E+02  0.00000000000E+00 0. -1.
</event>
<event>
 7    1  0.6584658E-006  0.1163748E+03  0.7561462E-02  0.1249200E+00
          2   -1    0    0  501    0  0.00000000000E+00  0.00000000000E+00  0.22183586401E+03  0.22183586401E+03  0.00000000000E+00 0. -1.
         -2   -1    0    0    0  501 -0.00000000000E+00 -0.00000000000E+00 -0.84901760315E+02  0.84901760315E+02  0.00000000000E+00 0.  1.
         23    2    1    2    0    0 -0.83459438581E+02  0.70354642078E+01  0.65288976982E+02  0.14001808795E+03  0.91254801473E+02 0.  0.
          5    1    1    2  502    0 -0.20243532299E+02 -0.20654126155E+01  0.58385248383E+02  0.61970768577E+02  0.41800000000E+01 0. -1.
         -5    1    1    2    0  502  0.10370297088E+03 -0.49700515923E+01  0.13259878328E+02  0.10474876780E+03  0.41800000000E+01 0. -1.
        -11    1    3    3    0    0 -0.63673340862E+02 -0.26632312868E+02  0.63423709368E+01  0.69309451696E+02  0.00000000000E+00 0.  1.
         11    1    3    3    0    0 -0.19786097719E+02  0.33667777076E+02  0.58946606045E+02  0.70708636251E+02  0.00000000000E+00 0. -1.
</event>
<event>
 7    1  0.6584658E-006  0.1598142E+03  0.7561462E-02  0.1188907E+00
         -2   -1    0    0    0  501 -0.00000000000E+00  0.00000000000E+00  0.30272778183E+02  0.30272778183E+02  0.00000000000E+00 0.  1.
          2   -1    0    0  501    0  0.00000000000E+00 -0.00000000000E+00 -0.10080352099E+04  0.10080352099E+04  0.00000000000E+00 0. -1.
         23    2    1    2    0    0 -0.12085741336E+03 -0.29959258171E+02 -0.36324470025E+03  0.39449836876E+03  0.90433285792E+02 0.  0.
          5    1    1    2  502    0  0.14162754722E+03  0.20717331594E+02 -0.34825681224E+03  0.37654727410E+03  0.41800000000E+01 0. -1.
         -5    1    1    2    0  502 -0.20770133855E+02  0.92419265770E+01 -0.26626091923E+03  0.26726234523E+03  0.41800000000E+01 0.  1.
        -11    1    3    3    0    0 -0.99894964826E+02  0.17517656095E+02 -0.22375749628E+03  0.24566906483E+03  0.00000000000E+00 0.  1.
         11    1    3    3    0    0 -0.20962448537E+02 -0.47476914266E+02 -0.13948720397E+03  0.14882930393E+03  0.00000000000E+00 0. -1.
</event>
<event>
 7    1  0.6584658E-006  0.1127615E+03  0.7561462E-02  0.1255540E+00
         -2   -1    0    0    0  501 -0.00000000000E+00  0.00000000000E+00  0.10894933082E+03  0.10894933082E+03  0.00000000000E+00 0.  1.
          2   -1    0    0  501    0  0.00000000000E+00 -0.00000000000E+00 -0.13407008033E+03  0.13407008033E+03  0.00000000000E+00 0. -1.
         23    2    1    2    0    0  0.46347150263E+02  0.25801545426E+02 -0.69636536130E+01  0.10593663946E+03  0.91434681740E+02 0.  0.
          5    1    1    2  502    0 -0.55806300951E+02 -0.67918463699E+02  0.45656568740E+01  0.88122520162E+02  0.41800000000E+01 0. -1.
         -5    1    1    2    0  502  0.94591506876E+01  0.42116918272E+02 -0.22722752763E+02  0.48960251527E+02  0.41800000000E+01 0. -1.
        -11    1    3    3    0    0  0.31330794115E+02 -0.25688650838E+02 -0.26992424009E+02  0.48683841217E+02  0.00000000000E+00 0. -1.
         11    1    3    3    0    0  0.15016356148E+02  0.51490196264E+02  0.20028770396E+02  0.57252798245E+02  0.00000000000E+00 0.  1.
</event>
<event>
 7    1  0.6584658E-006  0.1522954E+03  0.7561462E-02  0.1197680E+00
         -1   -1    0    0    0  501 -0.00000000000E+00  0.00000000000E+00  0.60763051472E+02  0.60763051472E+02  0.00000000000E+00 0.  1.
          1   -1    0    0  501    0  0.00000000000E+00 -0.00000000000E+00 -0.49922369716E+03  0.49922369716E+03  0.00000000000E+00 0. -1.
         23    2    1    2    0    0 -0.11755958154E+03  0.68090226048E+02 -0.16987834580E+03  0.23404156164E+03  0.86372831979E+02 0.  0.
          5    1    1    2  502    0  0.63227549014E+02 -0.27351528326E+00 -0.21413656675E+03  0.22331533620E+03  0.41800000000E+01 0. -1.
         -5    1    1    2    0  502  0.54332032528E+02 -0.67816710764E+02 -0.54445733139E+02  0.10262985080E+03  0.41800000000E+01 0. -1.
        -11    1    3    3    0    0 -0.78938941677E+02  0.35554445695E+01 -0.53321214975E+02  0.95326542293E+02  0.00000000000E+00 0.  1.
         11    1    3    3    0    0 -0.38620639865E+02  0.64534781478E+02 -0.11655713083E+03  0.13871501934E+03  0.00000000000E+00 0. -1.
</event>
<event>
 7    1  0.6584658E-006  0.1086552E+03  0.7561462E-02  0.1263081E+00
         -2   -1    0    0    0  501 -0.00000000000E+00  0.00000000000E+00  0.37208104353E+02  0.37208104353E+02  0.00000000000E+00 0.  1.
          2   -1    0    0  501    0  0.00000000000E+00 -0.00000000000E+00 -0.46369375444E+03  0.46369375444E+03  0.00000000000E+00 0. -1.
         23    2    1    2    0    0 -0.71213515927E+02 -0.10154853490E+01 -0.23405111357E+03  0.26058933052E+03  0.89746751244E+02 0.  0.
          5    1    1    2  502    0  0.93402029255E+02  0.36942196715E+02 -0.12198631423E+03  0.15807212983E+03  0.41800000000E+01 0.  1.
         -5    1    1    2    0  502 -0.22188513327E+02 -0.35926711366E+02 -0.70448222287E+02  0.82240398447E+02  0.41800000000E+01 0.  1.
        -11    1    3    3    0    0 -0.63073437279E+02 -0.80563401898E+01 -0.24000800395E+03  0.24828814927E+03  0.00000000000E+00 0. -1.
         11    1    3    3    0    0 -0.81400786488E+01  0.70408548408E+01  0.59568903799E+01  0.12301181256E+02  0.00000000000E+00 0.  1.
</event>
<event>
 6    1  0.6584658E-006  0.1440598E+03  0.7561462E-02  0.1207968E+00
         -1   -1    0    0    0  501 -0.00000000000E+00  0.00000000000E+00  0.36383289279E+02  0.36383289279E+02  0.00000000000E+00 0.  1.
          1   -1    0    0  501    0  0.00000000000E+00 -0.00000000000E+00 -0.74450429616E+03  0.74450429616E+03  0.00000000000E+00 0. -1.
          5    1    1    2  502    0  0.73703251354E+02 -0.40664514384E+02 -0.15048432027E+03  0.17247833208E+03  0.41800000000E+01 0. -1.
         -5    1    1    2    0  502 -0.20073281776E+02  0.42389555789E+02 -0.40953604700E+02  0.62405778732E+02  0.41800000000E+01 0. -1.
        -11    1    1    2    0    0 -0.97976971272E+02 -0.31982560285E+02 -0.44303383232E+03  0.45486409799E+03  0.00000000000E+00 0. -1.
         11    1    1    2    0    0  0.44347001694E+02  0.30257518880E+02 -0.73649249592E+02  0.91139376635E+02  0.00000000000E+00 0.  1.
</event>
<event>
 7    1  0.6584658E-006  0.1369278E+03  0.7561462E-02  0.1217524E+00
          2   -1    0    0  501    0  0.00000000000E+00  0.00000000000E+00  0.57285489279E+03  0.57285489279E+03  0.00000000000E+00 0. -1.
         -2   -1    0    0    0  501 -0.00000000000E+00 -0.00000000000E+00 -0.47105737957E+02  0.47105737957E+02  0.00000000000E+00 0.  1.
         23    2    1    2    0    0 -0.32296374237E+02  0.90056596631E+02  0.38730376384E+03  0.40949729289E+03  0.92361144485E+02 0.  0.
          5    1    1    2  502    0  0.37624717987E+02  0.11317525721E+02  0.97631592345E+00  0.39523807823E+02  0.41800000000E+01 0. -1.
         -5    1    1    2    0  502 -0.53283437500E+01 -0.10137412235E+03  0.13746907507E+03  0.17093953004E+03  0.41800000000E+01 0.  1.
        -11    1    3    3    0    0 -0.56456553368E+02  0.92596758660E+02  0.32544233012E+03  0.34303675076E+03  0.00000000000E+00 0. -1.
         11    1    3    3    0    0  0.24160179131E+02 -0.25401620295E+01  0.61861433718E+02  0.66460542131E+02  0.00000000000E+00 0.  1.
</event>
<event>
 7    1  0.6584658E-006  0.1161457E+03  0.7561462E-02  0.1249594E+00
          2   -1    0    0  501    0  0.00000000000E+00  0.00000000000E+00  0.54952697740E+03  0.54952697740E+03  0.00000000000E+00 0. -1.
         -2   -1    0    0    0  501 -0.00000000000E+00 -0.00000000000E+00 -0.28588753488E+02  0.28588753488E+02  0.00000000000E+00 0.  1.
         23    2    1    2    0    0 -0.31402409983E+02  0.49674623474E+02  0.29172231977E+03  0.31045663059E+03  0.88474448578E+02 0.  0.
          5    1    1    2  502    0  0.76609615496E+01  0.37408596991E+02  0.29434006385E+02  0.48393456093E+02  0.41800000000E+01 0.  1.
         -5    1    1    2    0  502  0.23741448433E+02 -0.87083220465E+02  0.19978189776E+03  0.21926564421E+03  0.41800000000E+01 0.  1.
        -11    1    3    3    0    0 -0.56423452860E+02  0.54032357147E+02  0.18627356342E+03  0.20199243075E+03  0.00000000000E+00 0.  1.
         11    1    3    3    0    0  0.25021042878E+02 -0.43577336728E+01  0.10544875636E+03  0.10846419984E+03  0.00000000000E+00 0. -1.
</event>
<event>
 7    1  0.6584658E-006  0.5148486E+02  0.7561462E-02  0.1437493E+00
         -1   -1    0    0    0  501 -0.00000000000E+00  0.00000000000E+00  0.56562255891E+02  0.56562255891E+02  0.00000000000E+00 0.  1.
          1   -1    0    0  501    0  0.00000000000E+00 -0.00000000000E+00 -0.21964440418E+03  0.21964440418E+03  0.00000000000E+00 0. -1.
         23    2    1    2    0    0 -0.13337310239E+02  0.69186539406E+01 -0.98787806739E+02  0.13476253806E+03  0.90422117245E+02 0.  0.
          5    1    1    2  502    0  0.74528469608E+01  0.19464932835E+02 -0.96716357973E+02  0.99025021271E+02  0.41800000000E+01 0. -1.
         -5    1    1    2    0  502  0.58844632779E+01 -0.26383586775E+02  0.32422016420E+02  0.42419100745E+02  0.41800000000E+01 0. -1.
        -11    1    3    3    0    0 -0.85358825670E+01 -0.22752778866E+02 -0.10170120849E+03  0.10456426754E+03  0.00000000000E+00 0. -1.
         11    1    3    3    0    0 -0.48014276717E+01  0.29671432806E+02  0.29134017556E+01  0.30198270518E+02  0.00000000000E+00 0.  1.
</event>
<event>
 7    1  0.6584658E-006  0.8251286E+02  0.7561462E-02  0.1322068E+00
         -1   -1    0    0    0  501 -0.00000000000E+00  0.00000000000E+00  0.35293393182E+03  0.35293393182E+03  0.00000000000E+00 0.  1.
          1   -1    0    0  501    0  0.00000000000E+00 -0.00000000000E+00 -0.44278605070E+02  0.44278605070E+02  0.00000000000E+00 0. -1.
         23    2    1    2    0    0 -0.16542923193E+02  0.58567096975E+02  0.12564540523E+03  0.16733372379E+03  0.92249846095E+02 0.  0.
          5    1    1    2  502    0 -0.65027213558E+01 -0.13041702565E+02 -0.17373639545E+02  0.23058342132E+02  0.41800000000E+01 0.  1.
         -5    1    1    2    0  502  0.23045644549E+02 -0.45525394410E+02  0.20038356106E+03  0.20682047097E+03  0.41800000000E+01 0.  1.
        -11    1    3    3    0    0 -0.45206213055E+02  0.17257622157E+02  0.99546281061E+02  0.11068373546E+03  0.00000000000E+00 0.  1.
         11    1    3    3    0    0  0.28663289862E+02  0.41309474818E+02  0.26099124170E+02  0.56649988331E+02  0.00000000000E+00 0. -1.
</event>
<event>
 7    1  0.6584658E-006  0.1906473E+03  0.7561462E-02  0.1157879E+00
          2   -1    0    0  501    0  0.00000000000E+00  0.00000000000E+00  0.40295109612E+03  0.40295109612E+03  0.00000000000E+00 0.  1.
         -2   -1    0    0    0  501 -0.00000000000E+00 -0.00000000000E+00 -0.10412970345E+03  0.10412970345E+03  0.00000000000E+00 0. -1.
         23    2    1    2    0    0  0.16048367489E+03 -0.34863271688E+02  0.21902091024E+03  0.28573914931E+03  0.81891664479E+02 0.  0.
          5    1    1    2  502    0 -0.31123480794E+02  0.61292646014E+02  0.38750265333E+01  0.68977878648E+02  0.41800000000E+01 0.  1.
         -5    1    1    2    0  502 -0.12936019409E+03 -0.26429374326E+02  0.75925455906E+02  0.15236377161E+03  0.41800000000E+01 0.  1.
        -11    1    3    3    0    0  0.12128145027E+03  0.88578140742E+01  0.17128174203E+03  0.21005972056E+03  0.00000000000E+00 0.  1.
         11    1    3    3    0    0  0.39202224617E+02 -0.43721085762E+02  0.47739168211E+02  0.75679428754E+02  0.00000000000E+00 0. -1.
</event>
<event>
 7    1  0.6584658E-006  0.9552066E+02  0.7561462E-02  0.1290008E+00
         -2   -1    0    0    0  501 -0.00000000000E+00  0.00000000000E+00  0.99391124521E+03  0.99391124521E+03  0.00000000000E+00 0.  1.
          2   -1    0    0  501    0  0.00000000000E+00 -0.00000000000E+00 -0.17074250726E+02  0.17074250726E+02  0.00000000000E+00 0. -1.
         23    2    1    2    0    0  0.11451946559E+02  0.39979358312E+02  0.23495719949E+03  0.25748451544E+03  0.96767215161E+02 0.  0.
          5    1    1    2  502    0 -0.50040231467E+02  0.23736986290E+02  0.37723241675E+03  0.38129940720E+03  0.41800000000E+01 0.  1.
         -5    1    1    2    0  502  0.38588284907E+02 -0.63716344602E+02  0.36464737825E+03  0.37220157330E+03  0.41800000000E+01 0.  1.
        -11    1    3    3    0    0  0.30470732256E+01  0.48691017256E+02  0.23960236473E+03  0.24451869663E+03  0.00000000000E+00 0.  1.
         11    1    3    3    0    0  0.84048733339E+01 -0.87116589441E+01 -0.46451652437E+01  0.12965818812E+02  0.00000000000E+00 0. -1.
</event>
<event>
 7    1  0.6584658E-006  0.1114525E+03  0.7561462E-02  0.1257904E+00
          2   -1    0    0  501    0  0.00000000000E+00  0.00000000000E+00  0.59352019540E+03  0.59352019540E+03  0.00000000000E+00 0. -1.
         -2   -1    0    0    0  501 -0.00000000000E+00 -0.00000000000E+00 -0.27368751507E+02  0.27368751507E+02  0.00000000000E+00 0.  1.
         23    2    1    2    0    0  0.61334363092E+02 -0.27478159380E+02  0.24291950644E+03  0.26784313440E+03  0.90626181080E+02 0.  0.
          5    1    1    2  502    0 -0.33247844263E+02  0.77366643470E+02  0.18132200606E+03  0.19996539438E+03  0.41800000000E+01 0. -1.
         -5    1    1    2    0  502 -0.28086518829E+02 -0.49888484090E+02  0.14190993139E+03  0.15308041812E+03  0.41800000000E+01 0. -1.
        -11    1    3    3    0    0  0.50734840177E+02 -0.40127821275E+02  0.24287309145E+03  0.25133962004E+03  0.00000000000E+00 0. -1.
         11    1    3    3    0    0  0.10599522916E+02  0.12649661895E+02  0.46414990207E-01  0.16503514366E+02  0.00000000000E+00 0.  1.
</event>
<event>
 7    1  0.6584658E-006  0.1091968E+03  0.7561462E-02  0.1262064E+00
          1   -1    0    0  501    0  0.00000000000E+00  0.00000000000E+00  0.33257094240E+03  0.33257094240E+03  0.00000000000E+00 0. -1.
         -1   -1    0    0    0  501 -0.00000000000E+00 -0.00000000000E+00 -0.38359458657E+02  0.38359458657E+02  0.00000000000E+00 0.  1.
         23    2    1    2    0    0  0.57660871293E+01 -0.31333604417E+02  0.12430087869E+03  0.15750021168E+03  0.91326697678E+02 0.  0.
          5    1    1    2  502    0 -0.62181155466E+02 -0.92440181144E+00  0.65824935604E+02  0.90651779690E+02  0.41800000000E+01 0.  1.
         -5    1    1    2    0  502  0.56415068337E+02  0.32258006229E+02  0.10408566945E+03  0.12277840969E+03  0.41800000000E+01 0.  1.
        -11    1    3    3    0    0  0.17320923853E+02 -0.58719478940E+02  0.10653248995E+03  0.12287051325E+03  0.00000000000E+00 0.  1.
         11    1    3    3    0    0 -0.11554836724E+02  0.27385874522E+02  0.17768388738E+02  0.34629698431E+02  0.00000000000E+00 0. -1.
</event>
<event>
 7    1  0.6584658E-006  0.1082834E+03  0.7561462E-02  0.1263782E+00
          2   -1    0    0  501    0  0.00000000000E+00  0.00000000000E+00  0.66587216341E+03  0.66587216341E+03  0.00000000000E+00 0. -1.
         -2   -1    0    0    0  501 -0.00000000000E+00 -0.00000000000E+00 -0.19236229177E+02  0.19236229177E+02  0.00000000000E+00 0.  1.
         23    2    1    2    0    0  0.13462820900E+02 -0.15572004319E+02  0.35590182449E+03  0.36793468959E+03  0.91027975175E+02 0.  0.
          5    1    1    2  502    0 -0.59557962062E+02 -0.22361500835E+02  0.11445455287E+03  0.13101337580E+03  0.41800000000E+01 0. -1.
         -5    1    1    2    0  502  0.46095141162E+02  0.37933505153E+02  0.17627955687E+03  0.18616032720E+03  0.41800000000E+01 0. -1.
        -11    1    3    3    0    0  0.12582885840E+02  0.37671950793E+02  0.13632977880E+03  0.14199758266E+03  0.00000000000E+00 0. -1.
         11    1    3    3    0    0  0.87993505986E+00 -0.53243955112E+02  0.21957204569E+03  0.22593710694E+03  0.00000000000E+00 0.  1.
</event>
<event>
 7    1  0.6584658E-006  0.9805801E+02  0.7561462E-02  0.1284433E+00
          3   -1    0    0  501    0  0.00000000000E+00  0.00000000000E+00  0.38435367162E+02  0.38435367162E+02  0.00000000000E+00 0. -1.
         -3   -1    0    0    0  501 -0.00000000000E+00 -0.00000000000E+00 -0.89466245379E+03  0.89466245379E+03  0.00000000000E+00 0.  1.
         23    2    1    2    0    0 -0.37864357556E+02  0.70886441970E+02 -0.88034305505E+02  0.15064852214E+03  0.92121338719E+02 0.  0.
          5    1    1    2  502    0  0.29780957769E+02 -0.59185959363E+02 -0.76422706173E+03  0.76710518022E+03  0.41800000000E+01 0. -1.
         -5    1    1    2    0  502  0.80833997876E+01 -0.11700482607E+02 -0.39657193929E+01  0.15344118602E+02  0.41800000000E+01 0. -1.
        -11    1    3    3    0    0 -0.23421176423E+02  0.88833032908E+02 -0.88562926798E+02  0.12760584330E+03  0.00000000000E+00 0.  1.
         11    1    3    3    0    0 -0.14443181133E+02 -0.17946590938E+02  0.52862129297E+00  0.23042678837E+02  0.00000000000E+00 0. -1.
</event>
<event>
 7    1  0.6584658E-006  0.8758126E+02  0.7561462E-02  0.1308817E+00
         -1   -1    0    0    0  501 -0.00000000000E+00  0.00000000000E+00  0.68267624104E+02  0.68267624104E+02  0.00000000000E+00 0.  1.
          1   -1    0    0  501    0  0.00000000000E+00 -0.00000000000E+00 -0.22321259814E+03  0.22321259814E+03  0.00000000000E+00 0. -1.
         23    2    1    2    0    0  0.18548559706E+02 -0.24229039926E+02 -0.13517977350E+03  0.16121205275E+03  0.82369043609E+02 0.  0.
          5    1    1    2  502    0  0.98530675071E+01 -0.40166437834E+02 -0.39197704784E+02  0.57134561589E+02  0.41800000000E+01 0.  1.
         -5    1    1    2    0  502 -0.28401627213E+02  0.64395477760E+02  0.19432504247E+02  0.73133607908E+02  0.41800000000E+01 0.  1.
        -11    1    3    3    0    0  0.23570148357E+01 -0.40245854548E+02 -0.22327830963E+02  0.46084882150E+02  0.00000000000E+00 0.  1.
         11    1    3    3    0    0  0.16191544870E+02  0.16016814622E+02 -0.11285194253E+03  0.11512717060E+03  0.00000000000E+00 0. -1.
</event>
<event>
 7    1  0.6584658E-006  0.1409130E+03  0.7561462E-02  0.1212106E+00
          1   -1    0    0  501    0  0.00000000000E+00  0.00000000000E+00  0.59641759522E+03  0.59641759522E+03  0.00000000000E+00 0. -1.
         -1   -1    0    0    0  501 -0.00000000000E+00 -0.00000000000E+00 -0.38571314629E+02  0.38571314629E+02  0.00000000000E+00 0.  1.
         23    2    1    2    0    0 -0.38942088570E+02 -0.97236862868E+02  0.21960445203E+03  0.25945322104E+03  0.90101968871E+02 0.  0.
          5    1    1    2  502    0 -0.31239052246E+02  0.72671533460E+02  0.11073544524E+03  0.13615006939E+03  0.41800000000E+01 0.  1.
         -5    1    1    2    0  502  0.70181140817E+02  0.24565329408E+02  0.22750638332E+03  0.23938561942E+03  0.41800000000E+01 0.  1.
        -11    1    3    3    0    0  0.88694646809E+01 -0.74803842086E+02  0.78530902102E+02  0.10881812707E+03  0.00000000000E+00 0.  1.
         11    1    3    3    0    0 -0.47811553251E+02 -0.22433020782E+02  0.14107354993E+03  0.15063509397E+03  0.00000000000E+00 0. -1.
</event>
<event>
 7    1  0.6584658E-006  0.1184502E+03  0.7561462E-02  0.1245676E+00
          1   -1    0    0  501    0  0.00000000000E+00  0.00000000000E+00  0.50906303159E+03  0.50906303159E+03  0.00000000000E+00 0. -1.
         -1   -1    0    0    0  501 -0.00000000000E+00 -0.00000000000E+00 -0.10315018254E+03  0.10315018254E+03  0.00000000000E+00 0.  1.
         23    2    1    2    0    0 -0.11454835532E+03  0.88374365537E+01  0.41685003617E+03  0.44200825095E+03  0.91694685013E+02 0.  0.
          5    1    1    2  502    0  0.45337209992E+02 -0.15372190197E+02  0.55873397362E+02  0.73695832813E+02  0.41800000000E+01 0. -1.
         -5    1    1    2    0  502  0.69211145332E+02  0.65347536437E+01 -0.66810584486E+02  0.96509130359E+02  0.41800000000E+01 0. -1.
        -11    1    3    3    0    0 -0.56033420128E+02 -0.11596953459E+02  0.73699464973E+02  0.93305115820E+02  0.00000000000E+00 0.  1.
         11    1    3    3    0    0 -0.58514935195E+02  0.20434390012E+02  0.34315057120E+03  0.34870313513E+03  0.00000000000E+00 0. -1.
</event>
<event>
 7    1  0.6584658E-006  0.1184624E+03  0.7561462E-02  0.1245655E+00
          2   -1    0    0  501    0  0.00000000000E+00  0.00000000000E+00  0.90377214656E+03  0.90377214656E+03  0.00000000000E+00 0.  1.
         -2   -1    0    0    0  501 -0.00000000000E+00 -0.00000000000E+00 -0.16024248575E+02  0.16024248575E+02  0.00000000000E+00 0. -1.
         23    2    1    2    0    0  0.48165123982E+02 -0.19468765575E+02  0.40287600638E+03  0.41636135693E+03  0.91371718954E+02 0.  0.
          5    1    1    2  502    0  0.42153438791E+02 -0.13430853367E+01  0.13722643808E+03  0.14362201777E+03  0.41800000000E+01 0.  1.
         -5    1    1    2    0  502 -0.90318562774E+02  0.20811850912E+02  0.34764545352E+03  0.35981302043E+03  0.41800000000E+01 0.  1.
        -11    1    3    3    0    0 -0.25769708061E+02 -0.23765532865E+01  0.15447399896E+03  0.15662676085E+03  0.00000000000E+00 0.  1.
         11    1    3    3    0    0  0.73934832043E+02 -0.17092212289E+02  0.24840200742E+03  0.25973459608E+03  0.00000000000E+00 0. -1.
</event>
<event>
 7    1  0.6584658E-006  0.2754841E+03  0.7561462E-02  0.1098181E+00
          1   -1    0    0  501    0  0.00000000000E+00  0.00000000000E+00  0.49996634933E+03  0.49996634933E+03  0.00000000000E+00 0. -1.
         -1   -1    0    0    0  501 -0.00000000000E+00 -0.00000000000E+00 -0.15347871256E+03  0.15347871256E+03  0.00000000000E+00 0.  1.
         23    2    1    2    0    0  0.14521051397E+03 -0.20855229798E+03  0.18424221601E+03  0.32702262219E+03  0.91752094807E+02 0.  0.
          5    1    1    2  502    0 -0.37588349791E+02  0.16027422445E+03  0.84513723958E+02  0.18509660451E+03  0.41800000000E+01 0.  1.
         -5    1    1    2    0  502 -0.10762216418E+03  0.48278073533E+02  0.77731696792E+02  0.14132583519E+03  0.41800000000E+01 0.  1.
        -11    1    3    3    0    0  0.14998203988E+02 -0.92911085978E+02  0.46445858668E+02  0.10495062557E+03  0.00000000000E+00 0.  1.
         11    1    3    3    0    0  0.13021230998E+03 -0.11564121201E+03  0.13779635735E+03  0.22207199662E+03  0.00000000000E+00 0. -1.
</event>
<event>
 7    1  0.6584658E-006  0.1338017E+03  0.7561462E-02  0.1221921E+00
         -2   -1    0    0    0  501 -0.00000000000E+00  0.00000000000E+00  0.12591485693E+03  0.12591485693E+03  0.00000000000E+00 0. -1.
          2   -1    0    0  501    0  0.00000000000E+00 -0.00000000000E+00 -0.16783765091E+03  0.16783765091E+03  0.00000000000E+00 0.  1.
         23    2    1    2    0    0  0.63962962127E+02  0.72333285933E+02 -0.22140503017E+02  0.13450037639E+03  0.90976835496E+02 0.  0.
          5    1    1    2  502    0 -0.78454205597E+02  0.20670668304E+01 -0.26747816056E+02  0.83019595307E+02  0.41800000000E+01 0.  1.
         -5    1    1    2    0  502  0.14491243470E+02 -0.74400352763E+02  0.69655250931E+01  0.76232536154E+02  0.41800000000E+01 0.  1.
        -11    1    3    3    0    0  0.59980365853E+02  0.24005853754E+02  0.22676779707E+02  0.68470151454E+02  0.00000000000E+00 0. -1.
         11    1    3    3    0    0  0.39825962738E+01  0.48327432179E+02 -0.44817282724E+02  0.66030224934E+02  0.00000000000E+00 0.  1.
</event>
<event>
 7    1  0.6584658E-006  0.8610110E+02  0.7561462E-02  0.1312578E+00
         -2   -1    0    0    0  501 -0.00000000000E+00  0.00000000000E+00  0.67279992235E+02  0.67279992235E+02  0.00000000000E+00 0.  1.
          2   -1    0    0  501    0  0.00000000000E+00 -0.00000000000E+00 -0.30565231434E+03  0.30565231434E+03  0.00000000000E+00 0. -1.
         23    2    1    2    0    0  0.83420299535E+02 -0.15622177475E+02 -0.16028650701E+03  0.20283028714E+03  0.90803977055E+02 0.  0.
          5    1    1    2  502    0 -0.38790991847E+02  0.14768198465E+02  0.31123834927E+02  0.52048114614E+02  0.41800000000E+01 0. -1.
         -5    1    1    2    0  502 -0.44629307688E+02  0.85397900987E+00 -0.10920965003E+03  0.11805390482E+03  0.41800000000E+01 0. -1.
        -11    1    3    3    0    0  0.42543734606E+02 -0.13835047092E+02 -0.83862229643E+01  0.45516003975E+02  0.00000000000E+00 0.  1.
         11    1    3    3    0    0  0.40876564929E+02 -0.17871303832E+01 -0.15190028404E+03  0.15731428316E+03  0.00000000000E+00 0. -1.
</event>
<event>
 7    1  0.6584658E-006  0.5905576E+02  0.7561462E-02  0.1401838E+00
          1   -1    0    0  501    0  0.00000000000E+00  0.00000000000E+00  0.97125317920E+02  0.97125317920E+02  0.00000000000E+00 0. -1.
         -1   -1    0    0    0  501 -0.00000000000E+00 -0.00000000000E+00 -0.13601381529E+03  0.13601381529E+03  0.00000000000E+00 0.  1.
         23    2    1    2    0    0  0.16429574387E+02 -0.22772813731E+02  0.92509185452E+01  0.96189932280E+02  0.91533554603E+02 0.  0.
          5    1    1    2  502    0  0.23403106121E+02  0.39840726136E+02  0.24345663930E+02  0.52394394618E+02  0.41800000000E+01 0. -1.
         -5    1    1    2    0  502 -0.39832680507E+02 -0.17067912405E+02 -0.72485079842E+02  0.84554806309E+02  0.41800000000E+01 0. -1.
        -11    1    3    3    0    0  0.10426881806E+02 -0.12453961846E+02 -0.41231388844E+02  0.44315329807E+02  0.00000000000E+00 0.  1.
         11    1    3    3    0    0  0.60026925803E+01 -0.10318851886E+02  0.50482307389E+02  0.51874602474E+02  0.00000000000E+00 0. -1.
</event>
<event>
 7    1  0.1027795E-005  0.1711947E+03  0.7561462E-02  0.1176608E+00
          1   -1    0    0  501    0  0.00000000000E+00  0.00000000000E+00  0.48964499205E+03  0.48964499205E+03  0.00000000000E+00 0. -1.
         -1   -1    0    0    0  501 -0.00000000000E+00 -0.00000000000E+00 -0.84406787726E+02  0.84406787726E+02  0.00000000000E+00 0.  1.
         23    2    1    2    0    0 -0.74585782184E+02  0.14790499638E+03  0.25661069784E+03  0.31875521147E+03  0.91197081830E+02 0.  0.
          5    1    1    2  502    0  0.34211579895E+01 -0.73300419725E+02 -0.10384786162E+01  0.73506507819E+02  0.41800000000E+01 0. -1.
         -5    1    1    2    0  502  0.71164624195E+02 -0.74604576660E+02  0.14966598510E+03  0.18179006048E+03  0.41800000000E+01 0. -1.
        -11    1    3    3    0    0 -0.37428465969E+02  0.69466991940E+02  0.20033100607E+03  0.21531155340E+03  0.00000000000E+00 0. -1.
         11    1    3    3    0    0 -0.37157316215E+02  0.78438004445E+02  0.56279691769E+02  0.10344365807E+03  0.00000000000E+00 0.  1.
</event>
<event>
 7    1  0.6584658E-006  0.8114506E+02  0.7561462E-02  0.1325833E+00
         -2   -1    0    0    0  501 -0.00000000000E+00  0.00000000000E+00  0.41746122436E+02  0.41746122436E+02  0.00000000000E+00 0.  1.
          2   -1    0    0  501    0  0.00000000000E+00 -0.00000000000E+00 -0.29146493805E+03  0.29146493805E+03  0.00000000000E+00 0. -1.
         23    2    1    2    0    0  0.70767019840E+01 -0.15270224595E+02 -0.13448418016E+03  0.16230172103E+03  0.89289386073E+02 0.  0.
          5    1    1    2  502    0 -0.44434726363E+02  0.54174265379E+02 -0.50090387504E+02  0.86231173346E+02  0.41800000000E+01 0.  1.
         -5    1    1    2    0  502  0.37358024379E+02 -0.38904040784E+02 -0.65144247946E+02  0.84678166107E+02  0.41800000000E+01 0.  1.
        -11    1    3    3    0    0 -0.12894957836E+02 -0.57180477124E-01  0.95813204060E+01  0.16065021255E+02  0.00000000000E+00 0.  1.
         11    1    3    3    0    0  0.19971659820E+02 -0.15213044118E+02 -0.14406550057E+03  0.14623669977E+03  0.00000000000E+00 0. -1.
</event>
<event>
 7    1  0.6584658E-006  0.1087524E+03  0.7561462E-02  0.1262898E+00
         -1   -1    0    0    0  501 -0.00000000000E+00  0.00000000000E+00  0.22954325715E+02  0.22954325715E+02  0.00000000000E+00 0.  1.
          1   -1    0    0  501    0  0.00000000000E+00 -0.00000000000E+00 -0.65380468585E+03  0.65380468585E+03  0.00000000000E+00 0. -1.
         23    2    1    2    0    0  0.47979235449E+02  0.24551625836E+02 -0.33224980986E+03  0.34855696069E+03  0.90538551623E+02 0.  0.
          5    1    1    2  502    0 -0.56841698972E+02 -0.56113402415E+02 -0.27795887877E+03  0.28923745151E+03  0.41800000000E+01 0.  1.
         -5    1    1    2    0  502  0.88624635232E+01  0.31561776579E+02 -0.20641671507E+02  0.38964599358E+02  0.41800000000E+01 0.  1.
        -11    1    3    3    0    0  0.21758864614E+01  0.51357707232E+02 -0.18613899643E+03  0.19310638148E+03  0.00000000000E+00 0.  1.
         11    1    3    3    0    0  0.45803348987E+02 -0.26806081396E+02 -0.14611081343E+03  0.15545057922E+03  0.00000000000E+00 0. -1.
</event>
<event>
 7    1  0.6584658E-006  0.7918369E+02  0.7561462E-02  0.1331384E+00
          1   -1    0    0  501    0  0.00000000000E+00  0.00000000000E+00  0.35151305116E+03  0.35151305116E+03  0.00000000000E+00 0. -1.
         -1   -1    0    0    0  501 -0.00000000000E+00 -0.00000000000E+00 -0.30215888778E+02  0.30215888778E+02  0.00000000000E+00 0.  1.
         23    2    1    2    0    0  0.13561752386E+02 -0.38160411576E+02  0.14367848353E+03  0.16073611583E+03  0.59602467749E+02 0.  0.
          5    1    1    2  502    0 -0.51296717937E+02  0.11753230337E+02  0.16473207485E+03  0.17298445184E+03  0.41800000000E+01 0. -1.
         -5    1    1    2    0  502  0.37734965551E+02  0.26407181239E+02  0.12886604011E+02  0.48008372281E+02  0.41800000000E+01 0. -1.
        -11    1    3    3    0    0 -0.26308416957E+01 -0.42487109453E+02  0.50434968906E+02  0.65998196083E+02  0.00000000000E+00 0.  1.
         11    1    3    3    0    0  0.16192594082E+02  0.43266978768E+01  0.93243514624E+02  0.94737919742E+02  0.00000000000E+00 0. -1.
</event>
<event>
 7    1  0.6584658E-006  0.9513801E+02  0.7561462E-02  0.1290866E+00
          2   -1    0    0  501    0  0.00000000000E+00  0.00000000000E+00  0.14045616049E+03  0.14045616049E+03  0.00000000000E+00 0.  1.
         -2   -1    0    0    0  501 -0.00000000000E+00 -0.00000000000E+00 -0.10622425943E+03  0.10622425943E+03  0.00000000000E+00 0. -1.
         23    2    1    2    0    0  0.27645628390E+02  0.42591921264E+02  0.39370253453E+02  0.11157509435E+03  0.91217499951E+02 0.  0.
          5    1    1    2  502    0  0.20258910048E+02  0.36784399836E+02 -0.15714539535E+01  0.42231000167E+02  0.41800000000E+01 0.  1.
         -5    1    1    2    0  502 -0.47904538438E+02 -0.79376321099E+02 -0.35668984371E+01  0.92874325401E+02  0.41800000000E+01 0.  1.
        -11    1    3    3    0    0  0.58755499481E+01  0.29032241877E+02 -0.27212566420E+02  0.40223338086E+02  0.00000000000E+00 0. -1.
         11    1    3    3    0    0  0.21770078442E+02  0.13559679387E+02  0.66582819873E+02  0.71351756269E+02  0.00000000000E+00 0.  1.
</event>
<event>
 7    1  0.6584658E-006  0.1291617E+03  0.7561462E-02  0.1228705E+00
         -2   -1    0    0    0  501 -0.00000000000E+00  0.00000000000E+00  0.33405766194E+02  0.33405766194E+02  0.00000000000E+00 0.  1.
          2   -1    0    0  501    0  0.00000000000E+00 -0.00000000000E+00 -0.56738521055E+03  0.56738521055E+03  0.00000000000E+00 0. -1.
         23    2    1    2    0    0  0.86310422052E+02 -0.24922960175E+01 -0.24075988123E+03  0.27051755237E+03  0.88083626362E+02 0.  0.
          5    1    1    2  502    0 -0.36298628968E+02 -0.53263806044E+02 -0.20252107724E+03  0.21257206454E+03  0.41800000000E+01 0.  1.
         -5    1    1    2    0  502 -0.50011793084E+02  0.55756102062E+02 -0.90698485889E+02  0.11770135984E+03  0.41800000000E+01 0.  1.
        -11    1    3    3    0    0  0.46788676513E+02 -0.41970245422E+02 -0.16360461690E+03  0.17526309487E+03  0.00000000000E+00 0. -1.
         11    1    3    3    0    0  0.39521745539E+02  0.39477949405E+02 -0.77155264331E+02  0.95254457500E+02  0.00000000000E+00 0.  1.
</event>
<event>
 7    1  0.6584658E-006  0.8778840E+02  0.7561462E-02  0.1308298E+00
          2   -1    0    0  501    0  0.00000000000E+00  0.00000000000E+00  0.89581494025E+02  0.89581494025E+02  0.00000000000E+00 0. -1.
         -2   -1    0    0    0  501 -0.00000000000E+00 -0.00000000000E+00 -0.15864796288E+03  0.15864796288E+03  0.00000000000E+00 0.  1.
         23    2    1    2    0    0 -0.85219479875E+01 -0.42930041405E+02 -0.41217947163E+01  0.10064058073E+03  0.90531349519E+02 0.  0.
          5    1    1    2  502    0  0.32911042254E+02 -0.34145880343E+02 -0.41903991097E+02  0.63423140229E+02  0.41800000000E+01 0.  1.
         -5    1    1    2    0  502 -0.24389094267E+02  0.77075921749E+02 -0.23040683045E+02  0.84165735948E+02  0.41800000000E+01 0.  1.
        -11    1    3    3    0    0  0.38309807211E+01 -0.24709138248E+02 -0.46550574643E+02  0.52841025026E+02  0.00000000000E+00 0.  1.
         11    1    3    3    0    0 -0.12352928709E+02 -0.18220903157E+02  0.42428779927E+02  0.47799555705E+02  0.00000000000E+00 0. -1.
</event>
<event>
 7    1  0.6584658E-006  0.9434696E+02  0.7561462E-02  0.1292654E+00
          2   -1    0    0  501    0  0.00000000000E+00  0.00000000000E+00  0.48396166698E+02  0.48396166698E+02  0.00000000000E+00 0. -1.
         -2   -1    0    0    0  501 -0.00000000000E+00 -0.00000000000E+00 -0.28435769200E+03  0.28435769200E+03  0.00000000000E+00 0.  1.
         23    2    1    2    0    0 -0.10747805429E+02  0.37830835246E+01 -0.38383580829E+02  0.98629472136E+02  0.90136820745E+02 0.  0.
          5    1    1    2  502    0 -0.22304279811E+02 -0.42474879947E+02 -0.16875623329E+03  0.17549283461E+03  0.41800000000E+01 0. -1.
         -5    1    1    2    0  502  0.33052085240E+02  0.38691796423E+02 -0.28821711183E+02  0.58631551955E+02  0.41800000000E+01 0. -1.
        -11    1    3    3    0    0  0.29038767541E+02 -0.26629175144E+02 -0.84811093281E+01  0.40302508664E+02  0.00000000000E+00 0. -1.
         11    1    3    3    0    0 -0.39786572970E+02  0.30412258668E+02 -0.29902471500E+02  0.58326963472E+02  0.00000000000E+00 0.  1.
</event>
<event>
 7    1  0.6584658E-006  0.6782450E+02  0.7561462E-02  0.1367651E+00
         -1   -1    0    0    0  501 -0.00000000000E+00  0.00000000000E+00  0.53330325376E+02  0.53330325376E+02  0.00000000000E+00 0.  1.
          1   -1    0    0  501    0  0.00000000000E+00 -0.00000000000E+00 -0.21622173302E+03  0.21622173302E+03  0.00000000000E+00 0. -1.
         23    2    1    2    0    0  0.73405589886E+01  0.94949628045E+01 -0.95891039380E+02  0.12714372412E+03  0.82622012960E+02 0.  0.
          5    1    1    2  502    0 -0.27699119190E+02 -0.35695599841E+02  0.19711031190E+02  0.49471347288E+02  0.41800000000E+01 0. -1.
         -5    1    1    2    0  502  0.20358560201E+02  0.26200637036E+02 -0.86711399456E+02  0.92936986987E+02  0.41800000000E+01 0. -1.
        -11    1    3    3    0    0  0.22037551982E+02  0.26427347929E+02 -0.65446087191E+01  0.35026994150E+02  0.00000000000E+00 0.  1.
         11    1    3    3    0    0 -0.14696992994E+02 -0.16932385124E+02 -0.89346430661E+02  0.92116729973E+02  0.00000000000E+00 0. -1.
</event>
<event>
 7    1  0.6584658E-006  0.1394312E+03  0.7561462E-02  0.1214096E+00
         -1   -1    0    0    0  501 -0.00000000000E+00  0.00000000000E+00  0.57449623730E+02  0.57449623730E+02  0.00000000000E+00 0.  1.
          1   -1    0    0  501    0  0.00000000000E+00 -0.00000000000E+00 -0.44500068799E+03  0.44500068799E+03  0.00000000000E+00 0. -1.
         23    2    1    2    0    0 -0.11390644516E+03 -0.21971195136E+02 -0.20409074020E+03  0.25192743910E+03  0.91416588593E+02 0.  0.
          5    1    1    2  502    0  0.10118806253E+03 -0.76212797343E+01 -0.50064906684E+02  0.11323018672E+03  0.41800000000E+01 0.  1.
         -5    1    1    2    0  502  0.12718382634E+02  0.29592474870E+02 -0.13339541737E+03  0.13729268590E+03  0.41800000000E+01 0.  1.
        -11    1    3    3    0    0  0.14544932733E+02 -0.42542163784E+01 -0.88464677638E+01  0.17547461842E+02  0.00000000000E+00 0.  1.
         11    1    3    3    0    0 -0.12845137789E+03 -0.17716978758E+02 -0.19524427243E+03  0.23437997725E+03  0.00000000000E+00 0. -1.
</event>
<event>
 7    1  0.6584658E-006  0.1533978E+03  0.7561462E-02  0.1196359E+00
          1   -1    0    0  501    0  0.00000000000E+00  0.00000000000E+00  0.17263143152E+03  0.17263143152E+03  0.00000000000E+00 0. -1.
         -1   -1    0    0    0  501 -0.00000000000E+00 -0.00000000000E+00 -0.19300328799E+03  0.19300328799E+03  0.00000000000E+00 0.  1.
         23    2    1    2    0    0  0.10615182770E+03  0.89891578918E+02  0.42539663045E+02  0.16826539231E+03  0.84586717824E+02 0.  0.
          5    1    1    2  502    0 -0.10267880775E+03 -0.69348345853E+02 -0.96854982738E+02  0.15732288681E+03  0.41800000000E+01 0.  1.
         -5    1    1    2    0  502 -0.34730199558E+01 -0.20543233065E+02  0.33943463225E+02  0.40046440392E+02  0.41800000000E+01 0.  1.
        -11    1    3    3    0    0  0.58912760605E+02  0.97309548695E+02  0.39249188952E+02  0.12033436942E+03  0.00000000000E+00 0.  1.
         11    1    3    3    0    0  0.47239067098E+02 -0.74179697771E+01  0.32904740926E+01  0.47931022894E+02  0.00000000000E+00 0. -1.
</event>
<event>
 7    1  0.6584658E-006  0.9906928E+02  0.7561462E-02  0.1282265E+00
         -1   -1    0    0    0  501 -0.00000000000E+00  0.00000000000E+00  0.11411196854E+03  0.11411196854E+03  0.00000000000E+00 0.  1.
          1   -1    0    0  501    0  0.00000000000E+00 -0.00000000000E+00 -0.16936969677E+03  0.16936969677E+03  0.00000000000E+00 0. -1.
         23    2    1    2    0    0 -0.39525691232E+02  0.78335071972E+02 -0.16454328464E+02  0.12583410715E+03  0.88683785606E+02 0.  0.
          5    1    1    2  502    0 -0.12983223754E+02  0.23512435197E+01  0.34110395240E+02  0.36811464363E+02  0.41800000000E+01 0.  1.
         -5    1    1    2    0  502  0.52508914986E+02 -0.80686315492E+02 -0.72913795012E+02  0.12083609380E+03  0.41800000000E+01 0.  1.
        -11    1    3    3    0    0 -0.32949890472E+02  0.69603492409E+02  0.26554116328E+02  0.81458348447E+02  0.00000000000E+00 0.  1.
         11    1    3    3    0    0 -0.65758007606E+01  0.87315795627E+01 -0.43008444792E+02  0.44375758706E+02  0.00000000000E+00 0. -1.
</event>
<event>
 7    1  0.6584658E-006  0.7808313E+02  0.7561462E-02  0.1334581E+00
         -1   -1    0    0    0  501 -0.00000000000E+00  0.00000000000E+00  0.27893067490E+03  0.27893067490E+03  0.00000000000E+00 0.  1.
          1   -1    0    0  501    0  0.00000000000E+00 -0.00000000000E+00 -0.43337529083E+02  0.43337529083E+02  0.00000000000E+00 0. -1.
         23    2    1    2    0    0  0.19313595645E+02  0.11925747145E+02  0.10532281330E+03  0.14024203688E+03  0.89775806792E+02 0.  0.
          5    1    1    2  502    0  0.41561014725E+02  0.23801630834E+02  0.86223875992E+02  0.98721146501E+02  0.41800000000E+01 0.  1.
         -5    1    1    2    0  502 -0.60874610370E+02 -0.35727377979E+02  0.44046456521E+02  0.83305020599E+02  0.41800000000E+01 0.  1.
        -11    1    3    3    0    0 -0.44078323704E+01  0.12908496016E+02 -0.13428213390E+02  0.19140929195E+02  0.00000000000E+00 0. -1.
         11    1    3    3    0    0  0.23721428015E+02 -0.98274887090E+00  0.11875102669E+03  0.12110110769E+03  0.00000000000E+00 0.  1.
</event>
<event>
 7    1  0.6584658E-006  0.1177339E+03  0.7561462E-02  0.1246883E+00
          1   -1    0    0  501    0  0.00000000000E+00  0.00000000000E+00  0.39241601265E+03  0.39241601265E+03  0.00000000000E+00 0. -1.
         -1   -1    0    0    0  501 -0.00000000000E+00 -0.00000000000E+00 -0.42136891368E+02  0.42136891368E+02  0.00000000000E+00 0.  1.
         23    2    1    2    0    0  0.73421443676E+02  0.12917680615E+02  0.16533248219E+03  0.19915841538E+03  0.82290156682E+02 0.  0.
          5    1    1    2  502    0  0.15601592576E+02  0.24381269562E+02  0.30137182357E+01  0.29400865531E+02  0.41800000000E+01 0. -1.
         -5    1    1    2    0  502 -0.89023036252E+02 -0.37298950177E+02  0.18193292086E+03  0.20599362311E+03  0.41800000000E+01 0. -1.
        -11    1    3    3    0    0  0.49200231562E+02 -0.31920660011E+02  0.72440005291E+02  0.93204858714E+02  0.00000000000E+00 0.  1.
         11    1    3    3    0    0  0.24221212114E+02  0.44838340627E+02  0.92892476894E+02  0.10595355667E+03  0.00000000000E+00 0. -1.
</event>
<event>
 7    1  0.6584658E-006  0.1507220E+03  0.7561462E-02  0.1199589E+00
         -2   -1    0    0    0  501 -0.00000000000E+00  0.00000000000E+00  0.47998381492E+02  0.47998381492E+02  0.00000000000E+00 0.  1.
          2   -1    0    0  501    0  0.00000000000E+00 -0.00000000000E+00 -0.60324182813E+03  0.60324182813E+03  0.00000000000E+00 0. -1.
         23    2    1    2    0    0  0.10402981306E+03 -0.65467150618E+02 -0.31857886896E+03  0.35330884532E+03  0.90700025439E+02 0.  0.
          5    1    1    2  502    0 -0.10602312694E+02 -0.25050028997E+02 -0.12009761876E+03  0.12321048421E+03  0.41800000000E+01 0. -1.
         -5    1    1    2    0  502 -0.93427500368E+02  0.90517179615E+02 -0.11656695892E+03  0.17472088010E+03  0.41800000000E+01 0.  1.
        -11    1    3    3    0    0  0.44134125149E+02  0.12107502258E+02 -0.51923980817E+02  0.69213527561E+02  0.00000000000E+00 0.  1.
         11    1    3    3    0    0  0.59895687913E+02 -0.77574652876E+02 -0.26665488814E+03  0.28409531775E+03  0.00000000000E+00 0. -1.
</event>
<event>
 7    1  0.6584658E-006  0.9726021E+02  0.7561462E-02  0.1286165E+00
         -2   -1    0    0    0  501 -0.00000000000E+00  0.00000000000E+00  0.24542804407E+03  0.24542804407E+03  0.00000000000E+00 0.  1.
          2   -1    0    0  501    0  0.00000000000E+00 -0.00000000000E+00 -0.73496861256E+02  0.73496861256E+02  0.00000000000E+00 0. -1.
         23    2    1    2    0    0 -0.73369180627E+02 -0.19421882685E+02  0.51673383866E+02  0.12952833034E+03  0.91363031734E+02 0.  0.
          5    1    1    2  502    0 -0.19272739679E+02  0.64434626383E+01  0.87912878835E+02  0.90327755261E+02  0.41800000000E+01 0. -1.
         -5    1    1    2    0  502  0.92641920306E+02  0.12978420047E+02  0.32344920118E+02  0.99068819728E+02  0.41800000000E+01 0. -1.
        -11    1    3    3    0    0 -0.27354241866E+02  0.53530403445E+01  0.69042824837E+02  0.74456841529E+02  0.00000000000E+00 0.  1.
         11    1    3    3    0    0 -0.46014938761E+02 -0.24774923029E+02 -0.17369440971E+02  0.55071488811E+02  0.00000000000E+00 0. -1.
</event>
<event>
 7    1  0.6584658E-006  0.3691015E+03  0.7561462E-02  0.1055037E+00
          2   -1    0    0  501    0  0.00000000000E+00  0.00000000000E+00  0.21375024050E+03  0.21375024050E+03  0.00000000000E+00 0. -1.
         -2   -1    0    0    0  501 -0.00000000000E+00 -0.00000000000E+00 -0.92844081025E+03  0.92844081025E+03  0.00000000000E+00 0.  1.
         23    2    1    2    0    0 -0.83863442179E+02  0.94403275810E+02  0.54213148313E+02  0.16671680954E+03  0.94394775883E+02 0.  0.
          5    1    1    2  502    0 -0.13947042924E+03 -0.26501078047E+03 -0.51975602109E+03  0.59987207658E+03  0.41800000000E+01 0. -1.
         -5    1    1    2    0  502  0.22333387142E+03  0.17060750466E+03 -0.24914769697E+03  0.37560216463E+03  0.41800000000E+01 0.  1.
        -11    1    3    3    0    0  0.17856436644E+02  0.36375552499E+02  0.12602503372E+02  0.42436496562E+02  0.00000000000E+00 0.  1.
         11    1    3    3    0    0 -0.10171987882E+03  0.58027723310E+02  0.41610644942E+02  0.12428031297E+03  0.00000000000E+00 0. -1.
</event>
<event>
 7    1  0.6584658E-006  0.9376620E+02  0.7561462E-02  0.1293979E+00
          2   -1    0    0  501    0  0.00000000000E+00  0.00000000000E+00  0.29249237582E+03  0.29249237582E+03  0.00000000000E+00 0. -1.
         -2   -1    0    0    0  501 -0.00000000000E+00 -0.00000000000E+00 -0.46096357484E+02  0.46096357484E+02  0.00000000000E+00 0.  1.
         23    2    1    2    0    0  0.29003714436E+01  0.20107055462E+02  0.15704124670E+03  0.18352603921E+03  0.92774716765E+02 0.  0.
          5    1    1    2  502    0 -0.52998743080E+02 -0.26782782819E+01  0.86764342761E+02  0.10179176547E+03  0.41800000000E+01 0. -1.
         -5    1    1    2    0  502  0.50098371636E+02 -0.17428777181E+02  0.25904288781E+01  0.53270928623E+02  0.41800000000E+01 0. -1.
        -11    1    3    3    0    0  0.33735987239E+02  0.33438185779E+02  0.13558526162E+03  0.14366486095E+03  0.00000000000E+00 0. -1.
         11    1    3    3    0    0 -0.30835615795E+02 -0.13331130316E+02  0.21455985083E+02  0.39861178267E+02  0.00000000000E+00 0.  1.
</event>
<event>
 7    1  0.6584658E-006  0.2013678E+03  0.7561462E-02  0.1148590E+00
          1   -1    0    0  501    0  0.00000000000E+00  0.00000000000E+00  0.11944122814E+04  0.11944122814E+04  0.00000000000E+00 0. -1.
         -1   -1    0    0    0  501 -0.00000000000E+00 -0.00000000000E+00 -0.40750976281E+02  0.40750976281E+02  0.00000000000E+00 0.  1.
         23    2    1    2    0    0 -0.12399678133E+03 -0.14702358541E+03  0.61359869708E+03  0.64838891346E+03  0.83148575406E+02 0.  0.
          5    1    1    2  502    0  0.20099214306E+02  0.69792677004E+02  0.34525786046E+03  0.35283914010E+03  0.41800000000E+01 0.  1.
         -5    1    1    2    0  502  0.10389756702E+03  0.77230908405E+02  0.19480474756E+03  0.23393520410E+03  0.41800000000E+01 0.  1.
        -11    1    3    3    0    0 -0.95928596122E+02 -0.70778667920E+02  0.26717437178E+03  0.29256462589E+03  0.00000000000E+00 0.  1.
         11    1    3    3    0    0 -0.28068185204E+02 -0.76244917489E+02  0.34642432530E+03  0.35582428757E+03  0.00000000000E+00 0. -1.
</event>
<event>
 7    1  0.6584658E-006  0.1178539E+03  0.7561462E-02  0.1246680E+00
          2   -1    0    0  501    0  0.00000000000E+00  0.00000000000E+00  0.88101469095E+02  0.88101469095E+02  0.00000000000E+00 0. -1.
         -2   -1    0    0    0  501 -0.00000000000E+00 -0.00000000000E+00 -0.19637739824E+03  0.19637739824E+03  0.00000000000E+00 0.  1.
         23    2    1    2    0    0  0.62016080246E+02 -0.39465485959E+02 -0.28136377879E+02  0.11872865871E+03  0.88889368591E+02 0.  0.
          5    1    1    2  502    0  0.46727342179E+01  0.63895053732E+02 -0.68101942895E+02  0.93593586119E+02  0.41800000000E+01 0. -1.
         -5    1    1    2    0  502 -0.66688814464E+02 -0.24429567773E+02 -0.12037608375E+02  0.72156622507E+02  0.41800000000E+01 0. -1.
        -11    1    3    3    0    0  0.39656528348E+02 -0.58717543176E+02  0.88607287771E+01  0.71406600758E+02  0.00000000000E+00 0. -1.
         11    1    3    3    0    0  0.22359551898E+02  0.19252057217E+02 -0.36997106657E+02  0.47322057955E+02  0.00000000000E+00 0.  1.
</event>
<event>
 7    1  0.6584658E-006  0.9940340E+02  0.7561462E-02  0.1281556E+00
          1   -1    0    0  501    0  0.00000000000E+00  0.00000000000E+00  0.40173407358E+03  0.40173407358E+03  0.00000000000E+00 0. -1.
         -1   -1    0    0    0  501 -0.00000000000E+00 -0.00000000000E+00 -0.31049712045E+02  0.31049712045E+02  0.00000000000E+00 0.  1.
         23    2    1    2    0    0 -0.28030888853E+02  0.43746200270E+01  0.16771367637E+03  0.19267932534E+03  0.90512856227E+02 0.  0.
          5    1    1    2  502    0  0.16545287022E+02  0.48605162768E+02  0.16736153749E+03  0.17511015105E+03  0.41800000000E+01 0. -1.
         -5    1    1    2    0  502  0.11485601831E+02 -0.52979782795E+02  0.35609147677E+02  0.64994309233E+02  0.41800000000E+01 0. -1.
        -11    1    3    3    0    0 -0.60354981235E+02  0.42032553087E+00  0.89422568573E+02  0.10788556995E+03  0.00000000000E+00 0. -1.
         11    1    3    3    0    0  0.32324092382E+02  0.39542944961E+01  0.78291107794E+02  0.84793755389E+02  0.00000000000E+00 0.  1.
</event>
<event>
 7    1  0.6584658E-006  0.1921872E+03  0.7561462E-02  0.1156503E+00
         -1   -1    0    0    0  501 -0.00000000000E+00  0.00000000000E+00  0.22504597649E+03  0.22504597649E+03  0.00000000000E+00 0.  1.
          1   -1    0    0  501    0  0.00000000000E+00 -0.00000000000E+00 -0.23739807885E+03  0.23739807885E+03  0.00000000000E+00 0. -1.
         23    2    1    2    0    0 -0.15994744235E+03 -0.88183754724E+02 -0.96336293152E+02  0.22566979474E+03  0.91030851723E+02 0.  0.
          5    1    1    2  502    0  0.59700015211E+02  0.42631624920E+02  0.10139163491E+03  0.12521694490E+03  0.41800000000E+01 0. -1.
         -5    1    1    2    0  502  0.10024742714E+03  0.45552129804E+02 -0.17407444113E+02  0.11155731571E+03  0.41800000000E+01 0. -1.
        -11    1    3    3    0    0 -0.10529067423E+03 -0.99525651230E+02 -0.87212421322E+02  0.16910791751E+03  0.00000000000E+00 0. -1.
         11    1    3    3    0    0 -0.54656768119E+02  0.11341896506E+02 -0.91238718303E+01  0.56561877221E+02  0.00000000000E+00 0.  1.
</event>
<event>
 7    1  0.6584658E-006  0.5365007E+02  0.7561462E-02  0.1426593E+00
          1   -1    0    0  501    0  0.00000000000E+00  0.00000000000E+00  0.15813902556E+03  0.15813902556E+03  0.00000000000E+00 0. -1.
         -1   -1    0    0    0  501 -0.00000000000E+00 -0.00000000000E+00 -0.88870328027E+02  0.88870328027E+02  0.00000000000E+00 0.  1.
         23    2    1    2    0    0  0.13994670314E+02 -0.23148854915E+02  0.68961518505E+02  0.11902878451E+03  0.93168880142E+02 0.  0.
          5    1    1    2  502    0 -0.22645089629E+02 -0.78485624910E+00 -0.58983289030E+02  0.63323904399E+02  0.41800000000E+01 0.  1.
         -5    1    1    2    0  502  0.86504193155E+01  0.23933711164E+02  0.59290468059E+02  0.64656664676E+02  0.41800000000E+01 0.  1.
        -11    1    3    3    0    0  0.24054945129E+02 -0.35285569047E+02 -0.53725218532E+01  0.43041558512E+02  0.00000000000E+00 0.  1.
         11    1    3    3    0    0 -0.10060274815E+02  0.12136714131E+02  0.74334040359E+02  0.75987226001E+02  0.00000000000E+00 0. -1.
</event>
<event>
 7    1  0.6584658E-006  0.5825009E+02  0.7561462E-02  0.1405326E+00
          2   -1    0    0  501    0  0.00000000000E+00  0.00000000000E+00  0.29858192474E+03  0.29858192474E+03  0.00000000000E+00 0. -1.
         -2   -1    0    0    0  501 -0.00000000000E+00 -0.00000000000E+00 -0.39238119727E+02  0.39238119727E+02  0.00000000000E+00 0.  1.
         23    2    1    2    0    0  0.16516464576E+01  0.22606611843E+01  0.12360196615E+03  0.15320607771E+03  0.90481034958E+02 0.  0.
          5    1    1    2  502    0 -0.12021680927E+02  0.11033138889E+02  0.15658108566E+03  0.15748447464E+03  0.41800000000E+01 0.  1.
         -5    1    1    2    0  502  0.10370034470E+02 -0.13293800073E+02 -0.20839246797E+02  0.27129492114E+02  0.41800000000E+01 0.  1.
        -11    1    3    3    0    0  0.58784161053E+01  0.41956008891E+02  0.95237080590E+02  0.10423513792E+03  0.00000000000E+00 0. -1.
         11    1    3    3    0    0 -0.42267696477E+01 -0.39695347707E+02  0.28364885557E+02  0.48970939790E+02  0.00000000000E+00 0.  1.
</event>
<event>
 7    1  0.6584658E-006  0.1085505E+03  0.7561462E-02  0.1263278E+00
          1   -1    0    0  501    0  0.00000000000E+00  0.00000000000E+00  0.61475647027E+03  0.61475647027E+03  0.00000000000E+00 0. -1.
         -1   -1    0    0    0  501 -0.00000000000E+00 -0.00000000000E+00 -0.26949297232E+02  0.26949297232E+02  0.00000000000E+00 0.  1.
         23    2    1    2    0    0 -0.27213034259E+02 -0.95556816876E+01  0.41691692556E+03  0.42796880083E+03  0.92226413674E+02 0.  0.
          5    1    1    2  502    0  0.57111733328E+02 -0.36889389652E+02  0.12258261155E+03  0.14023746364E+03  0.41800000000E+01 0.  1.
         -5    1    1    2    0  502 -0.29898699069E+02  0.46445071339E+02  0.48307635928E+02  0.73499503037E+02  0.41800000000E+01 0.  1.
        -11    1    3    3    0    0  0.21268602891E+02 -0.33371784133E+02  0.12560855402E+03  0.13169486812E+03  0.00000000000E+00 0. -1.
         11    1    3    3    0    0 -0.48481637149E+02  0.23816102445E+02  0.29130837154E+03  0.29627393271E+03  0.00000000000E+00 0.  1.
</event>
<event>
 7    1  0.6584658E-006  0.1154013E+03  0.7561462E-02  0.1250882E+00
         -1   -1    0    0    0  501 -0.00000000000E+00  0.00000000000E+00  0.46116743322E+02  0.46116743322E+02  0.00000000000E+00 0.  1.
          1   -1    0    0  501    0  0.00000000000E+00 -0.00000000000E+00 -0.44099080794E+03  0.44099080794E+03  0.00000000000E+00 0. -1.
         23    2    1    2    0    0 -0.17800216615E+02  0.85625715728E+02 -0.22896562415E+03  0.26167727123E+03  0.91657658324E+02 0.  0.
          5    1    1    2  502    0  0.19803211254E+02 -0.94404216816E+02 -0.49314605836E+02  0.10841460269E+03  0.41800000000E+01 0.  1.
         -5    1    1    2    0  502 -0.20029946390E+01  0.87785010885E+01 -0.11659383464E+03  0.11701567734E+03  0.41800000000E+01 0.  1.
        -11    1    3    3    0    0 -0.53917557999E+02  0.54197256789E+02 -0.16431793842E+03  0.18123142827E+03  0.00000000000E+00 0.  1.
         11    1    3    3    0    0  0.36117341384E+02  0.31428458938E+02 -0.64647685728E+02  0.80445842962E+02  0.00000000000E+00 0. -1.
</event>
<event>
 7    1  0.6584658E-006  0.1470754E+03  0.7561462E-02  0.1204113E+00
         -2   -1    0    0    0  501 -0.00000000000E+00  0.00000000000E+00  0.60497374233E+02  0.60497374233E+02  0.00000000000E+00 0.  1.
          2   -1    0    0  501    0  0.00000000000E+00 -0.00000000000E+00 -0.48626029172E+03  0.48626029172E+03  0.00000000000E+00 0. -1.
         23    2    1    2    0    0  0.12470877527E+03 -0.35309311979E+02 -0.24209983072E+03  0.28950598781E+03  0.91664403114E+02 0.  0.
          5    1    1    2  502    0 -0.11361329428E+03 -0.11077737567E+02 -0.17440983715E+03  0.20848731521E+03  0.41800000000E+01 0.  1.
         -5    1    1    2    0  502 -0.11095480990E+02  0.46387049547E+02 -0.92532496120E+01  0.48764362934E+02  0.41800000000E+01 0.  1.
        -11    1    3    3    0    0  0.97730154323E+02 -0.38158003380E+02 -0.24043256763E+03  0.26232620125E+03  0.00000000000E+00 0. -1.
         11    1    3    3    0    0  0.26978620951E+02  0.28486914010E+01 -0.16672630938E+01  0.27179786558E+02  0.00000000000E+00 0.  1.
</event>
<event>
 7    1  0.6974858E-006  0.1918655E+03  0.7561462E-02  0.1156789E+00
         -2   -1    0    0    0  501 -0.00000000000E+00  0.00000000000E+00  0.41853092532E+02  0.41853092532E+02  0.00000000000E+00 0.  1.
          2   -1    0    0  501    0  0.00000000000E+00 -0.00000000000E+00 -0.10741432257E+04  0.10741432257E+04  0.00000000000E+00 0. -1.
         23    2    1    2    0    0  0.18711765767E+02  0.17996220015E+03 -0.56555694590E+03  0.60002753018E+03  0.86266182601E+02 0.  0.
          5    1    1    2  502    0  0.27742928191E+01 -0.13651394827E+03 -0.18447164784E+03  0.22954523744E+03  0.41800000000E+01 0.  1.
         -5    1    1    2    0  502 -0.21486058587E+02 -0.43448251879E+02 -0.28226153945E+03  0.28642355063E+03  0.41800000000E+01 0.  1.
        -11    1    3    3    0    0 -0.29321228975E+02  0.34445909840E+02 -0.96555090364E+02  0.10662617244E+03  0.00000000000E+00 0. -1.
         11    1    3    3    0    0  0.48032994742E+02  0.14551629031E+03 -0.46900185553E+03  0.49340135774E+03  0.00000000000E+00 0.  1.
</event>
<event>
 7    1  0.6584658E-006  0.2933223E+03  0.7561462E-02  0.1088627E+00
         -2   -1    0    0    0  501 -0.00000000000E+00  0.00000000000E+00  0.27038218995E+03  0.27038218995E+03  0.00000000000E+00 0.  1.
          2   -1    0    0  501    0  0.00000000000E+00 -0.00000000000E+00 -0.46257521332E+03  0.46257521332E+03  0.00000000000E+00 0. -1.
         23    2    1    2    0    0  0.27012735918E+03  0.78033239066E+02 -0.28636856093E+03  0.41107629325E+03  0.88987581169E+02 0.  0.
          5    1    1    2  502    0 -0.22280874738E+03 -0.99797537189E+02  0.10924789626E+03  0.26749927397E+03  0.41800000000E+01 0. -1.
         -5    1    1    2    0  502 -0.47318611804E+02  0.21764298123E+02 -0.15072358704E+02  0.54381836056E+02  0.41800000000E+01 0. -1.
        -11    1    3    3    0    0  0.13275055779E+03  0.75711155626E+02 -0.18704818905E+03  0.24154071025E+03  0.00000000000E+00 0.  1.
         11    1    3    3    0    0  0.13737680139E+03  0.23220834394E+01 -0.99320371876E+02  0.16953558300E+03  0.00000000000E+00 0. -1.
</event>
<event>
 7    1  0.6838692E-006  0.1583069E+03  0.7561462E-02  0.1190622E+00
          2   -1    0    0  501    0  0.00000000000E+00  0.00000000000E+00  0.85972211761E+03  0.85972211761E+03  0.00000000000E+00 0.  1.
         -2   -1    0    0    0  501 -0.00000000000E+00 -0.00000000000E+00 -0.56665713997E+02  0.56665713997E+02  0.00000000000E+00 0. -1.
         23    2    1    2    0    0  0.15143967813E+03 -0.62995862106E+01  0.63091653836E+03  0.65513403825E+03  0.90395070680E+02 0.  0.
          5    1    1    2  502    0 -0.83917087207E+00 -0.33701214664E+00 -0.18039498405E+02  0.18539516921E+02  0.41800000000E+01 0.  1.
         -5    1    1    2    0  502 -0.15060050726E+03  0.66365983573E+01  0.19017936366E+03  0.24271427643E+03  0.41800000000E+01 0.  1.
        -11    1    3    3    0    0  0.60091768534E+02 -0.29994243173E+02  0.14058734924E+03  0.15580589859E+03  0.00000000000E+00 0. -1.
         11    1    3    3    0    0  0.91347909594E+02  0.23694656962E+02  0.49032918913E+03  0.49932813967E+03  0.00000000000E+00 0.  1.
</event>
<event>
 7    1  0.6584658E-006  0.1550273E+03  0.7561462E-02  0.1194428E+00
          3   -1    0    0  501    0  0.00000000000E+00  0.00000000000E+00  0.38209910127E+02  0.38209910127E+02  0.00000000000E+00 0. -1.
         -3   -1    0    0    0  501 -0.00000000000E+00 -0.00000000000E+00 -0.78599631254E+03  0.78599631254E+03  0.00000000000E+00 0.  1.
         23    2    1    2    0    0 -0.62453846756E+02  0.98905512022E+02 -0.19770443809E+03  0.24808014398E+03  0.93669257043E+02 0.  0.
          5    1    1    2  502    0  0.43111666298E+02  0.15673046886E+02 -0.84443330512E+02  0.96189441404E+02  0.41800000000E+01 0.  1.
         -5    1    1    2    0  502  0.19342180459E+02 -0.11457855891E+03 -0.46563863382E+03  0.47993663728E+03  0.41800000000E+01 0.  1.
        -11    1    3    3    0    0  0.18796939621E+02  0.48712808552E+02 -0.90691608432E+02  0.10464812705E+03  0.00000000000E+00 0.  1.
         11    1    3    3    0    0 -0.81250786377E+02  0.50192703470E+02 -0.10701282966E+03  0.14343201693E+03  0.00000000000E+00 0. -1.
</event>
<event>
 7    1  0.6584658E-006  0.9912897E+02  0.7561462E-02  0.1282138E+00
         -1   -1    0    0    0  501 -0.00000000000E+00  0.00000000000E+00  0.53807463467E+02  0.53807463467E+02  0.00000000000E+00 0.  1.
          1   -1    0    0  501    0  0.00000000000E+00 -0.00000000000E+00 -0.24973730794E+03  0.24973730794E+03  0.00000000000E+00 0. -1.
         23    2    1    2    0    0 -0.43693691436E+01 -0.15498518337E+02 -0.13538423735E+03  0.16363808709E+03  0.90494399648E+02 0.  0.
          5    1    1    2  502    0  0.60783929630E+02  0.14359478918E+01 -0.80724621541E+01  0.61476703660E+02  0.41800000000E+01 0.  1.
         -5    1    1    2    0  502 -0.56414560487E+02  0.14062570445E+02 -0.52473144969E+02  0.78429980654E+02  0.41800000000E+01 0.  1.
        -11    1    3    3    0    0  0.35161683074E+02  0.31716505155E+01 -0.10397881951E+03  0.10980891689E+03  0.00000000000E+00 0. -1.
         11    1    3    3    0    0 -0.39531052218E+02 -0.18670168852E+02 -0.31405417842E+02  0.53829170198E+02  0.00000000000E+00 0.  1.
</event>
<event>
 7    1  0.6584658E-006  0.1186692E+03  0.7561462E-02  0.1245309E+00
         -2   -1    0    0    0  501 -0.00000000000E+00  0.00000000000E+00  0.18936775063E+02  0.18936775063E+02  0.00000000000E+00 0.  1.
          2   -1    0    0  501    0  0.00000000000E+00 -0.00000000000E+00 -0.10255909184E+04  0.10255909184E+04  0.00000000000E+00 0. -1.
         23    2    1    2    0    0 -0.46746638735E+01  0.81945672798E+02 -0.55291053842E+03  0.56675230801E+03  0.93601118417E+02 0.  0.
          5    1    1    2  502    0 -0.21864504604E+02 -0.89697179948E+02 -0.17748328829E+03  0.20010354988E+03  0.41800000000E+01 0. -1.
         -5    1    1    2    0  502  0.26539168478E+02  0.77515071502E+01 -0.27626031660E+03  0.27767183554E+03  0.41800000000E+01 0. -1.
        -11    1    3    3    0    0  0.18238923726E+02  0.90635240312E+02 -0.49955684227E+03  0.50803980531E+03  0.00000000000E+00 0. -1.
         11    1    3    3    0    0 -0.22913587599E+02 -0.86895675141E+01 -0.53353696154E+02  0.58712502702E+02  0.00000000000E+00 0.  1.
</event>
<event>
 7    1  0.6584658E-006  0.5318083E+02  0.7561462E-02  0.1428903E+00
          1   -1    0    0  501    0  0.00000000000E+00  0.00000000000E+00  0.87890331271E+02  0.87890331271E+02  0.00000000000E+00 0. -1.
         -1   -1    0    0    0  501 -0.00000000000E+00 -0.00000000000E+00 -0.14261621709E+03  0.14261621709E+03  0.00000000000E+00 0.  1.
         23    2    1    2    0    0 -0.20713658865E+02 -0.15788512059E+02 -0.14127421072E+02  0.96433426116E+02  0.91768670414E+02 0.  0.
          5    1    1    2  502    0  0.27465148210E+02  0.87566805587E+00  0.41668991444E+02  0.50088705400E+02  0.41800000000E+01 0.  1.
         -5    1    1    2    0  502 -0.67514893453E+01  0.14912844003E+02 -0.82267456190E+02  0.83984416844E+02  0.41800000000E+01 0.  1.
        -11    1    3    3    0    0  0.41392336104E+01 -0.31825386297E+02  0.29588405783E+02  0.43651600481E+02  0.00000000000E+00 0. -1.
         11    1    3    3    0    0 -0.24852892475E+02  0.16036874238E+02 -0.43715826855E+02  0.52781825634E+02  0.00000000000E+00 0.  1.
</event>
<event>
 7    1  0.6584658E-006  0.1538192E+03  0.7561462E-02  0.1195857E+00
         -2   -1    0    0    0  501 -0.00000000000E+00  0.00000000000E+00  0.28994798240E+02  0.28994798240E+02  0.00000000000E+00 0.  1.
          2   -1    0    0  501    0  0.00000000000E+00 -0.00000000000E+00 -0.10628091350E+04  0.10628091350E+04  0.00000000000E+00 0. -1.
         23    2    1    2    0    0  0.98122595634E+02 -0.95538889225E+02 -0.42714994047E+03  0.45741870693E+03  0.89549308611E+02 0.  0.
          5    1    1    2  502    0  0.16703899489E+02  0.70463731583E+01 -0.23021026116E+03  0.23096083732E+03  0.41800000000E+01 0.  1.
         -5    1    1    2    0  502 -0.11482649512E+03  0.88492516067E+02 -0.37645413518E+03  0.40342438904E+03  0.41800000000E+01 0.  1.
        -11    1    3    3    0    0  0.27760634022E+02 -0.32471292112E+01 -0.20852713526E+02  0.34871654834E+02  0.00000000000E+00 0.  1.
         11    1    3    3    0    0  0.70361961612E+02 -0.92291760014E+02 -0.40629722695E+03  0.42254705209E+03  0.00000000000E+00 0. -1.
</event>
<event>
 7    1  0.6584658E-006  0.1356310E+03  0.7561462E-02  0.1219332E+00
         -2   -1    0    0    0  501 -0.00000000000E+00  0.00000000000E+00  0.79588863407E+02  0.79588863407E+02  0.00000000000E+00 0.  1.
          2   -1    0    0  501    0  0.00000000000E+00 -0.00000000000E+00 -0.35191500028E+03  0.35191500028E+03  0.00000000000E+00 0. -1.
         23    2    1    2    0    0  0.12295740322E+03  0.10344804330E+02 -0.15897721818E+03  0.22240406484E+03  0.94679850952E+02 0.  0.
          5    1    1    2  502    0 -0.17049821449E+02 -0.29236009488E+01  0.27447545227E+02  0.32712138312E+02  0.41800000000E+01 0.  1.
         -5    1    1    2    0  502 -0.10590758177E+03 -0.74212033813E+01 -0.14079646392E+03  0.17638766054E+03  0.41800000000E+01 0.  1.
        -11    1    3    3    0    0  0.76515314002E+02  0.45452465789E+02 -0.59214980653E+02  0.10689683745E+03  0.00000000000E+00 0.  1.
         11    1    3    3    0    0  0.46442089216E+02 -0.35107661459E+02 -0.99762237526E+02  0.11550722739E+03  0.00000000000E+00 0. -1.
</event>
<event>
 7    1  0.6584658E-006  0.1122256E+03  0.7561462E-02  0.1256503E+00
         -2   -1    0    0    0  501 -0.00000000000E+00  0.00000000000E+00  0.64552434639E+02  0.64552434639E+02  0.00000000000E+00 0.  1.
          2   -1    0    0  501    0  0.00000000000E+00 -0.00000000000E+00 -0.33917267284E+03  0.33917267284E+03  0.00000000000E+00 0. -1.
         23    2    1    2    0    0  0.30510865449E+02 -0.44576051347E+01 -0.25573819918E+03  0.27351466413E+03  0.91964459525E+02 0.  0.
          5    1    1    2  502    0 -0.47073891359E+02 -0.51020727332E+02 -0.19251220086E+02  0.72160569149E+02  0.41800000000E+01 0.  1.
         -5    1    1    2    0  502  0.16563025910E+02  0.55478332466E+02  0.36918106831E+00  0.58049874205E+02  0.41800000000E+01 0.  1.
        -11    1    3    3    0    0 -0.33072104709E+02  0.55755669047E+00 -0.80511923911E+02  0.87041627232E+02  0.00000000000E+00 0.  1.
         11    1    3    3    0    0  0.63582970158E+02 -0.50151618252E+01 -0.17522627527E+03  0.18647303689E+03  0.00000000000E+00 0. -1.
</event>
<event>
 7    1  0.6584658E-006  0.1661861E+03  0.7561462E-02  0.1181885E+00
         -1   -1    0    0    0  501 -0.00000000000E+00  0.00000000000E+00  0.95804211191E+02  0.95804211191E+02  0.00000000000E+00 0.  1.
          1   -1    0    0  501    0  0.00000000000E+00 -0.00000000000E+00 -0.36709037832E+03  0.36709037832E+03  0.00000000000E+00 0. -1.
         23    2    1    2    0    0  0.75092234372E+02 -0.12118910594E+03 -0.19676994894E+03  0.25911152231E+03  0.89970690373E+02 0.  0.
          5    1    1    2  502    0 -0.29549795036E+02  0.13780920742E+03 -0.56136782511E+02  0.15176751559E+03  0.41800000000E+01 0. -1.
         -5    1    1    2    0  502 -0.45542439336E+02 -0.16620101486E+02 -0.18379435683E+02  0.52015551618E+02  0.41800000000E+01 0. -1.
        -11    1    3    3    0    0  0.51339358110E+02 -0.77123826710E+02 -0.18615897543E+03  0.20793984339E+03  0.00000000000E+00 0. -1.
         11    1    3    3    0    0  0.23752876262E+02 -0.44065279229E+02 -0.10610973510E+02  0.51171678916E+02  0.00000000000E+00 0.  1.
</event>
<event>
 7    1  0.6584658E-006  0.1725544E+03  0.7561462E-02  0.1175210E+00
         -2   -1    0    0    0  501 -0.00000000000E+00  0.00000000000E+00  0.11448469254E+03  0.11448469254E+03  0.00000000000E+00 0.  1.
          2   -1    0    0  501    0  0.00000000000E+00 -0.00000000000E+00 -0.42668805212E+03  0.42668805212E+03  0.00000000000E+00 0. -1.
         23    2    1    2    0    0  0.12218519384E+03 -0.69208399913E+02 -0.31089400159E+03  0.35309755721E+03  0.91125081483E+02 0.  0.
          5    1    1    2  502    0  0.15935147767E+02 -0.17603511190E+02  0.55522133824E+01  0.24740897600E+02  0.41800000000E+01 0. -1.
         -5    1    1    2    0  502 -0.13812034161E+03  0.86811911104E+02 -0.68615713732E+01  0.16333428984E+03  0.41800000000E+01 0. -1.
        -11    1    3    3    0    0  0.36786834313E+02 -0.62018888368E+02 -0.20225603278E+03  0.21472567729E+03  0.00000000000E+00 0. -1.
         11    1    3    3    0    0  0.85398359530E+02 -0.71895115456E+01 -0.10863796881E+03  0.13837187993E+03  0.00000000000E+00 0.  1.
</event>
<event>
 7    1  0.6584658E-006  0.1042282E+03  0.7561462E-02  0.1271648E+00
         -2   -1    0    0    0  501 -0.00000000000E+00  0.00000000000E+00  0.24360054950E+02  0.24360054950E+02  0.00000000000E+00 0.  1.
          2   -1    0    0  501    0  0.00000000000E+00 -0.00000000000E+00 -0.64683580773E+03  0.64683580773E+03  0.00000000000E+00 0. -1.
         23    2    1    2    0    0 -0.14236699618E+02 -0.57961886828E+02 -0.32418031279E+03  0.34227246313E+03  0.92169951047E+02 0.  0.
          5    1    1    2  502    0 -0.23773170056E+02  0.66141543965E+02 -0.77562365561E+02  0.10475333123E+03  0.41800000000E+01 0.  1.
         -5    1    1    2    0  502  0.38009869673E+02 -0.81796571373E+01 -0.22073307443E+03  0.22417006832E+03  0.41800000000E+01 0.  1.
        -11    1    3    3    0    0 -0.43455255851E+02 -0.13065219067E+02 -0.22520607195E+03  0.22973209191E+03  0.00000000000E+00 0.  1.
         11    1    3    3    0    0  0.29218556234E+02 -0.44896667761E+02 -0.98974240838E+02  0.11254037122E+03  0.00000000000E+00 0. -1.
</event>
<event>
 7    1  0.6584658E-006  0.9460615E+02  0.7561462E-02  0.1292066E+00
         -2   -1    0    0    0  501 -0.00000000000E+00  0.00000000000E+00  0.49660300657E+02  0.49660300657E+02  0.00000000000E+00 0.  1.
          2   -1    0    0  501    0  0.00000000000E+00 -0.00000000000E+00 -0.26175570325E+03  0.26175570325E+03  0.00000000000E+00 0. -1.
         23    2    1    2    0    0 -0.20798919375E+02  0.19192710875E+02 -0.12412259354E+03  0.15589102721E+03  0.89970211396E+02 0.  0.
          5    1    1    2  502    0  0.49211266204E+02  0.34565072599E+02 -0.69149440468E+02  0.91736636532E+02  0.41800000000E+01 0.  1.
         -5    1    1    2    0  502 -0.28412346828E+02 -0.53757783473E+02 -0.18823368582E+02  0.63788340165E+02  0.41800000000E+01 0.  1.
        -11    1    3    3    0    0  0.18409050880E+02 -0.82002514910E+01  0.27151616720E+01  0.20334930089E+02  0.00000000000E+00 0.  1.
         11    1    3    3    0    0 -0.39207970256E+02  0.27392962366E+02 -0.12683775521E+03  0.13555609712E+03  0.00000000000E+00 0. -1.
</event>
<event>
 7    1  0.6584658E-006  0.1470830E+03  0.7561462E-02  0.1204104E+00
          2   -1    0    0  501    0  0.00000000000E+00  0.00000000000E+00  0.26117939248E+03  0.26117939248E+03  0.00000000000E+00 0.  1.
         -2   -1    0    0    0  501 -0.00000000000E+00 -0.00000000000E+00 -0.96910903890E+02  0.96910903890E+02  0.00000000000E+00 0. -1.
         23    2    1    2    0    0 -0.75854380136E+02  0.72912688080E+02  0.13029034567E+03  0.19115575535E+03  0.92167247752E+02 0.  0.
          5    1    1    2  502    0 -0.20438866625E+02 -0.62787827693E+02  0.19258743651E+02  0.68908854165E+02  0.41800000000E+01 0. -1.
         -5    1    1    2    0  502  0.96293246761E+02 -0.10124860387E+02  0.14719399270E+02  0.98025686860E+02  0.41800000000E+01 0. -1.
        -11    1    3    3    0    0 -0.66339052484E+02  0.95585835215E+01  0.99769599038E+02  0.12019238452E+03  0.00000000000E+00 0.  1.
         11    1    3    3    0    0 -0.95153276521E+01  0.63354104559E+02  0.30520746636E+02  0.70963370833E+02  0.00000000000E+00 0. -1.
</event>
<event>
 7    1  0.6584658E-006  0.8742122E+02  0.7561462E-02  0.1309220E+00
         -1   -1    0    0    0  501 -0.00000000000E+00  0.00000000000E+00  0.87644955845E+02  0.87644955845E+02  0.00000000000E+00 0.  1.
          1   -1    0    0  501    0  0.00000000000E+00 -0.00000000000E+00 -0.17047237336E+03  0.17047237336E+03  0.00000000000E+00 0. -1.
         23    2    1    2    0    0 -0.16780552838E+01 -0.35118984497E+02 -0.81293757742E+02  0.12821732285E+03  0.92708402479E+02 0.  0.
          5    1    1    2  502    0 -0.29307225550E+02  0.55815987664E+02  0.39344430382E+02  0.74429796119E+02  0.41800000000E+01 0. -1.
         -5    1    1    2    0  502  0.30985280833E+02 -0.20697003167E+02 -0.40878090155E+02  0.55470210231E+02  0.41800000000E+01 0. -1.
        -11    1    3    3    0    0  0.23795734308E+02  0.71217249471E+01 -0.74367697836E+02  0.78406061111E+02  0.00000000000E+00 0. -1.
         11    1    3    3    0    0 -0.25473789592E+02 -0.42240709444E+02 -0.69260599055E+01  0.49811261742E+02  0.00000000000E+00 0.  1.
</event>
<event>
 7    1  0.6584658E-006  0.1023207E+03  0.7561462E-02  0.1275490E+00
         -2   -1    0    0    0  501 -0.00000000000E+00  0.00000000000E+00  0.16321650865E+03  0.16321650865E+03  0.00000000000E+00 0. -1.
          2   -1    0    0  501    0  0.00000000000E+00 -0.00000000000E+00 -0.79098657483E+02  0.79098657483E+02  0.00000000000E+00 0.  1.
         23    2    1    2    0    0  0.94755575920E+01 -0.57776125528E+02  0.57973025945E+01  0.83537549337E+02  0.59304692557E+02 0.  0.
          5    1    1    2  502    0 -0.48032073285E+02  0.66258006191E+02  0.13909633490E+02  0.83115303959E+02  0.41800000000E+01 0. -1.
         -5    1    1    2    0  502  0.38556515693E+02 -0.84818806633E+01  0.64410915086E+02  0.75662312839E+02  0.41800000000E+01 0. -1.
        -11    1    3    3    0    0  0.11742955888E+02 -0.69791069996E+02  0.75974308771E+01  0.71178728705E+02  0.00000000000E+00 0. -1.
         11    1    3    3    0    0 -0.22673982961E+01  0.12014944468E+02 -0.18001282825E+01  0.12358820633E+02  0.00000000000E+00 0.  1.
</event>
<event>
 7    1  0.6584658E-006  0.1309520E+03  0.7561462E-02  0.1226050E+00
          2   -1    0    0  501    0  0.00000000000E+00  0.00000000000E+00  0.12903086642E+03  0.12903086642E+03  0.00000000000E+00 0. -1.
         -2   -1    0    0    0  501 -0.00000000000E+00 -0.00000000000E+00 -0.16607036135E+03  0.16607036135E+03  0.00000000000E+00 0.  1.
         23    2    1    2    0    0  0.93581355444E+02 -0.99343342456E+01  0.25616042191E+02  0.13299711513E+03  0.90420627805E+02 0.  0.
          5    1    1    2  502    0 -0.18966863934E+02 -0.39625576356E+02 -0.57230754246E+02  0.72268664444E+02  0.41800000000E+01 0. -1.
         -5    1    1    2    0  502 -0.74614491509E+02  0.49559910601E+02 -0.54247828709E+01  0.89835448188E+02  0.41800000000E+01 0.  1.
        -11    1    3    3    0    0  0.26146276741E+02 -0.45038751249E+02 -0.19875887733E+01  0.52115903624E+02  0.00000000000E+00 0.  1.
         11    1    3    3    0    0  0.67435078702E+02  0.35104417003E+02  0.27603630965E+02  0.80881211509E+02  0.00000000000E+00 0. -1.
</event>
<event>
 7    1  0.6584658E-006  0.9908356E+02  0.7561462E-02  0.1282235E+00
          1   -1    0    0  501    0  0.00000000000E+00  0.00000000000E+00  0.53207863430E+03  0.53207863430E+03  0.00000000000E+00 0. -1.
         -1   -1    0    0    0  501 -0.00000000000E+00 -0.00000000000E+00 -0.34455411570E+02  0.34455411570E+02  0.00000000000E+00 0.  1.
         23    2    1    2    0    0  0.37608483759E+02  0.20950014233E+02  0.36628358396E+03  0.38011911654E+03  0.92052038147E+02 0.  0.
          5    1    1    2  502    0 -0.16129397015E+02 -0.54538117199E+02  0.13461326330E+03  0.14619427736E+03  0.41800000000E+01 0.  1.
         -5    1    1    2    0  502 -0.21479086744E+02  0.33588102966E+02 -0.32736245318E+01  0.40220651980E+02  0.41800000000E+01 0.  1.
        -11    1    3    3    0    0  0.66840307421E+02  0.33331899020E+01  0.26090437625E+03  0.26935075719E+03  0.00000000000E+00 0.  1.
         11    1    3    3    0    0 -0.29231823662E+02  0.17616824331E+02  0.10537920771E+03  0.11076835934E+03  0.00000000000E+00 0. -1.
</event>
<event>
 7    1  0.6584658E-006  0.8591525E+02  0.7561462E-02  0.1313056E+00
         -2   -1    0    0    0  501 -0.00000000000E+00  0.00000000000E+00  0.24968037753E+03  0.24968037753E+03  0.00000000000E+00 0.  1.
          2   -1    0    0  501    0  0.00000000000E+00 -0.00000000000E+00 -0.82852867231E+02  0.82852867231E+02  0.00000000000E+00 0. -1.
         23    2    1    2    0    0 -0.66941679067E+01 -0.31065483512E+02 -0.25158233386E+02  0.10119206657E+03  0.92720124464E+02 0.  0.
          5    1    1    2  502    0  0.42500397206E+02  0.10900102369E+02  0.10626558761E+02  0.45337535723E+02  0.41800000000E+01 0.  1.
         -5    1    1    2    0  502 -0.35806229299E+02  0.20165381143E+02  0.18135918492E+03  0.18600364246E+03  0.41800000000E+01 0.  1.
        -11    1    3    3    0    0  0.32392299229E+02 -0.34363901084E+02 -0.37247709274E+02  0.60145910861E+02  0.00000000000E+00 0. -1.
         11    1    3    3    0    0 -0.39086467135E+02  0.32984175726E+01  0.12089475888E+02  0.41046155714E+02  0.00000000000E+00 0.  1.
</event>
<event>
 7    1  0.6584658E-006  0.1458774E+03  0.7561462E-02  0.1205632E+00
          4   -1    0    0  501    0  0.00000000000E+00  0.00000000000E+00  0.41716345148E+02  0.41716345148E+02  0.00000000000E+00 0. -1.
         -4   -1    0    0    0  501 -0.00000000000E+00 -0.00000000000E+00 -0.61017808109E+03  0.61017808109E+03  0.00000000000E+00 0.  1.
         23    2    1    2    0    0  0.87760496679E+02  0.72405005151E+02 -0.21299366067E+03  0.25825757525E+03  0.91576668104E+02 0.  0.
          5    1    1    2  502    0  0.20333734316E+02 -0.15433926650E+02 -0.16696664349E+03  0.16895857268E+03  0.41800000000E+01 0.  1.
         -5    1    1    2    0  502 -0.10809423100E+03 -0.56971078501E+02 -0.18850143179E+03  0.22467827831E+03  0.41800000000E+01 0.  1.
        -11    1    3    3    0    0  0.60737600070E+02  0.92004567483E+02 -0.18153175628E+03  0.21238567522E+03  0.00000000000E+00 0.  1.
         11    1    3    3    0    0  0.27022896609E+02 -0.19599562331E+02 -0.31461904385E+02  0.45871900029E+02  0.00000000000E+00 0. -1.
</event>
<event>
 7    1  0.6584658E-006  0.1276913E+03  0.7561462E-02  0.1230922E+00
          1   -1    0    0  501    0  0.00000000000E+00  0.00000000000E+00  0.15753706895E+03  0.15753706895E+03  0.00000000000E+00 0. -1.
         -1   -1    0    0    0  501 -0.00000000000E+00 -0.00000000000E+00 -0.21105317187E+03  0.21105317187E+03  0.00000000000E+00 0.  1.
         23    2    1    2    0    0  0.99255234786E+02  0.20255923714E+01  0.86229748629E+02  0.15638161855E+03  0.84640040255E+02 0.  0.
          5    1    1    2  502    0 -0.46472543403E+01 -0.49691197730E+02 -0.66921602286E+02  0.83586992752E+02  0.41800000000E+01 0.  1.
         -5    1    1    2    0  502 -0.94607980446E+02  0.47665605359E+02 -0.72824249267E+02  0.12862162952E+03  0.41800000000E+01 0.  1.
        -11    1    3    3    0    0  0.10600499420E+02  0.50573991095E+00  0.64128758683E+02  0.65000954232E+02  0.00000000000E+00 0. -1.
         11    1    3    3    0    0  0.88654735367E+02  0.15198524605E+01  0.22100989946E+02  0.91380664317E+02  0.00000000000E+00 0.  1.
</event>
<event>
 7    1  0.6584658E-006  0.1512503E+03  0.7561462E-02  0.1198945E+00
         -1   -1    0    0    0  501 -0.00000000000E+00  0.00000000000E+00  0.48056263361E+02  0.48056263361E+02  0.00000000000E+00 0.  1.
          1   -1    0    0  501    0  0.00000000000E+00 -0.00000000000E+00 -0.10175803276E+04  0.10175803276E+04  0.00000000000E+00 0. -1.
         23    2    1    2    0    0 -0.10587372750E+03  0.67393164122E+02 -0.81787889367E+03  0.83241114991E+03  0.90726804445E+02 0.  0.
          5    1    1    2  502    0  0.92780346912E+02 -0.90169021895E+01 -0.14561968423E+03  0.17295103970E+03  0.41800000000E+01 0.  1.
         -5    1    1    2    0  502  0.13093380585E+02 -0.58376261932E+02 -0.60254863418E+01  0.60274401349E+02  0.41800000000E+01 0.  1.
        -11    1    3    3    0    0  0.72209372425E+00 -0.14672461441E+02 -0.33495603449E+02  0.36575374154E+02  0.00000000000E+00 0. -1.
         11    1    3    3    0    0 -0.10659582122E+03  0.82065625563E+02 -0.78438329022E+03  0.79583577576E+03  0.00000000000E+00 0.  1.
</event>
<event>
 7    1  0.6584658E-006  0.1032593E+03  0.7561462E-02  0.1273588E+00
          4   -1    0    0  501    0  0.00000000000E+00  0.00000000000E+00  0.72108779974E+02  0.72108779974E+02  0.00000000000E+00 0. -1.
         -4   -1    0    0    0  501 -0.00000000000E+00 -0.00000000000E+00 -0.23816357141E+03  0.23816357141E+03  0.00000000000E+00 0.  1.
         23    2    1    2    0    0  0.43938247016E+02 -0.36307498432E+00 -0.17612722309E+02  0.10234022193E+03  0.90733740491E+02 0.  0.
          5    1    1    2  502    0  0.75332951105E+01 -0.52822800218E+02 -0.15503302051E+02  0.55720943393E+02  0.41800000000E+01 0. -1.
         -5    1    1    2    0  502 -0.51471542127E+02  0.53185875202E+02 -0.13293876707E+03  0.15221118606E+03  0.41800000000E+01 0.  1.
        -11    1    3    3    0    0  0.20912713442E+02  0.32555603386E+02 -0.40575927184E+02  0.56067947726E+02  0.00000000000E+00 0.  1.
         11    1    3    3    0    0  0.23025533575E+02 -0.32918678370E+02  0.22963204875E+02  0.46272274206E+02  0.00000000000E+00 0. -1.
</event>
<event>
 7    1  0.6584658E-006  0.1008733E+03  0.7561462E-02  0.1278470E+00
          2   -1    0    0  501    0  0.00000000000E+00  0.00000000000E+00  0.16980973260E+03  0.16980973260E+03  0.00000000000E+00 0. -1.
         -2   -1    0    0    0  501 -0.00000000000E+00 -0.00000000000E+00 -0.10416480150E+03  0.10416480150E+03  0.00000000000E+00 0.  1.
         23    2    1    2    0    0 -0.66887778121E+02  0.44106522658E+02  0.25229733040E+02  0.12002836155E+03  0.85737436069E+02 0.  0.
          5    1    1    2  502    0 -0.11105149928E+02 -0.33360455513E+02  0.62708383040E+02  0.72014290599E+02  0.41800000000E+01 0.  1.
         -5    1    1    2    0  502  0.77992928048E+02 -0.10746067145E+02 -0.22293184978E+02  0.81931881957E+02  0.41800000000E+01 0.  1.
        -11    1    3    3    0    0 -0.34413294134E+01  0.18927927163E+02 -0.27648457750E+02  0.33683028230E+02  0.00000000000E+00 0.  1.
         11    1    3    3    0    0 -0.63446448707E+02  0.25178595496E+02  0.52878190789E+02  0.86345333318E+02  0.00000000000E+00 0. -1.
</event>
<event>
 7    1  0.6584658E-006  0.1504640E+03  0.7561462E-02  0.1199904E+00
         -2   -1    0    0    0  501 -0.00000000000E+00  0.00000000000E+00  0.14446542198E+03  0.14446542198E+03  0.00000000000E+00 0.  1.
          2   -1    0    0  501    0  0.00000000000E+00 -0.00000000000E+00 -0.18212192376E+03  0.18212192376E+03  0.00000000000E+00 0. -1.
         23    2    1    2    0    0 -0.68899883563E+02 -0.96495613523E+02 -0.27187374442E+01  0.15071269456E+03  0.92996383713E+02 0.  0.
          5    1    1    2  502    0 -0.24029764774E+02  0.51100425774E+01 -0.37993187617E+02  0.45436734429E+02  0.41800000000E+01 0.  1.
         -5    1    1    2    0  502  0.92929648337E+02  0.91385570946E+02  0.30554232843E+01  0.13043791676E+03  0.41800000000E+01 0.  1.
        -11    1    3    3    0    0  0.34235789685E+01 -0.67658668125E+02 -0.20633578013E+02  0.70817800072E+02  0.00000000000E+00 0.  1.
         11    1    3    3    0    0 -0.72323462531E+02 -0.28836945398E+02  0.17914840569E+02  0.79894894486E+02  0.00000000000E+00 0. -1.
</event>
<event>
 7    1  0.6584658E-006  0.1016950E+03  0.7561462E-02  0.1276771E+00
          3   -1    0    0  501    0  0.00000000000E+00  0.00000000000E+00  0.53500536982E+02  0.53500536982E+02  0.00000000000E+00 0. -1.
         -3   -1    0    0    0  501 -0.00000000000E+00 -0.00000000000E+00 -0.39642098241E+03  0.39642098241E+03  0.00000000000E+00 0.  1.
         23    2    1    2    0    0 -0.20012162168E+02 -0.93735712222E+02 -0.13955825525E+03  0.19264544005E+03  0.91917836054E+02 0.  0.
          5    1    1    2  502    0 -0.16581844830E+01  0.83539062995E+01 -0.15766752907E+03  0.15795271270E+03  0.41800000000E+01 0.  1.
         -5    1    1    2    0  502  0.21670346651E+02  0.85381805922E+02 -0.45694661111E+02  0.99323366639E+02  0.41800000000E+01 0.  1.
        -11    1    3    3    0    0 -0.14542313920E+02 -0.30431157409E+01  0.98174361374E+01  0.17807905544E+02  0.00000000000E+00 0. -1.
         11    1    3    3    0    0 -0.54698482480E+01 -0.90692596481E+02 -0.14937569138E+03  0.17483753451E+03  0.00000000000E+00 0.  1.
</event>
<event>
 7    1  0.6584658E-006  0.1593990E+03  0.7561462E-02  0.1189377E+00
         -2   -1    0    0    0  501 -0.00000000000E+00  0.00000000000E+00  0.18534913562E+03  0.18534913562E+03  0.00000000000E+00 0.  1.
          2   -1    0    0  501    0  0.00000000000E+00 -0.00000000000E+00 -0.32374070331E+03  0.32374070331E+03  0.00000000000E+00 0. -1.
         23    2    1    2    0    0  0.12715191368E+03 -0.46267471265E+02 -0.24652531006E+03  0.29543519166E+03  0.90547975828E+02 0.  0.
          5    1    1    2  502    0 -0.14699010460E+03  0.60171425850E+02  0.86482315962E+02  0.18089597761E+03  0.41800000000E+01 0.  1.
         -5    1    1    2    0  502  0.19838190925E+02 -0.13903954585E+02  0.21651426408E+02  0.32758669659E+02  0.41800000000E+01 0.  1.
        -11    1    3    3    0    0  0.18053667558E+02 -0.74872452834E+01  0.35420495173E+01  0.19863027690E+02  0.00000000000E+00 0.  1.
         11    1    3    3    0    0  0.10909824612E+03 -0.38780225981E+02 -0.25006735957E+03  0.27557216397E+03  0.00000000000E+00 0. -1.
</event>
<event>
 7    1  0.6584658E-006  0.1336094E+03  0.7561462E-02  0.1222196E+00
          1   -1    0    0  501    0  0.00000000000E+00  0.00000000000E+00  0.38952180667E+03  0.38952180667E+03  0.00000000000E+00 0. -1.
         -1   -1    0    0    0  501 -0.00000000000E+00 -0.00000000000E+00 -0.46947115211E+02  0.46947115211E+02  0.00000000000E+00 0.  1.
         23    2    1    2    0    0 -0.69650055925E+02  0.38773356222E+02  0.13990984411E+03  0.18532440618E+03  0.91738037945E+02 0.  0.
          5    1    1    2  502    0  0.42867067551E+02 -0.84018096670E+02  0.14466879811E+03  0.17275172820E+03  0.41800000000E+01 0. -1.
         -5    1    1    2    0  502  0.26782988374E+02  0.45244740448E+02  0.57996049239E+02  0.78392787498E+02  0.41800000000E+01 0. -1.
        -11    1    3    3    0    0 -0.26282815907E+02  0.64491130946E+02  0.66683880514E+02  0.96419045334E+02  0.00000000000E+00 0.  1.
         11    1    3    3    0    0 -0.43367240019E+02 -0.25717774724E+02  0.73225963593E+02  0.88905360849E+02  0.00000000000E+00 0. -1.
</event>
<event>
 7    1  0.6584658E-006  0.1067894E+03  0.7561462E-02  0.1266634E+00
          2   -1    0    0  501    0  0.00000000000E+00  0.00000000000E+00  0.20309721912E+03  0.20309721912E+03  0.00000000000E+00 0. -1.
         -2   -1    0    0    0  501 -0.00000000000E+00 -0.00000000000E+00 -0.99612774008E+02  0.99612774008E+02  0.00000000000E+00 0.  1.
         23    2    1    2    0    0  0.33104074611E+02 -0.20139324679E+02  0.13497886964E+03  0.16802109614E+03  0.92251402949E+02 0.  0.
          5    1    1    2  502    0 -0.32225973498E+02  0.62886550952E+02 -0.51262593476E+02  0.87398841802E+02  0.41800000000E+01 0.  1.
         -5    1    1    2    0  502 -0.87810111321E+00 -0.42747226272E+02  0.19768168952E+02  0.47290055184E+02  0.41800000000E+01 0.  1.
        -11    1    3    3    0    0 -0.32007225054E+02 -0.12299453126E+01  0.48693977250E+02  0.58284463123E+02  0.00000000000E+00 0. -1.
         11    1    3    3    0    0  0.65111299666E+02 -0.18909379367E+02  0.86284892386E+02  0.10973663302E+03  0.00000000000E+00 0.  1.
</event>
<event>
 7    1  0.6584658E-006  0.1134207E+03  0.7561462E-02  0.1254363E+00
          2   -1    0    0  501    0  0.00000000000E+00  0.00000000000E+00  0.21232487239E+02  0.21232487239E+02  0.00000000000E+00 0.  1.
         -2   -1    0    0    0  501 -0.00000000000E+00 -0.00000000000E+00 -0.73684124169E+03  0.73684124169E+03  0.00000000000E+00 0. -1.
         23    2    1    2    0    0  0.10726779295E+02  0.26474620389E+02 -0.18968949899E+03  0.21672873943E+03  0.10086263505E+03 0.  0.
          5    1    1    2  502    0 -0.26777338387E+02  0.45086410522E+02 -0.27073010073E+03  0.27579352803E+03  0.41800000000E+01 0.  1.
         -5    1    1    2    0  502  0.16050559092E+02 -0.71561030911E+02 -0.25518915473E+03  0.26555146146E+03  0.41800000000E+01 0.  1.
        -11    1    3    3    0    0  0.39222173109E+02  0.50195353692E+02 -0.89147906512E+02  0.10956870735E+03  0.00000000000E+00 0. -1.
         11    1    3    3    0    0 -0.28495393814E+02 -0.23720733302E+02 -0.10054159247E+03  0.10716003208E+03  0.00000000000E+00 0.  1.
</event>
<event>
 7    1  0.6584658E-006  0.1056964E+03  0.7561462E-02  0.1268754E+00
          2   -1    0    0  501    0  0.00000000000E+00  0.00000000000E+00  0.36766312074E+03  0.36766312074E+03  0.00000000000E+00 0. -1.
         -2   -1    0    0    0  501 -0.00000000000E+00 -0.00000000000E+00 -0.41309317376E+02  0.41309317376E+02  0.00000000000E+00 0.  1.
         23    2    1    2    0    0  0.92021216554E+01 -0.43619158901E+02  0.20406344650E+03  0.22878965928E+03  0.93356884752E+02 0.  0.
          5    1    1    2  502    0  0.44569200980E+02  0.32174043791E+02  0.11095451170E+03  0.12389495081E+03  0.41800000000E+01 0. -1.
         -5    1    1    2    0  502 -0.53771322635E+02  0.11445115110E+02  0.11335845161E+02  0.56287828021E+02  0.41800000000E+01 0.  1.
        -11    1    3    3    0    0 -0.16926894351E+02 -0.65125390298E+02  0.15709338817E+03  0.17089812410E+03  0.00000000000E+00 0. -1.
         11    1    3    3    0    0  0.26129016006E+02  0.21506231397E+02  0.46970058333E+02  0.57891535186E+02  0.00000000000E+00 0.  1.
</event>
<event>
 7    1  0.6584658E-006  0.1132727E+03  0.7561462E-02  0.1254627E+00
         -4   -1    0    0    0  501 -0.00000000000E+00  0.00000000000E+00  0.56689013593E+02  0.56689013593E+02  0.00000000000E+00 0.  1.
          4   -1    0    0  501    0  0.00000000000E+00 -0.00000000000E+00 -0.25542005106E+03  0.25542005106E+03  0.00000000000E+00 0. -1.
         23    2    1    2    0    0 -0.35345280794E+02  0.39571632704E+01 -0.13360143388E+03  0.16666207004E+03  0.93069621457E+02 0.  0.
          5    1    1    2  502    0  0.78218281828E+02 -0.21309622495E+02 -0.54592869827E+02  0.97826650045E+02  0.41800000000E+01 0.  1.
         -5    1    1    2    0  502 -0.42873001034E+02  0.17352459224E+02 -0.10536733758E+02  0.47620344571E+02  0.41800000000E+01 0.  1.
        -11    1    3    3    0    0 -0.38296301090E+02  0.44254082340E+02 -0.69130425611E+02  0.90576190172E+02  0.00000000000E+00 0.  1.
         11    1    3    3    0    0  0.29510202960E+01 -0.40296919070E+02 -0.64471008269E+02  0.76085879863E+02  0.00000000000E+00 0. -1.
</event>
<event>
 7    1  0.6584658E-006  0.9375629E+02  0.7561462E-02  0.1294002E+00
         -1   -1    0    0    0  501 -0.00000000000E+00  0.00000000000E+00  0.15036839878E+02  0.15036839878E+02  0.00000000000E+00 0. -1.
          1   -1    0    0  501    0  0.00000000000E+00 -0.00000000000E+00 -0.93036044274E+03  0.93036044274E+03  0.00000000000E+00 0.  1.
         23    2    1    2    0    0  0.40561347014E+02  0.18863795445E+02 -0.37597498707E+03  0.38992789593E+03  0.93196070011E+02 0.  0.
          5    1    1    2  502    0 -0.31831846821E+02 -0.46054690430E+02 -0.96209736404E+02  0.11139159197E+03  0.41800000000E+01 0. -1.
         -5    1    1    2    0  502 -0.87295001922E+01  0.27190894984E+02 -0.44313887938E+03  0.44407779472E+03  0.41800000000E+01 0. -1.
        -11    1    3    3    0    0  0.18268790411E+02  0.56161326859E+02 -0.19123399898E+03  0.20014566121E+03  0.00000000000E+00 0. -1.
         11    1    3    3    0    0  0.22292556602E+02 -0.37297531414E+02 -0.18474098810E+03  0.18978223471E+03  0.00000000000E+00 0.  1.
</event>
<event>
 7    1  0.6584658E-006  0.1588753E+03  0.7561462E-02  0.1189972E+00
         -1   -1    0    0    0  501 -0.00000000000E+00  0.00000000000E+00  0.52992818587E+03  0.52992818587E+03  0.00000000000E+00 0.  1.
          1   -1    0    0  501    0  0.00000000000E+00 -0.00000000000E+00 -0.62142005687E+02  0.62142005687E+02  0.00000000000E+00 0. -1.
         23    2    1    2    0    0 -0.13725102688E+03 -0.22476827714E+02  0.29072024414E+03  0.33449765483E+03  0.89595583414E+02 0.  0.
          5    1    1    2  502    0  0.74673108841E+02  0.43173544792E+02  0.17060140895E+03  0.19121281675E+03  0.41800000000E+01 0. -1.
         -5    1    1    2    0  502  0.62577918043E+02 -0.20696717079E+02  0.64645270867E+01  0.66359719973E+02  0.41800000000E+01 0. -1.
        -11    1    3    3    0    0 -0.43413151533E+01  0.24120629573E+02  0.39271126560E+02  0.46291178096E+02  0.00000000000E+00 0.  1.
         11    1    3    3    0    0 -0.13290971173E+03 -0.46597457287E+02  0.25144911758E+03  0.28820647673E+03  0.00000000000E+00 0. -1.
</event>
<event>
 7    1  0.6584658E-006  0.1037699E+03  0.7561462E-02  0.1272562E+00
          2   -1    0    0  501    0  0.00000000000E+00  0.00000000000E+00  0.81251453529E+02  0.81251453529E+02  0.00000000000E+00 0. -1.
         -2   -1    0    0    0  501 -0.00000000000E+00 -0.00000000000E+00 -0.18854868182E+03  0.18854868182E+03  0.00000000000E+00 0.  1.
         23    2    1    2    0    0  0.47515405038E+02 -0.31195744855E+02 -0.13025182739E+02  0.10316943046E+03  0.85108094703E+02 0.  0.
          5    1    1    2  502    0 -0.67249746607E+02 -0.10276636731E+02 -0.77666360351E+01  0.68599786563E+02  0.41800000000E+01 0.  1.
         -5    1    1    2    0  502  0.19734341569E+02  0.41472381586E+02 -0.86505409520E+02  0.98030918326E+02  0.41800000000E+01 0.  1.
        -11    1    3    3    0    0 -0.19021368803E+02  0.15891237263E+01  0.14584947522E+02  0.24022041536E+02  0.00000000000E+00 0. -1.
         11    1    3    3    0    0  0.66536773841E+02 -0.32784868582E+02 -0.27610130261E+02  0.79147388928E+02  0.00000000000E+00 0.  1.
</event>
<event>
 7    1  0.6584658E-006  0.1212463E+03  0.7561462E-02  0.1241055E+00
          2   -1    0    0  501    0  0.00000000000E+00  0.00000000000E+00  0.54944703446E+03  0.54944703446E+03  0.00000000000E+00 0. -1.
         -2   -1    0    0    0  501 -0.00000000000E+00 -0.00000000000E+00 -0.38740948422E+02  0.38740948422E+02  0.00000000000E+00 0.  1.
         23    2    1    2    0    0  0.70617807772E+02  0.13989878920E+02  0.36742075544E+03  0.38481063880E+03  0.88874207265E+02 0.  0.
          5    1    1    2  502    0 -0.94668904085E+02 -0.43827445735E+02  0.91559893353E+02  0.13886588087E+03  0.41800000000E+01 0.  1.
         -5    1    1    2    0  502  0.24051096313E+02  0.29837566815E+02  0.51725437251E+02  0.64511463215E+02  0.41800000000E+01 0.  1.
        -11    1    3    3    0    0  0.71580490478E+01  0.32621244460E+02  0.47135573558E+02  0.57768032258E+02  0.00000000000E+00 0.  1.
         11    1    3    3    0    0  0.63459758725E+02 -0.18631365540E+02  0.32028518188E+03  0.32704260654E+03  0.00000000000E+00 0. -1.
</event>
<event>
 7    1  0.6584658E-006  0.1298411E+03  0.7561462E-02  0.1227692E+00
         -1   -1    0    0    0  501 -0.00000000000E+00  0.00000000000E+00  0.10894985899E+03  0.10894985899E+03  0.00000000000E+00 0.  1.
          1   -1    0    0  501    0  0.00000000000E+00 -0.00000000000E+00 -0.24877599259E+03  0.24877599259E+03  0.00000000000E+00 0. -1.
         23    2    1    2    0    0  0.68143755667E+02  0.46467316567E+02 -0.16547494733E+03  0.20572176328E+03  0.90203673702E+02 0.  0.
          5    1    1    2  502    0 -0.30170887347E+01 -0.68759027894E+02 -0.16871997853E+02  0.70986220162E+02  0.41800000000E+01 0.  1.
         -5    1    1    2    0  502 -0.65126666933E+02  0.22291711326E+02  0.42520811583E+02  0.81017868136E+02  0.41800000000E+01 0.  1.
        -11    1    3    3    0    0  0.32153325409E+02 -0.25674489597E+02 -0.47680178972E+02  0.62979482514E+02  0.00000000000E+00 0.  1.
         11    1    3    3    0    0  0.35990430258E+02  0.72141806164E+02 -0.11779476836E+03  0.14274228077E+03  0.00000000000E+00 0. -1.
</event>
<event>
 7    1  0.6584658E-006  0.1603311E+03  0.7561462E-02  0.1188323E+00
          2   -1    0    0  501    0  0.00000000000E+00  0.00000000000E+00  0.24476694085E+03  0.24476694085E+03  0.00000000000E+00 0.  1.
         -2   -1    0    0    0  501 -0.00000000000E+00 -0.00000000000E+00 -0.20082464736E+03  0.20082464736E+03  0.00000000000E+00 0. -1.
         23    2    1    2    0    0 -0.91354704844E+02 -0.11567110284E+03  0.14709244080E+03  0.22646384765E+03  0.89017987076E+02 0.  0.
          5    1    1    2  502    0  0.18830945119E+02  0.73361787675E+02 -0.11127345448E+03  0.13466926322E+03  0.41800000000E+01 0.  1.
         -5    1    1    2    0  502  0.72523759724E+02  0.42309315164E+02  0.81233071745E+01  0.84458477334E+02  0.41800000000E+01 0.  1.
        -11    1    3    3    0    0 -0.33855193587E+02 -0.26815409044E+01  0.70737393967E+02  0.78467469053E+02  0.00000000000E+00 0.  1.
         11    1    3    3    0    0 -0.57499511256E+02 -0.11298956193E+03  0.76355046832E+02  0.14799637860E+03  0.00000000000E+00 0. -1.
</event>
<event>
 7    1  0.6584658E-006  0.1023817E+03  0.7561462E-02  0.1275366E+00
         -1   -1    0    0    0  501 -0.00000000000E+00  0.00000000000E+00  0.62539636199E+02  0.62539636199E+02  0.00000000000E+00 0.  1.
          1   -1    0    0  501    0  0.00000000000E+00 -0.00000000000E+00 -0.27819993194E+03  0.27819993194E+03  0.00000000000E+00 0. -1.
         23    2    1    2    0    0  0.17777876773E+02  0.48888980493E+02 -0.16328966351E+03  0.19549380855E+03  0.94064497321E+02 0.  0.
          5    1    1    2  502    0 -0.13246726566E+02  0.25043392233E+02 -0.64033551054E+02  0.70145672139E+02  0.41800000000E+01 0.  1.
         -5    1    1    2    0  502 -0.45311502072E+01 -0.73932372726E+02  0.11662918825E+02  0.75100087448E+02  0.41800000000E+01 0.  1.
        -11    1    3    3    0    0  0.22141179258E+00 -0.25501568088E+02 -0.72270480015E+02  0.76638118973E+02  0.00000000000E+00 0. -1.
         11    1    3    3    0    0  0.17556464981E+02  0.74390548581E+02 -0.91019183493E+02  0.11885568958E+03  0.00000000000E+00 0.  1.
</event>
<event>
 7    1  0.6584658E-006  0.7809985E+02  0.7561462E-02  0.1334532E+00
         -2   -1    0    0    0  501 -0.00000000000E+00  0.00000000000E+00  0.83994086332E+02  0.83994086332E+02  0.00000000000E+00 0. -1.
          2   -1    0    0  501    0  0.00000000000E+00 -0.00000000000E+00 -0.15234916977E+03  0.15234916977E+03  0.00000000000E+00 0.  1.
         23    2    1    2    0    0  0.15051803076E+02  0.27837993818E+02 -0.40577207625E+02  0.10435727819E+03  0.90787780332E+02 0.  0.
          5    1    1    2  502    0  0.35518276359E+02 -0.49050405074E+02 -0.43621345734E+02  0.74751484246E+02  0.41800000000E+01 0. -1.
         -5    1    1    2    0  502 -0.50570079435E+02  0.21212411256E+02  0.15843469923E+02  0.57234493660E+02  0.41800000000E+01 0. -1.
        -11    1    3    3    0    0 -0.28184202165E+01  0.21274587436E+02 -0.67812923983E+02  0.71127661442E+02  0.00000000000E+00 0.  1.
         11    1    3    3    0    0  0.17870223292E+02  0.65634063817E+01  0.27235716358E+02  0.33229616750E+02  0.00000000000E+00 0. -1.
</event>
<event>
 7    1  0.6584658E-006  0.1627551E+03  0.7561462E-02  0.1185621E+00
          2   -1    0    0  501    0  0.00000000000E+00  0.00000000000E+00  0.36095493544E+03  0.36095493544E+03  0.00000000000E+00 0. -1.
         -2   -1    0    0    0  501 -0.00000000000E+00 -0.00000000000E+00 -0.10718481584E+03  0.10718481584E+03  0.00000000000E+00 0.  1.
         23    2    1    2    0    0  0.13006206147E+03  0.40428153809E+02  0.22932768065E+03  0.28160099376E+03  0.90318099615E+02 0.  0.
          5    1    1    2  502    0 -0.29467308581E+02 -0.72298703696E+02  0.20646283824E+02  0.80865111556E+02  0.41800000000E+01 0.  1.
         -5    1    1    2    0  502 -0.10059475289E+03  0.31870549887E+02  0.37961551255E+01  0.10567364597E+03  0.41800000000E+01 0.  1.
        -11    1    3    3    0    0  0.10345096017E+03  0.14315457097E+02  0.91598475823E+02  0.13891477331E+03  0.00000000000E+00 0.  1.
         11    1    3    3    0    0  0.26611101301E+02  0.26112696712E+02  0.13772920483E+03  0.14268622044E+03  0.00000000000E+00 0. -1.
</event>
<event>
 7    1  0.6584658E-006  0.3560781E+03  0.7561462E-02  0.1060148E+00
          1   -1    0    0  501    0  0.00000000000E+00  0.00000000000E+00  0.76386693576E+03  0.76386693576E+03  0.00000000000E+00 0. -1.
         -1   -1    0    0    0  501 -0.00000000000E+00 -0.00000000000E+00 -0.17491609641E+03  0.17491609641E+03  0.00000000000E+00 0.  1.
         23    2    1    2    0    0 -0.12293104766E+03  0.32241286840E+03  0.35701893800E+03  0.50461389042E+03  0.90058626081E+02 0.  0.
          5    1    1    2  502    0  0.23611898762E+02  0.17391658560E+01  0.33773115295E+02  0.41456509474E+02  0.41800000000E+01 0.  1.
         -5    1    1    2    0  502  0.99319148893E+02 -0.32415203426E+03  0.19815878606E+03  0.39271263227E+03  0.41800000000E+01 0.  1.
        -11    1    3    3    0    0 -0.10732068528E+03  0.21267183244E+03  0.19267903160E+03  0.30638578136E+03  0.00000000000E+00 0. -1.
         11    1    3    3    0    0 -0.15610362373E+02  0.10974103596E+03  0.16433990640E+03  0.19822810906E+03  0.00000000000E+00 0.  1.
</event>
<event>
 7    1  0.6584658E-006  0.1029591E+03  0.7561462E-02  0.1274194E+00
          1   -1    0    0  501    0  0.00000000000E+00  0.00000000000E+00  0.18052381909E+03  0.18052381909E+03  0.00000000000E+00 0. -1.
         -1   -1    0    0    0  501 -0.00000000000E+00 -0.00000000000E+00 -0.82843714604E+02  0.82843714604E+02  0.00000000000E+00 0.  1.
         23    2    1    2    0    0  0.16245842541E+00 -0.39066163613E+02  0.68482097251E+02  0.12909747508E+03  0.10222606760E+03 0.  0.
          5    1    1    2  502    0  0.28624407965E+02 -0.17534162231E+02 -0.31576015183E+02  0.46274406656E+02  0.41800000000E+01 0. -1.
         -5    1    1    2    0  502 -0.28786866391E+02  0.56600325845E+02  0.60774022413E+02  0.87995651953E+02  0.41800000000E+01 0. -1.
        -11    1    3    3    0    0 -0.42518829651E+01  0.34496939585E+02  0.14099645053E+02  0.37508896813E+02  0.00000000000E+00 0.  1.
         11    1    3    3    0    0  0.44143413905E+01 -0.73563103198E+02  0.54382452198E+02  0.91588578268E+02  0.00000000000E+00 0. -1.
</event>
<event>
 7    1  0.6584658E-006  0.1503450E+03  0.7561462E-02  0.1200050E+00
          2   -1    0    0  501    0  0.00000000000E+00  0.00000000000E+00  0.57305201724E+02  0.57305201724E+02  0.00000000000E+00 0. -1.
         -2   -1    0    0    0  501 -0.00000000000E+00 -0.00000000000E+00 -0.43818266742E+03  0.43818266742E+03  0.00000000000E+00 0.  1.
         23    2    1    2    0    0  0.11293154626E+03  0.16207317339E+02 -0.18824798289E+03  0.23903167112E+03  0.93180606673E+02 0.  0.
          5    1    1    2  502    0  0.17325923576E+02  0.25663964051E+02 -0.48403607184E+02  0.57612570391E+02  0.41800000000E+01 0. -1.
         -5    1    1    2    0  502 -0.13025746983E+03 -0.41871281390E+02 -0.14422587562E+03  0.19884362763E+03  0.41800000000E+01 0. -1.
        -11    1    3    3    0    0  0.99170894808E+02 -0.13243838332E+02 -0.17928246142E+03  0.20531065877E+03  0.00000000000E+00 0.  1.
         11    1    3    3    0    0  0.13760651447E+02  0.29451155672E+02 -0.89655214702E+01  0.33721012350E+02  0.00000000000E+00 0. -1.
</event>
<event>
 7    1  0.6584658E-006  0.1397026E+03  0.7561462E-02  0.1213730E+00
         -1   -1    0    0    0  501 -0.00000000000E+00  0.00000000000E+00  0.99843665126E+03  0.99843665126E+03  0.00000000000E+00 0.  1.
          1   -1    0    0  501    0  0.00000000000E+00 -0.00000000000E+00 -0.22401962783E+02  0.22401962783E+02  0.00000000000E+00 0. -1.
         23    2    1    2    0    0 -0.95876792310E+02 -0.47042266586E+01  0.56220218303E+03  0.57798382643E+03  0.93699092644E+02 0.  0.
          5    1    1    2  502    0 -0.24656849190E+02  0.80210159039E+01  0.15592483386E+03  0.15812122920E+03  0.41800000000E+01 0.  1.
         -5    1    1    2    0  502  0.12053364150E+03 -0.33167892452E+01  0.25790767159E+03  0.28473355841E+03  0.41800000000E+01 0.  1.
        -11    1    3    3    0    0 -0.10191486321E+03 -0.30195130651E+02  0.48314859118E+03  0.49470288701E+03  0.00000000000E+00 0.  1.
         11    1    3    3    0    0  0.60380709002E+01  0.25490903992E+02  0.79053591848E+02  0.83280939419E+02  0.00000000000E+00 0. -1.
</event>
<event>
 7    1  0.6584658E-006  0.1040987E+03  0.7561462E-02  0.1271906E+00
          1   -1    0    0  501    0  0.00000000000E+00  0.00000000000E+00  0.68608272668E+02  0.68608272668E+02  0.00000000000E+00 0. -1.
         -1   -1    0    0    0  501 -0.00000000000E+00 -0.00000000000E+00 -0.20009860550E+03  0.20009860550E+03  0.00000000000E+00 0.  1.
         23    2    1    2    0    0  0.15780028522E+02 -0.24489330820E+02 -0.32990470284E+02  0.10684793392E+03  0.97362072847E+02 0.  0.
          5    1    1    2  502    0  0.45181106038E+02 -0.17490775710E+02 -0.63214430146E+02  0.79754599594E+02  0.41800000000E+01 0. -1.
         -5    1    1    2    0  502 -0.60961134561E+02  0.41980106530E+02 -0.35285432401E+02  0.82104344653E+02  0.41800000000E+01 0. -1.
        -11    1    3    3    0    0  0.43494322008E+02 -0.34964383974E+02 -0.48023726808E+02  0.73624333818E+02  0.00000000000E+00 0.  1.
         11    1    3    3    0    0 -0.27714293486E+02  0.10475053154E+02  0.15033256524E+02  0.33223600102E+02  0.00000000000E+00 0. -1.
</event>
<event>
 7    1  0.6584658E-006  0.1031128E+03  0.7561462E-02  0.1273883E+00
         -2   -1    0    0    0  501 -0.00000000000E+00  0.00000000000E+00  0.13813988444E+03  0.13813988444E+03  0.00000000000E+00 0.  1.
          2   -1    0    0  501    0  0.00000000000E+00 -0.00000000000E+00 -0.10719997978E+03  0.10719997978E+03  0.00000000000E+00 0. -1.
         23    2    1    2    0    0 -0.11476277853E+02 -0.38148806386E+02 -0.25111191282E+02  0.10258634190E+03  0.91139175088E+02 0.  0.
          5    1    1    2  502    0 -0.51625302443E+02 -0.87134315513E+01  0.20385365210E+02  0.56339428968E+02  0.41800000000E+01 0. -1.
         -5    1    1    2    0  502  0.63101580295E+02  0.46862237938E+02  0.35665730735E+02  0.86414093348E+02  0.41800000000E+01 0. -1.
        -11    1    3    3    0    0  0.25031008938E+02 -0.27007774284E+02  0.21264982964E+02  0.42522591416E+02  0.00000000000E+00 0.  1.
         11    1    3    3    0    0 -0.36507286791E+02 -0.11141032102E+02 -0.46376174246E+02  0.60063750489E+02  0.00000000000E+00 0. -1.
</event>
<event>
 7    1  0.6584658E-006  0.2830612E+03  0.7561462E-02  0.1094029E+00
         -2   -1    0    0    0  501 -0.00000000000E+00  0.00000000000E+00  0.77038229388E+02  0.77038229388E+02  0.00000000000E+00 0.  1.
          2   -1    0    0  501    0  0.00000000000E+00 -0.00000000000E+00 -0.11943394882E+04  0.11943394882E+04  0.00000000000E+00 0. -1.
         23    2    1    2    0    0 -0.96634121260E+02 -0.25174280911E+03 -0.72714494642E+03  0.78089018283E+03  0.91307771831E+02 0.  0.
          5    1    1    2  502    0 -0.24094532301E+01  0.11745678031E+03 -0.23422627105E+03  0.26207121009E+03  0.41800000000E+01 0. -1.
         -5    1    1    2    0  502  0.99043574491E+02  0.13428602880E+03 -0.15593004129E+03  0.22841632463E+03  0.41800000000E+01 0. -1.
        -11    1    3    3    0    0 -0.10507456217E+02  0.44205507801E+01 -0.60205860553E+02  0.61275554263E+02  0.00000000000E+00 0. -1.
         11    1    3    3    0    0 -0.86126665044E+02 -0.25616335989E+03 -0.66693908587E+03  0.71961462856E+03  0.00000000000E+00 0.  1.
</event>
<event>
 7    1  0.6584658E-006  0.1383882E+03  0.7561462E-02  0.1215514E+00
          2   -1    0    0  501    0  0.00000000000E+00  0.00000000000E+00  0.90921575449E+03  0.90921575449E+03  0.00000000000E+00 0. -1.
         -2   -1    0    0    0  501 -0.00000000000E+00 -0.00000000000E+00 -0.25949571988E+02  0.25949571988E+02  0.00000000000E+00 0.  1.
         23    2    1    2    0    0 -0.59270899690E+02 -0.15972722333E+01  0.40650109590E+03  0.42092942299E+03  0.91776071756E+02 0.  0.
          5    1    1    2  502    0 -0.15589996947E+02  0.70159738864E+02  0.31569375370E+03  0.32379847975E+03  0.41800000000E+01 0. -1.
         -5    1    1    2    0  502  0.74860896637E+02 -0.68562466631E+02  0.16107133291E+03  0.19043742374E+03  0.41800000000E+01 0.  1.
        -11    1    3    3    0    0 -0.12882754814E+02 -0.40589890830E+02  0.23987764343E+03  0.24362838182E+03  0.00000000000E+00 0.  1.
         11    1    3    3    0    0 -0.46388144876E+02  0.38992618596E+02  0.16662345246E+03  0.17730104117E+03  0.00000000000E+00 0. -1.
</event>
<event>
 7    1  0.6584658E-006  0.1011776E+03  0.7561462E-02  0.1277839E+00
          1   -1    0    0  501    0  0.00000000000E+00  0.00000000000E+00  0.98566272586E+02  0.98566272586E+02  0.00000000000E+00 0. -1.
         -1   -1    0    0    0  501 -0.00000000000E+00 -0.00000000000E+00 -0.14869422540E+03  0.14869422540E+03  0.00000000000E+00 0.  1.
         23    2    1    2    0    0  0.47281617250E+02 -0.23793966044E+02 -0.13084397205E+02  0.10646975835E+03  0.91448913844E+02 0.  0.
          5    1    1    2  502    0 -0.66531870720E+02  0.42425460980E+02 -0.64650225293E+02  0.10209570800E+03  0.41800000000E+01 0. -1.
         -5    1    1    2    0  502  0.19250253470E+02 -0.18631494936E+02  0.27606669686E+02  0.38695031637E+02  0.41800000000E+01 0. -1.
        -11    1    3    3    0    0  0.27841231550E+02  0.28856601479E+02  0.16101325071E+02  0.43209840224E+02  0.00000000000E+00 0. -1.
         11    1    3    3    0    0  0.19440385700E+02 -0.52650567523E+02 -0.29185722276E+02  0.63259918127E+02  0.00000000000E+00 0.  1.
</event>
<event>
 7    1  0.6584658E-006  0.1107885E+03  0.7561462E-02  0.1259117E+00
         -1   -1    0    0    0  501 -0.00000000000E+00  0.00000000000E+00  0.31564814310E+03  0.31564814310E+03  0.00000000000E+00 0.  1.
          1   -1    0    0  501    0  0.00000000000E+00 -0.00000000000E+00 -0.70173980041E+02  0.70173980041E+02  0.00000000000E+00 0. -1.
         23    2    1    2    0    0 -0.10800449078E+02  0.73583420623E+02  0.30176560521E+02  0.12595298763E+03  0.97068845655E+02 0.  0.
          5    1    1    2  502    0  0.66257013145E+02 -0.56526988088E+02  0.13515927355E+03  0.16084400455E+03  0.41800000000E+01 0.  1.
         -5    1    1    2    0  502 -0.55456564067E+02 -0.17056432535E+02  0.80138328992E+02  0.99025130965E+02  0.41800000000E+01 0.  1.
        -11    1    3    3    0    0 -0.13172207470E+02  0.32601112699E+02  0.63827869012E+02  0.72872055422E+02  0.00000000000E+00 0.  1.
         11    1    3    3    0    0  0.23717583915E+01  0.40982307925E+02 -0.33651308492E+02  0.53080932206E+02  0.00000000000E+00 0. -1.
</event>
<event>
 7    1  0.6584658E-006  0.1112173E+03  0.7561462E-02  0.1258332E+00
          2   -1    0    0  501    0  0.00000000000E+00  0.00000000000E+00  0.37548467812E+03  0.37548467812E+03  0.00000000000E+00 0. -1.
         -2   -1    0    0    0  501 -0.00000000000E+00 -0.00000000000E+00 -0.46409379461E+02  0.46409379461E+02  0.00000000000E+00 0.  1.
         23    2    1    2    0    0  0.42812395276E+02 -0.56327890096E+02  0.19242274701E+03  0.22358399820E+03  0.89205147223E+02 0.  0.
          5    1    1    2  502    0 -0.66789420921E+02  0.31653888970E+02  0.14487230996E+03  0.16269066976E+03  0.41800000000E+01 0.  1.
         -5    1    1    2    0  502  0.23977025645E+02  0.24674001126E+02 -0.82197583134E+01  0.35619389622E+02  0.41800000000E+01 0.  1.
        -11    1    3    3    0    0  0.68356710991E+02 -0.23784126784E+02  0.11768932158E+03  0.13816331292E+03  0.00000000000E+00 0.  1.
         11    1    3    3    0    0 -0.25544315715E+02 -0.32543763312E+02  0.74733425435E+02  0.85420685277E+02  0.00000000000E+00 0. -1.
</event>
<event>
 7    1  0.6584658E-006  0.1111513E+03  0.7561462E-02  0.1258453E+00
         -1   -1    0    0    0  501 -0.00000000000E+00  0.00000000000E+00  0.44303878793E+02  0.44303878793E+02  0.00000000000E+00 0.  1.
          1   -1    0    0  501    0  0.00000000000E+00 -0.00000000000E+00 -0.40520454765E+03  0.40520454765E+03  0.00000000000E+00 0. -1.
         23    2    1    2    0    0  0.81895644061E+01  0.49446740326E+02 -0.26232801813E+03  0.28254715841E+03  0.92221789920E+02 0.  0.
          5    1    1    2  502    0 -0.52779040029E+02  0.25226129164E+01 -0.79863027969E+02  0.95851793300E+02  0.41800000000E+01 0. -1.
         -5    1    1    2    0  502  0.44589475623E+02 -0.51969353242E+02 -0.18709622757E+02  0.71109474731E+02  0.41800000000E+01 0. -1.
        -11    1    3    3    0    0  0.47885891476E+02  0.24244718832E+02 -0.99347970027E+02  0.11291981289E+03  0.00000000000E+00 0.  1.
         11    1    3    3    0    0 -0.39696327070E+02  0.25202021494E+02 -0.16298004810E+03  0.16962734552E+03  0.00000000000E+00 0. -1.
</event>
<event>
 7    1  0.6584658E-006  0.1127898E+03  0.7561462E-02  0.1255489E+00
          1   -1    0    0  501    0  0.00000000000E+00  0.00000000000E+00  0.78271550161E+02  0.78271550161E+02  0.00000000000E+00 0. -1.
         -1   -1    0    0    0  501 -0.00000000000E+00 -0.00000000000E+00 -0.17704832859E+03  0.17704832859E+03  0.00000000000E+00 0.  1.
         23    2    1    2    0    0 -0.46880668399E+02 -0.30418111632E+02 -0.12639689932E+02  0.10375187798E+03  0.86496426739E+02 0.  0.
          5    1    1    2  502    0  0.18174758065E+02 -0.42310087718E+02 -0.28134807904E+02  0.54124903411E+02  0.41800000000E+01 0. -1.
         -5    1    1    2    0  502  0.28705910334E+02  0.72728199350E+02 -0.58002280595E+02  0.97443097360E+02  0.41800000000E+01 0.  1.
        -11    1    3    3    0    0 -0.71555762998E+02 -0.20365299632E+02 -0.32200616056E+00  0.74398093627E+02  0.00000000000E+00 0.  1.
         11    1    3    3    0    0  0.24675094599E+02 -0.10052812000E+02 -0.12317683772E+02  0.29353784357E+02  0.00000000000E+00 0. -1.
</event>
<event>
 7    1  0.6584658E-006  0.1489870E+03  0.7561462E-02  0.1201723E+00
         -2   -1    0    0    0  501 -0.00000000000E+00  0.00000000000E+00  0.20545566556E+02  0.20545566556E+02  0.00000000000E+00 0.  1.
          2   -1    0    0  501    0  0.00000000000E+00 -0.00000000000E+00 -0.11988849148E+04  0.11988849148E+04  0.00000000000E+00 0. -1.
         23    2    1    2    0    0 -0.11816289902E+02  0.11269645448E+03 -0.51812668508E+03  0.53798563185E+03  0.90184049176E+02 0.  0.
          5    1    1    2  502    0  0.66308898138E+02 -0.59044132874E+02 -0.42063213218E+03  0.42992085623E+03  0.41800000000E+01 0. -1.
         -5    1    1    2    0  502 -0.54492608236E+02 -0.53652321607E+02 -0.23958053095E+03  0.25152399324E+03  0.41800000000E+01 0. -1.
        -11    1    3    3    0    0 -0.38804354238E+02  0.86892677168E+02 -0.45323938807E+03  0.46312207694E+03  0.00000000000E+00 0.  1.
         11    1    3    3    0    0  0.26988064336E+02  0.25803777313E+02 -0.64887297010E+02  0.74863554908E+02  0.00000000000E+00 0. -1.
</event>
<event>
 7    1  0.6584658E-006  0.1481639E+03  0.7561462E-02  0.1202747E+00
          1   -1    0    0  501    0  0.00000000000E+00  0.00000000000E+00  0.70531077644E+03  0.70531077644E+03  0.00000000000E+00 0. -1.
         -1   -1    0    0    0  501 -0.00000000000E+00 -0.00000000000E+00 -0.42244371444E+02  0.42244371444E+02  0.00000000000E+00 0.  1.
         23    2    1    2    0    0  0.79919443798E+02 -0.94572159947E+02  0.41357971313E+03  0.44223154741E+03  0.95862148336E+02 0.  0.
          5    1    1    2  502    0 -0.40264892360E+02  0.27278858940E+01  0.17731360442E+03  0.18189637058E+03  0.41800000000E+01 0. -1.
         -5    1    1    2    0  502 -0.39654551438E+02  0.91844274053E+02  0.72173087448E+02  0.12342722989E+03  0.41800000000E+01 0. -1.
        -11    1    3    3    0    0  0.99180393329E+01 -0.84294955898E+02  0.24970283975E+03  0.26373379623E+03  0.00000000000E+00 0. -1.
         11    1    3    3    0    0  0.70001404465E+02 -0.10277204049E+02  0.16387687337E+03  0.17849775118E+03  0.00000000000E+00 0.  1.
</event>
<event>
 7    1  0.6584658E-006  0.9017201E+02  0.7561462E-02  0.1302436E+00
         -1   -1    0    0    0  501 -0.00000000000E+00  0.00000000000E+00  0.28781408115E+03  0.28781408115E+03  0.00000000000E+00 0.  1.
          1   -1    0    0  501    0  0.00000000000E+00 -0.00000000000E+00 -0.52931157035E+02  0.52931157035E+02  0.00000000000E+00 0. -1.
         23    2    1    2    0    0 -0.27978329500E+02 -0.10089887207E+02  0.27813810522E+02  0.97002678162E+02  0.88041574096E+02 0.  0.
          5    1    1    2  502    0  0.57604308766E+02  0.15713301215E+02  0.35705768987E+02  0.69696044095E+02  0.41800000000E+01 0. -1.
         -5    1    1    2    0  502 -0.29625979266E+02 -0.56234140081E+01  0.17136334461E+03  0.17404651593E+03  0.41800000000E+01 0. -1.
        -11    1    3    3    0    0 -0.99533547408E+00  0.36335061588E+02  0.23169852004E+02  0.43105329545E+02  0.00000000000E+00 0.  1.
         11    1    3    3    0    0 -0.26982994026E+02 -0.46424948795E+02  0.46439585183E+01  0.53897348617E+02  0.00000000000E+00 0. -1.
</event>
<event>
 7    1  0.6584658E-006  0.1096100E+03  0.7561462E-02  0.1261294E+00
         -2   -1    0    0    0  501 -0.00000000000E+00  0.00000000000E+00  0.16058917483E+02  0.16058917483E+02  0.00000000000E+00 0.  1.
          2   -1    0    0  501    0  0.00000000000E+00 -0.00000000000E+00 -0.78019865859E+03  0.78019865859E+03  0.00000000000E+00 0. -1.
         23    2    1    2    0    0  0.23597164916E+02  0.14526446201E+02 -0.38682745892E+03  0.39778580328E+03  0.88488521775E+02 0.  0.
          5    1    1    2  502    0 -0.74619297418E+02 -0.67535698344E+01 -0.25041161674E+03  0.26141365774E+03  0.41800000000E+01 0.  1.
         -5    1    1    2    0  502  0.51022132502E+02 -0.77728763668E+01 -0.12690066544E+03  0.13705811505E+03  0.41800000000E+01 0.  1.
        -11    1    3    3    0    0 -0.30092480521E+02  0.23221259283E+02 -0.17577834948E+03  0.17984107544E+03  0.00000000000E+00 0. -1.
         11    1    3    3    0    0  0.53689645437E+02 -0.86948130822E+01 -0.21104910944E+03  0.21794472785E+03  0.00000000000E+00 0.  1.
</event>
<event>
 7    1  0.6584658E-006  0.1083791E+03  0.7561462E-02  0.1263601E+00
          2   -1    0    0  501    0  0.00000000000E+00  0.00000000000E+00  0.52841741424E+03  0.52841741424E+03  0.00000000000E+00 0. -1.
         -2   -1    0    0    0  501 -0.00000000000E+00 -0.00000000000E+00 -0.39025972248E+02  0.39025972248E+02  0.00000000000E+00 0.  1.
         23    2    1    2    0    0 -0.27750623604E+02 -0.76262303889E+02  0.23755232439E+03  0.26737324005E+03  0.92039701024E+02 0.  0.
          5    1    1    2  502    0  0.32642713245E+02  0.80110171529E+02  0.26832709332E+03  0.28195759915E+03  0.41800000000E+01 0. -1.
         -5    1    1    2    0  502 -0.48920896410E+01 -0.38478676397E+01 -0.16487975712E+02  0.18112547295E+02  0.41800000000E+01 0.  1.
        -11    1    3    3    0    0 -0.50702291220E+02 -0.88844995546E+01  0.95801872368E+02  0.10875502479E+03  0.00000000000E+00 0. -1.
         11    1    3    3    0    0  0.22951667616E+02 -0.67377804335E+02  0.14175045202E+03  0.15861821526E+03  0.00000000000E+00 0.  1.
</event>
<event>
 7    1  0.6584658E-006  0.8946759E+02  0.7561462E-02  0.1304146E+00
         -1   -1    0    0    0  501 -0.00000000000E+00  0.00000000000E+00  0.12734671612E+03  0.12734671612E+03  0.00000000000E+00 0.  1.
          1   -1    0    0  501    0  0.00000000000E+00 -0.00000000000E+00 -0.11304065299E+03  0.11304065299E+03  0.00000000000E+00 0. -1.
         23    2    1    2    0    0 -0.29684663671E+02  0.14481802974E+02 -0.31749473437E+02  0.10305890726E+03  0.92315802702E+02 0.  0.
          5    1    1    2  502    0 -0.31007805809E+02 -0.12762558046E+02  0.65277110601E+02  0.73504696975E+02  0.41800000000E+01 0. -1.
         -5    1    1    2    0  502  0.60692469480E+02 -0.17192449282E+01 -0.19221574030E+02  0.63823764876E+02  0.41800000000E+01 0. -1.
        -11    1    3    3    0    0  0.16015373390E+02 -0.21011574597E+02  0.13438534384E+02  0.29640726345E+02  0.00000000000E+00 0.  1.
         11    1    3    3    0    0 -0.45700037061E+02  0.35493377571E+02 -0.45188007821E+02  0.73418180920E+02  0.00000000000E+00 0. -1.
</event>
<event>
 7    1  0.6584658E-006  0.2693111E+03  0.7561462E-02  0.1101675E+00
          1   -1    0    0  501    0  0.00000000000E+00  0.00000000000E+00  0.16135943932E+04  0.16135943932E+04  0.00000000000E+00 0. -1.
         -1   -1    0    0    0  501 -0.00000000000E+00 -0.00000000000E+00 -0.49892614841E+02  0.49892614841E+02  0.00000000000E+00 0.  1.
         23    2    1    2    0    0  0.21816669045E+03 -0.12599433644E+03  0.98260413878E+03  0.10178932749E+04  0.84407037133E+02 0.  0.
          5    1    1    2  502    0 -0.22856905039E+03  0.13019312772E+03  0.51376684964E+03  0.57720699016E+03  0.41800000000E+01 0. -1.
         -5    1    1    2    0  502  0.10402359942E+02 -0.41987912820E+01  0.67330789972E+02  0.68386743005E+02  0.41800000000E+01 0. -1.
        -11    1    3    3    0    0  0.15372378891E+03 -0.45216517035E+02  0.53287185016E+03  0.55644222107E+03  0.00000000000E+00 0.  1.
         11    1    3    3    0    0  0.64442901543E+02 -0.80777819402E+02  0.44973228861E+03  0.46145105384E+03  0.00000000000E+00 0. -1.
</event>
<event>
 7    1  0.6584658E-006  0.1467661E+03  0.7561462E-02  0.1204504E+00
          2   -1    0    0  501    0  0.00000000000E+00  0.00000000000E+00  0.58585546438E+03  0.58585546438E+03  0.00000000000E+00 0. -1.
         -2   -1    0    0    0  501 -0.00000000000E+00 -0.00000000000E+00 -0.71733039992E+02  0.71733039992E+02  0.00000000000E+00 0.  1.
         23    2    1    2    0    0 -0.78466251147E+02  0.74215860522E+02  0.46393565318E+03  0.48488334894E+03  0.90612500556E+02 0.  0.
          5    1    1    2  502    0  0.77120021605E+02  0.12244223525E+02  0.17235932867E+02  0.80074768334E+02  0.41800000000E+01 0.  1.
         -5    1    1    2    0  502  0.13462295424E+01 -0.86460084047E+02  0.32950838335E+02  0.92630387100E+02  0.41800000000E+01 0.  1.
        -11    1    3    3    0    0 -0.70528654688E+02  0.88049296619E+02  0.44926652467E+03  0.46321418367E+03  0.00000000000E+00 0. -1.
         11    1    3    3    0    0 -0.79375964589E+01 -0.13833436096E+02  0.14669128513E+02  0.21669165261E+02  0.00000000000E+00 0.  1.
</event>
<event>
 7    1  0.6584658E-006  0.1145718E+03  0.7561462E-02  0.1252330E+00
         -2   -1    0    0    0  501 -0.00000000000E+00  0.00000000000E+00  0.35946042502E+02  0.35946042502E+02  0.00000000000E+00 0.  1.
          2   -1    0    0  501    0  0.00000000000E+00 -0.00000000000E+00 -0.48614965966E+03  0.48614965966E+03  0.00000000000E+00 0. -1.
         23    2    1    2    0    0 -0.67223101448E+02  0.15874874892E+02 -0.26796674134E+03  0.29051902539E+03  0.88454353381E+02 0.  0.
          5    1    1    2  502    0 -0.21529033787E+02  0.11063285410E+02  0.26311772597E+01  0.24704069981E+02  0.41800000000E+01 0. -1.
         -5    1    1    2    0  502  0.88752135235E+02 -0.26938160302E+02 -0.18486805308E+03  0.20687260679E+03  0.41800000000E+01 0. -1.
        -11    1    3    3    0    0 -0.29692746819E+02  0.51848454501E+02 -0.12964945321E+03  0.14275469227E+03  0.00000000000E+00 0. -1.
         11    1    3    3    0    0 -0.37530354630E+02 -0.35973579609E+02 -0.13831728813E+03  0.14776433312E+03  0.00000000000E+00 0.  1.
</event>
<event>
 7    1  0.6584658E-006  0.1248409E+03  0.7561462E-02  0.1235318E+00
         -2   -1    0    0    0  501 -0.00000000000E+00  0.00000000000E+00  0.13421061031E+04  0.13421061031E+04  0.00000000000E+00 0.  1.
          2   -1    0    0  501    0  0.00000000000E+00 -0.00000000000E+00 -0.23740076406E+02  0.23740076406E+02  0.00000000000E+00 0. -1.
         23    2    1    2    0    0  0.12352230765E+03 -0.94337126323E+01  0.33682166397E+03  0.36863803281E+03  0.84252065211E+02 0.  0.
          5    1    1    2  502    0 -0.82928847731E+02  0.11861567368E+01  0.91467786686E+03  0.91843980384E+03  0.41800000000E+01 0.  1.
         -5    1    1    2    0  502 -0.40593459919E+02  0.82475558954E+01  0.66866495823E+02  0.78768342817E+02  0.41800000000E+01 0.  1.
        -11    1    3    3    0    0  0.69373035345E+02  0.30365142405E+01  0.80267712012E+02  0.10613549851E+03  0.00000000000E+00 0. -1.
         11    1    3    3    0    0  0.54149272304E+02 -0.12470226873E+02  0.25655395196E+03  0.26250253430E+03  0.00000000000E+00 0.  1.
</event>
<event>
 7    1  0.6584658E-006  0.2916666E+03  0.7561462E-02  0.1089482E+00
         -1   -1    0    0    0  501 -0.00000000000E+00  0.00000000000E+00  0.84974885169E+03  0.84974885169E+03  0.00000000000E+00 0.  1.
          1   -1    0    0  501    0  0.00000000000E+00 -0.00000000000E+00 -0.36346370084E+03  0.36346370084E+03  0.00000000000E+00 0. -1.
         23    2    1    2    0    0  0.10971497770E+03  0.24453030438E+03 -0.27530635124E+03  0.39413116959E+03  0.87825655236E+02 0.  0.
          5    1    1    2  502    0 -0.71144542599E+02 -0.20605128687E+02  0.18569830148E+03  0.19996861965E+03  0.41800000000E+01 0. -1.
         -5    1    1    2    0  502 -0.38570435105E+02 -0.22392517569E+03  0.57589320061E+03  0.61911276330E+03  0.41800000000E+01 0.  1.
        -11    1    3    3    0    0  0.68594574631E+02  0.22708330074E+03 -0.23631672251E+03  0.33483971461E+03  0.00000000000E+00 0. -1.
         11    1    3    3    0    0  0.41120403074E+02  0.17447003637E+02 -0.38989628733E+02  0.59291454979E+02  0.00000000000E+00 0.  1.
</event>
<event>
 7    1  0.6584658E-006  0.1050258E+03  0.7561462E-02  0.1270069E+00
          1   -1    0    0  501    0  0.00000000000E+00  0.00000000000E+00  0.24313241592E+03  0.24313241592E+03  0.00000000000E+00 0. -1.
         -1   -1    0    0    0  501 -0.00000000000E+00 -0.00000000000E+00 -0.68740253913E+02  0.68740253913E+02  0.00000000000E+00 0.  1.
         23    2    1    2    0    0  0.16976579120E+01 -0.63093886315E+02  0.11372013901E+03  0.15919018536E+03  0.91790656196E+02 0.  0.
          5    1    1    2  502    0  0.44178312608E+01  0.86064261373E+02  0.83060075116E+02  0.11976235968E+03  0.41800000000E+01 0.  1.
         -5    1    1    2    0  502 -0.61154891727E+01 -0.22970375059E+02 -0.22388052124E+02  0.32920124788E+02  0.41800000000E+01 0.  1.
        -11    1    3    3    0    0 -0.47901117991E+01 -0.80716498275E+02  0.55647407092E+02  0.98156671607E+02  0.00000000000E+00 0.  1.
         11    1    3    3    0    0  0.64877697111E+01  0.17622611961E+02  0.58072731922E+02  0.61033513753E+02  0.00000000000E+00 0. -1.
</event>
<event>
 7    1  0.6584658E-006  0.6280401E+02  0.7561462E-02  0.1386428E+00
         -3   -1    0    0    0  501 -0.00000000000E+00  0.00000000000E+00  0.49193804741E+02  0.49193804741E+02  0.00000000000E+00 0.  1.
          3   -1    0    0  501    0  0.00000000000E+00 -0.00000000000E+00 -0.30978389478E+03  0.30978389478E+03  0.00000000000E+00 0. -1.
         23    2    1    2    0    0 -0.22535757961E+02 -0.52772529645E+02 -0.12279457425E+03  0.16421298021E+03  0.92707039283E+02 0.  0.
          5    1    1    2  502    0  0.27727946569E+02  0.52560193498E+02 -0.28354336208E+01  0.59639961815E+02  0.41800000000E+01 0. -1.
         -5    1    1    2    0  502 -0.51921886085E+01  0.21233614748E+00 -0.13496008217E+03  0.13512475750E+03  0.41800000000E+01 0. -1.
        -11    1    3    3    0    0 -0.44936775203E+01 -0.29893741020E+02 -0.13059661362E+03  0.13404963401E+03  0.00000000000E+00 0. -1.
         11    1    3    3    0    0 -0.18042080441E+02 -0.22878788625E+02  0.78020393707E+01  0.30163346199E+02  0.00000000000E+00 0.  1.
</event>
<event>
 7    1  0.6584658E-006  0.1143016E+03  0.7561462E-02  0.1252805E+00
          3   -1    0    0  501    0  0.00000000000E+00  0.00000000000E+00  0.32685882679E+03  0.32685882679E+03  0.00000000000E+00 0. -1.
         -3   -1    0    0    0  501 -0.00000000000E+00 -0.00000000000E+00 -0.58968000368E+02  0.58968000368E+02  0.00000000000E+00 0.  1.
         23    2    1    2    0    0  0.12587275821E+01  0.60788343058E+02  0.20475835631E+03  0.23308601657E+03  0.93307553800E+02 0.  0.
          5    1    1    2  502    0 -0.54150665584E+02 -0.34878174475E+02  0.67674961011E+02  0.93520876737E+02  0.41800000000E+01 0.  1.
         -5    1    1    2    0  502  0.52891938002E+02 -0.25910168583E+02 -0.45424908954E+01  0.59219933850E+02  0.41800000000E+01 0.  1.
        -11    1    3    3    0    0  0.40659256191E+02  0.12189098251E+02  0.12311713082E+03  0.13022894122E+03  0.00000000000E+00 0. -1.
         11    1    3    3    0    0 -0.39400528609E+02  0.48599244807E+02  0.81641225489E+02  0.10285707535E+03  0.00000000000E+00 0.  1.
</event>
<event>
 7    1  0.6584658E-006  0.2013851E+03  0.7561462E-02  0.1148576E+00
         -2   -1    0    0    0  501 -0.00000000000E+00  0.00000000000E+00  0.39029447043E+02  0.39029447043E+02  0.00000000000E+00 0.  1.
          2   -1    0    0  501    0  0.00000000000E+00 -0.00000000000E+00 -0.11422961733E+04  0.11422961733E+04  0.00000000000E+00 0. -1.
         23    2    1    2    0    0 -0.11287448505E+03  0.13813747445E+03 -0.61633079396E+03  0.64786630259E+03  0.89691065541E+02 0.  0.
          5    1    1    2  502    0  0.14770932980E+02 -0.10096934646E+03 -0.32320580578E+03  0.33895789514E+03  0.41800000000E+01 0.  1.
         -5    1    1    2    0  502  0.98103552065E+02 -0.37168127989E+02 -0.16373012652E+03  0.19450142260E+03  0.41800000000E+01 0.  1.
        -11    1    3    3    0    0 -0.32937307506E+02  0.10334740441E+03 -0.27606709329E+03  0.29661185449E+03  0.00000000000E+00 0.  1.
         11    1    3    3    0    0 -0.79937177539E+02  0.34790070047E+02 -0.34026370066E+03  0.35125444811E+03  0.00000000000E+00 0. -1.
</event>
<event>
 7    1  0.6584658E-006  0.1055763E+03  0.7561462E-02  0.1268988E+00
         -2   -1    0    0    0  501 -0.00000000000E+00  0.00000000000E+00  0.55468748232E+03  0.55468748232E+03  0.00000000000E+00 0.  1.
          2   -1    0    0  501    0  0.00000000000E+00 -0.00000000000E+00 -0.28733684238E+02  0.28733684238E+02  0.00000000000E+00 0. -1.
         23    2    1    2    0    0  0.51085640237E+01  0.61872461782E+02  0.22112135131E+03  0.24812178963E+03  0.93890742514E+02 0.  0.
          5    1    1    2  502    0  0.11228654450E+02  0.37192317867E+02  0.80080358177E+02  0.89104923292E+02  0.41800000000E+01 0. -1.
         -5    1    1    2    0  502 -0.16337218473E+02 -0.99064779650E+02  0.22475208859E+03  0.24619445363E+03  0.41800000000E+01 0. -1.
        -11    1    3    3    0    0  0.20491622773E+02  0.38366932821E+02  0.21501965947E+03  0.21937498056E+03  0.00000000000E+00 0.  1.
         11    1    3    3    0    0 -0.15383058750E+02  0.23505528962E+02  0.61016918423E+01  0.28746809068E+02  0.00000000000E+00 0. -1.
</event>
<event>
 7    1  0.6584658E-006  0.1411117E+03  0.7561462E-02  0.1211841E+00
          2   -1    0    0  501    0  0.00000000000E+00  0.00000000000E+00  0.31156115682E+03  0.31156115682E+03  0.00000000000E+00 0. -1.
         -2   -1    0    0    0  501 -0.00000000000E+00 -0.00000000000E+00 -0.79016385801E+02  0.79016385801E+02  0.00000000000E+00 0.  1.
         23    2    1    2    0    0  0.76606546881E+02  0.68800201806E+02  0.16487469005E+03  0.21499710091E+03  0.91858909132E+02 0.  0.
          5    1    1    2  502    0 -0.87795708576E+02 -0.59803560125E+01  0.85827977798E+01  0.88515467124E+02  0.41800000000E+01 0. -1.
         -5    1    1    2    0  502  0.11189161695E+02 -0.62819845794E+02  0.59087283185E+02  0.87064974583E+02  0.41800000000E+01 0. -1.
        -11    1    3    3    0    0  0.38713763279E+02  0.81490046193E+02  0.77568386038E+02  0.11897998827E+03  0.00000000000E+00 0.  1.
         11    1    3    3    0    0  0.37892783602E+02 -0.12689844387E+02  0.87306304015E+02  0.96017112643E+02  0.00000000000E+00 0. -1.
</event>
<event>
 7    1  0.6584658E-006  0.1397290E+03  0.7561462E-02  0.1213694E+00
         -2   -1    0    0    0  501 -0.00000000000E+00  0.00000000000E+00  0.43136434479E+02  0.43136434479E+02  0.00000000000E+00 0.  1.
          2   -1    0    0  501    0  0.00000000000E+00 -0.00000000000E+00 -0.71673726315E+03  0.71673726315E+03  0.00000000000E+00 0. -1.
         23    2    1    2    0    0  0.30924237076E+01 -0.11985752132E+03 -0.46553581001E+03  0.48910691746E+03  0.90147644494E+02 0.  0.
          5    1    1    2  502    0  0.34305061919E+02  0.25840659701E+02 -0.44768764019E+01  0.43383081833E+02  0.41800000000E+01 0.  1.
         -5    1    1    2    0  502 -0.37397485626E+02  0.94016861615E+02 -0.20358814226E+03  0.22738369833E+03  0.41800000000E+01 0.  1.
        -11    1    3    3    0    0 -0.11179027471E+02 -0.12024335960E+03 -0.45651867552E+03  0.47222106823E+03  0.00000000000E+00 0. -1.
         11    1    3    3    0    0  0.14271451178E+02  0.38583828694E+00 -0.90171344961E+01  0.16885849236E+02  0.00000000000E+00 0.  1.
</event>
<event>
 7    1  0.6584658E-006  0.9974331E+02  0.7561462E-02  0.1280837E+00
         -2   -1    0    0    0  501 -0.00000000000E+00  0.00000000000E+00  0.10762856458E+03  0.10762856458E+03  0.00000000000E+00 0.  1.
          2   -1    0    0  501    0  0.00000000000E+00 -0.00000000000E+00 -0.17411834694E+03  0.17411834694E+03  0.00000000000E+00 0. -1.
         23    2    1    2    0    0  0.41006647578E+02  0.60263639809E+02 -0.71490943946E+02  0.13688379469E+03  0.91175472331E+02 0.  0.
          5    1    1    2  502    0 -0.61526478148E+02 -0.36810754615E+02  0.51752125175E+02  0.88522844672E+02  0.41800000000E+01 0. -1.
         -5    1    1    2    0  502  0.20519830570E+02 -0.23452885194E+02 -0.46750963589E+02  0.56340272159E+02  0.41800000000E+01 0. -1.
        -11    1    3    3    0    0  0.22118609287E+01 -0.13073687380E+02  0.12928925877E+02  0.18519469615E+02  0.00000000000E+00 0.  1.
         11    1    3    3    0    0  0.38794786650E+02  0.73337327188E+02 -0.84419869823E+02  0.11836432508E+03  0.00000000000E+00 0. -1.
</event>
<event>
 7    1  0.6584658E-006  0.2615932E+03  0.7561462E-02  0.1106190E+00
         -1   -1    0    0    0  501 -0.00000000000E+00  0.00000000000E+00  0.59502336379E+03  0.59502336379E+03  0.00000000000E+00 0.  1.
          1   -1    0    0  501    0  0.00000000000E+00 -0.00000000000E+00 -0.17329810990E+03  0.17329810990E+03  0.00000000000E+00 0. -1.
         23    2    1    2    0    0  0.11557442253E+03  0.21289869910E+03 -0.66924085895E+01  0.26053323519E+03  0.95652888530E+02 0.  0.
          5    1    1    2  502    0 -0.15621594786E+02  0.14183558901E+02  0.17368460449E+02  0.27646760843E+02  0.41800000000E+01 0.  1.
         -5    1    1    2    0  502 -0.99952827746E+02 -0.22708225800E+03  0.41104920204E+03  0.48014147766E+03  0.41800000000E+01 0.  1.
        -11    1    3    3    0    0  0.71285177438E+02  0.56426370017E+02 -0.31110878290E+02  0.96090574479E+02  0.00000000000E+00 0.  1.
         11    1    3    3    0    0  0.44289245093E+02  0.15647232908E+03  0.24418469701E+02  0.16444266071E+03  0.00000000000E+00 0. -1.
</event>
<event>
 7    1  0.6584658E-006  0.1375850E+03  0.7561462E-02  0.1216616E+00
         -2   -1    0    0    0  501 -0.00000000000E+00  0.00000000000E+00  0.76307709232E+02  0.76307709232E+02  0.00000000000E+00 0.  1.
          2   -1    0    0  501    0  0.00000000000E+00 -0.00000000000E+00 -0.32466422741E+03  0.32466422741E+03  0.00000000000E+00 0. -1.
         23    2    1    2    0    0 -0.94955575124E+01  0.11135595514E+03 -0.13453176402E+03  0.19825857594E+03  0.93366766279E+02 0.  0.
          5    1    1    2  502    0 -0.37931005337E+02 -0.13377175806E+02  0.58794035204E+01  0.40862571923E+02  0.41800000000E+01 0. -1.
         -5    1    1    2    0  502  0.47426562849E+02 -0.97978779333E+02 -0.11970415768E+03  0.16185078878E+03  0.41800000000E+01 0. -1.
        -11    1    3    3    0    0 -0.15466670842E+02  0.12349703627E+01 -0.67372228294E+02  0.69135809853E+02  0.00000000000E+00 0. -1.
         11    1    3    3    0    0  0.59711133292E+01  0.11012098478E+03 -0.67159535723E+02  0.12912276608E+03  0.00000000000E+00 0.  1.
</event>
<event>
 7    1  0.6584658E-006  0.8031594E+02  0.7561462E-02  0.1328157E+00
          2   -1    0    0  501    0  0.00000000000E+00  0.00000000000E+00  0.93744463572E+03  0.93744463572E+03  0.00000000000E+00 0. -1.
         -2   -1    0    0    0  501 -0.00000000000E+00 -0.00000000000E+00 -0.33621041195E+02  0.33621041195E+02  0.00000000000E+00 0.  1.
         23    2    1    2    0    0 -0.47237757106E+02  0.80270834500E+01  0.47249742197E+03  0.48404762908E+03  0.93554549234E+02 0.  0.
          5    1    1    2  502    0 -0.54759813652E+00 -0.62405067792E+01  0.43842953969E+03  0.43849421600E+03  0.41800000000E+01 0. -1.
         -5    1    1    2    0  502  0.47785355243E+02 -0.17865766708E+01 -0.71033671349E+01  0.48523831841E+02  0.41800000000E+01 0.  1.
        -11    1    3    3    0    0 -0.54664760888E+02  0.42872608797E+02  0.31563378303E+03  0.32318877093E+03  0.00000000000E+00 0.  1.
         11    1    3    3    0    0  0.74270037811E+01 -0.34845525347E+02  0.15686363894E+03  0.16085885814E+03  0.00000000000E+00 0. -1.
</event>
<event>
 7    1  0.6584658E-006  0.1507596E+03  0.7561462E-02  0.1199543E+00
          2   -1    0    0  501    0  0.00000000000E+00  0.00000000000E+00  0.15671168097E+03  0.15671168097E+03  0.00000000000E+00 0. -1.
         -2   -1    0    0    0  501 -0.00000000000E+00 -0.00000000000E+00 -0.16344470804E+03  0.16344470804E+03  0.00000000000E+00 0.  1.
         23    2    1    2    0    0 -0.10381399850E+03  0.51188964255E+02  0.15192468436E+02  0.14832468666E+03  0.91497241661E+02 0.  0.
          5    1    1    2  502    0  0.74736154804E+02 -0.82502391543E+02  0.18423598900E+02  0.11291164174E+03  0.41800000000E+01 0.  1.
         -5    1    1    2    0  502  0.29077843693E+02  0.31313427287E+02 -0.40349094407E+02  0.58920060605E+02  0.41800000000E+01 0.  1.
        -11    1    3    3    0    0 -0.51746916087E+02  0.74034131638E+02  0.42719740574E+01  0.90427018829E+02  0.00000000000E+00 0.  1.
         11    1    3    3    0    0 -0.52067082409E+02 -0.22845167382E+02  0.10920494378E+02  0.57897667836E+02  0.00000000000E+00 0. -1.
</event>
<event>
 7    1  0.6584658E-006  0.1219635E+03  0.7561462E-02  0.1239893E+00
          2   -1    0    0  501    0  0.00000000000E+00  0.00000000000E+00  0.10575589320E+03  0.10575589320E+03  0.00000000000E+00 0. -1.
         -2   -1    0    0    0  501 -0.00000000000E+00 -0.00000000000E+00 -0.14971009758E+03  0.14971009758E+03  0.00000000000E+00 0.  1.
         23    2    1    2    0    0  0.43296160311E+02 -0.53117620468E+02  0.30233278623E+01  0.11437976069E+03  0.91528957401E+02 0.  0.
          5    1    1    2  502    0  0.33531396638E+02 -0.67720510020E+01 -0.20311737309E+02  0.40003178721E+02  0.41800000000E+01 0. -1.
         -5    1    1    2    0  502 -0.76827556949E+02  0.59889671470E+02 -0.26665794935E+02  0.10108305137E+03  0.41800000000E+01 0.  1.
        -11    1    3    3    0    0 -0.15316862588E+02  0.15450572534E+02 -0.86685075961E+01  0.23419425593E+02  0.00000000000E+00 0.  1.
         11    1    3    3    0    0  0.58613022899E+02 -0.68568193002E+02  0.11691835458E+02  0.90960335099E+02  0.00000000000E+00 0. -1.
</event>
<event>
 7    1  0.6584658E-006  0.4216379E+02  0.7561462E-02  0.1492866E+00
          1   -1    0    0  501    0  0.00000000000E+00  0.00000000000E+00  0.21241257244E+03  0.21241257244E+03  0.00000000000E+00 0.  1.
         -1   -1    0    0    0  501 -0.00000000000E+00 -0.00000000000E+00 -0.56285242994E+02  0.56285242994E+02  0.00000000000E+00 0. -1.
         23    2    1    2    0    0 -0.37978910569E+01  0.26512029341E+01  0.86860289461E+02  0.12562278035E+03  0.90636196988E+02 0.  0.
          5    1    1    2  502    0 -0.19679219337E+02 -0.79711879264E+01 -0.32151121964E+02  0.38755368069E+02  0.41800000000E+01 0. -1.
         -5    1    1    2    0  502  0.23477110394E+02  0.53199849923E+01  0.10141816194E+03  0.10431966701E+03  0.41800000000E+01 0. -1.
        -11    1    3    3    0    0 -0.85833675485E+01 -0.16454811733E+02  0.10015472651E+03  0.10185972840E+03  0.00000000000E+00 0.  1.
         11    1    3    3    0    0  0.47854764917E+01  0.19106014667E+02 -0.13294437047E+02  0.23763051953E+02  0.00000000000E+00 0. -1.
</event>
<event>
 7    1  0.6584658E-006  0.1000672E+03  0.7561462E-02  0.1280155E+00
         -1   -1    0    0    0  501 -0.00000000000E+00  0.00000000000E+00  0.19393785473E+02  0.19393785473E+02  0.00000000000E+00 0.  1.
          1   -1    0    0  501    0  0.00000000000E+00 -0.00000000000E+00 -0.74845178938E+03  0.74845178938E+03  0.00000000000E+00 0. -1.
         23    2    1    2    0    0  0.41660633243E+02 -0.23333985686E+01 -0.40339600899E+03  0.41649423677E+03  0.94858083896E+02 0.  0.
          5    1    1    2  502    0 -0.66684900735E+02 -0.15253072983E+02 -0.30852107463E+03  0.31604154492E+03  0.41800000000E+01 0. -1.
         -5    1    1    2    0  502  0.25024267492E+02  0.17586471552E+02 -0.17140920281E+02  0.35309793163E+02  0.41800000000E+01 0. -1.
        -11    1    3    3    0    0  0.56424128236E+02  0.30923799227E+02 -0.20747722033E+03  0.21722513796E+03  0.00000000000E+00 0.  1.
         11    1    3    3    0    0 -0.14763494993E+02 -0.33257197796E+02 -0.19591878866E+03  0.19926909881E+03  0.00000000000E+00 0. -1.
</event>
<event>
 7    1  0.6584658E-006  0.9480065E+02  0.7561462E-02  0.1291626E+00
         -2   -1    0    0    0  501 -0.00000000000E+00  0.00000000000E+00  0.11221156224E+03  0.11221156224E+03  0.00000000000E+00 0.  1.
          2   -1    0    0  501    0  0.00000000000E+00 -0.00000000000E+00 -0.51711377978E+03  0.51711377978E+03  0.00000000000E+00 0. -1.
         23    2    1    2    0    0  0.36279443360E+02  0.61547268965E+02 -0.30078504201E+03  0.32724210937E+03  0.10729162279E+03 0.  0.
          5    1    1    2  502    0 -0.26173865340E+02 -0.40778860564E+02 -0.19873387488E+03  0.20459866109E+03  0.41800000000E+01 0. -1.
         -5    1    1    2    0  502 -0.10105578020E+02 -0.20768408401E+02  0.94616699351E+02  0.97484571552E+02  0.41800000000E+01 0.  1.
        -11    1    3    3    0    0  0.57814563444E+02  0.62505563831E+01 -0.21642272818E+03  0.22409906397E+03  0.00000000000E+00 0. -1.
         11    1    3    3    0    0 -0.21535120083E+02  0.55296712582E+02 -0.84362313836E+02  0.10314304540E+03  0.00000000000E+00 0.  1.
</event>
<event>
 6    1  0.6584658E-006  0.1847023E+03  0.7561462E-02  0.1163328E+00
          2   -1    0    0  501    0  0.00000000000E+00  0.00000000000E+00  0.36948660509E+03  0.36948660509E+03  0.00000000000E+00 0. -1.
         -2   -1    0    0    0  501 -0.00000000000E+00 -0.00000000000E+00 -0.14481240876E+03  0.14481240876E+03  0.00000000000E+00 0.  1.
          5    1    1    2  502    0 -0.23610863485E+02 -0.32963647087E+02  0.59126150476E+02  0.71815381179E+02  0.41800000000E+01 0.  1.
         -5    1    1    2    0  502 -0.43649017808E+02 -0.13627131850E+03 -0.53825506651E+02  0.15293713273E+03  0.41800000000E+01 0.  1.
        -11    1    1    2    0    0  0.67964133067E+02  0.13401822171E+03  0.15326560934E+03  0.21464005717E+03  0.00000000000E+00 0. -1.
         11    1    1    2    0    0 -0.70425177485E+00  0.35216743886E+02  0.66107943162E+02  0.74906442778E+02  0.00000000000E+00 0.  1.
</event>
<event>
 7    1  0.6584658E-006  0.9459161E+02  0.7561462E-02  0.1292099E+00
          1   -1    0    0  501    0  0.00000000000E+00  0.00000000000E+00  0.33974523738E+03  0.33974523738E+03  0.00000000000E+00 0. -1.
         -1   -1    0    0    0  501 -0.00000000000E+00 -0.00000000000E+00 -0.39918773334E+02  0.39918773334E+02  0.00000000000E+00 0.  1.
         23    2    1    2    0    0 -0.23281909164E+02  0.36731391823E+02  0.13324826007E+03  0.16685385877E+03  0.90519991910E+02 0.  0.
          5    1    1    2  502    0  0.18226762875E+01 -0.63396717383E+02  0.16661624133E+03  0.17832809705E+03  0.41800000000E+01 0. -1.
         -5    1    1    2    0  502  0.21459232876E+02  0.26665325561E+02 -0.38037347386E-01  0.34482054894E+02  0.41800000000E+01 0. -1.
        -11    1    3    3    0    0 -0.14039036006E+02  0.62347236307E+02  0.56092269668E+02  0.85033023724E+02  0.00000000000E+00 0.  1.
         11    1    3    3    0    0 -0.92428731578E+01 -0.25615844485E+02  0.77155990399E+02  0.81820835044E+02  0.00000000000E+00 0. -1.
</event>
<event>
 7    1  0.6584658E-006  0.2176064E+03  0.7561462E-02  0.1135680E+00
         -2   -1    0    0    0  501 -0.00000000000E+00  0.00000000000E+00  0.59081813160E+02  0.59081813160E+02  0.00000000000E+00 0.  1.
          2   -1    0    0  501    0  0.00000000000E+00 -0.00000000000E+00 -0.89911032421E+03  0.89911032421E+03  0.00000000000E+00 0. -1.
         23    2    1    2    0    0  0.18643759982E+03 -0.45842321136E+02 -0.54211257235E+03  0.58234519034E+03  0.91538967520E+02 0.  0.
          5    1    1    2  502    0 -0.92774430439E+02 -0.40486324783E+02 -0.14283470222E+03  0.17511556754E+03  0.41800000000E+01 0. -1.
         -5    1    1    2    0  502 -0.93663169379E+02  0.86328645919E+02 -0.15508123648E+03  0.20073137949E+03  0.41800000000E+01 0. -1.
        -11    1    3    3    0    0  0.15474012040E+03 -0.66707901596E+02 -0.48783071041E+03  0.51611360282E+03  0.00000000000E+00 0.  1.
         11    1    3    3    0    0  0.31697479414E+02  0.20865580460E+02 -0.54281861945E+02  0.66231587520E+02  0.00000000000E+00 0. -1.
</event>
<event>
 7    1  0.6584658E-006  0.1179856E+03  0.7561462E-02  0.1246458E+00
         -1   -1    0    0    0  501 -0.00000000000E+00  0.00000000000E+00  0.63440750156E+02  0.63440750156E+02  0.00000000000E+00 0.  1.
          1   -1    0    0  501    0  0.00000000000E+00 -0.00000000000E+00 -0.27639098549E+03  0.27639098549E+03  0.00000000000E+00 0. -1.
         23    2    1    2    0    0 -0.60197424589E+01 -0.72835224807E+02 -0.12334144027E+03  0.16948276797E+03  0.90388552811E+02 0.  0.
          5    1    1    2  502    0  0.47217609431E+02 -0.13109740463E+02 -0.25402862412E+02  0.55354726574E+02  0.41800000000E+01 0. -1.
         -5    1    1    2    0  502 -0.41197866972E+02  0.85944965270E+02 -0.64205932645E+02  0.11499424110E+03  0.41800000000E+01 0. -1.
        -11    1    3    3    0    0 -0.16617457936E+02  0.11418310785E+01  0.79157110554E+01  0.18441859125E+02  0.00000000000E+00 0.  1.
         11    1    3    3    0    0  0.10597715477E+02 -0.73977055885E+02 -0.13125715133E+03  0.15104090885E+03  0.00000000000E+00 0. -1.
</event>
<event>
 7    1  0.6584658E-006  0.1647948E+03  0.7561462E-02  0.1183387E+00
          1   -1    0    0  501    0  0.00000000000E+00  0.00000000000E+00  0.25451820104E+02  0.25451820104E+02  0.00000000000E+00 0. -1.
         -1   -1    0    0    0  501 -0.00000000000E+00 -0.00000000000E+00 -0.11249436114E+04  0.11249436114E+04  0.00000000000E+00 0.  1.
         23    2    1    2    0    0  0.97756707934E+02  0.83209753083E+02 -0.47540245980E+03  0.50107927567E+03  0.92696843320E+02 0.  0.
          5    1    1    2  502    0  0.20590303730E+02  0.83676528084E+01 -0.36341788898E+02  0.42803927875E+02  0.41800000000E+01 0. -1.
         -5    1    1    2    0  502 -0.11834701166E+03 -0.91577405892E+02 -0.58774754256E+03  0.60651222793E+03  0.41800000000E+01 0. -1.
        -11    1    3    3    0    0  0.96481394583E+02  0.25827624832E+02 -0.27303880108E+03  0.29073340469E+03  0.00000000000E+00 0.  1.
         11    1    3    3    0    0  0.12753133512E+01  0.57382128252E+02 -0.20236365872E+03  0.21034587098E+03  0.00000000000E+00 0. -1.
</event>
<event>
 7    1  0.6584658E-006  0.1370524E+03  0.7561462E-02  0.1217351E+00
         -1   -1    0    0    0  501 -0.00000000000E+00  0.00000000000E+00  0.35752911177E+02  0.35752911177E+02  0.00000000000E+00 0.  1.
          1   -1    0    0  501    0  0.00000000000E+00 -0.00000000000E+00 -0.67565304549E+03  0.67565304549E+03  0.00000000000E+00 0. -1.
         23    2    1    2    0    0 -0.55916842478E+02 -0.78458070494E+02 -0.41899277189E+03  0.43987254706E+03  0.93008347259E+02 0.  0.
          5    1    1    2  502    0  0.36470229060E+02 -0.19223396311E+02 -0.13062819750E+03  0.13704311349E+03  0.41800000000E+01 0.  1.
         -5    1    1    2    0  502  0.19446613418E+02  0.97681466805E+02 -0.90279164921E+02  0.13449029612E+03  0.41800000000E+01 0.  1.
        -11    1    3    3    0    0  0.56037245445E+01 -0.70759030765E+02 -0.24930304401E+03  0.25921082137E+03  0.00000000000E+00 0. -1.
         11    1    3    3    0    0 -0.61520567023E+02 -0.76990397287E+01 -0.16968972788E+03  0.18066172569E+03  0.00000000000E+00 0.  1.
</event>
<event>
 7    1  0.6584658E-006  0.8727230E+02  0.7561462E-02  0.1309595E+00
         -2   -1    0    0    0  501 -0.00000000000E+00  0.00000000000E+00  0.18818739158E+03  0.18818739158E+03  0.00000000000E+00 0.  1.
          2   -1    0    0  501    0  0.00000000000E+00 -0.00000000000E+00 -0.76165778310E+02  0.76165778310E+02  0.00000000000E+00 0. -1.
         23    2    1    2    0    0  0.19786126111E+02  0.43621499396E+02  0.29099459491E+02  0.10681634009E+03  0.90931985412E+02 0.  0.
          5    1    1    2  502    0 -0.88647586496E+01 -0.81607136029E+02  0.22505031503E+02  0.85218879597E+02  0.41800000000E+01 0. -1.
         -5    1    1    2    0  502 -0.10921367462E+02  0.37985636634E+02  0.60417122274E+02  0.72317950203E+02  0.41800000000E+01 0. -1.
        -11    1    3    3    0    0  0.29589680223E+01  0.32045238549E+02 -0.30178729682E+02  0.44118120208E+02  0.00000000000E+00 0. -1.
         11    1    3    3    0    0  0.16827158089E+02  0.11576260846E+02  0.59278189173E+02  0.62698219880E+02  0.00000000000E+00 0.  1.
</event>
<event>
 7    1  0.6584658E-006  0.1251009E+03  0.7561462E-02  0.1234912E+00
          2   -1    0    0  501    0  0.00000000000E+00  0.00000000000E+00  0.41846605550E+03  0.41846605550E+03  0.00000000000E+00 0.  1.
         -2   -1    0    0    0  501 -0.00000000000E+00 -0.00000000000E+00 -0.40991623425E+02  0.40991623425E+02  0.00000000000E+00 0. -1.
         23    2    1    2    0    0 -0.99449775167E+01  0.57722092566E+02  0.23653214494E+03  0.26211941660E+03  0.96583592937E+02 0.  0.
          5    1    1    2  502    0 -0.35900729969E+02  0.24406341160E+02  0.51369953371E+02  0.67386025335E+02  0.41800000000E+01 0.  1.
         -5    1    1    2    0  502  0.45845707486E+02 -0.82128433726E+02  0.89572333767E+02  0.12995223699E+03  0.41800000000E+01 0.  1.
        -11    1    3    3    0    0 -0.43005444317E+02  0.65612106239E+02  0.17612148996E+03  0.19280351644E+03  0.00000000000E+00 0.  1.
         11    1    3    3    0    0  0.33060466800E+02 -0.78900136728E+01  0.60410654972E+02  0.69315900160E+02  0.00000000000E+00 0. -1.
</event>
<event>
 7    1  0.6584658E-006  0.1155509E+03  0.7561462E-02  0.1250623E+00
         -1   -1    0    0    0  501 -0.00000000000E+00  0.00000000000E+00  0.66276754685E+02  0.66276754685E+02  0.00000000000E+00 0.  1.
          1   -1    0    0  501    0  0.00000000000E+00 -0.00000000000E+00 -0.25267479667E+03  0.25267479667E+03  0.00000000000E+00 0. -1.
         23    2    1    2    0    0  0.36695640344E+02  0.47495980815E+02 -0.12853390765E+03  0.16862576302E+03  0.91166026152E+02 0.  0.
          5    1    1    2  502    0  0.21512633249E+02 -0.67960890767E+02 -0.51738683452E+02  0.88180722545E+02  0.41800000000E+01 0. -1.
         -5    1    1    2    0  502 -0.58208273592E+02  0.20464909953E+02 -0.61254508852E+01  0.62145065794E+02  0.41800000000E+01 0. -1.
        -11    1    3    3    0    0  0.58272711141E+02  0.17388996020E+02 -0.40356488248E+02  0.72984465402E+02  0.00000000000E+00 0.  1.
         11    1    3    3    0    0 -0.21577070797E+02  0.30106984795E+02 -0.88177419404E+02  0.95641297619E+02  0.00000000000E+00 0. -1.
</event>
<event>
 7    1  0.6584658E-006  0.7064031E+02  0.7561462E-02  0.1357929E+00
         -2   -1    0    0    0  501 -0.00000000000E+00  0.00000000000E+00  0.12961177671E+03  0.12961177671E+03  0.00000000000E+00 0.  1.
          2   -1    0    0  501    0  0.00000000000E+00 -0.00000000000E+00 -0.18848991279E+03  0.18848991279E+03  0.00000000000E+00 0. -1.
         23    2    1    2    0    0  0.36513182919E+02 -0.66013958228E+01 -0.13496297077E+03  0.16705791143E+03  0.91195127826E+02 0.  0.
          5    1    1    2  502    0 -0.11199405981E+02  0.36161070431E+02 -0.23011288973E+02  0.44497657570E+02  0.41800000000E+01 0.  1.
         -5    1    1    2    0  502 -0.25313776937E+02 -0.29559674608E+02  0.99096123674E+02  0.10654612050E+03  0.41800000000E+01 0.  1.
        -11    1    3    3    0    0  0.17555257796E+02 -0.29498405177E+02 -0.61678064520E+01  0.34876708857E+02  0.00000000000E+00 0.  1.
         11    1    3    3    0    0  0.18957925123E+02  0.22897009354E+02 -0.12879516432E+03  0.13218120258E+03  0.00000000000E+00 0. -1.
</event>
<event>
 7    1  0.6584658E-006  0.1410479E+03  0.7561462E-02  0.1211926E+00
         -4   -1    0    0    0  501 -0.00000000000E+00  0.00000000000E+00  0.35558787558E+03  0.35558787558E+03  0.00000000000E+00 0.  1.
          4   -1    0    0  501    0  0.00000000000E+00 -0.00000000000E+00 -0.88057546921E+02  0.88057546921E+02  0.00000000000E+00 0. -1.
         23    2    1    2    0    0 -0.11766697146E+03  0.66249492852E+02  0.81849480122E+02  0.18218924445E+03  0.90879436192E+02 0.  0.
          5    1    1    2  502    0  0.37394587136E+02 -0.18577119185E+02 -0.11275988431E+02  0.43452097986E+02  0.41800000000E+01 0. -1.
         -5    1    1    2    0  502  0.80272384321E+02 -0.47672373667E+02  0.19695683696E+03  0.21800408006E+03  0.41800000000E+01 0. -1.
        -11    1    3    3    0    0 -0.79873528800E+02  0.12311632227E+02  0.49887714789E+01  0.80970641173E+02  0.00000000000E+00 0. -1.
         11    1    3    3    0    0 -0.37793442657E+02  0.53937860625E+02  0.76860708643E+02  0.10121860328E+03  0.00000000000E+00 0.  1.
</event>
<event>
 7    1  0.6584658E-006  0.1250769E+03  0.7561462E-02  0.1234949E+00
         -1   -1    0    0    0  501 -0.00000000000E+00  0.00000000000E+00  0.28939787688E+02  0.28939787688E+02  0.00000000000E+00 0.  1.
          1   -1    0    0  501    0  0.00000000000E+00 -0.00000000000E+00 -0.62695393439E+03  0.62695393439E+03  0.00000000000E+00 0. -1.
         23    2    1    2    0    0 -0.74728855145E+02 -0.29252830613E+02 -0.23936774753E+03  0.26767418221E+03  0.88951781157E+02 0.  0.
          5    1    1    2  502    0  0.48132047461E+02 -0.42254300082E+02 -0.22808305116E+03  0.23694191376E+03  0.41800000000E+01 0.  1.
         -5    1    1    2    0  502  0.26596807685E+02  0.71507130695E+02 -0.13056334801E+03  0.15127762611E+03  0.41800000000E+01 0.  1.
        -11    1    3    3    0    0 -0.14887111403E+02 -0.45235859767E+02 -0.16035686204E+03  0.16727890572E+03  0.00000000000E+00 0. -1.
         11    1    3    3    0    0 -0.59841743742E+02  0.15983029154E+02 -0.79010885494E+02  0.10039527649E+03  0.00000000000E+00 0.  1.
</event>
<event>
 7    1  0.6584658E-006  0.1158604E+03  0.7561462E-02  0.1250087E+00
          1   -1    0    0  501    0  0.00000000000E+00  0.00000000000E+00  0.12317750526E+03  0.12317750526E+03  0.00000000000E+00 0. -1.
         -1   -1    0    0    0  501 -0.00000000000E+00 -0.00000000000E+00 -0.12136514159E+03  0.12136514159E+03  0.00000000000E+00 0.  1.
         23    2    1    2    0    0  0.46544826160E+02  0.15391274847E+02  0.27657531653E+02  0.10772694048E+03  0.91852286117E+02 0.  0.
          5    1    1    2  502    0  0.26933282648E+02 -0.41952612559E+02 -0.30224249044E+02  0.58449987554E+02  0.41800000000E+01 0. -1.
         -5    1    1    2    0  502 -0.73478108808E+02  0.26561337712E+02  0.43790810578E+01  0.78365718819E+02  0.41800000000E+01 0. -1.
        -11    1    3    3    0    0 -0.27835720730E+02  0.60276237133E+01  0.22448385688E+01  0.28569194886E+02  0.00000000000E+00 0.  1.
         11    1    3    3    0    0  0.74380546890E+02  0.93636511334E+01  0.25412693084E+02  0.79157745597E+02  0.00000000000E+00 0. -1.
</event>
<event>
 6    1  0.6584658E-006  0.4137243E+03  0.7561462E-02  0.1039128E+00
          2   -1    0    0  501    0  0.00000000000E+00  0.00000000000E+00  0.13489812300E+04  0.13489812300E+04  0.00000000000E+00 0. -1.
         -2   -1    0    0    0  501 -0.00000000000E+00 -0.00000000000E+00 -0.13419694502E+03  0.13419694502E+03  0.00000000000E+00 0.  1.
          5    1    1    2  502    0  0.25415939178E+03  0.31745907358E+02  0.42882057553E+03  0.49950911650E+03  0.41800000000E+01 0. -1.
         -5    1    1    2    0  502  0.14120706399E+03  0.87972129237E+01  0.97970791925E+02  0.17214114658E+03  0.41800000000E+01 0. -1.
        -11    1    1    2    0    0 -0.12050313399E+03 -0.90074067881E+02  0.21972164315E+03  0.26629296550E+03  0.00000000000E+00 0.  1.
         11    1    1    2    0    0 -0.27486332178E+03  0.49530947599E+02  0.46827127441E+03  0.54523494648E+03  0.00000000000E+00 0. -1.
</event>
<event>
 7    1  0.6584658E-006  0.1128226E+03  0.7561462E-02  0.1255430E+00
         -1   -1    0    0    0  501 -0.00000000000E+00  0.00000000000E+00  0.37791676591E+02  0.37791676591E+02  0.00000000000E+00 0.  1.
          1   -1    0    0  501    0  0.00000000000E+00 -0.00000000000E+00 -0.47712526417E+03  0.47712526417E+03  0.00000000000E+00 0. -1.
         23    2    1    2    0    0 -0.32327657856E+02  0.68532826339E+02 -0.23655565826E+03  0.26490163123E+03  0.92046015795E+02 0.  0.
          5    1    1    2  502    0 -0.32547006469E+02 -0.42997650577E+02 -0.15811773189E+03  0.16711312074E+03  0.41800000000E+01 0.  1.
         -5    1    1    2    0  502  0.64874664324E+02 -0.25535175762E+02 -0.44660197429E+02  0.82902188794E+02  0.41800000000E+01 0.  1.
        -11    1    3    3    0    0  0.17475328341E+02  0.41536589040E+02 -0.39697524167E+02  0.60054714675E+02  0.00000000000E+00 0.  1.
         11    1    3    3    0    0 -0.49802986197E+02  0.26996237298E+02 -0.19685813409E+03  0.20484691655E+03  0.00000000000E+00 0. -1.
</event>
<event>
 7    1  0.6584658E-006  0.1112610E+03  0.7561462E-02  0.1258252E+00
          3   -1    0    0  501    0  0.00000000000E+00  0.00000000000E+00  0.80035848227E+02  0.80035848227E+02  0.00000000000E+00 0. -1.
         -3   -1    0    0    0  501 -0.00000000000E+00 -0.00000000000E+00 -0.23955748713E+03  0.23955748713E+03  0.00000000000E+00 0.  1.
         23    2    1    2    0    0 -0.58522885668E+02  0.53662234129E+02 -0.37061560287E+02  0.12737549083E+03  0.92446702999E+02 0.  0.
          5    1    1    2  502    0  0.16141448963E+01 -0.78243183907E+02 -0.97907632901E+02  0.12541123663E+03  0.41800000000E+01 0.  1.
         -5    1    1    2    0  502  0.56908740772E+02  0.24580949778E+02 -0.24552445713E+02  0.66806607897E+02  0.41800000000E+01 0.  1.
        -11    1    3    3    0    0 -0.53172346423E+02  0.37691807398E+02 -0.66718078444E+02  0.93269892035E+02  0.00000000000E+00 0.  1.
         11    1    3    3    0    0 -0.53505392449E+01  0.15970426731E+02  0.29656518157E+02  0.34105598798E+02  0.00000000000E+00 0. -1.
</event>
<event>
 7    1  0.6584658E-006  0.1208289E+03  0.7561462E-02  0.1241736E+00
          2   -1    0    0  501    0  0.00000000000E+00  0.00000000000E+00  0.56056710921E+03  0.56056710921E+03  0.00000000000E+00 0. -1.
         -2   -1    0    0    0  501 -0.00000000000E+00 -0.00000000000E+00 -0.27472522410E+02  0.27472522410E+02  0.00000000000E+00 0.  1.
         23    2    1    2    0    0  0.56869317728E+02  0.13460536619E+02  0.24382333440E+03  0.26750885318E+03  0.93251610098E+02 0.  0.
          5    1    1    2  502    0 -0.78871829649E+02  0.31976577771E+02  0.15267439566E+03  0.17484338857E+03  0.41800000000E+01 0. -1.
         -5    1    1    2    0  502  0.22002511922E+02 -0.45437114389E+02  0.13659685674E+03  0.14568738987E+03  0.41800000000E+01 0. -1.
        -11    1    3    3    0    0  0.66834525800E+02 -0.20890875457E+02  0.19341258539E+03  0.20569810574E+03  0.00000000000E+00 0.  1.
         11    1    3    3    0    0 -0.99652080728E+01  0.34351412076E+02  0.50410749011E+02  0.61810747442E+02  0.00000000000E+00 0. -1.
</event>
<event>
 7    1  0.6584658E-006  0.1081075E+03  0.7561462E-02  0.1264115E+00
         -2   -1    0    0    0  501 -0.00000000000E+00  0.00000000000E+00  0.38896584714E+02  0.38896584714E+02  0.00000000000E+00 0.  1.
          2   -1    0    0  501    0  0.00000000000E+00 -0.00000000000E+00 -0.55414520855E+03  0.55414520855E+03  0.00000000000E+00 0. -1.
         23    2    1    2    0    0  0.25688470085E+02  0.77394279758E+02 -0.34732802580E+03  0.36833053002E+03  0.91546981390E+02 0.  0.
          5    1    1    2  502    0  0.14154138522E+02 -0.25395991679E+02 -0.15506613889E+03  0.15782355927E+03  0.41800000000E+01 0. -1.
         -5    1    1    2    0  502 -0.39842608607E+02 -0.51998288079E+02 -0.12854459150E+02  0.66887703980E+02  0.41800000000E+01 0. -1.
        -11    1    3    3    0    0 -0.26915317789E+02  0.60059591029E+02 -0.21590221750E+03  0.22571078027E+03  0.00000000000E+00 0. -1.
         11    1    3    3    0    0  0.52603787874E+02  0.17334688729E+02 -0.13142580830E+03  0.14261974975E+03  0.00000000000E+00 0.  1.
</event>
<event>
 7    1  0.6584658E-006  0.1379069E+03  0.7561462E-02  0.1216173E+00
          1   -1    0    0  501    0  0.00000000000E+00  0.00000000000E+00  0.92894131894E+02  0.92894131894E+02  0.00000000000E+00 0. -1.
         -1   -1    0    0    0  501 -0.00000000000E+00 -0.00000000000E+00 -0.21934309938E+03  0.21934309938E+03  0.00000000000E+00 0.  1.
         23    2    1    2    0    0 -0.88410242270E+02  0.19270370386E+02 -0.77981474165E+02  0.15042358108E+03  0.91424424089E+02 0.  0.
          5    1    1    2  502    0  0.32929995681E+02  0.50260753976E+02 -0.40121623611E+02  0.72372267388E+02  0.41800000000E+01 0.  1.
         -5    1    1    2    0  502  0.55480246589E+02 -0.69531124362E+02 -0.83458697116E+01  0.89441382804E+02  0.41800000000E+01 0.  1.
        -11    1    3    3    0    0  0.14116148442E+01 -0.25935372322E+02 -0.57201134296E+01  0.26596163099E+02  0.00000000000E+00 0. -1.
         11    1    3    3    0    0 -0.89821857114E+02  0.45205742709E+02 -0.72261360736E+02  0.12382741798E+03  0.00000000000E+00 0.  1.
</event>
<event>
 7    1  0.6584658E-006  0.1400623E+03  0.7561462E-02  0.1213245E+00
          1   -1    0    0  501    0  0.00000000000E+00  0.00000000000E+00  0.10868262145E+03  0.10868262145E+03  0.00000000000E+00 0. -1.
         -1   -1    0    0    0  501 -0.00000000000E+00 -0.00000000000E+00 -0.22361831735E+03  0.22361831735E+03  0.00000000000E+00 0.  1.
         23    2    1    2    0    0 -0.91291260896E+02 -0.36675526513E+02 -0.16227689461E+02  0.14503135477E+03  0.10531651058E+03 0.  0.
          5    1    1    2  502    0  0.10237297437E+03  0.69575718957E+02 -0.71879698508E+02  0.14319626394E+03  0.41800000000E+01 0.  1.
         -5    1    1    2    0  502 -0.11081713472E+02 -0.32900192444E+02 -0.26828307936E+02  0.44073320082E+02  0.41800000000E+01 0.  1.
        -11    1    3    3    0    0 -0.93466474616E+02 -0.51234842609E+02  0.17700071958E+02  0.10804759841E+03  0.00000000000E+00 0. -1.
         11    1    3    3    0    0  0.21752137199E+01  0.14559316096E+02 -0.33927761419E+02  0.36983756364E+02  0.00000000000E+00 0.  1.
</event>
<event>
 7    1  0.6584658E-006  0.1191076E+03  0.7561462E-02  0.1244576E+00
          1   -1    0    0  501    0  0.00000000000E+00  0.00000000000E+00  0.91962049889E+03  0.91962049889E+03  0.00000000000E+00 0. -1.
         -1   -1    0    0    0  501 -0.00000000000E+00 -0.00000000000E+00 -0.16461395414E+02  0.16461395414E+02  0.00000000000E+00 0.  1.
         23    2    1    2    0    0 -0.12749998169E+02  0.57049863412E+02  0.39936433600E+03  0.41370934673E+03  0.90809147883E+02 0.  0.
          5    1    1    2  502    0 -0.51829633979E+02 -0.30500065406E+02  0.32180978613E+03  0.32740735453E+03  0.41800000000E+01 0.  1.
         -5    1    1    2    0  502  0.64579632148E+02 -0.26549798006E+02  0.18198498134E+03  0.19496519304E+03  0.41800000000E+01 0.  1.
        -11    1    3    3    0    0 -0.51445345014E+02  0.22661185319E+02  0.20447948002E+03  0.21206605243E+03  0.00000000000E+00 0.  1.
         11    1    3    3    0    0  0.38695346846E+02  0.34388678093E+02  0.19488485598E+03  0.20164329430E+03  0.00000000000E+00 0. -1.
</event>
<event>
 7    1  0.6584658E-006  0.1785015E+03  0.7561462E-02  0.1169261E+00
         -1   -1    0    0    0  501 -0.00000000000E+00  0.00000000000E+00  0.58063389038E+02  0.58063389038E+02  0.00000000000E+00 0.  1.
          1   -1    0    0  501    0  0.00000000000E+00 -0.00000000000E+00 -0.80569621185E+03  0.80569621185E+03  0.00000000000E+00 0. -1.
         23    2    1    2    0    0  0.15045636621E+03  0.29548834948E+02 -0.57104359241E+03  0.59853845314E+03  0.92990556909E+02 0.  0.
          5    1    1    2  502    0 -0.36441036998E+02 -0.67407450144E+02 -0.56430510528E+02  0.95255385312E+02  0.41800000000E+01 0.  1.
         -5    1    1    2    0  502 -0.11401532921E+03  0.37858615197E+02 -0.12015871987E+03  0.16996576244E+03  0.41800000000E+01 0.  1.
        -11    1    3    3    0    0  0.11689375303E+03  0.24559302877E+01 -0.51339142916E+03  0.52653674196E+03  0.00000000000E+00 0. -1.
         11    1    3    3    0    0  0.33562613180E+02  0.27092904660E+02 -0.57652163247E+02  0.72001711184E+02  0.00000000000E+00 0.  1.
</event>
<event>
 7    1  0.6584658E-006  0.1154000E+03  0.7561462E-02  0.1250885E+00
          4   -1    0    0  501    0  0.00000000000E+00  0.00000000000E+00  0.63284997658E+02  0.63284997658E+02  0.00000000000E+00 0. -1.
         -4   -1    0    0    0  501 -0.00000000000E+00 -0.00000000000E+00 -0.25517909111E+03  0.25517909111E+03  0.00000000000E+00 0.  1.
         23    2    1    2    0    0 -0.19085184462E+01  0.47176148848E+02 -0.72232347814E+02  0.12472817660E+03  0.90057617690E+02 0.  0.
          5    1    1    2  502    0  0.51237447949E+02 -0.59744346473E+02 -0.19331955604E+02  0.81153311179E+02  0.41800000000E+01 0. -1.
         -5    1    1    2    0  502 -0.49328929503E+02  0.12568197625E+02 -0.10032979003E+03  0.11258260099E+03  0.41800000000E+01 0.  1.
        -11    1    3    3    0    0  0.34135461975E+02  0.54326074069E+02 -0.38367791635E+02  0.74757203820E+02  0.00000000000E+00 0.  1.
         11    1    3    3    0    0 -0.36043980421E+02 -0.71499252211E+01 -0.33864556179E+02  0.49970972779E+02  0.00000000000E+00 0. -1.
</event>
<event>
 7    1  0.6584658E-006  0.1023736E+03  0.7561462E-02  0.1275382E+00
          1   -1    0    0  501    0  0.00000000000E+00  0.00000000000E+00  0.76869876454E+02  0.76869876454E+02  0.00000000000E+00 0. -1.
         -1   -1    0    0    0  501 -0.00000000000E+00 -0.00000000000E+00 -0.14108777919E+03  0.14108777919E+03  0.00000000000E+00 0.  1.
         23    2    1    2    0    0 -0.51391848690E+01  0.92805190756E+01 -0.11159385821E+02  0.81760263346E+02  0.80297381745E+02 0.  0.
          5    1    1    2  502    0 -0.38437665322E+02  0.41830791689E+02 -0.15083174817E+02  0.58925748288E+02  0.41800000000E+01 0.  1.
         -5    1    1    2    0  502  0.43576850191E+02 -0.51111310765E+02 -0.37975342102E+02  0.77271644013E+02  0.41800000000E+01 0.  1.
        -11    1    3    3    0    0  0.30035099031E+02 -0.18840092668E+02 -0.38994906872E+00  0.35457133638E+02  0.00000000000E+00 0. -1.
         11    1    3    3    0    0 -0.35174283900E+02  0.28120611744E+02 -0.10769436752E+02  0.46303129708E+02  0.00000000000E+00 0.  1.
</event>
<event>
 7    1  0.6584658E-006  0.1263813E+03  0.7561462E-02  0.1232926E+00
          1   -1    0    0  501    0  0.00000000000E+00  0.00000000000E+00  0.10699930515E+03  0.10699930515E+03  0.00000000000E+00 0. -1.
         -1   -1    0    0    0  501 -0.00000000000E+00 -0.00000000000E+00 -0.21758372120E+03  0.21758372120E+03  0.00000000000E+00 0.  1.
         23    2    1    2    0    0 -0.54644882312E+02 -0.53974747851E+02  0.25013008174E+02  0.12474826452E+03  0.95063885650E+02 0.  0.
          5    1    1    2  502    0 -0.97211670030E+01  0.72912845366E+02 -0.98649345634E+02  0.12312574833E+03  0.41800000000E+01 0.  1.
         -5    1    1    2    0  502  0.64366049315E+02 -0.18938097515E+02 -0.36948078587E+02  0.76709013507E+02  0.41800000000E+01 0.  1.
        -11    1    3    3    0    0 -0.37401577126E+00  0.20061270515E+02  0.26129576411E+02  0.32944638803E+02  0.00000000000E+00 0. -1.
         11    1    3    3    0    0 -0.54270866541E+02 -0.74036018365E+02 -0.11165682364E+01  0.91803625719E+02  0.00000000000E+00 0.  1.
</event>
<event>
 7    1  0.6584658E-006  0.7387704E+02  0.7561462E-02  0.1347384E+00
          1   -1    0    0  501    0  0.00000000000E+00  0.00000000000E+00  0.21053581055E+03  0.21053581055E+03  0.00000000000E+00 0. -1.
         -1   -1    0    0    0  501 -0.00000000000E+00 -0.00000000000E+00 -0.63912173864E+02  0.63912173864E+02  0.00000000000E+00 0.  1.
         23    2    1    2    0    0  0.14360458538E+02 -0.26652368089E+02  0.10258453075E+03  0.13841940346E+03  0.87862243370E+02 0.  0.
          5    1    1    2  502    0 -0.13316758115E+02 -0.32213075227E+02 -0.26549296543E+02  0.44015404227E+02  0.41800000000E+01 0. -1.
         -5    1    1    2    0  502 -0.10437004224E+01  0.58865443316E+02  0.70588402478E+02  0.92013176729E+02  0.41800000000E+01 0. -1.
        -11    1    3    3    0    0 -0.16074953948E+02 -0.99920582003E+01 -0.94355431649E+01  0.21148873406E+02  0.00000000000E+00 0.  1.
         11    1    3    3    0    0  0.30435412486E+02 -0.16660309889E+02  0.11202007391E+03  0.11727053005E+03  0.00000000000E+00 0. -1.
</event>
<event>
 7    1  0.6584658E-006  0.7983250E+02  0.7561462E-02  0.1329527E+00
         -1   -1    0    0    0  501 -0.00000000000E+00  0.00000000000E+00  0.74417549063E+03  0.74417549063E+03  0.00000000000E+00 0.  1.
          1   -1    0    0  501    0  0.00000000000E+00 -0.00000000000E+00 -0.17837849957E+02  0.17837849957E+02  0.00000000000E+00 0. -1.
         23    2    1    2    0    0  0.37903446285E+01  0.49809179907E+01  0.21008979641E+03  0.23079177659E+03  0.95330715557E+02 0.  0.
          5    1    1    2  502    0 -0.41465632825E+02  0.13034349196E+02  0.45430864233E+03  0.45640235304E+03  0.41800000000E+01 0.  1.
         -5    1    1    2    0  502  0.37675288196E+02 -0.18015267187E+02  0.61939201934E+02  0.74819210961E+02  0.41800000000E+01 0.  1.
        -11    1    3    3    0    0  0.13129416136E+02 -0.32684459698E+02  0.17488366377E+03  0.17839549134E+03  0.00000000000E+00 0.  1.
         11    1    3    3    0    0 -0.93390715077E+01  0.37665377689E+02  0.35206132636E+02  0.52396285252E+02  0.00000000000E+00 0. -1.
</event>
<event>
 7    1  0.6584658E-006  0.1342229E+03  0.7561462E-02  0.1221321E+00
          1   -1    0    0  501    0  0.00000000000E+00  0.00000000000E+00  0.91515731118E+02  0.91515731118E+02  0.00000000000E+00 0. -1.
         -1   -1    0    0    0  501 -0.00000000000E+00 -0.00000000000E+00 -0.25207339274E+03  0.25207339274E+03  0.00000000000E+00 0.  1.
         23    2    1    2    0    0  0.10279583461E+03  0.28409691658E+02 -0.65414808763E+02  0.15366030951E+03  0.89209300641E+02 0.  0.
          5    1    1    2  502    0  0.12608386373E+02 -0.40115481840E+02 -0.41860228112E+01  0.42464320049E+02  0.41800000000E+01 0. -1.
         -5    1    1    2    0  502 -0.11540422099E+03  0.11705790183E+02 -0.90956830048E+02  0.14746449429E+03  0.41800000000E+01 0. -1.
        -11    1    3    3    0    0  0.41776558020E+02 -0.22316267106E+01 -0.73833642628E+02  0.84862640434E+02  0.00000000000E+00 0. -1.
         11    1    3    3    0    0  0.61019276593E+02  0.30641318368E+02  0.84188338648E+01  0.68797669080E+02  0.00000000000E+00 0.  1.
</event>
<event>
 7    1  0.6584658E-006  0.9214971E+02  0.7561462E-02  0.1297728E+00
         -1   -1    0    0    0  501 -0.00000000000E+00  0.00000000000E+00  0.59636622248E+03  0.59636622248E+03  0.00000000000E+00 0.  1.
          1   -1    0    0  501    0  0.00000000000E+00 -0.00000000000E+00 -0.26158162853E+02  0.26158162853E+02  0.00000000000E+00 0. -1.
         23    2    1    2    0    0 -0.11662004948E+02  0.58016160011E+02  0.19201449022E+03  0.21980847286E+03  0.89130932381E+02 0.  0.
          5    1    1    2  502    0 -0.13362118979E+02 -0.71656339499E+02  0.10431889645E+03  0.12733060029E+03  0.41800000000E+01 0.  1.
         -5    1    1    2    0  502  0.25024123927E+02  0.13640179488E+02  0.27387467296E+03  0.27538531217E+03  0.41800000000E+01 0.  1.
        -11    1    3    3    0    0 -0.28926614026E+02  0.58446496358E+02  0.19175058237E+03  0.20253648504E+03  0.00000000000E+00 0.  1.
         11    1    3    3    0    0  0.17264609078E+02 -0.43033634733E+00  0.26390785388E+00  0.17271987823E+02  0.00000000000E+00 0. -1.
</event>
<event>
 7    1  0.6584658E-006  0.1226151E+03  0.7561462E-02  0.1238844E+00
          1   -1    0    0  501    0  0.00000000000E+00  0.00000000000E+00  0.79083743911E+02  0.79083743911E+02  0.00000000000E+00 0. -1.
         -1   -1    0    0    0  501 -0.00000000000E+00 -0.00000000000E+00 -0.28677365929E+03  0.28677365929E+03  0.00000000000E+00 0.  1.
         23    2    1    2    0    0  0.54946815943E+01  0.10569984803E+03 -0.96293752711E+02  0.16771768508E+03  0.87487631574E+02 0.  0.
          5    1    1    2  502    0 -0.42700616051E+02 -0.82381399843E+02 -0.17665346267E+02  0.94549323159E+02  0.41800000000E+01 0. -1.
         -5    1    1    2    0  502  0.37205934456E+02 -0.23318448189E+02 -0.93730816404E+02  0.10359039496E+03  0.41800000000E+01 0. -1.
        -11    1    3    3    0    0 -0.65872248541E+01  0.74339143505E+02 -0.10234333938E+02  0.75328888081E+02  0.00000000000E+00 0. -1.
         11    1    3    3    0    0  0.12081906448E+02  0.31360704527E+02 -0.86059418773E+02  0.92388797002E+02  0.00000000000E+00 0.  1.
</event>
<event>
 7    1  0.6584658E-006  0.1426690E+03  0.7561462E-02  0.1209782E+00
         -1   -1    0    0    0  501 -0.00000000000E+00  0.00000000000E+00  0.21150565816E+03  0.21150565816E+03  0.00000000000E+00 0.  1.
          1   -1    0    0  501    0  0.00000000000E+00 -0.00000000000E+00 -0.14326526055E+03  0.14326526055E+03  0.00000000000E+00 0. -1.
         23    2    1    2    0    0  0.53103813798E+02 -0.47564065646E+01 -0.70289981461E+02  0.12719413713E+03  0.91624388581E+02 0.  0.
          5    1    1    2  502    0 -0.10069545593E+03 -0.45787943079E+02  0.91517463457E+02  0.14362809298E+03  0.41800000000E+01 0. -1.
         -5    1    1    2    0  502  0.47591642133E+02  0.50544349643E+02  0.47012915621E+02  0.83948688595E+02  0.41800000000E+01 0.  1.
        -11    1    3    3    0    0  0.43925393334E+01 -0.42961766988E+02 -0.37200769988E+02  0.56999167645E+02  0.00000000000E+00 0. -1.
         11    1    3    3    0    0  0.48711274464E+02  0.38205360423E+02 -0.33089211473E+02  0.70194969484E+02  0.00000000000E+00 0.  1.
</event>
<event>
 7    1  0.6584658E-006  0.1621328E+03  0.7561462E-02  0.1186310E+00
          1   -1    0    0  501    0  0.00000000000E+00  0.00000000000E+00  0.20279282874E+03  0.20279282874E+03  0.00000000000E+00 0. -1.
         -1   -1    0    0    0  501 -0.00000000000E+00 -0.00000000000E+00 -0.22244805107E+03  0.22244805107E+03  0.00000000000E+00 0.  1.
         23    2    1    2    0    0 -0.70628972794E+02 -0.10706382881E+03  0.12030620128E+03  0.19789376780E+03  0.90759275191E+02 0.  0.
          5    1    1    2  502    0  0.88350451194E+02  0.23259221549E+02 -0.55499905889E+02  0.10697899592E+03  0.41800000000E+01 0. -1.
         -5    1    1    2    0  502 -0.17721478400E+02  0.83804607261E+02 -0.84461517718E+02  0.12036811609E+03  0.41800000000E+01 0. -1.
        -11    1    3    3    0    0 -0.81583328266E+02 -0.67164242275E+02  0.51380005384E+02  0.11750225464E+03  0.00000000000E+00 0.  1.
         11    1    3    3    0    0  0.10954355471E+02 -0.39899586535E+02  0.68926195892E+02  0.80391513169E+02  0.00000000000E+00 0. -1.
</event>
<event>
 7    1  0.6584658E-006  0.4371803E+03  0.7561462E-02  0.1031615E+00
         -1   -1    0    0    0  501 -0.00000000000E+00  0.00000000000E+00  0.76233892719E+02  0.76233892719E+02  0.00000000000E+00 0.  1.
          1   -1    0    0  501    0  0.00000000000E+00 -0.00000000000E+00 -0.27102838535E+04  0.27102838535E+04  0.00000000000E+00 0. -1.
         23    2    1    2    0    0 -0.11520697422E+03 -0.41660895660E+03 -0.15867874778E+04  0.16466747151E+04  0.82507260409E+02 0.  0.
          5    1    1    2  502    0  0.11978371716E+03  0.39573861688E+03 -0.10357036014E+04  0.11151935322E+04  0.41800000000E+01 0. -1.
         -5    1    1    2    0  502 -0.45767429392E+01  0.20870339721E+02 -0.11558881572E+02  0.24649498964E+02  0.41800000000E+01 0. -1.
        -11    1    3    3    0    0 -0.11546278519E+03 -0.28515666180E+03 -0.11599417110E+04  0.12000461447E+04  0.00000000000E+00 0. -1.
         11    1    3    3    0    0  0.25581097250E+00 -0.13145229481E+03 -0.42684576682E+03  0.44662857040E+03  0.00000000000E+00 0.  1.
</event>
<event>
 7    1  0.6584658E-006  0.9146301E+02  0.7561462E-02  0.1299347E+00
         -1   -1    0    0    0  501 -0.00000000000E+00  0.00000000000E+00  0.30392813919E+03  0.30392813919E+03  0.00000000000E+00 0.  1.
          1   -1    0    0  501    0  0.00000000000E+00 -0.00000000000E+00 -0.36471960923E+02  0.36471960923E+02  0.00000000000E+00 0. -1.
         23    2    1    2    0    0 -0.14304181984E+02  0.16981837099E+01  0.86835843882E+02  0.12711810315E+03  0.91711803583E+02 0.  0.
          5    1    1    2  502    0  0.16538173242E+02 -0.53778454511E+02  0.12385367359E+03  0.13609863410E+03  0.41800000000E+01 0. -1.
         -5    1    1    2    0  502 -0.22339912579E+01  0.52080270801E+02  0.56766660797E+02  0.77183362855E+02  0.41800000000E+01 0.  1.
        -11    1    3    3    0    0 -0.42029157918E+02  0.13406640676E+02  0.10909494867E+02  0.45444528909E+02  0.00000000000E+00 0.  1.
         11    1    3    3    0    0  0.27724975934E+02 -0.11708456966E+02  0.75926349016E+02  0.81673574245E+02  0.00000000000E+00 0. -1.
</event>
<event>
 7    1  0.6584658E-006  0.7097951E+02  0.7561462E-02  0.1356793E+00
         -1   -1    0    0    0  501 -0.00000000000E+00  0.00000000000E+00  0.93335864430E+02  0.93335864430E+02  0.00000000000E+00 0.  1.
          1   -1    0    0  501    0  0.00000000000E+00 -0.00000000000E+00 -0.24309052944E+03  0.24309052944E+03  0.00000000000E+00 0. -1.
         23    2    1    2    0    0 -0.34178202605E+02 -0.16554157485E+02 -0.17782253158E+03  0.20271851330E+03  0.89620049283E+02 0.  0.
          5    1    1    2  502    0  0.31048831109E+02  0.40478607866E+01 -0.47439068645E+02  0.56994321858E+02  0.41800000000E+01 0.  1.
         -5    1    1    2    0  502  0.31293714960E+01  0.12506296698E+02  0.75506935221E+02  0.76713558707E+02  0.41800000000E+01 0.  1.
        -11    1    3    3    0    0  0.28411745313E+02  0.81041969507E+01 -0.45013481737E+02  0.53843465881E+02  0.00000000000E+00 0. -1.
         11    1    3    3    0    0 -0.62589947917E+02 -0.24658354436E+02 -0.13280904985E+03  0.14887504742E+03  0.00000000000E+00 0.  1.
</event>
<event>
 7    1  0.6584658E-006  0.9073822E+02  0.7561462E-02  0.1301074E+00
         -2   -1    0    0    0  501 -0.00000000000E+00  0.00000000000E+00  0.10416397127E+03  0.10416397127E+03  0.00000000000E+00 0.  1.
          2   -1    0    0  501    0  0.00000000000E+00 -0.00000000000E+00 -0.14234758557E+03  0.14234758557E+03  0.00000000000E+00 0. -1.
         23    2    1    2    0    0 -0.25739838374E+02 -0.45244464504E+02 -0.36236061824E+02  0.11099863096E+03  0.91093595006E+02 0.  0.
          5    1    1    2  502    0 -0.23822753443E+02  0.52759436393E+02  0.39607140287E+02  0.70265778810E+02  0.41800000000E+01 0.  1.
         -5    1    1    2    0  502  0.49562591817E+02 -0.75149718883E+01 -0.41554692763E+02  0.65247147070E+02  0.41800000000E+01 0.  1.
        -11    1    3    3    0    0 -0.37690347678E+02 -0.47841588607E+02  0.11274420110E+02  0.61939425711E+02  0.00000000000E+00 0.  1.
         11    1    3    3    0    0  0.11950509304E+02  0.25971241030E+01 -0.47510481934E+02  0.49059205251E+02  0.00000000000E+00 0. -1.
</event>
<event>
 7    1  0.6584658E-006  0.1332641E+03  0.7561462E-02  0.1222691E+00
         -1   -1    0    0    0  501 -0.00000000000E+00  0.00000000000E+00  0.29146288201E+02  0.29146288201E+02  0.00000000000E+00 0.  1.
          1   -1    0    0  501    0  0.00000000000E+00 -0.00000000000E+00 -0.84432047838E+03  0.84432047838E+03  0.00000000000E+00 0. -1.
         23    2    1    2    0    0 -0.60358613969E+02 -0.97893311687E+02 -0.38211568442E+03  0.40826330766E+03  0.86256995937E+02 0.  0.
          5    1    1    2  502    0 -0.21721835543E+02  0.26305133383E+02 -0.24118339460E+02  0.41987675334E+02  0.41800000000E+01 0.  1.
         -5    1    1    2    0  502  0.82080449512E+02  0.71588178303E+02 -0.40894016629E+03  0.42321578358E+03  0.41800000000E+01 0.  1.
        -11    1    3    3    0    0 -0.35596153967E+02 -0.18737361999E+02 -0.41901211783E+02  0.58085165583E+02  0.00000000000E+00 0.  1.
         11    1    3    3    0    0 -0.24762460001E+02 -0.79155949688E+02 -0.34021447264E+03  0.35017814208E+03  0.00000000000E+00 0. -1.
</event>
<event>
 7    1  0.6584658E-006  0.2010075E+03  0.7561462E-02  0.1148892E+00
         -2   -1    0    0    0  501 -0.00000000000E+00  0.00000000000E+00  0.11747407435E+03  0.11747407435E+03  0.00000000000E+00 0.  1.
          2   -1    0    0  501    0  0.00000000000E+00 -0.00000000000E+00 -0.48666182664E+03  0.48666182664E+03  0.00000000000E+00 0. -1.
         23    2    1    2    0    0 -0.92474045640E+02 -0.16060034266E+03 -0.31009998152E+03  0.37287207335E+03  0.92345359197E+02 0.  0.
          5    1    1    2  502    0  0.31699883571E+02  0.11806116573E+03  0.18651287270E+02  0.12372818753E+03  0.41800000000E+01 0. -1.
         -5    1    1    2    0  502  0.60774162070E+02  0.42539176931E+02 -0.77739058040E+02  0.10753564011E+03  0.41800000000E+01 0. -1.
        -11    1    3    3    0    0  0.12383754114E+02 -0.55770124522E+02 -0.66225365805E+02  0.87461209866E+02  0.00000000000E+00 0.  1.
         11    1    3    3    0    0 -0.10485779975E+03 -0.10483021814E+03 -0.24387461572E+03  0.28541086349E+03  0.00000000000E+00 0. -1.
</event>
<event>
 7    1  0.6584658E-006  0.8117364E+02  0.7561462E-02  0.1325753E+00
         -4   -1    0    0    0  501 -0.00000000000E+00  0.00000000000E+00  0.10124332363E+04  0.10124332363E+04  0.00000000000E+00 0.  1.
          4   -1    0    0  501    0  0.00000000000E+00 -0.00000000000E+00 -0.13182132104E+02  0.13182132104E+02  0.00000000000E+00 0. -1.
         23    2    1    2    0    0 -0.28395126884E+02 -0.28915226734E+02  0.42582721157E+03  0.43730891887E+03  0.90928009105E+02 0.  0.
          5    1    1    2  502    0  0.27407198570E+02 -0.69058104920E+01  0.53439085101E+03  0.53515408884E+03  0.41800000000E+01 0.  1.
         -5    1    1    2    0  502  0.98792831386E+00  0.35821037227E+02  0.39033041613E+02  0.53152360699E+02  0.41800000000E+01 0.  1.
        -11    1    3    3    0    0  0.25414323193E+02 -0.35315695045E+02  0.23223613729E+03  0.23627676484E+03  0.00000000000E+00 0. -1.
         11    1    3    3    0    0 -0.53809450077E+02  0.64004683102E+01  0.19359107428E+03  0.20103215403E+03  0.00000000000E+00 0.  1.
</event>
<event>
 7    1  0.6584658E-006  0.1446939E+03  0.7561462E-02  0.1207149E+00
         -1   -1    0    0    0  501 -0.00000000000E+00  0.00000000000E+00  0.32480218694E+03  0.32480218694E+03  0.00000000000E+00 0.  1.
          1   -1    0    0  501    0  0.00000000000E+00 -0.00000000000E+00 -0.10638720304E+03  0.10638720304E+03  0.00000000000E+00 0. -1.
         23    2    1    2    0    0 -0.82307479517E+01 -0.91474787477E+02 -0.21914785134E+02  0.14510833795E+03  0.11018525301E+03 0.  0.
          5    1    1    2  502    0  0.52229152865E+02  0.94888107825E+02  0.19212759354E+03  0.22059492744E+03  0.41800000000E+01 0. -1.
         -5    1    1    2    0  502 -0.43998404914E+02 -0.34133203477E+01  0.48202175495E+02  0.65486124585E+02  0.41800000000E+01 0. -1.
        -11    1    3    3    0    0  0.11426403484E+02  0.20236027736E+02  0.12744088750E+02  0.26504175391E+02  0.00000000000E+00 0. -1.
         11    1    3    3    0    0 -0.19657151435E+02 -0.11171081521E+03 -0.34658873884E+02  0.11860416256E+03  0.00000000000E+00 0.  1.
</event>
<event>
 7    1  0.6584658E-006  0.1250374E+03  0.7561462E-02  0.1235011E+00
          1   -1    0    0  501    0  0.00000000000E+00  0.00000000000E+00  0.52162479961E+03  0.52162479961E+03  0.00000000000E+00 0. -1.
         -1   -1    0    0    0  501 -0.00000000000E+00 -0.00000000000E+00 -0.32984849602E+02  0.32984849602E+02  0.00000000000E+00 0.  1.
         23    2    1    2    0    0 -0.73370253344E+02 -0.23998530951E+02  0.23855865223E+03  0.26452999273E+03  0.84301618851E+02 0.  0.
          5    1    1    2  502    0  0.73906644143E+02  0.63630975563E+02  0.12377956876E+03  0.15763866005E+03  0.41800000000E+01 0.  1.
         -5    1    1    2    0  502 -0.53639079903E+00 -0.39632444612E+02  0.12630172903E+03  0.13244099643E+03  0.41800000000E+01 0.  1.
        -11    1    3    3    0    0 -0.84884824685E+02 -0.39228996705E+02  0.21303749070E+03  0.23265708691E+03  0.00000000000E+00 0. -1.
         11    1    3    3    0    0  0.11514571341E+02  0.15230465754E+02  0.25521161523E+02  0.31872905825E+02  0.00000000000E+00 0.  1.
</event>
<event>
 7    1  0.6584658E-006  0.6052810E+02  0.7561462E-02  0.1395629E+00
          3   -1    0    0  501    0  0.00000000000E+00  0.00000000000E+00  0.51880206466E+02  0.51880206466E+02  0.00000000000E+00 0. -1.
         -3   -1    0    0    0  501 -0.00000000000E+00 -0.00000000000E+00 -0.25541933258E+03  0.25541933258E+03  0.00000000000E+00 0.  1.
         23    2    1    2    0    0 -0.28300446325E+02  0.28132511765E+02 -0.82103306997E+02  0.12845102348E+03  0.90367908754E+02 0.  0.
          5    1    1    2  502    0 -0.11124922394E+02  0.14096799598E+02  0.19280024696E+02  0.26677245162E+02  0.41800000000E+01 0.  1.
         -5    1    1    2    0  502  0.39425368719E+02 -0.42229311363E+02 -0.14071584382E+03  0.15217127041E+03  0.41800000000E+01 0.  1.
        -11    1    3    3    0    0 -0.17632605863E+02  0.36745049706E+01 -0.96476124122E+02  0.98143024723E+02  0.00000000000E+00 0.  1.
         11    1    3    3    0    0 -0.10667840462E+02  0.24458006795E+02  0.14372817124E+02  0.30307998756E+02  0.00000000000E+00 0. -1.
</event>
<event>
 7    1  0.6584658E-006  0.2010980E+03  0.7561462E-02  0.1148816E+00
         -1   -1    0    0    0  501 -0.00000000000E+00  0.00000000000E+00  0.64754610933E+02  0.64754610933E+02  0.00000000000E+00 0.  1.
          1   -1    0    0  501    0  0.00000000000E+00 -0.00000000000E+00 -0.11018043836E+04  0.11018043836E+04  0.00000000000E+00 0. -1.
         23    2    1    2    0    0 -0.86785301339E+02  0.14639110533E+03 -0.88517475957E+03  0.90641200602E+03  0.95322218964E+02 0.  0.
          5    1    1    2  502    0 -0.15807924398E+02  0.11234225751E+02 -0.26212439472E+01  0.20011037500E+02  0.41800000000E+01 0. -1.
         -5    1    1    2    0  502  0.10259322574E+03 -0.15762533109E+03 -0.14925376917E+03  0.24013595103E+03  0.41800000000E+01 0. -1.
        -11    1    3    3    0    0 -0.45644151646E+02  0.37667967172E+01 -0.17535513611E+03  0.18123741638E+03  0.00000000000E+00 0.  1.
         11    1    3    3    0    0 -0.41141149692E+02  0.14262430862E+03 -0.70981962346E+03  0.72517458963E+03  0.00000000000E+00 0. -1.
</event>
<event>
 7    1  0.6584658E-006  0.2491646E+03  0.7561462E-02  0.1113834E+00
         -1   -1    0    0    0  501 -0.00000000000E+00  0.00000000000E+00  0.54318138734E+02  0.54318138734E+02  0.00000000000E+00 0.  1.
          1   -1    0    0  501    0  0.00000000000E+00 -0.00000000000E+00 -0.14246451634E+04  0.14246451634E+04  0.00000000000E+00 0. -1.
         23    2    1    2    0    0 -0.19789774554E+03 -0.10441967230E+03 -0.99671991842E+03  0.10258595920E+04  0.94182381785E+02 0.  0.
          5    1    1    2  502    0  0.97913272745E+02 -0.16520617923E+02 -0.14547282830E+03  0.17618103181E+03  0.41800000000E+01 0.  1.
         -5    1    1    2    0  502  0.99984472797E+02  0.12094029023E+03 -0.22813427792E+03  0.27692267831E+03  0.41800000000E+01 0.  1.
        -11    1    3    3    0    0 -0.89286290889E+02 -0.98866581573E+02 -0.58981323198E+03  0.60467039891E+03  0.00000000000E+00 0. -1.
         11    1    3    3    0    0 -0.10861145465E+03 -0.55530907299E+01 -0.40690668644E+03  0.42118919308E+03  0.00000000000E+00 0.  1.
</event>
<event>
 7    1  0.6584658E-006  0.1646310E+03  0.7561462E-02  0.1183565E+00
         -2   -1    0    0    0  501 -0.00000000000E+00  0.00000000000E+00  0.24023397314E+02  0.24023397314E+02  0.00000000000E+00 0.  1.
          2   -1    0    0  501    0  0.00000000000E+00 -0.00000000000E+00 -0.13369174768E+04  0.13369174768E+04  0.00000000000E+00 0. -1.
         23    2    1    2    0    0 -0.56616055035E+02  0.11830892714E+03 -0.43754153612E+03  0.46702120098E+03  0.97282199824E+02 0.  0.
          5    1    1    2  502    0 -0.49821958446E+01  0.21476951914E+02 -0.21244506205E+03  0.21362691434E+03  0.41800000000E+01 0.  1.
         -5    1    1    2    0  502  0.61598250880E+02 -0.13978587906E+03 -0.66290748133E+03  0.68029275882E+03  0.41800000000E+01 0.  1.
        -11    1    3    3    0    0 -0.58806151724E+02  0.30634977089E+02 -0.11477409480E+03  0.13255096431E+03  0.00000000000E+00 0.  1.
         11    1    3    3    0    0  0.21900966889E+01  0.87673950053E+02 -0.32276744132E+03  0.33447023666E+03  0.00000000000E+00 0. -1.
</event>
<event>
 7    1  0.6584658E-006  0.1051994E+03  0.7561462E-02  0.1269727E+00
          1   -1    0    0  501    0  0.00000000000E+00  0.00000000000E+00  0.12766092082E+03  0.12766092082E+03  0.00000000000E+00 0. -1.
         -1   -1    0    0    0  501 -0.00000000000E+00 -0.00000000000E+00 -0.96673585360E+02  0.96673585360E+02  0.00000000000E+00 0.  1.
         23    2    1    2    0    0  0.49860485905E+00 -0.18585329677E+02  0.26833901729E+02  0.97804000190E+02  0.92194908131E+02 0.  0.
          5    1    1    2  502    0 -0.38296659690E+02 -0.34343405225E+02  0.26004707743E+02  0.57791183156E+02  0.41800000000E+01 0. -1.
         -5    1    1    2    0  502  0.37798054830E+02  0.52928734902E+02 -0.21851274013E+02  0.68739322831E+02  0.41800000000E+01 0. -1.
        -11    1    3    3    0    0 -0.54155571316E+01 -0.55735149402E+02  0.20637246249E+02  0.59679402399E+02  0.00000000000E+00 0.  1.
         11    1    3    3    0    0  0.59141619906E+01  0.37149819725E+02  0.61966554799E+01  0.38124597792E+02  0.00000000000E+00 0. -1.
</event>
<event>
 7    1  0.6584658E-006  0.1939857E+03  0.7561462E-02  0.1154915E+00
         -1   -1    0    0    0  501 -0.00000000000E+00  0.00000000000E+00  0.99538159786E+02  0.99538159786E+02  0.00000000000E+00 0.  1.
          1   -1    0    0  501    0  0.00000000000E+00 -0.00000000000E+00 -0.60603558415E+03  0.60603558415E+03  0.00000000000E+00 0. -1.
         23    2    1    2    0    0 -0.17363123398E+03 -0.59381231722E+02 -0.41988022157E+03  0.46719536519E+03  0.91094306599E+02 0.  0.
          5    1    1    2  502    0  0.14487224841E+03  0.19534451750E+02 -0.91303691354E+01  0.14652781034E+03  0.41800000000E+01 0. -1.
         -5    1    1    2    0  502  0.28758985573E+02  0.39846779972E+02 -0.77486833657E+02  0.91850568400E+02  0.41800000000E+01 0. -1.
        -11    1    3    3    0    0 -0.57005803630E+02 -0.49269427379E+02 -0.24833741850E+03  0.25951611038E+03  0.00000000000E+00 0.  1.
         11    1    3    3    0    0 -0.11662543035E+03 -0.10111804343E+02 -0.17154280307E+03  0.20767925481E+03  0.00000000000E+00 0. -1.
</event>
<event>
 7    1  0.6584658E-006  0.9673076E+02  0.7561462E-02  0.1287325E+00
          2   -1    0    0  501    0  0.00000000000E+00  0.00000000000E+00  0.23719518458E+03  0.23719518458E+03  0.00000000000E+00 0. -1.
         -2   -1    0    0    0  501 -0.00000000000E+00 -0.00000000000E+00 -0.55625127908E+02  0.55625127908E+02  0.00000000000E+00 0.  1.
         23    2    1    2    0    0 -0.17985279970E+02  0.39275972507E+02  0.83271100505E+02  0.12796529965E+03  0.87034300263E+02 0.  0.
          5    1    1    2  502    0 -0.32006518300E+02 -0.36873458518E+02 -0.57275019330E+01  0.49339090336E+02  0.41800000000E+01 0. -1.
         -5    1    1    2    0  502  0.49991798270E+02 -0.24025139885E+01  0.10402645810E+03  0.11551592251E+03  0.41800000000E+01 0. -1.
        -11    1    3    3    0    0 -0.49600795753E+01 -0.26611421366E+02  0.10763009463E+02  0.29130954486E+02  0.00000000000E+00 0.  1.
         11    1    3    3    0    0 -0.13025200395E+02  0.65887393873E+02  0.72508091042E+02  0.98834345160E+02  0.00000000000E+00 0. -1.
</event>
<event>
 7    1  0.6584658E-006  0.1586466E+03  0.7561462E-02  0.1190233E+00
          1   -1    0    0  501    0  0.00000000000E+00  0.00000000000E+00  0.12684654193E+03  0.12684654193E+03  0.00000000000E+00 0. -1.
         -1   -1    0    0    0  501 -0.00000000000E+00 -0.00000000000E+00 -0.27934636280E+03  0.27934636280E+03  0.00000000000E+00 0.  1.
         23    2    1    2    0    0  0.11286004095E+03  0.71662689223E+02  0.13577021265E+02  0.15900424140E+03  0.85000490627E+02 0.  0.
          5    1    1    2  502    0 -0.10361447813E+03  0.63339876093E+01 -0.10385260856E+03  0.14689763845E+03  0.41800000000E+01 0.  1.
         -5    1    1    2    0  502 -0.92455628232E+01 -0.77996676832E+02 -0.62224233570E+02  0.10029102488E+03  0.41800000000E+01 0.  1.
        -11    1    3    3    0    0  0.18301160436E+02  0.47478253992E+01 -0.29814238254E+02  0.35303868372E+02  0.00000000000E+00 0. -1.
         11    1    3    3    0    0  0.94558880514E+02  0.66914863823E+02  0.43391259519E+02  0.12370037303E+03  0.00000000000E+00 0.  1.
</event>
<event>
 7    1  0.6584658E-006  0.9393041E+02  0.7561462E-02  0.1293603E+00
          2   -1    0    0  501    0  0.00000000000E+00  0.00000000000E+00  0.20433187350E+03  0.20433187350E+03  0.00000000000E+00 0. -1.
         -2   -1    0    0    0  501 -0.00000000000E+00 -0.00000000000E+00 -0.72833488452E+02  0.72833488452E+02  0.00000000000E+00 0.  1.
         23    2    1    2    0    0 -0.52290836557E+02 -0.55699060461E+01  0.80576543906E+02  0.13223217725E+03  0.90705092635E+02 0.  0.
          5    1    1    2  502    0 -0.14424889964E+02 -0.42777227251E+01 -0.33405509587E+02  0.36875151972E+02  0.41800000000E+01 0.  1.
         -5    1    1    2    0  502  0.66715726522E+02  0.98476287711E+01  0.84327350733E+02  0.10805803274E+03  0.41800000000E+01 0.  1.
        -11    1    3    3    0    0 -0.46920371238E+02 -0.44923514654E+02  0.53616396710E+02  0.84228032164E+02  0.00000000000E+00 0.  1.
         11    1    3    3    0    0 -0.53704653190E+01  0.39353608608E+02  0.26960147197E+02  0.48004145082E+02  0.00000000000E+00 0. -1.
</event>
<event>
 7    1  0.6584658E-006  0.1138305E+03  0.7561462E-02  0.1253636E+00
          2   -1    0    0  501    0  0.00000000000E+00  0.00000000000E+00  0.43250080926E+03  0.43250080926E+03  0.00000000000E+00 0. -1.
         -2   -1    0    0    0  501 -0.00000000000E+00 -0.00000000000E+00 -0.48270477743E+02  0.48270477743E+02  0.00000000000E+00 0.  1.
         23    2    1    2    0    0  0.32611993979E+02  0.24116269794E+02  0.31820369117E+03  0.33362642707E+03  0.91694422656E+02 0.  0.
          5    1    1    2  502    0 -0.52916581303E+02  0.36932146316E+02  0.19179655516E+02  0.67449830200E+02  0.41800000000E+01 0.  1.
         -5    1    1    2    0  502  0.20304587324E+02 -0.61048416109E+02  0.46846984826E+02  0.79695029727E+02  0.41800000000E+01 0.  1.
        -11    1    3    3    0    0  0.63942019120E+02  0.12788643366E+02  0.17948541812E+03  0.19096373092E+03  0.00000000000E+00 0.  1.
         11    1    3    3    0    0 -0.31330025142E+02  0.11327626428E+02  0.13871827305E+03  0.14266269615E+03  0.00000000000E+00 0. -1.
</event>
<event>
 7    1  0.6584658E-006  0.7794768E+02  0.7561462E-02  0.1334979E+00
          2   -1    0    0  501    0  0.00000000000E+00  0.00000000000E+00  0.12885400037E+03  0.12885400037E+03  0.00000000000E+00 0. -1.
         -2   -1    0    0    0  501 -0.00000000000E+00 -0.00000000000E+00 -0.24174547137E+03  0.24174547137E+03  0.00000000000E+00 0.  1.
         23    2    1    2    0    0  0.53993953845E+01 -0.17758823065E+02  0.89273619243E+02  0.12901289629E+03  0.91268938032E+02 0.  0.
          5    1    1    2  502    0  0.26969460732E+02 -0.22053177699E+01  0.75562645399E+01  0.28403956986E+02  0.41800000000E+01 0. -1.
         -5    1    1    2    0  502 -0.32368856117E+02  0.19964140835E+02 -0.20972135478E+03  0.21318261846E+03  0.41800000000E+01 0.  1.
        -11    1    3    3    0    0  0.41076201962E+02  0.13068670205E+02  0.26851032573E+02  0.50784076823E+02  0.00000000000E+00 0.  1.
         11    1    3    3    0    0 -0.35676806577E+02 -0.30827493270E+02  0.62422586670E+02  0.78228819469E+02  0.00000000000E+00 0. -1.
</event>
<event>
 7    1  0.6584658E-006  0.1595303E+03  0.7561462E-02  0.1189228E+00
         -2   -1    0    0    0  501 -0.00000000000E+00  0.00000000000E+00  0.95382015631E+02  0.95382015631E+02  0.00000000000E+00 0.  1.
          2   -1    0    0  501    0  0.00000000000E+00 -0.00000000000E+00 -0.33271573917E+03  0.33271573917E+03  0.00000000000E+00 0. -1.
         23    2    1    2    0    0 -0.24297785633E+02 -0.12847081226E+03 -0.11350123348E+03  0.20883280322E+03  0.11676248417E+03 0.  0.
          5    1    1    2  502    0  0.73602804287E+02  0.97639254175E+02 -0.77861572488E+02  0.14501963186E+03  0.41800000000E+01 0. -1.
         -5    1    1    2    0  502 -0.49305018654E+02  0.30831558083E+02 -0.45970917570E+02  0.74245319722E+02  0.41800000000E+01 0. -1.
        -11    1    3    3    0    0 -0.35299857984E+02 -0.64716257249E+02  0.49300806421E+01  0.73882200976E+02  0.00000000000E+00 0. -1.
         11    1    3    3    0    0  0.11002072351E+02 -0.63754555010E+02 -0.11843131412E+03  0.13495060224E+03  0.00000000000E+00 0.  1.
</event>
<event>
 7    1  0.6584658E-006  0.6570864E+02  0.7561462E-02  0.1375326E+00
         -3   -1    0    0    0  501 -0.00000000000E+00  0.00000000000E+00  0.15527128480E+03  0.15527128480E+03  0.00000000000E+00 0.  1.
          3   -1    0    0  501    0  0.00000000000E+00 -0.00000000000E+00 -0.92361817909E+02  0.92361817909E+02  0.00000000000E+00 0. -1.
         23    2    1    2    0    0  0.10257498540E+02 -0.49205192879E+02  0.19308856079E+02  0.10594618882E+03  0.91243606457E+02 0.  0.
          5    1    1    2  502    0  0.87831025499E+00  0.18240338842E+00  0.79599406768E+02  0.79714130853E+02  0.41800000000E+01 0. -1.
         -5    1    1    2    0  502 -0.11135808794E+02  0.49022789490E+02 -0.35998795958E+02  0.61972783037E+02  0.41800000000E+01 0. -1.
        -11    1    3    3    0    0  0.34420918653E+02 -0.32339200201E+02  0.46188622903E+02  0.66060672084E+02  0.00000000000E+00 0.  1.
         11    1    3    3    0    0 -0.24163420113E+02 -0.16865992678E+02 -0.26879766823E+02  0.39885516733E+02  0.00000000000E+00 0. -1.
</event>
<event>
 7    1  0.6584658E-006  0.3129804E+03  0.7561462E-02  0.1078926E+00
         -1   -1    0    0    0  501 -0.00000000000E+00  0.00000000000E+00  0.22756934610E+03  0.22756934610E+03  0.00000000000E+00 0.  1.
          1   -1    0    0  501    0  0.00000000000E+00 -0.00000000000E+00 -0.51891178358E+03  0.51891178358E+03  0.00000000000E+00 0. -1.
         23    2    1    2    0    0  0.28577701259E+03  0.11997364340E+03 -0.25178894194E+03  0.40991563440E+03  0.92579587411E+02 0.  0.
          5    1    1    2  502    0 -0.10524674101E+03 -0.76685077487E+02 -0.70765860790E+02  0.14826583240E+03  0.41800000000E+01 0. -1.
         -5    1    1    2    0  502 -0.18053027158E+03 -0.43288565915E+02  0.31212365260E+02  0.18829966288E+03  0.41800000000E+01 0. -1.
        -11    1    3    3    0    0  0.25451060425E+03  0.10849966779E+03 -0.25524987343E+03  0.37643103415E+03  0.00000000000E+00 0. -1.
         11    1    3    3    0    0  0.31266408348E+02  0.11473975608E+02  0.34609314896E+01  0.33484600252E+02  0.00000000000E+00 0.  1.
</event>
<event>
 6    1  0.6584658E-006  0.5738983E+02  0.7561462E-02  0.1409124E+00
         -1   -1    0    0    0  501 -0.00000000000E+00  0.00000000000E+00  0.51895323138E+02  0.51895323138E+02  0.00000000000E+00 0.  1.
          1   -1    0    0  501    0  0.00000000000E+00 -0.00000000000E+00 -0.21689987812E+03  0.21689987812E+03  0.00000000000E+00 0. -1.
          5    1    1    2  502    0  0.14149596435E+02 -0.19693896581E+02  0.38628243695E+02  0.45800373937E+02  0.41800000000E+01 0.  1.
         -5    1    1    2    0  502  0.24963048243E+02  0.21839894262E+02 -0.88213593910E+02  0.94335811384E+02  0.41800000000E+01 0.  1.
        -11    1    1    2    0    0  0.28409939598E+01  0.12104640957E+02 -0.22171256528E+02  0.25419641922E+02  0.00000000000E+00 0.  1.
         11    1    1    2    0    0 -0.41953638638E+02 -0.14250638638E+02 -0.93247948242E+02  0.10323937402E+03  0.00000000000E+00 0. -1.
</event>
<event>
 7    1  0.6584658E-006  0.1349468E+03  0.7561462E-02  0.1220295E+00
         -1   -1    0    0    0  501 -0.00000000000E+00  0.00000000000E+00  0.12316841376E+03  0.12316841376E+03  0.00000000000E+00 0.  1.
          1   -1    0    0  501    0  0.00000000000E+00 -0.00000000000E+00 -0.24497846942E+03  0.24497846942E+03  0.00000000000E+00 0. -1.
         23    2    1    2    0    0  0.57877984578E+02  0.11911417502E+03 -0.80474759773E+02  0.18134680608E+03  0.94193573695E+02 0.  0.
          5    1    1    2  502    0 -0.34821321393E+02 -0.44700015591E+02 -0.81266780979E+02  0.99158347647E+02  0.41800000000E+01 0.  1.
         -5    1    1    2    0  502 -0.23056663186E+02 -0.74414159426E+02  0.39931485094E+02  0.87641729456E+02  0.41800000000E+01 0.  1.
        -11    1    3    3    0    0  0.24490690398E+02  0.79847854758E+02  0.26251609060E+01  0.83560548678E+02  0.00000000000E+00 0.  1.
         11    1    3    3    0    0  0.33387294180E+02  0.39266320258E+02 -0.83099920679E+02  0.97786257400E+02  0.00000000000E+00 0. -1.
</event>
<event>
 7    1  0.6584658E-006  0.9080235E+02  0.7561462E-02  0.1300920E+00
          2   -1    0    0  501    0  0.00000000000E+00  0.00000000000E+00  0.32829375184E+02  0.32829375184E+02  0.00000000000E+00 0. -1.
         -2   -1    0    0    0  501 -0.00000000000E+00 -0.00000000000E+00 -0.39844656733E+03  0.39844656733E+03  0.00000000000E+00 0.  1.
         23    2    1    2    0    0  0.18037794777E+02 -0.16697883878E+02 -0.99697571936E+02  0.13637225385E+03  0.89741876538E+02 0.  0.
          5    1    1    2  502    0  0.36849174741E+02 -0.35441342059E+02 -0.11860096620E+03  0.12921924002E+03  0.41800000000E+01 0. -1.
         -5    1    1    2    0  502 -0.54886969518E+02  0.52139225938E+02 -0.14731865401E+03  0.16568444865E+03  0.41800000000E+01 0. -1.
        -11    1    3    3    0    0  0.34197304888E+02 -0.50499231320E+01 -0.10902695144E+03  0.11437584327E+03  0.00000000000E+00 0.  1.
         11    1    3    3    0    0 -0.16159510110E+02 -0.11647960746E+02  0.93293794993E+01  0.21996410580E+02  0.00000000000E+00 0. -1.
</event>
<event>
 7    1  0.6584658E-006  0.1825497E+03  0.7561462E-02  0.1165358E+00
         -2   -1    0    0    0  501 -0.00000000000E+00  0.00000000000E+00  0.77798316033E+02  0.77798316033E+02  0.00000000000E+00 0.  1.
          2   -1    0    0  501    0  0.00000000000E+00 -0.00000000000E+00 -0.86553790428E+03  0.86553790428E+03  0.00000000000E+00 0. -1.
         23    2    1    2    0    0  0.39746988545E+02 -0.32088608593E+02 -0.59675743480E+03  0.60629435038E+03  0.94148294801E+02 0.  0.
          5    1    1    2  502    0  0.72868928805E+02  0.10214254570E+03 -0.15518230310E+03  0.19960460922E+03  0.41800000000E+01 0. -1.
         -5    1    1    2    0  502 -0.11261591735E+03 -0.70053937106E+02 -0.35799850337E+02  0.13743726070E+03  0.41800000000E+01 0.  1.
        -11    1    3    3    0    0 -0.23664092193E+02  0.14880867006E+02 -0.13862534144E+03  0.14141575142E+03  0.00000000000E+00 0.  1.
         11    1    3    3    0    0  0.63411080739E+02 -0.46969475600E+02 -0.45813209337E+03  0.46487859896E+03  0.00000000000E+00 0. -1.
</event>
<event>
 7    1  0.6584658E-006  0.1844715E+03  0.7561462E-02  0.1163544E+00
         -2   -1    0    0    0  501 -0.00000000000E+00  0.00000000000E+00  0.18259245563E+03  0.18259245563E+03  0.00000000000E+00 0.  1.
          2   -1    0    0  501    0  0.00000000000E+00 -0.00000000000E+00 -0.38738339749E+03  0.38738339749E+03  0.00000000000E+00 0. -1.
         23    2    1    2    0    0 -0.15521129469E+02 -0.17263551619E+03 -0.28339681722E+03  0.34222622926E+03  0.82225963476E+02 0.  0.
          5    1    1    2  502    0 -0.72515330253E+01  0.81427091566E+01 -0.28022165689E+02  0.30357908583E+02  0.41800000000E+01 0.  1.
         -5    1    1    2    0  502  0.22772662495E+02  0.16449280704E+03  0.10662804105E+03  0.19739171528E+03  0.41800000000E+01 0.  1.
        -11    1    3    3    0    0 -0.24993078981E+02 -0.17834761766E+03 -0.27297494057E+03  0.32702881357E+03  0.00000000000E+00 0. -1.
         11    1    3    3    0    0  0.94719495119E+01  0.57121014701E+01 -0.10421876647E+02  0.15197415689E+02  0.00000000000E+00 0.  1.
</event>
<event>
 7    1  0.6584658E-006  0.1001626E+03  0.7561462E-02  0.1279954E+00
          2   -1    0    0  501    0  0.00000000000E+00  0.00000000000E+00  0.37773398612E+02  0.37773398612E+02  0.00000000000E+00 0. -1.
         -2   -1    0    0    0  501 -0.00000000000E+00 -0.00000000000E+00 -0.39161620104E+03  0.39161620104E+03  0.00000000000E+00 0.  1.
         23    2    1    2    0    0 -0.80336035931E+01 -0.33521366738E+02 -0.80980879906E+02  0.12724875217E+03  0.91902781268E+02 0.  0.
          5    1    1    2  502    0 -0.54316539122E+02  0.33852536936E+02 -0.17105931170E+03  0.18268837182E+03  0.41800000000E+01 0. -1.
         -5    1    1    2    0  502  0.62350142715E+02 -0.33117019796E+00 -0.10180261082E+03  0.11945247565E+03  0.41800000000E+01 0. -1.
        -11    1    3    3    0    0  0.20540587514E+02  0.90320171924E+01  0.86080986465E+01  0.24033152774E+02  0.00000000000E+00 0. -1.
         11    1    3    3    0    0 -0.28574191107E+02 -0.42553383931E+02 -0.89588978552E+02  0.10321559940E+03  0.00000000000E+00 0.  1.
</event>
<event>
 7    1  0.6584658E-006  0.1333855E+03  0.7561462E-02  0.1222517E+00
         -1   -1    0    0    0  501 -0.00000000000E+00  0.00000000000E+00  0.14712841215E+03  0.14712841215E+03  0.00000000000E+00 0.  1.
          1   -1    0    0  501    0  0.00000000000E+00 -0.00000000000E+00 -0.15011287061E+03  0.15011287061E+03  0.00000000000E+00 0. -1.
         23    2    1    2    0    0 -0.28097247123E+01 -0.94518080366E+02 -0.35362481772E+02  0.13712804109E+03  0.92801037001E+02 0.  0.
          5    1    1    2  502    0  0.49343178806E+02  0.40563104643E+02  0.55879720235E+02  0.84971349798E+02  0.41800000000E+01 0. -1.
         -5    1    1    2    0  502 -0.46533454093E+02  0.53954975723E+02 -0.23501696930E+02  0.75141891869E+02  0.41800000000E+01 0. -1.
        -11    1    3    3    0    0  0.42224363450E+02 -0.65102759335E+02 -0.29518886484E+02  0.83021869415E+02  0.00000000000E+00 0. -1.
         11    1    3    3    0    0 -0.45034088163E+02 -0.29415321031E+02 -0.58435952876E+01  0.54106171680E+02  0.00000000000E+00 0.  1.
</event>
<event>
 7    1  0.6584658E-006  0.9490605E+02  0.7561462E-02  0.1291388E+00
          1   -1    0    0  501    0  0.00000000000E+00  0.00000000000E+00  0.71679066699E+02  0.71679066699E+02  0.00000000000E+00 0. -1.
         -1   -1    0    0    0  501 -0.00000000000E+00 -0.00000000000E+00 -0.30853444088E+03  0.30853444088E+03  0.00000000000E+00 0.  1.
         23    2    1    2    0    0  0.44616176358E+02  0.16581415202E+02  0.13433293008E+02  0.10109942087E+03  0.88176487891E+02 0.  0.
          5    1    1    2  502    0 -0.77583135864E+02 -0.64811650451E+00 -0.21281490671E+03  0.22655511459E+03  0.41800000000E+01 0. -1.
         -5    1    1    2    0  502  0.32966959506E+02 -0.15933298697E+02 -0.37473760480E+02  0.52558972126E+02  0.41800000000E+01 0.  1.
        -11    1    3    3    0    0  0.47292336690E+02  0.33612521738E+02 -0.21714873029E+02  0.61950806595E+02  0.00000000000E+00 0.  1.
         11    1    3    3    0    0 -0.26761603320E+01 -0.17031106536E+02  0.35148166038E+02  0.39148614277E+02  0.00000000000E+00 0. -1.
</event>
<event>
 7    1  0.6584658E-006  0.5275026E+02  0.7561462E-02  0.1431048E+00
         -3   -1    0    0    0  501 -0.00000000000E+00  0.00000000000E+00  0.68097408956E+02  0.68097408956E+02  0.00000000000E+00 0.  1.
          3   -1    0    0  501    0  0.00000000000E+00 -0.00000000000E+00 -0.19989288767E+03  0.19989288767E+03  0.00000000000E+00 0. -1.
         23    2    1    2    0    0 -0.54372810267E+01 -0.43082152994E+02 -0.51361669321E+02  0.11304586993E+03  0.90860947069E+02 0.  0.
          5    1    1    2  502    0  0.13192909143E+02  0.11233747889E+02 -0.10949647250E+03  0.11093781967E+03  0.41800000000E+01 0. -1.
         -5    1    1    2    0  502 -0.77556281166E+01  0.31848405105E+02  0.29062663103E+02  0.44006607025E+02  0.41800000000E+01 0. -1.
        -11    1    3    3    0    0 -0.19467794911E+02 -0.22994615572E+02 -0.73867784992E+02  0.79775917692E+02  0.00000000000E+00 0. -1.
         11    1    3    3    0    0  0.14030513885E+02 -0.20087537422E+02  0.22506115672E+02  0.33269952242E+02  0.00000000000E+00 0.  1.
</event>
<event>
 7    1  0.6584658E-006  0.8949728E+02  0.7561462E-02  0.1304074E+00
          3   -1    0    0  501    0  0.00000000000E+00  0.00000000000E+00  0.57676038986E+03  0.57676038986E+03  0.00000000000E+00 0. -1.
         -3   -1    0    0    0  501 -0.00000000000E+00 -0.00000000000E+00 -0.28076832215E+02  0.28076832215E+02  0.00000000000E+00 0.  1.
         23    2    1    2    0    0 -0.62471972844E+02  0.56127425280E+01  0.27003686570E+03  0.29302385794E+03  0.94914815571E+02 0.  0.
          5    1    1    2  502    0  0.44812403712E+02 -0.32475191719E+02  0.34124707367E+02  0.65151804706E+02  0.41800000000E+01 0.  1.
         -5    1    1    2    0  502  0.17659569132E+02  0.26862449191E+02  0.24452198458E+03  0.24666155943E+03  0.41800000000E+01 0.  1.
        -11    1    3    3    0    0  0.11773840993E+02  0.11678331355E+02  0.44249610302E+01  0.17163537954E+02  0.00000000000E+00 0.  1.
         11    1    3    3    0    0 -0.74245813837E+02 -0.60655888274E+01  0.26561190467E+03  0.27586031998E+03  0.00000000000E+00 0. -1.
</event>
<event>
 7    1  0.6584658E-006  0.1884540E+03  0.7561462E-02  0.1159863E+00
         -1   -1    0    0    0  501 -0.00000000000E+00  0.00000000000E+00  0.12861097788E+03  0.12861097788E+03  0.00000000000E+00 0.  1.
          1   -1    0    0  501    0  0.00000000000E+00 -0.00000000000E+00 -0.44845015492E+03  0.44845015492E+03  0.00000000000E+00 0. -1.
         23    2    1    2    0    0 -0.16186913506E+03 -0.33428772633E+02 -0.31735259082E+03  0.36976346612E+03  0.93237622499E+02 0.  0.
          5    1    1    2  502    0  0.66528863847E+02 -0.35555753749E+02  0.35626931645E+02  0.83528749588E+02  0.41800000000E+01 0. -1.
         -5    1    1    2    0  502  0.95340271217E+02  0.68984526382E+02 -0.38113517860E+02  0.12376891710E+03  0.41800000000E+01 0. -1.
        -11    1    3    3    0    0 -0.10723462806E+03  0.17807693523E+02 -0.14002623814E+03  0.17726738778E+03  0.00000000000E+00 0. -1.
         11    1    3    3    0    0 -0.54634507006E+02 -0.51236466156E+02 -0.17732635268E+03  0.19249607834E+03  0.00000000000E+00 0.  1.
</event>
<event>
 7    1  0.6584658E-006  0.8758417E+02  0.7561462E-02  0.1308810E+00
         -1   -1    0    0    0  501 -0.00000000000E+00  0.00000000000E+00  0.39521010299E+03  0.39521010299E+03  0.00000000000E+00 0.  1.
          1   -1    0    0  501    0  0.00000000000E+00 -0.00000000000E+00 -0.92691080409E+02  0.92691080409E+02  0.00000000000E+00 0. -1.
         23    2    1    2    0    0 -0.53111437323E+02 -0.28739627441E+01 -0.49110214912E+02  0.11471756398E+03  0.88990009782E+02 0.  0.
          5    1    1    2  502    0 -0.69019812203E+01  0.30819170873E+02  0.26742433490E+02  0.41594335998E+02  0.41800000000E+01 0. -1.
         -5    1    1    2    0  502  0.60013418543E+02 -0.27945208129E+02  0.32488680400E+03  0.33158928342E+03  0.41800000000E+01 0.  1.
        -11    1    3    3    0    0 -0.11705629693E+01 -0.21699101585E+02  0.17697587235E+02  0.28025449527E+02  0.00000000000E+00 0.  1.
         11    1    3    3    0    0 -0.51940874353E+02  0.18825138841E+02 -0.66807802147E+02  0.86692114455E+02  0.00000000000E+00 0. -1.
</event>
<event>
 7    1  0.6584658E-006  0.2349056E+03  0.7561462E-02  0.1123234E+00
          2   -1    0    0  501    0  0.00000000000E+00  0.00000000000E+00  0.10479559231E+04  0.10479559231E+04  0.00000000000E+00 0. -1.
         -2   -1    0    0    0  501 -0.00000000000E+00 -0.00000000000E+00 -0.65538961500E+02  0.65538961500E+02  0.00000000000E+00 0.  1.
         23    2    1    2    0    0 -0.20885969011E+03  0.31572376805E+02  0.71486718949E+03  0.75038355777E+03  0.86146387245E+02 0.  0.
          5    1    1    2  502    0 -0.14264738360E+02  0.89876033143E+01  0.10501590289E+02  0.20298166725E+02  0.41800000000E+01 0.  1.
         -5    1    1    2    0  502  0.22312442847E+03 -0.40559980120E+02  0.25704818187E+03  0.34281316015E+03  0.41800000000E+01 0.  1.
        -11    1    3    3    0    0 -0.10450696676E+02 -0.18269838514E+02  0.40115496285E+02  0.45301844361E+02  0.00000000000E+00 0.  1.
         11    1    3    3    0    0 -0.19840899344E+03  0.49842215319E+02  0.67475169321E+03  0.70508171341E+03  0.00000000000E+00 0. -1.
</event>
<event>
 6    1  0.6584658E-006  0.1104847E+03  0.7561462E-02  0.1259675E+00
         -2   -1    0    0    0  501 -0.00000000000E+00  0.00000000000E+00  0.37913130977E+02  0.37913130977E+02  0.00000000000E+00 0.  1.
          2   -1    0    0  501    0  0.00000000000E+00 -0.00000000000E+00 -0.38484149077E+03  0.38484149077E+03  0.00000000000E+00 0. -1.
          5    1    1    2  502    0  0.20010117334E+02 -0.33285619128E+02 -0.13367656742E+03  0.13926677390E+03  0.41800000000E+01 0. -1.
         -5    1    1    2    0  502 -0.96473736163E+02  0.23280593999E+01 -0.81215075429E+02  0.12619810817E+03  0.41800000000E+01 0.  1.
        -11    1    1    2    0    0  0.22055577726E+02  0.20087797374E+02 -0.41631408581E+02  0.51216621254E+02  0.00000000000E+00 0.  1.
         11    1    1    2    0    0  0.54408041102E+02  0.10869762354E+02 -0.90405308372E+02  0.10607311842E+03  0.00000000000E+00 0. -1.
</event>
<event>
 7    1  0.6584658E-006  0.8601099E+02  0.7561462E-02  0.1312810E+00
         -2   -1    0    0    0  501 -0.00000000000E+00  0.00000000000E+00  0.20519958983E+02  0.20519958983E+02  0.00000000000E+00 0. -1.
          2   -1    0    0  501    0  0.00000000000E+00 -0.00000000000E+00 -0.70917890673E+03  0.70917890673E+03  0.00000000000E+00 0.  1.
         23    2    1    2    0    0  0.23274321307E+02 -0.84710991587E+01 -0.43873809526E+03  0.44912690330E+03  0.92792270602E+02 0.  0.
          5    1    1    2  502    0 -0.49465539484E+02  0.18022534398E+02 -0.33981240166E+02  0.62800067085E+02  0.41800000000E+01 0.  1.
         -5    1    1    2    0  502  0.26191218177E+02 -0.95514352392E+01 -0.21593961232E+03  0.21777189533E+03  0.41800000000E+01 0.  1.
        -11    1    3    3    0    0 -0.24237054750E+02  0.23495009224E+02 -0.99000422325E+02  0.10459700714E+03  0.00000000000E+00 0.  1.
         11    1    3    3    0    0  0.47511376057E+02 -0.31966108383E+02 -0.33973767294E+03  0.34452989617E+03  0.00000000000E+00 0. -1.
</event>
<event>
 7    1  0.6584658E-006  0.9635209E+02  0.7561462E-02  0.1288160E+00
         -2   -1    0    0    0  501 -0.00000000000E+00  0.00000000000E+00  0.87900387622E+02  0.87900387622E+02  0.00000000000E+00 0.  1.
          2   -1    0    0  501    0  0.00000000000E+00 -0.00000000000E+00 -0.16024401165E+03  0.16024401165E+03  0.00000000000E+00 0. -1.
         23    2    1    2    0    0  0.87830519487E+01 -0.39651284752E+02 -0.58532175243E+02  0.11590468706E+03  0.91424912143E+02 0.  0.
          5    1    1    2  502    0 -0.44861340242E+01  0.71399395501E+02  0.30096505351E+02  0.77725614251E+02  0.41800000000E+01 0. -1.
         -5    1    1    2    0  502 -0.42969179245E+01 -0.31748110749E+02 -0.43907954133E+02  0.54514097956E+02  0.41800000000E+01 0. -1.
        -11    1    3    3    0    0  0.29216200155E+02  0.13207033781E+02  0.30597908067E+01  0.32208297263E+02  0.00000000000E+00 0.  1.
         11    1    3    3    0    0 -0.20433148206E+02 -0.52858318533E+02 -0.61591966049E+02  0.83696389800E+02  0.00000000000E+00 0. -1.
</event>
<event>
 7    1  0.6584658E-006  0.1081913E+03  0.7561462E-02  0.1263956E+00
         -2   -1    0    0    0  501 -0.00000000000E+00  0.00000000000E+00  0.99091717692E+03  0.99091717692E+03  0.00000000000E+00 0.  1.
          2   -1    0    0  501    0  0.00000000000E+00 -0.00000000000E+00 -0.20417402526E+02  0.20417402526E+02  0.00000000000E+00 0. -1.
         23    2    1    2    0    0  0.43590375587E+02 -0.34585180508E+02  0.18047010021E+03  0.20952944478E+03  0.90757234455E+02 0.  0.
          5    1    1    2  502    0 -0.16994145154E+02 -0.45989268505E+02  0.21676229983E+03  0.22227726113E+03  0.41800000000E+01 0. -1.
         -5    1    1    2    0  502 -0.26596230433E+02  0.80574449013E+02  0.57326737436E+03  0.57952787354E+03  0.41800000000E+01 0. -1.
        -11    1    3    3    0    0 -0.10503045329E+02 -0.25226552917E+02  0.13646028239E+03  0.13916932709E+03  0.00000000000E+00 0.  1.
         11    1    3    3    0    0  0.54093420916E+02 -0.93586275912E+01  0.44009817820E+02  0.70360117690E+02  0.00000000000E+00 0. -1.
</event>
<event>
 7    1  0.6584658E-006  0.1041943E+03  0.7561462E-02  0.1271715E+00
          2   -1    0    0  501    0  0.00000000000E+00  0.00000000000E+00  0.16649413692E+03  0.16649413692E+03  0.00000000000E+00 0. -1.
         -2   -1    0    0    0  501 -0.00000000000E+00 -0.00000000000E+00 -0.12092804124E+03  0.12092804124E+03  0.00000000000E+00 0.  1.
         23    2    1    2    0    0 -0.43493228595E+02 -0.40990020547E+01  0.10241825792E+03  0.14324149387E+03  0.90111948470E+02 0.  0.
          5    1    1    2  502    0  0.69646982320E+02  0.38589628788E+02 -0.61149976055E+02  0.10048210571E+03  0.41800000000E+01 0. -1.
         -5    1    1    2    0  502 -0.26153753725E+02 -0.34490626734E+02  0.42978138139E+01  0.43698578581E+02  0.41800000000E+01 0. -1.
        -11    1    3    3    0    0 -0.64169773231E+01  0.32466837490E+02  0.59640974899E+01  0.33628017983E+02  0.00000000000E+00 0.  1.
         11    1    3    3    0    0 -0.37076251272E+02 -0.36565839545E+02  0.96454160434E+02  0.10961347588E+03  0.00000000000E+00 0. -1.
</event>
<event>
 7    1  0.6584658E-006  0.1370036E+03  0.7561462E-02  0.1217419E+00
          1   -1    0    0  501    0  0.00000000000E+00  0.00000000000E+00  0.27238075007E+03  0.27238075007E+03  0.00000000000E+00 0. -1.
         -1   -1    0    0    0  501 -0.00000000000E+00 -0.00000000000E+00 -0.70066847941E+02  0.70066847941E+02  0.00000000000E+00 0.  1.
         23    2    1    2    0    0  0.52610466209E+02 -0.67237569518E+02  0.92700031843E+02  0.15549467682E+03  0.91085381406E+02 0.  0.
          5    1    1    2  502    0 -0.77261153247E+02 -0.14531041312E+01  0.45846459947E+02  0.89948694278E+02  0.41800000000E+01 0.  1.
         -5    1    1    2    0  502  0.24650687038E+02  0.68690673650E+02  0.63767410342E+02  0.97004226917E+02  0.41800000000E+01 0.  1.
        -11    1    3    3    0    0 -0.18669369357E+02  0.76105055826E+01  0.24198999278E+02  0.31496931810E+02  0.00000000000E+00 0. -1.
         11    1    3    3    0    0  0.71279835566E+02 -0.74848075101E+02  0.68501032565E+02  0.12399774501E+03  0.00000000000E+00 0.  1.
</event>
<event>
 7    1  0.6584658E-006  0.1077948E+03  0.7561462E-02  0.1264709E+00
          2   -1    0    0  501    0  0.00000000000E+00  0.00000000000E+00  0.42349309148E+03  0.42349309148E+03  0.00000000000E+00 0. -1.
         -2   -1    0    0    0  501 -0.00000000000E+00 -0.00000000000E+00 -0.46052734425E+02  0.46052734425E+02  0.00000000000E+00 0.  1.
         23    2    1    2    0    0 -0.83386878382E+02  0.25617991610E+02  0.18979816551E+03  0.22776877700E+03  0.90805391705E+02 0.  0.
          5    1    1    2  502    0  0.95074773580E+02 -0.26840449043E+01  0.62360385584E+02  0.11380995896E+03  0.41800000000E+01 0.  1.
         -5    1    1    2    0  502 -0.11687895198E+02 -0.22933946706E+02  0.12528180596E+03  0.12796708995E+03  0.41800000000E+01 0.  1.
        -11    1    3    3    0    0 -0.20886491927E+02  0.23959301171E+02  0.43705288388E+01  0.32084188940E+02  0.00000000000E+00 0.  1.
         11    1    3    3    0    0 -0.62500386455E+02  0.16586904397E+01  0.18542763667E+03  0.19568458806E+03  0.00000000000E+00 0. -1.
</event>
<event>
 7    1  0.6584658E-006  0.8970800E+02  0.7561462E-02  0.1303560E+00
          1   -1    0    0  501    0  0.00000000000E+00  0.00000000000E+00  0.63828113808E+02  0.63828113808E+02  0.00000000000E+00 0. -1.
         -1   -1    0    0    0  501 -0.00000000000E+00 -0.00000000000E+00 -0.21055691827E+03  0.21055691827E+03  0.00000000000E+00 0.  1.
         23    2    1    2    0    0  0.32565392595E+02  0.11244674018E+02 -0.37022805837E+02  0.10447546443E+03  0.91419292419E+02 0.  0.
          5    1    1    2  502    0 -0.74350654283E+02 -0.33920952926E+02 -0.73688357076E+02  0.11011855978E+03  0.41800000000E+01 0.  1.
         -5    1    1    2    0  502  0.41785261688E+02  0.22676278908E+02 -0.36017641550E+02  0.59791007871E+02  0.41800000000E+01 0.  1.
        -11    1    3    3    0    0  0.20369303636E+02 -0.11978303758E+02 -0.63166081025E+02  0.67441397403E+02  0.00000000000E+00 0.  1.
         11    1    3    3    0    0  0.12196088959E+02  0.23222977777E+02  0.26143275188E+02  0.37034067023E+02  0.00000000000E+00 0. -1.
</event>
<event>
 7    1  0.6584658E-006  0.1115234E+03  0.7561462E-02  0.1257775E+00
          1   -1    0    0  501    0  0.00000000000E+00  0.00000000000E+00  0.10369443160E+03  0.10369443160E+03  0.00000000000E+00 0. -1.
         -1   -1    0    0    0  501 -0.00000000000E+00 -0.00000000000E+00 -0.13198520231E+03  0.13198520231E+03  0.00000000000E+00 0.  1.
         23    2    1    2    0    0  0.21057363760E+02  0.22296053238E+02  0.88197711772E+01  0.10164976335E+03  0.96510929258E+02 0.  0.
          5    1    1    2  502    0  0.44603168357E+02 -0.32305629976E+02 -0.38732784816E+02  0.67459598096E+02  0.41800000000E+01 0. -1.
         -5    1    1    2    0  502 -0.65660532117E+02  0.10009576738E+02  0.16222429231E+01  0.66570272468E+02  0.41800000000E+01 0. -1.
        -11    1    3    3    0    0 -0.32591216707E+02 -0.15048540023E+02  0.34414887857E+01  0.36062304534E+02  0.00000000000E+00 0.  1.
         11    1    3    3    0    0  0.53648580467E+02  0.37344593261E+02  0.53782823915E+01  0.65587458812E+02  0.00000000000E+00 0. -1.
</event>
<event>
 7    1  0.6584658E-006  0.1592583E+03  0.7561462E-02  0.1189537E+00
          1   -1    0    0  501    0  0.00000000000E+00  0.00000000000E+00  0.70118694679E+03  0.70118694679E+03  0.00000000000E+00 0.  1.
         -1   -1    0    0    0  501 -0.00000000000E+00 -0.00000000000E+00 -0.55290906401E+02  0.55290906401E+02  0.00000000000E+00 0. -1.
         23    2    1    2    0    0 -0.11970068931E+03  0.82304265521E+02  0.45269651694E+03  0.48430691723E+03  0.92286545485E+02 0.  0.
          5    1    1    2  502    0  0.70027816657E+02 -0.32353305715E+02  0.12600810596E+02  0.78274416792E+02  0.41800000000E+01 0. -1.
         -5    1    1    2    0  502  0.49672872656E+02 -0.49950959806E+02  0.18059871285E+03  0.19389651917E+03  0.41800000000E+01 0. -1.
        -11    1    3    3    0    0  0.81461555539E+01  0.32473030861E+02  0.11569276141E+03  0.12043949778E+03  0.00000000000E+00 0.  1.
         11    1    3    3    0    0 -0.12784684487E+03  0.49831234660E+02  0.33700375554E+03  0.36386741945E+03  0.00000000000E+00 0. -1.
</event>
<event>
 6    1  0.6584658E-006  0.1260701E+03  0.7561462E-02  0.1233406E+00
         -4   -1    0    0    0  501 -0.00000000000E+00  0.00000000000E+00  0.19354082125E+03  0.19354082125E+03  0.00000000000E+00 0. -1.
          4   -1    0    0  501    0  0.00000000000E+00 -0.00000000000E+00 -0.12263274544E+03  0.12263274544E+03  0.00000000000E+00 0.  1.
          5    1    1    2  502    0 -0.64567689402E+02  0.95418234333E+02  0.42473867965E+02  0.12286223105E+03  0.41800000000E+01 0. -1.
         -5    1    1    2    0  502  0.19336864942E+02  0.62839322382E+01  0.66946138166E+02  0.70090369991E+02  0.41800000000E+01 0.  1.
        -11    1    1    2    0    0  0.31648307545E+02 -0.31721852699E+02 -0.72959239874E+01  0.45399579469E+02  0.00000000000E+00 0.  1.
         11    1    1    2    0    0  0.13582516915E+02 -0.69980313873E+02 -0.31216006337E+02  0.77821386181E+02  0.00000000000E+00 0. -1.
</event>
<event>
 7    1  0.6584658E-006  0.8419423E+02  0.7561462E-02  0.1317553E+00
          2   -1    0    0  501    0  0.00000000000E+00  0.00000000000E+00  0.99664027977E+02  0.99664027977E+02  0.00000000000E+00 0.  1.
         -2   -1    0    0    0  501 -0.00000000000E+00 -0.00000000000E+00 -0.12676982504E+03  0.12676982504E+03  0.00000000000E+00 0. -1.
         23    2    1    2    0    0  0.16806893003E+02  0.20310515312E+02 -0.12003570767E+01  0.95998468533E+02  0.92299926429E+02 0.  0.
          5    1    1    2  502    0  0.35860611661E+01  0.23375718364E+02 -0.64314946008E+02  0.68652521612E+02  0.41800000000E+01 0. -1.
         -5    1    1    2    0  502 -0.20392954169E+02 -0.43686233676E+02  0.38409506018E+02  0.61782862875E+02  0.41800000000E+01 0. -1.
        -11    1    3    3    0    0  0.51609791253E+02  0.30204002827E+02 -0.14434419206E+01  0.59815849610E+02  0.00000000000E+00 0.  1.
         11    1    3    3    0    0 -0.34802898250E+02 -0.98934875152E+01  0.24308484387E+00  0.36182618922E+02  0.00000000000E+00 0. -1.
</event>
<event>
 7    1  0.6584658E-006  0.8542419E+02  0.7561462E-02  0.1314327E+00
          3   -1    0    0  501    0  0.00000000000E+00  0.00000000000E+00  0.39546351658E+02  0.39546351658E+02  0.00000000000E+00 0. -1.
         -3   -1    0    0    0  501 -0.00000000000E+00 -0.00000000000E+00 -0.37208363864E+03  0.37208363864E+03  0.00000000000E+00 0.  1.
         23    2    1    2    0    0 -0.15503621852E+02  0.33178124834E+01 -0.60574180500E+02  0.11190164096E+03  0.92743602128E+02 0.  0.
          5    1    1    2  502    0  0.39080234258E+02 -0.45181417892E+02 -0.70156097642E+02  0.92238688568E+02  0.41800000000E+01 0.  1.
         -5    1    1    2    0  502 -0.23576612406E+02  0.41863605409E+02 -0.20180700884E+03  0.20748966077E+03  0.41800000000E+01 0.  1.
        -11    1    3    3    0    0 -0.40577532495E+01  0.31791164080E+02 -0.72272425557E+02  0.79059768346E+02  0.00000000000E+00 0.  1.
         11    1    3    3    0    0 -0.11445868603E+02 -0.28473351597E+02  0.11698245057E+02  0.32841872612E+02  0.00000000000E+00 0. -1.
</event>
<event>
 7    1  0.6584658E-006  0.1838523E+03  0.7561462E-02  0.1164126E+00
         -2   -1    0    0    0  501 -0.00000000000E+00  0.00000000000E+00  0.28556287577E+02  0.28556287577E+02  0.00000000000E+00 0.  1.
          2   -1    0    0  501    0  0.00000000000E+00 -0.00000000000E+00 -0.12625822558E+04  0.12625822558E+04  0.00000000000E+00 0. -1.
         23    2    1    2    0    0  0.13309424372E+03 -0.79708448074E+02 -0.62044720676E+03  0.64600697417E+03  0.91119481456E+02 0.  0.
          5    1    1    2  502    0 -0.76448142094E+02  0.10420274369E+03 -0.49217957110E+03  0.50888184565E+03  0.41800000000E+01 0.  1.
         -5    1    1    2    0  502 -0.56646101625E+02 -0.24494295614E+02 -0.12139919034E+03  0.13624972353E+03  0.41800000000E+01 0.  1.
        -11    1    3    3    0    0  0.10334208942E+03 -0.97332427804E+02 -0.44193933109E+03  0.46418052664E+03  0.00000000000E+00 0. -1.
         11    1    3    3    0    0  0.29752154304E+02  0.17623979729E+02 -0.17850787567E+03  0.18182644753E+03  0.00000000000E+00 0.  1.
</event>
<event>
 7    1  0.6584658E-006  0.1075548E+03  0.7561462E-02  0.1265166E+00
         -1   -1    0    0    0  501 -0.00000000000E+00  0.00000000000E+00  0.74354113351E+02  0.74354113351E+02  0.00000000000E+00 0.  1.
          1   -1    0    0  501    0  0.00000000000E+00 -0.00000000000E+00 -0.28677778485E+03  0.28677778485E+03  0.00000000000E+00 0. -1.
         23    2    1    2    0    0 -0.30081146035E+01  0.90480066404E+02 -0.14395230085E+03  0.19222338282E+03  0.89620716443E+02 0.  0.
          5    1    1    2  502    0 -0.15858509855E+02 -0.85868775683E+02  0.99726539180E+01  0.87987869609E+02  0.41800000000E+01 0. -1.
         -5    1    1    2    0  502  0.18866624459E+02 -0.46112907204E+01 -0.78444024567E+02  0.80920645764E+02  0.41800000000E+01 0. -1.
        -11    1    3    3    0    0  0.27519196513E+02  0.35285692204E+02 -0.12561918956E+02  0.46477823302E+02  0.00000000000E+00 0.  1.
         11    1    3    3    0    0 -0.30527311116E+02  0.55194374200E+02 -0.13139038189E+03  0.14574555952E+03  0.00000000000E+00 0. -1.
</event>
<event>
 7    1  0.6584658E-006  0.1963159E+03  0.7561462E-02  0.1152885E+00
          1   -1    0    0  501    0  0.00000000000E+00  0.00000000000E+00  0.82260990805E+03  0.82260990805E+03  0.00000000000E+00 0. -1.
         -1   -1    0    0    0  501 -0.00000000000E+00 -0.00000000000E+00 -0.49501208817E+02  0.49501208817E+02  0.00000000000E+00 0.  1.
         23    2    1    2    0    0  0.35519648604E+02 -0.15666902516E+03  0.46926860305E+03  0.50635979029E+03  0.10188418196E+03 0.  0.
          5    1    1    2  502    0  0.41307977966E+02  0.96362444848E+02  0.13988826750E+03  0.17486643362E+03  0.41800000000E+01 0. -1.
         -5    1    1    2    0  502 -0.76827626570E+02  0.60306580309E+02  0.16395182868E+03  0.19088489296E+03  0.41800000000E+01 0. -1.
        -11    1    3    3    0    0  0.69327800919E+02 -0.12821352559E+03  0.34804905214E+03  0.37733697780E+03  0.00000000000E+00 0.  1.
         11    1    3    3    0    0 -0.33808152314E+02 -0.28455499570E+02  0.12121955092E+03  0.12902281249E+03  0.00000000000E+00 0. -1.
</event>
<event>
 7    1  0.6584658E-006  0.1048385E+03  0.7561462E-02  0.1270438E+00
          1   -1    0    0  501    0  0.00000000000E+00  0.00000000000E+00  0.83098326844E+02  0.83098326844E+02  0.00000000000E+00 0. -1.
         -1   -1    0    0    0  501 -0.00000000000E+00 -0.00000000000E+00 -0.18347593019E+03  0.18347593019E+03  0.00000000000E+00 0.  1.
         23    2    1    2    0    0 -0.24020455508E+02  0.47830196924E+02 -0.42735555898E+02  0.11881262383E+03  0.97084508669E+02 0.  0.
          5    1    1    2  502    0  0.10322577016E+02  0.23543059010E+02  0.26052607329E+02  0.36838050606E+02  0.41800000000E+01 0. -1.
         -5    1    1    2    0  502  0.13697878492E+02 -0.71373255934E+02 -0.83694654778E+02  0.11092358260E+03  0.41800000000E+01 0. -1.
        -11    1    3    3    0    0  0.34414173407E+01  0.73300732527E+02 -0.27122434677E+02  0.78233414888E+02  0.00000000000E+00 0. -1.
         11    1    3    3    0    0 -0.27461872849E+02 -0.25470535603E+02 -0.15613121221E+02  0.40579208944E+02  0.00000000000E+00 0.  1.
</event>
<event>
 7    1  0.6584658E-006  0.1370171E+03  0.7561462E-02  0.1217400E+00
         -1   -1    0    0    0  501 -0.00000000000E+00  0.00000000000E+00  0.79069984316E+02  0.79069984316E+02  0.00000000000E+00 0.  1.
          1   -1    0    0  501    0  0.00000000000E+00 -0.00000000000E+00 -0.38849517276E+03  0.38849517276E+03  0.00000000000E+00 0. -1.
         23    2    1    2    0    0  0.10272221705E+03  0.42937154390E+02 -0.25254123833E+03  0.29074084205E+03  0.91420495935E+02 0.  0.
          5    1    1    2  502    0 -0.11342941369E+03 -0.58747043442E+02 -0.76645899515E+02  0.14902856543E+03  0.41800000000E+01 0. -1.
         -5    1    1    2    0  502  0.10707196636E+02  0.15809889051E+02  0.19761949395E+02  0.27795749595E+02  0.41800000000E+01 0.  1.
        -11    1    3    3    0    0  0.13542973198E+02  0.34546719957E+02 -0.15029742436E+03  0.15481021850E+03  0.00000000000E+00 0. -1.
         11    1    3    3    0    0  0.89179243854E+02  0.83904344329E+01 -0.10224381397E+03  0.13593062355E+03  0.00000000000E+00 0.  1.
</event>
<event>
 7    1  0.6584658E-006  0.2298415E+03  0.7561462E-02  0.1126751E+00
          3   -1    0    0  501    0  0.00000000000E+00  0.00000000000E+00  0.18227139630E+03  0.18227139630E+03  0.00000000000E+00 0. -1.
         -3   -1    0    0    0  501 -0.00000000000E+00 -0.00000000000E+00 -0.32202498050E+03  0.32202498050E+03  0.00000000000E+00 0.  1.
         23    2    1    2    0    0 -0.21174053545E+03  0.41205760180E+02 -0.46060130344E+02  0.23791851981E+03  0.89172402876E+02 0.  0.
          5    1    1    2  502    0  0.14589672847E+03  0.24348081013E+02 -0.90216348266E+02  0.17330650975E+03  0.41800000000E+01 0.  1.
         -5    1    1    2    0  502  0.65843806978E+02 -0.65553841193E+02 -0.34771055869E+01  0.93071347233E+02  0.41800000000E+01 0.  1.
        -11    1    3    3    0    0 -0.97692464799E+02  0.75934163704E+00 -0.62235308424E+02  0.11583448490E+03  0.00000000000E+00 0.  1.
         11    1    3    3    0    0 -0.11404807065E+03  0.40446418543E+02  0.16175178080E+02  0.12208403491E+03  0.00000000000E+00 0. -1.
</event>
<event>
 7    1  0.6584658E-006  0.1609183E+03  0.7561462E-02  0.1187664E+00
          4   -1    0    0  501    0  0.00000000000E+00  0.00000000000E+00  0.47255913343E+02  0.47255913343E+02  0.00000000000E+00 0. -1.
         -4   -1    0    0    0  501 -0.00000000000E+00 -0.00000000000E+00 -0.62465292235E+03  0.62465292235E+03  0.00000000000E+00 0.  1.
         23    2    1    2    0    0  0.34460361721E+02 -0.12088148840E+03 -0.18906474065E+03  0.24500207819E+03  0.92090669394E+02 0.  0.
          5    1    1    2  502    0 -0.64024350866E+02  0.26178580029E+02 -0.97703534569E+02  0.11978267247E+03  0.41800000000E+01 0. -1.
         -5    1    1    2    0  502  0.29563989145E+02  0.94702908374E+02 -0.29062873379E+03  0.30712408504E+03  0.41800000000E+01 0. -1.
        -11    1    3    3    0    0 -0.29811960568E+02 -0.41657463283E+02 -0.85215196788E+02  0.99426993335E+02  0.00000000000E+00 0.  1.
         11    1    3    3    0    0  0.64272322290E+02 -0.79224025120E+02 -0.10384954386E+03  0.14557508485E+03  0.00000000000E+00 0. -1.
</event>
<event>
 7    1  0.6584658E-006  0.1038490E+03  0.7561462E-02  0.1272404E+00
          1   -1    0    0  501    0  0.00000000000E+00  0.00000000000E+00  0.30284701154E+03  0.30284701154E+03  0.00000000000E+00 0. -1.
         -1   -1    0    0    0  501 -0.00000000000E+00 -0.00000000000E+00 -0.56955118253E+02  0.56955118253E+02  0.00000000000E+00 0.  1.
         23    2    1    2    0    0  0.25355350598E+02 -0.12462085597E+02  0.20225897155E+03  0.22433475546E+03  0.92839611968E+02 0.  0.
          5    1    1    2  502    0 -0.45838024781E+02  0.51162291218E+02  0.57145994498E+02  0.89453013620E+02  0.41800000000E+01 0.  1.
         -5    1    1    2    0  502  0.20482674183E+02 -0.38700205621E+02 -0.13513072762E+02  0.46014360718E+02  0.41800000000E+01 0.  1.
        -11    1    3    3    0    0  0.45182352869E+02 -0.40416206607E+02  0.10537906438E+03  0.12157163311E+03  0.00000000000E+00 0.  1.
         11    1    3    3    0    0 -0.19827002271E+02  0.27954121011E+02  0.96879907171E+02  0.10276312234E+03  0.00000000000E+00 0. -1.
</event>
<event>
 7    1  0.6584658E-006  0.1294804E+03  0.7561462E-02  0.1228229E+00
         -1   -1    0    0    0  501 -0.00000000000E+00  0.00000000000E+00  0.11950805962E+03  0.11950805962E+03  0.00000000000E+00 0.  1.
          1   -1    0    0  501    0  0.00000000000E+00 -0.00000000000E+00 -0.18572611151E+03  0.18572611151E+03  0.00000000000E+00 0. -1.
         23    2    1    2    0    0  0.21772936362E+02 -0.97505080304E+02 -0.50434196310E+02  0.14435382038E+03  0.91176290004E+02 0.  0.
          5    1    1    2  502    0 -0.46806574362E+02  0.42548922424E+02  0.42920332290E+02  0.76556472795E+02  0.41800000000E+01 0.  1.
         -5    1    1    2    0  502  0.25033638000E+02  0.54956157880E+02 -0.58704187870E+02  0.84323877959E+02  0.41800000000E+01 0.  1.
        -11    1    3    3    0    0 -0.33966137096E+02 -0.56165902728E+02 -0.20372589795E+02  0.68726628853E+02  0.00000000000E+00 0.  1.
         11    1    3    3    0    0  0.55739073458E+02 -0.41339177576E+02 -0.30061606514E+02  0.75627191531E+02  0.00000000000E+00 0. -1.
</event>
<event>
 7    1  0.6584658E-006  0.2067187E+03  0.7561462E-02  0.1144191E+00
         -2   -1    0    0    0  501 -0.00000000000E+00  0.00000000000E+00  0.30456653701E+03  0.30456653701E+03  0.00000000000E+00 0.  1.
          2   -1    0    0  501    0  0.00000000000E+00 -0.00000000000E+00 -0.21184180130E+03  0.21184180130E+03  0.00000000000E+00 0. -1.
         23    2    1    2    0    0  0.18002366287E+03  0.69782317981E+02 -0.78448594654E+02  0.22965839559E+03  0.96491997432E+02 0.  0.
          5    1    1    2  502    0 -0.15256897804E+03 -0.22773995732E+02  0.65171947635E+02  0.16751359079E+03  0.41800000000E+01 0. -1.
         -5    1    1    2    0  502 -0.27454684827E+02 -0.47008322249E+02  0.10600138273E+03  0.11923635193E+03  0.41800000000E+01 0. -1.
        -11    1    3    3    0    0  0.87145244019E+02  0.69786439087E+02 -0.58932848520E+01  0.11179969339E+03  0.00000000000E+00 0.  1.
         11    1    3    3    0    0  0.92878418849E+02 -0.41211061167E-02 -0.72555309802E+02  0.11785870220E+03  0.00000000000E+00 0. -1.
</event>
<event>
 7    1  0.6584658E-006  0.1849657E+03  0.7561462E-02  0.1163082E+00
          2   -1    0    0  501    0  0.00000000000E+00  0.00000000000E+00  0.11912966868E+04  0.11912966868E+04  0.00000000000E+00 0. -1.
         -2   -1    0    0    0  501 -0.00000000000E+00 -0.00000000000E+00 -0.34320841083E+02  0.34320841083E+02  0.00000000000E+00 0.  1.
         23    2    1    2    0    0  0.10438053532E+03  0.13185329562E+03  0.62774689189E+03  0.65638822043E+03  0.92188654008E+02 0.  0.
          5    1    1    2  502    0  0.21539811639E+01 -0.46910118923E+02  0.41500087745E+02  0.62808666401E+02  0.41800000000E+01 0.  1.
         -5    1    1    2    0  502 -0.10653451649E+03 -0.84943176701E+02  0.48772886612E+03  0.50642064108E+03  0.41800000000E+01 0.  1.
        -11    1    3    3    0    0  0.21722834459E+02  0.92324219551E+02  0.39568907626E+03  0.40689739263E+03  0.00000000000E+00 0.  1.
         11    1    3    3    0    0  0.82657700862E+02  0.39529076072E+02  0.23205781563E+03  0.24949082781E+03  0.00000000000E+00 0. -1.
</event>
<event>
 7    1  0.6584658E-006  0.1151747E+03  0.7561462E-02  0.1251277E+00
         -1   -1    0    0    0  501 -0.00000000000E+00  0.00000000000E+00  0.82041019765E+02  0.82041019765E+02  0.00000000000E+00 0.  1.
          1   -1    0    0  501    0  0.00000000000E+00 -0.00000000000E+00 -0.21480157994E+03  0.21480157994E+03  0.00000000000E+00 0. -1.
         23    2    1    2    0    0 -0.71017048459E+02 -0.27363887565E+02 -0.71607162764E+02  0.13817334685E+03  0.90399582445E+02 0.  0.
          5    1    1    2  502    0 -0.26624266608E+02 -0.15955947576E+02 -0.38081691651E+02  0.49306505398E+02  0.41800000000E+01 0.  1.
         -5    1    1    2    0  502  0.97641315067E+02  0.43319835141E+02 -0.23071705759E+02  0.10936274746E+03  0.41800000000E+01 0.  1.
        -11    1    3    3    0    0 -0.20995255525E+02 -0.35700634234E+02  0.95235587669E+01  0.42497461228E+02  0.00000000000E+00 0.  1.
         11    1    3    3    0    0 -0.50021792934E+02  0.83367466693E+01 -0.81130721531E+02  0.95675885622E+02  0.00000000000E+00 0. -1.
</event>
<event>
 7    1  0.6584658E-006  0.7629673E+02  0.7561462E-02  0.1339902E+00
         -2   -1    0    0    0  501 -0.00000000000E+00  0.00000000000E+00  0.46321141873E+02  0.46321141873E+02  0.00000000000E+00 0.  1.
          2   -1    0    0  501    0  0.00000000000E+00 -0.00000000000E+00 -0.49616862192E+03  0.49616862192E+03  0.00000000000E+00 0. -1.
         23    2    1    2    0    0  0.80806547844E+01  0.15988843477E+02 -0.25376313415E+03  0.27588730519E+03  0.10675737359E+03 0.  0.
          5    1    1    2  502    0 -0.17922919681E+01  0.13365190910E+02 -0.22456677127E+03  0.22501010599E+03  0.41800000000E+01 0. -1.
         -5    1    1    2    0  502 -0.62883628162E+01 -0.29354034387E+02  0.28482425364E+02  0.41592352618E+02  0.41800000000E+01 0.  1.
        -11    1    3    3    0    0  0.37862470702E+02 -0.33402473817E+02 -0.12389074692E+03  0.13378418859E+03  0.00000000000E+00 0.  1.
         11    1    3    3    0    0 -0.29781815918E+02  0.49391317294E+02 -0.12987238723E+03  0.14210311660E+03  0.00000000000E+00 0. -1.
</event>
<event>
 7    1  0.6584658E-006  0.1154929E+03  0.7561462E-02  0.1250723E+00
         -1   -1    0    0    0  501 -0.00000000000E+00  0.00000000000E+00  0.60843165075E+02  0.60843165075E+02  0.00000000000E+00 0.  1.
          1   -1    0    0  501    0  0.00000000000E+00 -0.00000000000E+00 -0.26130613716E+03  0.26130613716E+03  0.00000000000E+00 0. -1.
         23    2    1    2    0    0 -0.52724880149E+02  0.23438466827E+02 -0.11533449399E+03  0.16021280319E+03  0.95062201145E+02 0.  0.
          5    1    1    2  502    0  0.80472724073E+02 -0.43463060557E+02 -0.88452261352E+02  0.12730346378E+03  0.41800000000E+01 0.  1.
         -5    1    1    2    0  502 -0.27747843923E+02  0.20024593730E+02  0.33237832619E+01  0.34633035265E+02  0.41800000000E+01 0.  1.
        -11    1    3    3    0    0 -0.18596349238E+02 -0.33649166573E+02 -0.69542296156E+02  0.79462076305E+02  0.00000000000E+00 0. -1.
         11    1    3    3    0    0 -0.34128530911E+02  0.57087633400E+02 -0.45792197838E+02  0.80750726883E+02  0.00000000000E+00 0.  1.
</event>
<event>
 7    1  0.6584658E-006  0.1258218E+03  0.7561462E-02  0.1233791E+00
         -2   -1    0    0    0  501 -0.00000000000E+00  0.00000000000E+00  0.61027828548E+02  0.61027828548E+02  0.00000000000E+00 0.  1.
          2   -1    0    0  501    0  0.00000000000E+00 -0.00000000000E+00 -0.33821948625E+03  0.33821948625E+03  0.00000000000E+00 0. -1.
         23    2    1    2    0    0 -0.72118054036E+02  0.63853111657E+02 -0.11400837795E+03  0.17218963671E+03  0.85866915398E+02 0.  0.
          5    1    1    2  502    0  0.91678735132E+02 -0.85523708684E+02 -0.14758473531E+03  0.19369569360E+03  0.41800000000E+01 0.  1.
         -5    1    1    2    0  502 -0.19560681096E+02  0.21670597028E+02 -0.15598544437E+02  0.33361984488E+02  0.41800000000E+01 0.  1.
        -11    1    3    3    0    0 -0.23369945928E+02  0.15486328385E+02  0.10550766631E+02  0.29954956451E+02  0.00000000000E+00 0.  1.
         11    1    3    3    0    0 -0.48748108108E+02  0.48366783272E+02 -0.12455914458E+03  0.14223468026E+03  0.00000000000E+00 0. -1.
</event>
<event>
 7    1  0.6584658E-006  0.4123786E+03  0.7561462E-02  0.1039576E+00
          2   -1    0    0  501    0  0.00000000000E+00  0.00000000000E+00  0.10982537746E+04  0.10982537746E+04  0.00000000000E+00 0. -1.
         -2   -1    0    0    0  501 -0.00000000000E+00 -0.00000000000E+00 -0.24849982855E+03  0.24849982855E+03  0.00000000000E+00 0.  1.
         23    2    1    2    0    0  0.35474535223E+03 -0.17944634019E+03  0.83536733762E+03  0.92974694918E+03  0.92442126749E+02 0.  0.
          5    1    1    2  502    0 -0.59562995772E+02 -0.17041576928E+02  0.42392066645E+01  0.62238324870E+02  0.41800000000E+01 0. -1.
         -5    1    1    2    0  502 -0.29518235646E+03  0.19648791712E+03  0.10147401713E+02  0.35476832906E+03  0.41800000000E+01 0. -1.
        -11    1    3    3    0    0  0.36907034722E+02 -0.56005547460E+02  0.12928741139E+03  0.14565021559E+03  0.00000000000E+00 0. -1.
         11    1    3    3    0    0  0.31783831751E+03 -0.12344079273E+03  0.70607992623E+03  0.78409673358E+03  0.00000000000E+00 0.  1.
</event>
<event>
 7    1  0.6584658E-006  0.7665839E+02  0.7561462E-02  0.1338811E+00
         -2   -1    0    0    0  501 -0.00000000000E+00  0.00000000000E+00  0.41462713943E+02  0.41462713943E+02  0.00000000000E+00 0.  1.
          2   -1    0    0  501    0  0.00000000000E+00 -0.00000000000E+00 -0.29844311210E+03  0.29844311210E+03  0.00000000000E+00 0. -1.
         23    2    1    2    0    0  0.35982087443E+01  0.15574698160E+02 -0.14543542335E+03  0.17154202886E+03  0.89552704998E+02 0.  0.
          5    1    1    2  502    0  0.10184750917E+01  0.23918627428E+02  0.19624271560E+02  0.31236556530E+02  0.41800000000E+01 0. -1.
         -5    1    1    2    0  502 -0.46166838361E+01 -0.39493325589E+02 -0.13116924637E+03  0.13712724065E+03  0.41800000000E+01 0. -1.
        -11    1    3    3    0    0  0.18230600315E+02  0.49142237300E+02 -0.67746371765E+02  0.85655619559E+02  0.00000000000E+00 0.  1.
         11    1    3    3    0    0 -0.14632391571E+02 -0.33567539140E+02 -0.77689051580E+02  0.85886409300E+02  0.00000000000E+00 0. -1.
</event>
<event>
 7    1  0.6584658E-006  0.1355544E+03  0.7561462E-02  0.1219439E+00
          1   -1    0    0  501    0  0.00000000000E+00  0.00000000000E+00  0.98172155011E+02  0.98172155011E+02  0.00000000000E+00 0. -1.
         -1   -1    0    0    0  501 -0.00000000000E+00 -0.00000000000E+00 -0.26664809245E+03  0.26664809245E+03  0.00000000000E+00 0.  1.
         23    2    1    2    0    0 -0.34505287463E+01 -0.85016887489E+02  0.16777294390E+02  0.12564206834E+03  0.90910254778E+02 0.  0.
          5    1    1    2  502    0 -0.56832650138E+02  0.26647764556E+02 -0.51844815399E+02  0.81519388868E+02  0.41800000000E+01 0.  1.
         -5    1    1    2    0  502  0.60283178884E+02  0.58369122933E+02 -0.13340841643E+03  0.15765879025E+03  0.41800000000E+01 0.  1.
        -11    1    3    3    0    0 -0.37938307933E+02 -0.81024934396E+02  0.16183293125E+02  0.90918942906E+02  0.00000000000E+00 0. -1.
         11    1    3    3    0    0  0.34487779187E+02 -0.39919530929E+01  0.59400126509E+00  0.34723125439E+02  0.00000000000E+00 0.  1.
</event>
<event>
 7    1  0.6584658E-006  0.1144515E+03  0.7561462E-02  0.1252542E+00
         -2   -1    0    0    0  501 -0.00000000000E+00  0.00000000000E+00  0.56768292305E+02  0.56768292305E+02  0.00000000000E+00 0.  1.
          2   -1    0    0  501    0  0.00000000000E+00 -0.00000000000E+00 -0.36460771142E+03  0.36460771142E+03  0.00000000000E+00 0. -1.
         23    2    1    2    0    0  0.59545412427E+02  0.49531129981E+02 -0.20388026579E+03  0.24122603596E+03  0.10307205571E+03 0.  0.
          5    1    1    2  502    0 -0.11290098986E+01 -0.49665971308E+02  0.11071153220E+02  0.51068837885E+02  0.41800000000E+01 0. -1.
         -5    1    1    2    0  502 -0.58416402529E+02  0.13484132646E+00 -0.11503030655E+03  0.12908112988E+03  0.41800000000E+01 0. -1.
        -11    1    3    3    0    0  0.78194529371E+02  0.12727240481E+02 -0.88955586464E+02  0.11911953424E+03  0.00000000000E+00 0.  1.
         11    1    3    3    0    0 -0.18649116944E+02  0.36803889500E+02 -0.11492467932E+03  0.12210650172E+03  0.00000000000E+00 0. -1.
</event>
<event>
 7    1  0.6584658E-006  0.9506163E+02  0.7561462E-02  0.1291037E+00
          1   -1    0    0  501    0  0.00000000000E+00  0.00000000000E+00  0.16101925345E+03  0.16101925345E+03  0.00000000000E+00 0. -1.
         -1   -1    0    0    0  501 -0.00000000000E+00 -0.00000000000E+00 -0.11381782199E+03  0.11381782199E+03  0.00000000000E+00 0.  1.
         23    2    1    2    0    0 -0.18138034249E+02  0.26950116625E+02  0.84780606540E+02  0.12927290421E+03  0.92024102526E+02 0.  0.
          5    1    1    2  502    0  0.59820213181E+02 -0.45007098345E+01  0.26556715371E+02  0.65737704746E+02  0.41800000000E+01 0. -1.
         -5    1    1    2    0  502 -0.41682178932E+02 -0.22449406790E+02 -0.64135890455E+02  0.79826466477E+02  0.41800000000E+01 0.  1.
        -11    1    3    3    0    0  0.48413775350E+01 -0.25100793009E+02 -0.18477739563E+01  0.25630119287E+02  0.00000000000E+00 0.  1.
         11    1    3    3    0    0 -0.22979411784E+02  0.52050909633E+02  0.86628380496E+02  0.10364278492E+03  0.00000000000E+00 0. -1.
</event>
<event>
 7    1  0.6584658E-006  0.1170766E+03  0.7561462E-02  0.1247999E+00
          2   -1    0    0  501    0  0.00000000000E+00  0.00000000000E+00  0.33523093041E+03  0.33523093041E+03  0.00000000000E+00 0. -1.
         -2   -1    0    0    0  501 -0.00000000000E+00 -0.00000000000E+00 -0.55871409257E+02  0.55871409257E+02  0.00000000000E+00 0.  1.
         23    2    1    2    0    0  0.79721905492E+02 -0.77017980710E+01  0.15658894809E+03  0.19839827927E+03  0.91798031814E+02 0.  0.
          5    1    1    2  502    0 -0.34482017499E+02 -0.56206215727E+02  0.78692608813E+02  0.10275284570E+03  0.41800000000E+01 0. -1.
         -5    1    1    2    0  502 -0.45239887993E+02  0.63908013798E+02  0.44077964248E+02  0.89951214697E+02  0.41800000000E+01 0. -1.
        -11    1    3    3    0    0  0.64400667963E+02 -0.22645997030E+02  0.38477372626E+02  0.78363227471E+02  0.00000000000E+00 0.  1.
         11    1    3    3    0    0  0.15321237529E+02  0.14944198959E+02  0.11811157546E+03  0.12003505180E+03  0.00000000000E+00 0. -1.
</event>
<event>
 7    1  0.6584658E-006  0.1173174E+03  0.7561462E-02  0.1247589E+00
          2   -1    0    0  501    0  0.00000000000E+00  0.00000000000E+00  0.15056784041E+03  0.15056784041E+03  0.00000000000E+00 0. -1.
         -2   -1    0    0    0  501 -0.00000000000E+00 -0.00000000000E+00 -0.14911829717E+03  0.14911829717E+03  0.00000000000E+00 0.  1.
         23    2    1    2    0    0 -0.77526693594E+02 -0.15291505445E+02  0.56029844269E+02  0.14198115863E+03  0.10380311941E+03 0.  0.
          5    1    1    2  502    0 -0.30992474286E+02  0.23123135239E+02 -0.17861215462E+02  0.42798460994E+02  0.41800000000E+01 0.  1.
         -5    1    1    2    0  502  0.10851916788E+03 -0.78316297944E+01 -0.36719085576E+02  0.11490651795E+03  0.41800000000E+01 0.  1.
        -11    1    3    3    0    0 -0.55382130519E+02 -0.27216851789E+02 -0.17603884319E+02  0.64170352541E+02  0.00000000000E+00 0.  1.
         11    1    3    3    0    0 -0.22144563074E+02  0.11925346344E+02  0.73633728588E+02  0.77810806093E+02  0.00000000000E+00 0. -1.
</event>
<event>
 7    1  0.6584658E-006  0.1078072E+03  0.7561462E-02  0.1264685E+00
         -3   -1    0    0    0  501 -0.00000000000E+00  0.00000000000E+00  0.80943367432E+02  0.80943367432E+02  0.00000000000E+00 0.  1.
          3   -1    0    0  501    0  0.00000000000E+00 -0.00000000000E+00 -0.18967550184E+03  0.18967550184E+03  0.00000000000E+00 0. -1.
         23    2    1    2    0    0 -0.15510867311E+02  0.52098319140E+02 -0.16097630028E+02  0.10572738257E+03  0.89243060627E+02 0.  0.
          5    1    1    2  502    0 -0.41786520912E+02 -0.42901839555E+02 -0.57274465254E+01  0.60307190374E+02  0.41800000000E+01 0. -1.
         -5    1    1    2    0  502  0.57297388224E+02 -0.91964795852E+01 -0.86907057852E+02  0.10458429633E+03  0.41800000000E+01 0. -1.
        -11    1    3    3    0    0 -0.45865135921E+02  0.12562755838E+02 -0.27028172086E+02  0.54698771592E+02  0.00000000000E+00 0.  1.
         11    1    3    3    0    0  0.30354268610E+02  0.39535563302E+02  0.10930542057E+02  0.51028610976E+02  0.00000000000E+00 0. -1.
</event>
<event>
 7    1  0.6584658E-006  0.1760153E+03  0.7561462E-02  0.1171716E+00
          2   -1    0    0  501    0  0.00000000000E+00  0.00000000000E+00  0.12422298404E+04  0.12422298404E+04  0.00000000000E+00 0. -1.
         -2   -1    0    0    0  501 -0.00000000000E+00 -0.00000000000E+00 -0.27892921628E+02  0.27892921628E+02  0.00000000000E+00 0.  1.
         23    2    1    2    0    0 -0.98041644805E+02 -0.10697707541E+03  0.42391165242E+03  0.45681085207E+03  0.88987677417E+02 0.  0.
          5    1    1    2  502    0  0.12615023984E+03  0.89700271259E+02  0.70110087061E+03  0.71799716214E+03  0.41800000000E+01 0. -1.
         -5    1    1    2    0  502 -0.28108595038E+02  0.17276804148E+02  0.89324395754E+02  0.95314747828E+02  0.41800000000E+01 0. -1.
        -11    1    3    3    0    0 -0.51444729367E+02 -0.48518402321E+01  0.81803940652E+02  0.96757352379E+02  0.00000000000E+00 0.  1.
         11    1    3    3    0    0 -0.46596915438E+02 -0.10212523517E+03  0.34210771176E+03  0.36005349969E+03  0.00000000000E+00 0. -1.
</event>
<event>
 7    1  0.6584658E-006  0.1874668E+03  0.7561462E-02  0.1160766E+00
          1   -1    0    0  501    0  0.00000000000E+00  0.00000000000E+00  0.10219902245E+04  0.10219902245E+04  0.00000000000E+00 0. -1.
         -1   -1    0    0    0  501 -0.00000000000E+00 -0.00000000000E+00 -0.40424312890E+02  0.40424312890E+02  0.00000000000E+00 0.  1.
         23    2    1    2    0    0 -0.49869378609E+02  0.16068504064E+03  0.58164739534E+03  0.61235358181E+03  0.91414328399E+02 0.  0.
          5    1    1    2  502    0  0.82523353472E+02 -0.91221749932E+02  0.18872766301E+03  0.22531558915E+03  0.41800000000E+01 0. -1.
         -5    1    1    2    0  502 -0.32653974863E+02 -0.69463290713E+02  0.21119085322E+03  0.22474536639E+03  0.41800000000E+01 0.  1.
        -11    1    3    3    0    0 -0.17362111759E+02  0.12696011476E+03  0.51622359111E+03  0.53189012934E+03  0.00000000000E+00 0. -1.
         11    1    3    3    0    0 -0.32507266850E+02  0.33724925883E+02  0.65423804228E+02  0.80463452470E+02  0.00000000000E+00 0.  1.
</event>
<event>
 7    1  0.6584658E-006  0.1127291E+03  0.7561462E-02  0.1255598E+00
         -3   -1    0    0    0  501 -0.00000000000E+00  0.00000000000E+00  0.11116396876E+04  0.11116396876E+04  0.00000000000E+00 0.  1.
          3   -1    0    0  501    0  0.00000000000E+00 -0.00000000000E+00 -0.17348584636E+02  0.17348584636E+02  0.00000000000E+00 0. -1.
         23    2    1    2    0    0 -0.38214430047E+02 -0.47116623710E+02  0.25093232788E+03  0.27424783530E+03  0.92544708655E+02 0.  0.
          5    1    1    2  502    0 -0.37011024273E+02  0.39992533848E+02  0.50893952161E+03  0.51186534141E+03  0.41800000000E+01 0.  1.
         -5    1    1    2    0  502  0.75225454320E+02  0.71240898619E+01  0.33441925348E+03  0.34287509552E+03  0.41800000000E+01 0.  1.
        -11    1    3    3    0    0 -0.48609009555E+02 -0.18062276930E+01  0.19759921648E+03  0.20349827670E+03  0.00000000000E+00 0.  1.
         11    1    3    3    0    0  0.10394579508E+02 -0.45310396017E+02  0.53333111399E+02  0.70749558598E+02  0.00000000000E+00 0. -1.
</event>
<event>
 7    1  0.6584658E-006  0.1129746E+03  0.7561462E-02  0.1255158E+00
         -1   -1    0    0    0  501 -0.00000000000E+00  0.00000000000E+00  0.19663865851E+02  0.19663865851E+02  0.00000000000E+00 0.  1.
          1   -1    0    0  501    0  0.00000000000E+00 -0.00000000000E+00 -0.69475070159E+03  0.69475070159E+03  0.00000000000E+00 0. -1.
         23    2    1    2    0    0 -0.39632119825E+02 -0.16006559988E+02 -0.27018405407E+03  0.28847961385E+03  0.91619592072E+02 0.  0.
          5    1    1    2  502    0  0.31310091741E+02  0.69080185285E+02 -0.27504615122E+03  0.28534234096E+03  0.41800000000E+01 0. -1.
         -5    1    1    2    0  502  0.83220280840E+01 -0.53073625297E+02 -0.12985663044E+03  0.14059261262E+03  0.41800000000E+01 0. -1.
        -11    1    3    3    0    0  0.25726110844E+02 -0.16829199382E+02 -0.49048064581E+02  0.57885813202E+02  0.00000000000E+00 0.  1.
         11    1    3    3    0    0 -0.65358230669E+02  0.82263939422E+00 -0.22113598949E+03  0.23059380065E+03  0.00000000000E+00 0. -1.
</event>
<event>
 7    1  0.6584658E-006  0.1036285E+03  0.7561462E-02  0.1272846E+00
         -2   -1    0    0    0  501 -0.00000000000E+00  0.00000000000E+00  0.30958073463E+02  0.30958073463E+02  0.00000000000E+00 0.  1.
          2   -1    0    0  501    0  0.00000000000E+00 -0.00000000000E+00 -0.45749052409E+03  0.45749052409E+03  0.00000000000E+00 0. -1.
         23    2    1    2    0    0  0.33150907907E+02 -0.32799941830E+02 -0.20503535008E+03  0.22983240824E+03  0.92782661185E+02 0.  0.
          5    1    1    2  502    0  0.41477310821E+02  0.24179243089E+02 -0.13823365176E+03  0.14639336729E+03  0.41800000000E+01 0. -1.
         -5    1    1    2    0  502 -0.74628218728E+02  0.86206987407E+01 -0.83263448791E+02  0.11222282202E+03  0.41800000000E+01 0. -1.
        -11    1    3    3    0    0  0.12418071048E+02 -0.53264305376E+02 -0.18863050378E+03  0.19639949509E+03  0.00000000000E+00 0. -1.
         11    1    3    3    0    0  0.20732836859E+02  0.20464363547E+02 -0.16404846299E+02  0.33432913150E+02  0.00000000000E+00 0.  1.
</event>
<event>
 7    1  0.6584658E-006  0.2069052E+03  0.7561462E-02  0.1144040E+00
          1   -1    0    0  501    0  0.00000000000E+00  0.00000000000E+00  0.51401646028E+03  0.51401646028E+03  0.00000000000E+00 0. -1.
         -1   -1    0    0    0  501 -0.00000000000E+00 -0.00000000000E+00 -0.11008728968E+03  0.11008728968E+03  0.00000000000E+00 0.  1.
         23    2    1    2    0    0 -0.12633107003E+03  0.13056405987E+03  0.33657487000E+03  0.39347466962E+03  0.92375102356E+02 0.  0.
          5    1    1    2  502    0  0.70134237556E+02 -0.27213853232E+01 -0.98614759292E+01  0.70999565655E+02  0.41800000000E+01 0.  1.
         -5    1    1    2    0  502  0.56196832475E+02 -0.12784267454E+03  0.77215776524E+02  0.15962951468E+03  0.41800000000E+01 0.  1.
        -11    1    3    3    0    0 -0.40405521067E+02  0.10746688591E+03  0.19269617445E+03  0.22430682858E+03  0.00000000000E+00 0.  1.
         11    1    3    3    0    0 -0.85925548964E+02  0.23097173952E+02  0.14387869555E+03  0.16916784104E+03  0.00000000000E+00 0. -1.
</event>
<event>
 7    1  0.6584658E-006  0.1170262E+03  0.7561462E-02  0.1248085E+00
          2   -1    0    0  501    0  0.00000000000E+00  0.00000000000E+00  0.95837969990E+03  0.95837969990E+03  0.00000000000E+00 0. -1.
         -2   -1    0    0    0  501 -0.00000000000E+00 -0.00000000000E+00 -0.19889915808E+02  0.19889915808E+02  0.00000000000E+00 0.  1.
         23    2    1    2    0    0 -0.31027917068E+02  0.61104991218E+02  0.25248195323E+03  0.27759031087E+03  0.92804592501E+02 0.  0.
          5    1    1    2  502    0 -0.42655248223E+02 -0.45073813434E+02  0.40283564282E+03  0.40760906072E+03  0.41800000000E+01 0.  1.
         -5    1    1    2    0  502  0.73683165290E+02 -0.16031177784E+02  0.28317218803E+03  0.29307024411E+03  0.41800000000E+01 0.  1.
        -11    1    3    3    0    0  0.19314176001E+02  0.31570830915E+01  0.76593218374E+01  0.21015941074E+02  0.00000000000E+00 0. -1.
         11    1    3    3    0    0 -0.50342093068E+02  0.57947908127E+02  0.24482263140E+03  0.25657436979E+03  0.00000000000E+00 0.  1.
</event>
<event>
 7    1  0.6584658E-006  0.1126224E+03  0.7561462E-02  0.1255789E+00
         -2   -1    0    0    0  501 -0.00000000000E+00  0.00000000000E+00  0.81240435944E+03  0.81240435944E+03  0.00000000000E+00 0.  1.
          2   -1    0    0  501    0  0.00000000000E+00 -0.00000000000E+00 -0.19283624560E+02  0.19283624560E+02  0.00000000000E+00 0. -1.
         23    2    1    2    0    0 -0.54198505753E+02  0.27419186217E+02  0.29310597334E+03  0.31269716558E+03  0.90438465016E+02 0.  0.
          5    1    1    2  502    0  0.29900477548E+02  0.40005005833E+02  0.92542798881E+02  0.10524296211E+03  0.41800000000E+01 0.  1.
         -5    1    1    2    0  502  0.24298028206E+02 -0.67424192050E+02  0.40747196266E+03  0.41374785631E+03  0.41800000000E+01 0.  1.
        -11    1    3    3    0    0  0.18004702486E+02 -0.11447370596E+02  0.11027221312E+03  0.11231728536E+03  0.00000000000E+00 0.  1.
         11    1    3    3    0    0 -0.72203208240E+02  0.38866556813E+02  0.18283376022E+03  0.20037988022E+03  0.00000000000E+00 0. -1.
</event>
<event>
 7    1  0.6584658E-006  0.1150676E+03  0.7561462E-02  0.1251463E+00
         -1   -1    0    0    0  501 -0.00000000000E+00  0.00000000000E+00  0.19588823794E+02  0.19588823794E+02  0.00000000000E+00 0.  1.
          1   -1    0    0  501    0  0.00000000000E+00 -0.00000000000E+00 -0.85874029368E+03  0.85874029368E+03  0.00000000000E+00 0. -1.
         23    2    1    2    0    0 -0.70655244710E+02 -0.79773898317E+01 -0.38561938826E+03  0.40251976495E+03  0.90906799657E+02 0.  0.
          5    1    1    2  502    0  0.19518540045E+02 -0.55044545742E+02 -0.24744450732E+03  0.25427766717E+03  0.41800000000E+01 0.  1.
         -5    1    1    2    0  502  0.51136704666E+02  0.63021935574E+02 -0.20608757431E+03  0.22153168535E+03  0.41800000000E+01 0.  1.
        -11    1    3    3    0    0 -0.12010385843E+02 -0.26270004906E+02 -0.30046478608E+02  0.41679172288E+02  0.00000000000E+00 0.  1.
         11    1    3    3    0    0 -0.58644858867E+02  0.18292615075E+02 -0.35557290965E+03  0.36084059266E+03  0.00000000000E+00 0. -1.
</event>
<event>
 7    1  0.6584658E-006  0.1002478E+03  0.7561462E-02  0.1279776E+00
         -1   -1    0    0    0  501 -0.00000000000E+00  0.00000000000E+00  0.64268288450E+02  0.64268288450E+02  0.00000000000E+00 0.  1.
          1   -1    0    0  501    0  0.00000000000E+00 -0.00000000000E+00 -0.39226515795E+03  0.39226515795E+03  0.00000000000E+00 0. -1.
         23    2    1    2    0    0  0.26075524451E+02  0.33608718114E+02 -0.30624211997E+03  0.32262608550E+03  0.92162227042E+02 0.  0.
          5    1    1    2  502    0 -0.30100845478E+02  0.32566595794E+02 -0.45202172641E+02  0.63461428219E+02  0.41800000000E+01 0.  1.
         -5    1    1    2    0  502  0.40253210276E+01 -0.66175313908E+02  0.23447423114E+02  0.70445932678E+02  0.41800000000E+01 0.  1.
        -11    1    3    3    0    0 -0.13153675854E+01  0.54847055470E+02 -0.25451097698E+03  0.26035699931E+03  0.00000000000E+00 0.  1.
         11    1    3    3    0    0  0.27390892036E+02 -0.21238337356E+02 -0.51731142990E+02  0.62269086193E+02  0.00000000000E+00 0. -1.
</event>
<event>
 7    1  0.6584658E-006  0.1527991E+03  0.7561462E-02  0.1197075E+00
          1   -1    0    0  501    0  0.00000000000E+00  0.00000000000E+00  0.87963171696E+03  0.87963171696E+03  0.00000000000E+00 0. -1.
         -1   -1    0    0    0  501 -0.00000000000E+00 -0.00000000000E+00 -0.41490432888E+02  0.41490432888E+02  0.00000000000E+00 0.  1.
         23    2    1    2    0    0  0.14856993886E+02  0.13910636620E+03  0.55123870563E+03  0.57829261651E+03  0.10481854958E+03 0.  0.
          5    1    1    2  502    0 -0.38141536021E+02 -0.84934803716E+02  0.66122656161E+02  0.11427325019E+03  0.41800000000E+01 0.  1.
         -5    1    1    2    0  502  0.23284542135E+02 -0.54171562484E+02  0.22077992228E+03  0.22855628315E+03  0.41800000000E+01 0.  1.
        -11    1    3    3    0    0 -0.22009680439E+02  0.24682431685E+02  0.34642522176E+02  0.47893139484E+02  0.00000000000E+00 0.  1.
         11    1    3    3    0    0  0.36866674325E+02  0.11442393451E+03  0.51659618346E+03  0.53039947703E+03  0.00000000000E+00 0. -1.
</event>
<event>
 7    1  0.6584658E-006  0.1061665E+03  0.7561462E-02  0.1267838E+00
          2   -1    0    0  501    0  0.00000000000E+00  0.00000000000E+00  0.97612027458E+03  0.97612027458E+03  0.00000000000E+00 0. -1.
         -2   -1    0    0    0  501 -0.00000000000E+00 -0.00000000000E+00 -0.21391485132E+02  0.21391485132E+02  0.00000000000E+00 0.  1.
         23    2    1    2    0    0  0.85664405309E+02  0.14422215910E+02  0.58485049201E+03  0.59750884357E+03  0.86141334438E+02 0.  0.
          5    1    1    2  502    0 -0.32778077435E+01 -0.60264414025E+01  0.27030919278E+03  0.27042853792E+03  0.41800000000E+01 0.  1.
         -5    1    1    2    0  502 -0.82386597565E+02 -0.83957745074E+01  0.99569104663E+02  0.12957437822E+03  0.41800000000E+01 0.  1.
        -11    1    3    3    0    0  0.22988649237E+02  0.45832612149E+02  0.21090215348E+03  0.21704567416E+03  0.00000000000E+00 0.  1.
         11    1    3    3    0    0  0.62675756071E+02 -0.31410396239E+02  0.37394833853E+03  0.38046316941E+03  0.00000000000E+00 0. -1.
</event>
<event>
 7    1  0.6584658E-006  0.9796251E+02  0.7561462E-02  0.1284640E+00
         -3   -1    0    0    0  501 -0.00000000000E+00  0.00000000000E+00  0.15255607424E+03  0.15255607424E+03  0.00000000000E+00 0.  1.
          3   -1    0    0  501    0  0.00000000000E+00 -0.00000000000E+00 -0.92493584792E+02  0.92493584792E+02  0.00000000000E+00 0. -1.
         23    2    1    2    0    0  0.24361667947E+02  0.23687616851E+02  0.39631974628E+02  0.11382802702E+03  0.10115103690E+03 0.  0.
          5    1    1    2  502    0 -0.57215146468E+02 -0.21972739469E+02  0.55618666493E+02  0.82869069788E+02  0.41800000000E+01 0.  1.
         -5    1    1    2    0  502  0.32853478521E+02 -0.17148773821E+01 -0.35188151672E+02  0.48352562222E+02  0.41800000000E+01 0.  1.
        -11    1    3    3    0    0 -0.19305116793E+02  0.47727417914E+02  0.37938483144E+02  0.63952501580E+02  0.00000000000E+00 0.  1.
         11    1    3    3    0    0  0.43666784740E+02 -0.24039801062E+02  0.16934914835E+01  0.49875525442E+02  0.00000000000E+00 0. -1.
</event>
<event>
 7    1  0.6584658E-006  0.3300254E+03  0.7561462E-02  0.1071126E+00
          1   -1    0    0  501    0  0.00000000000E+00  0.00000000000E+00  0.71416447510E+03  0.71416447510E+03  0.00000000000E+00 0. -1.
         -1   -1    0    0    0  501 -0.00000000000E+00 -0.00000000000E+00 -0.26410501100E+03  0.26410501100E+03  0.00000000000E+00 0.  1.
         23    2    1    2    0    0 -0.31938342573E+03 -0.32399113164E+02  0.52800998473E+03  0.62503070570E+03  0.93879518132E+02 0.  0.
          5    1    1    2  502    0  0.10838596559E+03 -0.17173547168E+02  0.25951355035E+02  0.11284233908E+03  0.41800000000E+01 0. -1.
         -5    1    1    2    0  502  0.21099746014E+03  0.49572660332E+02 -0.10390187567E+03  0.24039644133E+03  0.41800000000E+01 0. -1.
        -11    1    3    3    0    0 -0.79791402625E+02  0.31016391744E+02  0.11503383090E+03  0.14339270115E+03  0.00000000000E+00 0.  1.
         11    1    3    3    0    0 -0.23959202311E+03 -0.63415504908E+02  0.41297615383E+03  0.48163800455E+03  0.00000000000E+00 0. -1.
</event>
<event>
 7    1  0.6584658E-006  0.1187041E+03  0.7561462E-02  0.1245250E+00
         -1   -1    0    0    0  501 -0.00000000000E+00  0.00000000000E+00  0.79844602553E+02  0.79844602553E+02  0.00000000000E+00 0.  1.
          1   -1    0    0  501    0  0.00000000000E+00 -0.00000000000E+00 -0.25650588134E+03  0.25650588134E+03  0.00000000000E+00 0. -1.
         23    2    1    2    0    0 -0.26980821760E+02  0.83802593607E+02 -0.11522479958E+03  0.17150760321E+03  0.91582007420E+02 0.  0.
          5    1    1    2  502    0  0.44178326737E+02 -0.96497751943E+02 -0.82541547945E+02  0.13451438667E+03  0.41800000000E+01 0. -1.
         -5    1    1    2    0  502 -0.17197504977E+02  0.12695158335E+02  0.21105068740E+02  0.30328494013E+02  0.41800000000E+01 0. -1.
        -11    1    3    3    0    0 -0.41518150056E+02  0.24179751580E+02 -0.95739563169E+02  0.10711900451E+03  0.00000000000E+00 0. -1.
         11    1    3    3    0    0  0.14537328296E+02  0.59622842028E+02 -0.19485236414E+02  0.64388598708E+02  0.00000000000E+00 0.  1.
</event>
<event>
 7    1  0.6584658E-006  0.1209772E+03  0.7561462E-02  0.1241494E+00
         -1   -1    0    0    0  501 -0.00000000000E+00  0.00000000000E+00  0.58245287656E+03  0.58245287656E+03  0.00000000000E+00 0.  1.
          1   -1    0    0  501    0  0.00000000000E+00 -0.00000000000E+00 -0.35883897386E+02  0.35883897386E+02  0.00000000000E+00 0. -1.
         23    2    1    2    0    0  0.48886438505E+02  0.43589912386E+02  0.10657638853E+03  0.15847690013E+03  0.97295616309E+02 0.  0.
          5    1    1    2  502    0 -0.81639790765E+02 -0.45213709130E+01  0.24769537625E+03  0.26087539180E+03  0.41800000000E+01 0. -1.
         -5    1    1    2    0  502  0.32753352260E+02 -0.39068541473E+02  0.19229721440E+03  0.19898448201E+03  0.41800000000E+01 0.  1.
        -11    1    3    3    0    0  0.70538346274E+02  0.13434206319E+02  0.95985048119E+02  0.11987187183E+03  0.00000000000E+00 0.  1.
         11    1    3    3    0    0 -0.21651907769E+02  0.30155706067E+02  0.10591340410E+02  0.38605028301E+02  0.00000000000E+00 0. -1.
</event>
<event>
 7    1  0.6584658E-006  0.1333507E+03  0.7561462E-02  0.1222567E+00
         -1   -1    0    0    0  501 -0.00000000000E+00  0.00000000000E+00  0.24069617507E+03  0.24069617507E+03  0.00000000000E+00 0.  1.
          1   -1    0    0  501    0  0.00000000000E+00 -0.00000000000E+00 -0.12746094795E+03  0.12746094795E+03  0.00000000000E+00 0. -1.
         23    2    1    2    0    0  0.39752483410E+02 -0.94687373215E+02 -0.28224703137E+02  0.15319975651E+03  0.11012526025E+03 0.  0.
          5    1    1    2  502    0 -0.45153227864E+02  0.33110003401E+02  0.14232131147E+03  0.15299645228E+03  0.41800000000E+01 0.  1.
         -5    1    1    2    0  502  0.54007444545E+01  0.61577369815E+02 -0.86138121780E+00  0.61960914225E+02  0.41800000000E+01 0.  1.
        -11    1    3    3    0    0 -0.32500364002E+02 -0.60475990392E+02 -0.25410029516E+02  0.73207162724E+02  0.00000000000E+00 0. -1.
         11    1    3    3    0    0  0.72252847411E+02 -0.34211382824E+02 -0.28146736208E+01  0.79992593791E+02  0.00000000000E+00 0.  1.
</event>
<event>
 7    1  0.6584658E-006  0.7593598E+02  0.7561462E-02  0.1340997E+00
         -1   -1    0    0    0  501 -0.00000000000E+00  0.00000000000E+00  0.78300641133E+02  0.78300641133E+02  0.00000000000E+00 0.  1.
          1   -1    0    0  501    0  0.00000000000E+00 -0.00000000000E+00 -0.17740511868E+03  0.17740511868E+03  0.00000000000E+00 0. -1.
         23    2    1    2    0    0 -0.45400074489E+02 -0.22074804370E+01 -0.26938502288E+02  0.10430950538E+03  0.89937479803E+02 0.  0.
          5    1    1    2  502    0 -0.11587397296E+02  0.21353839181E+01 -0.90520764823E+02  0.91380024648E+02  0.41800000000E+01 0.  1.
         -5    1    1    2    0  502  0.56987471785E+02  0.72096518960E-01  0.18354789559E+02  0.60016229790E+02  0.41800000000E+01 0.  1.
        -11    1    3    3    0    0 -0.55060770764E+02 -0.22713463367E+02  0.10561562210E+02  0.60490796751E+02  0.00000000000E+00 0.  1.
         11    1    3    3    0    0  0.96606962754E+01  0.20505982930E+02 -0.37500064498E+02  0.43818708627E+02  0.00000000000E+00 0. -1.
</event>
<event>
 7    1  0.6584658E-006  0.1070668E+03  0.7561462E-02  0.1266100E+00
         -1   -1    0    0    0  501 -0.00000000000E+00  0.00000000000E+00  0.85974374217E+02  0.85974374217E+02  0.00000000000E+00 0.  1.
          1   -1    0    0  501    0  0.00000000000E+00 -0.00000000000E+00 -0.19105731279E+03  0.19105731279E+03  0.00000000000E+00 0. -1.
         23    2    1    2    0    0 -0.60629587312E+02 -0.64353150440E+01 -0.81223571264E+02  0.13584476750E+03  0.90217360805E+02 0.  0.
          5    1    1    2  502    0 -0.32902803517E+02 -0.22794144978E+02 -0.13999904498E+02  0.42610295123E+02  0.41800000000E+01 0. -1.
         -5    1    1    2    0  502  0.93532390828E+02  0.29229460022E+02 -0.98594628067E+01  0.98576624380E+02  0.41800000000E+01 0. -1.
        -11    1    3    3    0    0 -0.40495182560E+02  0.17854735976E+02  0.45142335009E+01  0.44486286780E+02  0.00000000000E+00 0.  1.
         11    1    3    3    0    0 -0.20134404751E+02 -0.24290051021E+02 -0.85737804765E+02  0.91358480718E+02  0.00000000000E+00 0. -1.
</event>
<event>
 7    1  0.6584658E-006  0.1630734E+03  0.7561462E-02  0.1185270E+00
         -1   -1    0    0    0  501 -0.00000000000E+00  0.00000000000E+00  0.15326976370E+03  0.15326976370E+03  0.00000000000E+00 0.  1.
          1   -1    0    0  501    0  0.00000000000E+00 -0.00000000000E+00 -0.18910177110E+03  0.18910177110E+03  0.00000000000E+00 0. -1.
         23    2    1    2    0    0 -0.12480591474E+03  0.29158151863E+02 -0.47446746954E+02  0.16290438184E+03  0.88656244293E+02 0.  0.
          5    1    1    2  502    0  0.97627377115E+02  0.35867040104E+02 -0.12551124622E+02  0.10484537404E+03  0.41800000000E+01 0.  1.
         -5    1    1    2    0  502  0.27178537627E+02 -0.65025191967E+02  0.24165864175E+02  0.74621778920E+02  0.41800000000E+01 0.  1.
        -11    1    3    3    0    0 -0.85578113376E+02  0.57463798082E+02 -0.49785536863E+02  0.11447402002E+03  0.00000000000E+00 0. -1.
         11    1    3    3    0    0 -0.39227801365E+02 -0.28305646219E+02  0.23387899084E+01  0.48430361821E+02  0.00000000000E+00 0.  1.
</event>
<event>
 7    1  0.6584658E-006  0.7733297E+02  0.7561462E-02  0.1336795E+00
         -3   -1    0    0    0  501 -0.00000000000E+00  0.00000000000E+00  0.97216636410E+02  0.97216636410E+02  0.00000000000E+00 0.  1.
          3   -1    0    0  501    0  0.00000000000E+00 -0.00000000000E+00 -0.15061157171E+03  0.15061157171E+03  0.00000000000E+00 0. -1.
         23    2    1    2    0    0  0.57654505045E+01  0.20136815343E+02 -0.74381989346E+02  0.11926494851E+03  0.90844459674E+02 0.  0.
          5    1    1    2  502    0 -0.51870765049E+02 -0.17765428963E+02 -0.27501553330E+02  0.61481660425E+02  0.41800000000E+01 0. -1.
         -5    1    1    2    0  502  0.46105314544E+02 -0.23713863800E+01  0.48488607379E+02  0.67081599177E+02  0.41800000000E+01 0. -1.
        -11    1    3    3    0    0  0.13488114641E+02  0.34484773618E+02 -0.89612119356E+02  0.96961130272E+02  0.00000000000E+00 0. -1.
         11    1    3    3    0    0 -0.77226641366E+01 -0.14347958276E+02  0.15230130011E+02  0.22303818243E+02  0.00000000000E+00 0.  1.
</event>
<event>
 7    1  0.6584658E-006  0.7205088E+02  0.7561462E-02  0.1353255E+00
         -2   -1    0    0    0  501 -0.00000000000E+00  0.00000000000E+00  0.30029920034E+02  0.30029920034E+02  0.00000000000E+00 0.  1.
          2   -1    0    0  501    0  0.00000000000E+00 -0.00000000000E+00 -0.52686503271E+03  0.52686503271E+03  0.00000000000E+00 0. -1.
         23    2    1    2    0    0 -0.35832393418E+02 -0.22187102212E+02 -0.32505392420E+03  0.34025632657E+03  0.91313121806E+02 0.  0.
          5    1    1    2  502    0  0.34044782316E+01  0.14216689758E+02 -0.18108530663E+03  0.18172249562E+03  0.41800000000E+01 0.  1.
         -5    1    1    2    0  502  0.32427915186E+02  0.79704124538E+01  0.93041181461E+01  0.34916130548E+02  0.41800000000E+01 0.  1.
        -11    1    3    3    0    0  0.27386677060E+02  0.22203056205E+01 -0.50807593145E+02  0.57761330998E+02  0.00000000000E+00 0.  1.
         11    1    3    3    0    0 -0.63219070478E+02 -0.24407407833E+02 -0.27424633105E+03  0.28249499558E+03  0.00000000000E+00 0. -1.
</event>
<event>
 7    1  0.6584658E-006  0.8447468E+02  0.7561462E-02  0.1316812E+00
         -1   -1    0    0    0  501 -0.00000000000E+00  0.00000000000E+00  0.51277853430E+02  0.51277853430E+02  0.00000000000E+00 0.  1.
          1   -1    0    0  501    0  0.00000000000E+00 -0.00000000000E+00 -0.34886169376E+03  0.34886169376E+03  0.00000000000E+00 0. -1.
         23    2    1    2    0    0 -0.25943074727E+02 -0.53301816022E+02 -0.21414198656E+03  0.23850882266E+03  0.86692222043E+02 0.  0.
          5    1    1    2  502    0  0.32993220391E+02  0.45520401641E+01 -0.10310359141E+03  0.10843014628E+03  0.41800000000E+01 0. -1.
         -5    1    1    2    0  502 -0.70501456643E+01  0.48749775858E+02  0.19661737628E+02  0.53200578255E+02  0.41800000000E+01 0. -1.
        -11    1    3    3    0    0 -0.41039383827E+02 -0.13217222020E+02 -0.38774273975E+02  0.57985949204E+02  0.00000000000E+00 0.  1.
         11    1    3    3    0    0  0.15096309100E+02 -0.40084594002E+02 -0.17536771258E+03  0.18052287346E+03  0.00000000000E+00 0. -1.
</event>
<event>
 7    1  0.6584658E-006  0.1136613E+03  0.7561462E-02  0.1253936E+00
          2   -1    0    0  501    0  0.00000000000E+00  0.00000000000E+00  0.33973294467E+03  0.33973294467E+03  0.00000000000E+00 0. -1.
         -2   -1    0    0    0  501 -0.00000000000E+00 -0.00000000000E+00 -0.49981566458E+02  0.49981566458E+02  0.00000000000E+00 0.  1.
         23    2    1    2    0    0  0.71496322440E+01  0.57447099013E+02  0.12464899738E+03  0.17462511697E+03  0.10772777034E+03 0.  0.
          5    1    1    2  502    0  0.22695522226E+02  0.24306743215E+02  0.10238960597E+03  0.10773582647E+03  0.41800000000E+01 0.  1.
         -5    1    1    2    0  502 -0.29845154470E+02 -0.81753842228E+02  0.62712774863E+02  0.10735356769E+03  0.41800000000E+01 0.  1.
        -11    1    3    3    0    0 -0.36893335949E+02  0.35399907992E+01  0.66959547938E+01  0.37662787774E+02  0.00000000000E+00 0.  1.
         11    1    3    3    0    0  0.44042968193E+02  0.53907108214E+02  0.11795304259E+03  0.13696232920E+03  0.00000000000E+00 0. -1.
</event>
<event>
 7    1  0.6584658E-006  0.2330929E+03  0.7561462E-02  0.1124482E+00
         -1   -1    0    0    0  501 -0.00000000000E+00  0.00000000000E+00  0.18625618856E+03  0.18625618856E+03  0.00000000000E+00 0.  1.
          1   -1    0    0  501    0  0.00000000000E+00 -0.00000000000E+00 -0.35654897616E+03  0.35654897616E+03  0.00000000000E+00 0. -1.
         23    2    1    2    0    0  0.15962025300E+03  0.14312915956E+03 -0.17978737979E+03  0.29442617211E+03  0.91644352868E+02 0.  0.
          5    1    1    2  502    0 -0.92188248534E+02 -0.59051617930E+01  0.21553035784E+02  0.94950249369E+02  0.41800000000E+01 0.  1.
         -5    1    1    2    0  502 -0.67432004462E+02 -0.13722399776E+03 -0.12058443596E+02  0.15342874323E+03  0.41800000000E+01 0.  1.
        -11    1    3    3    0    0  0.69888701968E+02  0.97865516293E+02 -0.49908366451E+02  0.13020343691E+03  0.00000000000E+00 0.  1.
         11    1    3    3    0    0  0.89731551029E+02  0.45263643263E+02 -0.12987901334E+03  0.16422273520E+03  0.00000000000E+00 0. -1.
</event>
<event>
 7    1  0.6584658E-006  0.1235411E+03  0.7561462E-02  0.1237367E+00
          2   -1    0    0  501    0  0.00000000000E+00  0.00000000000E+00  0.45811453765E+03  0.45811453765E+03  0.00000000000E+00 0. -1.
         -2   -1    0    0    0  501 -0.00000000000E+00 -0.00000000000E+00 -0.56203425171E+02  0.56203425171E+02  0.00000000000E+00 0.  1.
         23    2    1    2    0    0  0.94265765534E+02  0.28533360841E+02  0.28993042063E+03  0.31967003753E+03  0.91810113026E+02 0.  0.
          5    1    1    2  502    0 -0.62584472173E+02 -0.68302221571E+02  0.28861660832E+02  0.97120942616E+02  0.41800000000E+01 0.  1.
         -5    1    1    2    0  502 -0.31681293361E+02  0.39768860730E+02  0.83119031018E+02  0.97526982677E+02  0.41800000000E+01 0.  1.
        -11    1    3    3    0    0  0.19267187763E+02 -0.67932011525E+01  0.25706299658E+01  0.20590780573E+02  0.00000000000E+00 0.  1.
         11    1    3    3    0    0  0.74998577771E+02  0.35326561993E+02  0.28735979067E+03  0.29907925696E+03  0.00000000000E+00 0. -1.
</event>
<event>
 7    1  0.6584658E-006  0.1767452E+03  0.7561462E-02  0.1170991E+00
          2   -1    0    0  501    0  0.00000000000E+00  0.00000000000E+00  0.41928700552E+03  0.41928700552E+03  0.00000000000E+00 0. -1.
         -2   -1    0    0    0  501 -0.00000000000E+00 -0.00000000000E+00 -0.80472827332E+02  0.80472827332E+02  0.00000000000E+00 0.  1.
         23    2    1    2    0    0 -0.14224944291E+03 -0.34400348642E+02  0.15873133303E+03  0.23613732320E+03  0.95639486232E+02 0.  0.
          5    1    1    2  502    0  0.12741273462E+03 -0.21103420195E+02  0.15211043474E+03  0.19958561082E+03  0.41800000000E+01 0.  1.
         -5    1    1    2    0  502  0.14836708292E+02  0.55503768838E+02  0.27972410417E+02  0.64036898837E+02  0.41800000000E+01 0.  1.
        -11    1    3    3    0    0  0.61687813213E+01 -0.15959566792E+02 -0.12238699727E+01  0.17153993497E+02  0.00000000000E+00 0. -1.
         11    1    3    3    0    0 -0.14841822423E+03 -0.18440781850E+02  0.15995520300E+03  0.21898332970E+03  0.00000000000E+00 0.  1.
</event>
<event>
 7    1  0.6584658E-006  0.9962540E+02  0.7561462E-02  0.1281086E+00
          3   -1    0    0  501    0  0.00000000000E+00  0.00000000000E+00  0.14310145313E+03  0.14310145313E+03  0.00000000000E+00 0. -1.
         -3   -1    0    0    0  501 -0.00000000000E+00 -0.00000000000E+00 -0.15972298769E+03  0.15972298769E+03  0.00000000000E+00 0.  1.
         23    2    1    2    0    0  0.55773357766E+01  0.81518576893E+02  0.68740890901E+02  0.13656580764E+03  0.85138268025E+02 0.  0.
          5    1    1    2  502    0 -0.31122470661E+01 -0.83817448631E+02 -0.33244160126E+01  0.84045076707E+02  0.41800000000E+01 0. -1.
         -5    1    1    2    0  502 -0.24650887104E+01  0.22988717389E+01 -0.82038009448E+02  0.82213556472E+02  0.41800000000E+01 0.  1.
        -11    1    3    3    0    0 -0.34979761904E+01 -0.13757101574E+02  0.30238548016E+02  0.33404542614E+02  0.00000000000E+00 0. -1.
         11    1    3    3    0    0  0.90753119670E+01  0.95275678467E+02  0.38502342885E+02  0.10316126503E+03  0.00000000000E+00 0.  1.
</event>
<event>
 7    1  0.6584658E-006  0.1128345E+03  0.7561462E-02  0.1255409E+00
         -2   -1    0    0    0  501 -0.00000000000E+00  0.00000000000E+00  0.11452364740E+02  0.11452364740E+02  0.00000000000E+00 0.  1.
          2   -1    0    0  501    0  0.00000000000E+00 -0.00000000000E+00 -0.11348689969E+04  0.11348689969E+04  0.00000000000E+00 0. -1.
         23    2    1    2    0    0 -0.74148742581E+01  0.29848731672E+02 -0.44192921824E+03  0.45276812101E+03  0.93550041808E+02 0.  0.
          5    1    1    2  502    0 -0.19913127372E+01 -0.78714711379E+02 -0.41172731369E+03  0.41920976175E+03  0.41800000000E+01 0. -1.
         -5    1    1    2    0  502  0.94061869953E+01  0.48865979707E+02 -0.26976010028E+03  0.27434347892E+03  0.41800000000E+01 0. -1.
        -11    1    3    3    0    0  0.40935819582E+02  0.25738146319E+02 -0.17999525866E+03  0.18637726964E+03  0.00000000000E+00 0.  1.
         11    1    3    3    0    0 -0.48350693840E+02  0.41105853525E+01 -0.26193395958E+03  0.26639085136E+03  0.00000000000E+00 0. -1.
</event>
<event>
 7    1  0.6584658E-006  0.1165234E+03  0.7561462E-02  0.1248945E+00
          2   -1    0    0  501    0  0.00000000000E+00  0.00000000000E+00  0.12036214276E+03  0.12036214276E+03  0.00000000000E+00 0. -1.
         -2   -1    0    0    0  501 -0.00000000000E+00 -0.00000000000E+00 -0.17472646839E+03  0.17472646839E+03  0.00000000000E+00 0.  1.
         23    2    1    2    0    0 -0.50380555568E+02  0.80836249828E+02 -0.41322336923E+02  0.13732149688E+03  0.89871899449E+02 0.  0.
          5    1    1    2  502    0  0.84669364824E+01 -0.56388354142E+02  0.51475008405E+02  0.76931686492E+02  0.41800000000E+01 0. -1.
         -5    1    1    2    0  502  0.41913619086E+02 -0.24447895686E+02 -0.64516997107E+02  0.80835427778E+02  0.41800000000E+01 0. -1.
        -11    1    3    3    0    0 -0.86617286478E+01 -0.17953299000E+02  0.49311429668E+01  0.20534426194E+02  0.00000000000E+00 0. -1.
         11    1    3    3    0    0 -0.41718826921E+02  0.98789548828E+02 -0.46253479890E+02  0.11678707068E+03  0.00000000000E+00 0.  1.
</event>
<event>
 7    1  0.6584658E-006  0.1063442E+03  0.7561462E-02  0.1267494E+00
         -2   -1    0    0    0  501 -0.00000000000E+00  0.00000000000E+00  0.59774373179E+02  0.59774373179E+02  0.00000000000E+00 0.  1.
          2   -1    0    0  501    0  0.00000000000E+00 -0.00000000000E+00 -0.26616411764E+03  0.26616411764E+03  0.00000000000E+00 0. -1.
         23    2    1    2    0    0 -0.64388204650E+02  0.65245946419E+01 -0.10304032856E+03  0.15127814732E+03  0.89885245248E+02 0.  0.
          5    1    1    2  502    0  0.39996344366E+01  0.30483825396E+02  0.16681790840E+02  0.35228046100E+02  0.41800000000E+01 0. -1.
         -5    1    1    2    0  502  0.60388570213E+02 -0.37008420038E+02 -0.12003120675E+03  0.13943229741E+03  0.41800000000E+01 0. -1.
        -11    1    3    3    0    0 -0.34960477735E+02 -0.41576529486E+02 -0.52817173444E+02  0.75766065083E+02  0.00000000000E+00 0.  1.
         11    1    3    3    0    0 -0.29427726915E+02  0.48101124128E+02 -0.50223155112E+02  0.75512082233E+02  0.00000000000E+00 0. -1.
</event>
<event>
 7    1  0.6584658E-006  0.1284070E+03  0.7561462E-02  0.1229839E+00
          2   -1    0    0  501    0  0.00000000000E+00  0.00000000000E+00  0.63967460506E+02  0.63967460506E+02  0.00000000000E+00 0. -1.
         -2   -1    0    0    0  501 -0.00000000000E+00 -0.00000000000E+00 -0.35996416144E+03  0.35996416144E+03  0.00000000000E+00 0.  1.
         23    2    1    2    0    0  0.60141741821E+02 -0.50053735711E+02 -0.35714529204E+02  0.12473945448E+03  0.90343778643E+02 0.  0.
          5    1    1    2  502    0 -0.86634433149E+02  0.70660096807E+02 -0.17810055178E+03  0.21032273589E+03  0.41800000000E+01 0. -1.
         -5    1    1    2    0  502  0.26492691327E+02 -0.20606361096E+02 -0.82181619945E+02  0.88869431574E+02  0.41800000000E+01 0. -1.
        -11    1    3    3    0    0  0.74827860488E+02 -0.57764415160E+02 -0.46097131262E+02  0.10517072727E+03  0.00000000000E+00 0.  1.
         11    1    3    3    0    0 -0.14686118666E+02  0.77106794492E+01  0.10382602058E+02  0.19568727208E+02  0.00000000000E+00 0. -1.
</event>
<event>
 7    1  0.6584658E-006  0.8963336E+02  0.7561462E-02  0.1303742E+00
         -2   -1    0    0    0  501 -0.00000000000E+00  0.00000000000E+00  0.14922950649E+03  0.14922950649E+03  0.00000000000E+00 0.  1.
          2   -1    0    0  501    0  0.00000000000E+00 -0.00000000000E+00 -0.97059052727E+02  0.97059052727E+02  0.00000000000E+00 0. -1.
         23    2    1    2    0    0  0.72831573541E+01  0.22162373686E+02 -0.23757800532E+02  0.98111628755E+02  0.92288912782E+02 0.  0.
          5    1    1    2  502    0  0.23571134397E+02  0.46248185883E+02  0.31759863528E+02  0.60997167193E+02  0.41800000000E+01 0. -1.
         -5    1    1    2    0  502 -0.30854291751E+02 -0.68410559570E+02  0.44168390763E+02  0.87179763263E+02  0.41800000000E+01 0. -1.
        -11    1    3    3    0    0 -0.13071866956E+02 -0.82310097094E+01 -0.50493057501E+02  0.52803144626E+02  0.00000000000E+00 0. -1.
         11    1    3    3    0    0  0.20355024310E+02  0.30393383396E+02  0.26735256969E+02  0.45308484129E+02  0.00000000000E+00 0.  1.
</event>
<event>
 7    1  0.6584658E-006  0.1300779E+03  0.7561462E-02  0.1227340E+00
         -2   -1    0    0    0  501 -0.00000000000E+00  0.00000000000E+00  0.37673583349E+02  0.37673583349E+02  0.00000000000E+00 0.  1.
          2   -1    0    0  501    0  0.00000000000E+00 -0.00000000000E+00 -0.64585179456E+03  0.64585179456E+03  0.00000000000E+00 0. -1.
         23    2    1    2    0    0  0.65336779283E+02  0.80303873975E+02 -0.37101592032E+03  0.39610723502E+03  0.92360822869E+02 0.  0.
          5    1    1    2  502    0 -0.46941805707E+02  0.22180508524E+02 -0.11882338256E+03  0.12973810822E+03  0.41800000000E+01 0. -1.
         -5    1    1    2    0  502 -0.18394973576E+02 -0.10248438250E+03 -0.11833890833E+03  0.15768003467E+03  0.41800000000E+01 0. -1.
        -11    1    3    3    0    0  0.33983544341E+02  0.35150275824E+02 -0.48241780756E+02  0.68685461249E+02  0.00000000000E+00 0.  1.
         11    1    3    3    0    0  0.31353234942E+02  0.45153598151E+02 -0.32277413957E+03  0.32742177377E+03  0.00000000000E+00 0. -1.
</event>
<event>
 7    1  0.6584658E-006  0.1503405E+03  0.7561462E-02  0.1200055E+00
          1   -1    0    0  501    0  0.00000000000E+00  0.00000000000E+00  0.48523788733E+02  0.48523788733E+02  0.00000000000E+00 0. -1.
         -1   -1    0    0    0  501 -0.00000000000E+00 -0.00000000000E+00 -0.55493615056E+03  0.55493615056E+03  0.00000000000E+00 0.  1.
         23    2    1    2    0    0  0.11890037532E+03 -0.31593778258E+02 -0.21698106975E+03  0.26500218009E+03  0.89498071178E+02 0.  0.
          5    1    1    2  502    0 -0.91730638449E+02 -0.37895212673E+02 -0.18586275272E+03  0.21074390246E+03  0.41800000000E+01 0.  1.
         -5    1    1    2    0  502 -0.27169736867E+02  0.69488990931E+02 -0.10356853935E+03  0.12771385675E+03  0.41800000000E+01 0.  1.
        -11    1    3    3    0    0  0.18325373724E+02 -0.16980660671E+02  0.45451633673E+00  0.24987371691E+02  0.00000000000E+00 0. -1.
         11    1    3    3    0    0  0.10057500159E+03 -0.14613117588E+02 -0.21743558609E+03  0.24001480840E+03  0.00000000000E+00 0.  1.
</event>
<event>
 7    1  0.6584658E-006  0.1124320E+03  0.7561462E-02  0.1256131E+00
          1   -1    0    0  501    0  0.00000000000E+00  0.00000000000E+00  0.13964184707E+03  0.13964184707E+03  0.00000000000E+00 0. -1.
         -1   -1    0    0    0  501 -0.00000000000E+00 -0.00000000000E+00 -0.10810803047E+03  0.10810803047E+03  0.00000000000E+00 0.  1.
         23    2    1    2    0    0 -0.24136550595E+02 -0.40708884985E+02  0.44172866039E+02  0.11341183821E+03  0.93119367265E+02 0.  0.
          5    1    1    2  502    0  0.65195984517E+02  0.53604407768E+02  0.10733795072E+02  0.85185889007E+02  0.41800000000E+01 0. -1.
         -5    1    1    2    0  502 -0.41059433922E+02 -0.12895522783E+02 -0.23372844506E+02  0.49152150331E+02  0.41800000000E+01 0. -1.
        -11    1    3    3    0    0  0.13055676968E+02 -0.55557522052E+02  0.48336512559E+01  0.57275240219E+02  0.00000000000E+00 0.  1.
         11    1    3    3    0    0 -0.37192227563E+02  0.14848637067E+02  0.39339214783E+02  0.56136597987E+02  0.00000000000E+00 0. -1.
</event>
<event>
 7    1  0.6584658E-006  0.8827308E+02  0.7561462E-02  0.1307088E+00
          2   -1    0    0  501    0  0.00000000000E+00  0.00000000000E+00  0.80948378556E+02  0.80948378556E+02  0.00000000000E+00 0. -1.
         -2   -1    0    0    0  501 -0.00000000000E+00 -0.00000000000E+00 -0.18814541224E+03  0.18814541224E+03  0.00000000000E+00 0.  1.
         23    2    1    2    0    0 -0.25985292040E+02 -0.29020490796E+02  0.41195017778E+00  0.99547295776E+02  0.91608242560E+02 0.  0.
          5    1    1    2  502    0  0.43802446040E+02  0.49626512667E+02 -0.87273448025E+01  0.66896068538E+02  0.41800000000E+01 0.  1.
         -5    1    1    2    0  502 -0.17817153999E+02 -0.20606021872E+02 -0.98881639063E+02  0.10265042649E+03  0.41800000000E+01 0.  1.
        -11    1    3    3    0    0 -0.23832995828E+02  0.21498937196E+02 -0.27077415108E+02  0.41992885107E+02  0.00000000000E+00 0.  1.
         11    1    3    3    0    0 -0.21522962122E+01 -0.50519427992E+02  0.27489365286E+02  0.57554410669E+02  0.00000000000E+00 0. -1.
</event>
<event>
 7    1  0.6584658E-006  0.1207251E+03  0.7561462E-02  0.1241906E+00
         -1   -1    0    0    0  501 -0.00000000000E+00  0.00000000000E+00  0.39666035357E+02  0.39666035357E+02  0.00000000000E+00 0.  1.
          1   -1    0    0  501    0  0.00000000000E+00 -0.00000000000E+00 -0.40732526322E+03  0.40732526322E+03  0.00000000000E+00 0. -1.
         23    2    1    2    0    0  0.54571230031E+02  0.27573610193E+02 -0.20717804531E+03  0.23452836592E+03  0.91337225913E+02 0.  0.
          5    1    1    2  502    0 -0.37439070816E+02  0.43986848416E+02 -0.37203037123E+02  0.68833605370E+02  0.41800000000E+01 0.  1.
         -5    1    1    2    0  502 -0.17132159215E+02 -0.71560458609E+02 -0.12327814543E+03  0.14362932729E+03  0.41800000000E+01 0.  1.
        -11    1    3    3    0    0  0.43273065788E+02  0.60864351788E+02 -0.14492264625E+03  0.16303251497E+03  0.00000000000E+00 0.  1.
         11    1    3    3    0    0  0.11298164242E+02 -0.33290741596E+02 -0.62255399065E+02  0.71495850957E+02  0.00000000000E+00 0. -1.
</event>
<event>
 7    1  0.6584658E-006  0.9731417E+02  0.7561462E-02  0.1286047E+00
          2   -1    0    0  501    0  0.00000000000E+00  0.00000000000E+00  0.41341964954E+03  0.41341964954E+03  0.00000000000E+00 0. -1.
         -2   -1    0    0    0  501 -0.00000000000E+00 -0.00000000000E+00 -0.39687956117E+02  0.39687956117E+02  0.00000000000E+00 0.  1.
         23    2    1    2    0    0 -0.51559987437E+02  0.36917578061E+02  0.21479972607E+03  0.24114494334E+03  0.89390276349E+02 0.  0.
          5    1    1    2  502    0  0.86285271396E+01  0.23201571963E+02  0.13018272780E+03  0.13258121828E+03  0.41800000000E+01 0. -1.
         -5    1    1    2    0  502  0.42931460297E+02 -0.60119150025E+02  0.28749239555E+02  0.79381444040E+02  0.41800000000E+01 0. -1.
        -11    1    3    3    0    0  0.18143498237E+02  0.10678158943E+02  0.11336617386E+03  0.11530437538E+03  0.00000000000E+00 0.  1.
         11    1    3    3    0    0 -0.69703485674E+02  0.26239419118E+02  0.10143355221E+03  0.12584056796E+03  0.00000000000E+00 0. -1.
</event>
<event>
 7    1  0.6584658E-006  0.1131021E+03  0.7561462E-02  0.1254931E+00
         -2   -1    0    0    0  501 -0.00000000000E+00  0.00000000000E+00  0.86033327188E+02  0.86033327188E+02  0.00000000000E+00 0.  1.
          2   -1    0    0  501    0  0.00000000000E+00 -0.00000000000E+00 -0.17047320939E+03  0.17047320939E+03  0.00000000000E+00 0. -1.
         23    2    1    2    0    0 -0.52233873369E+01 -0.38746982722E+02 -0.78015782455E+02  0.12529225473E+03  0.89905919365E+02 0.  0.
          5    1    1    2  502    0  0.61509281453E+02  0.21289391928E+00 -0.11384400323E+02  0.62693811492E+02  0.41800000000E+01 0.  1.
         -5    1    1    2    0  502 -0.56285894116E+02  0.38534088802E+02  0.49603005779E+01  0.68520470358E+02  0.41800000000E+01 0.  1.
        -11    1    3    3    0    0 -0.46526748616E+02 -0.24023285364E+02 -0.54325190953E+02  0.75452521154E+02  0.00000000000E+00 0.  1.
         11    1    3    3    0    0  0.41303361279E+02 -0.14723697357E+02 -0.23690591502E+02  0.49839733572E+02  0.00000000000E+00 0. -1.
</event>
<event>
 7    1  0.6584658E-006  0.1297516E+03  0.7561462E-02  0.1227825E+00
         -1   -1    0    0    0  501 -0.00000000000E+00  0.00000000000E+00  0.35869638939E+02  0.35869638939E+02  0.00000000000E+00 0.  1.
          1   -1    0    0  501    0  0.00000000000E+00 -0.00000000000E+00 -0.52164950193E+03  0.52164950193E+03  0.00000000000E+00 0. -1.
         23    2    1    2    0    0  0.21696762438E+02 -0.77437043588E+02 -0.24835061301E+03  0.27736240920E+03  0.93726377471E+02 0.  0.
          5    1    1    2  502    0 -0.21770457256E+02 -0.25599274522E+02 -0.11603514015E+03  0.12087556335E+03  0.41800000000E+01 0. -1.
         -5    1    1    2    0  502  0.73694818196E-01  0.10303631811E+03 -0.12139410983E+03  0.15928116832E+03  0.41800000000E+01 0. -1.
        -11    1    3    3    0    0  0.96736671943E+01 -0.98119526706E+02 -0.18477247726E+03  0.20943230341E+03  0.00000000000E+00 0.  1.
         11    1    3    3    0    0  0.12023095244E+02  0.20682483119E+02 -0.63578135752E+02  0.67930105792E+02  0.00000000000E+00 0. -1.
</event>
<event>
 7    1  0.6584658E-006  0.8385806E+02  0.7561462E-02  0.1318446E+00
          2   -1    0    0  501    0  0.00000000000E+00  0.00000000000E+00  0.18085539986E+03  0.18085539986E+03  0.00000000000E+00 0.  1.
         -2   -1    0    0    0  501 -0.00000000000E+00 -0.00000000000E+00 -0.68454425907E+02  0.68454425907E+02  0.00000000000E+00 0. -1.
         23    2    1    2    0    0  0.13931810257E+02  0.14973757743E+02  0.70537889403E+02  0.11583511811E+03  0.89576068173E+02 0.  0.
          5    1    1    2  502    0 -0.42146449877E+02  0.33416106570E+02  0.53646749903E+02  0.76081571952E+02  0.41800000000E+01 0.  1.
         -5    1    1    2    0  502  0.28214639620E+02 -0.48389864312E+02 -0.11783665348E+02  0.57393135705E+02  0.41800000000E+01 0.  1.
        -11    1    3    3    0    0  0.13659574629E+02 -0.19122414956E+02  0.77542992526E+02  0.81025714577E+02  0.00000000000E+00 0.  1.
         11    1    3    3    0    0  0.27223562862E+00  0.34096172698E+02 -0.70051031231E+01  0.34809403538E+02  0.00000000000E+00 0. -1.
</event>
<event>
 7    1  0.6584658E-006  0.1851214E+03  0.7561462E-02  0.1162937E+00
          2   -1    0    0  501    0  0.00000000000E+00  0.00000000000E+00  0.59215258799E+03  0.59215258799E+03  0.00000000000E+00 0. -1.
         -2   -1    0    0    0  501 -0.00000000000E+00 -0.00000000000E+00 -0.72628895422E+02  0.72628895422E+02  0.00000000000E+00 0.  1.
         23    2    1    2    0    0 -0.16504714011E+03  0.24873312382E+02  0.16076304595E+03  0.24979345569E+03  0.93235044029E+02 0.  0.
          5    1    1    2  502    0  0.14513669975E+03  0.20950918541E+02  0.19691040337E+03  0.24554995817E+03  0.41800000000E+01 0.  1.
         -5    1    1    2    0  502  0.19910440357E+02 -0.45824230922E+02  0.16185024324E+03  0.16943806955E+03  0.41800000000E+01 0.  1.
        -11    1    3    3    0    0 -0.11646514339E+03 -0.46456681592E+01  0.15311909176E+03  0.19243484123E+03  0.00000000000E+00 0. -1.
         11    1    3    3    0    0 -0.48581996712E+02  0.29518980541E+02  0.76439541916E+01  0.57358614457E+02  0.00000000000E+00 0.  1.
</event>
<event>
 7    1  0.6584658E-006  0.1434620E+03  0.7561462E-02  0.1208745E+00
         -2   -1    0    0    0  501 -0.00000000000E+00  0.00000000000E+00  0.99562255610E+02  0.99562255610E+02  0.00000000000E+00 0.  1.
          2   -1    0    0  501    0  0.00000000000E+00 -0.00000000000E+00 -0.21191449179E+03  0.21191449179E+03  0.00000000000E+00 0. -1.
         23    2    1    2    0    0  0.62811695788E+02  0.74765678380E+02 -0.45845717414E+02  0.13941068331E+03  0.88307944287E+02 0.  0.
          5    1    1    2  502    0  0.18687824933E+02  0.21796430362E+02 -0.26938883313E+02  0.39591602789E+02  0.41800000000E+01 0. -1.
         -5    1    1    2    0  502 -0.81499520721E+02 -0.96562108743E+02 -0.39567635457E+02  0.13247446131E+03  0.41800000000E+01 0. -1.
        -11    1    3    3    0    0  0.43095127483E+02  0.94329403818E+02 -0.33200929975E+02  0.10889227791E+03  0.00000000000E+00 0.  1.
         11    1    3    3    0    0  0.19716568305E+02 -0.19563725438E+02 -0.12644787439E+02  0.30518405399E+02  0.00000000000E+00 0. -1.
</event>
<event>
 7    1  0.6584658E-006  0.6474804E+02  0.7561462E-02  0.1378922E+00
          1   -1    0    0  501    0  0.00000000000E+00  0.00000000000E+00  0.23047153655E+03  0.23047153655E+03  0.00000000000E+00 0. -1.
         -1   -1    0    0    0  501 -0.00000000000E+00 -0.00000000000E+00 -0.49816217263E+02  0.49816217263E+02  0.00000000000E+00 0.  1.
         23    2    1    2    0    0 -0.31667836499E+02 -0.15965259419E+02  0.10572716875E+03  0.13020003023E+03  0.67201728280E+02 0.  0.
          5    1    1    2  502    0  0.37438668924E+02 -0.11672310822E+02 -0.24644646913E+02  0.46505137266E+02  0.41800000000E+01 0. -1.
         -5    1    1    2    0  502 -0.57708324253E+01  0.27637570241E+02  0.99572797444E+02  0.10358258631E+03  0.41800000000E+01 0. -1.
        -11    1    3    3    0    0 -0.31795968501E+02  0.11678204752E+02  0.94457550977E+02  0.10034736178E+03  0.00000000000E+00 0. -1.
         11    1    3    3    0    0  0.12813200208E+00 -0.27643464171E+02  0.11269617776E+02  0.29852668457E+02  0.00000000000E+00 0.  1.
</event>
<event>
 7    1  0.6584658E-006  0.1814563E+03  0.7561462E-02  0.1166401E+00
          2   -1    0    0  501    0  0.00000000000E+00  0.00000000000E+00  0.11152044707E+04  0.11152044707E+04  0.00000000000E+00 0. -1.
         -2   -1    0    0    0  501 -0.00000000000E+00 -0.00000000000E+00 -0.42361874337E+02  0.42361874337E+02  0.00000000000E+00 0.  1.
         23    2    1    2    0    0 -0.16915509030E+03 -0.59830056421E+02  0.66574330334E+03  0.69542857905E+03  0.90629368314E+02 0.  0.
          5    1    1    2  502    0  0.12343340656E+03  0.40229047366E+02  0.14227595276E+03  0.19265020436E+03  0.41800000000E+01 0. -1.
         -5    1    1    2    0  502  0.45721683741E+02  0.19601009055E+02  0.26482334025E+03  0.26948756161E+03  0.41800000000E+01 0. -1.
        -11    1    3    3    0    0 -0.64163974744E+02 -0.42485532704E+01  0.11256020138E+03  0.12963357897E+03  0.00000000000E+00 0.  1.
         11    1    3    3    0    0 -0.10499111555E+03 -0.55581503151E+02  0.55318310195E+03  0.56579500009E+03  0.00000000000E+00 0. -1.
</event>
<event>
 7    1  0.6584658E-006  0.1225549E+03  0.7561462E-02  0.1238941E+00
          1   -1    0    0  501    0  0.00000000000E+00  0.00000000000E+00  0.28731676433E+03  0.28731676433E+03  0.00000000000E+00 0. -1.
         -1   -1    0    0    0  501 -0.00000000000E+00 -0.00000000000E+00 -0.81434434911E+02  0.81434434911E+02  0.00000000000E+00 0.  1.
         23    2    1    2    0    0 -0.85699147494E+02 -0.20123184476E+00  0.17275904734E+03  0.21354614886E+03  0.91716328325E+02 0.  0.
          5    1    1    2  502    0 -0.10182767183E+02  0.41542881694E+02  0.26515149957E+02  0.50497775636E+02  0.41800000000E+01 0. -1.
         -5    1    1    2    0  502  0.95881914677E+02 -0.41341649850E+02  0.66081321266E+01  0.10470727475E+03  0.41800000000E+01 0. -1.
        -11    1    3    3    0    0 -0.55154420899E+02  0.22511053779E+02  0.16400504101E+03  0.17448900012E+03  0.00000000000E+00 0. -1.
         11    1    3    3    0    0 -0.30544726595E+02 -0.22712285624E+02  0.87540063301E+01  0.39057148742E+02  0.00000000000E+00 0.  1.
</event>
<event>
 7    1  0.6584658E-006  0.9399647E+02  0.7561462E-02  0.1293452E+00
         -1   -1    0    0    0  501 -0.00000000000E+00  0.00000000000E+00  0.25498398287E+03  0.25498398287E+03  0.00000000000E+00 0.  1.
          1   -1    0    0  501    0  0.00000000000E+00 -0.00000000000E+00 -0.65198385930E+02  0.65198385930E+02  0.00000000000E+00 0. -1.
         23    2    1    2    0    0  0.18529340342E+02  0.59501237428E+02  0.41680883162E+02  0.11654899831E+03  0.89233621903E+02 0.  0.
          5    1    1    2  502    0  0.96150684586E+01  0.26308240595E+02  0.94230398257E+02  0.98394173712E+02  0.41800000000E+01 0. -1.
         -5    1    1    2    0  502 -0.28144408800E+02 -0.85809478023E+02  0.53874315524E+02  0.10523919678E+03  0.41800000000E+01 0. -1.
        -11    1    3    3    0    0  0.26917754224E+02  0.48015930957E+02 -0.15852729557E+02  0.57283541725E+02  0.00000000000E+00 0. -1.
         11    1    3    3    0    0 -0.83884138821E+01  0.11485306471E+02  0.57533612720E+02  0.59265456590E+02  0.00000000000E+00 0.  1.
</event>
<event>
 7    1  0.6584658E-006  0.1217295E+03  0.7561462E-02  0.1240271E+00
         -2   -1    0    0    0  501 -0.00000000000E+00  0.00000000000E+00  0.27483945661E+02  0.27483945661E+02  0.00000000000E+00 0.  1.
          2   -1    0    0  501    0  0.00000000000E+00 -0.00000000000E+00 -0.71311809041E+03  0.71311809041E+03  0.00000000000E+00 0. -1.
         23    2    1    2    0    0  0.56903921793E+02  0.68221039951E+02 -0.30163414825E+03  0.32708001793E+03  0.90033394502E+02 0.  0.
          5    1    1    2  502    0 -0.52006929986E+02 -0.10330764879E+03 -0.26222722702E+03  0.28663178829E+03  0.41800000000E+01 0. -1.
         -5    1    1    2    0  502 -0.48969918070E+01  0.35086608837E+02 -0.12177276948E+03  0.12689022986E+03  0.41800000000E+01 0. -1.
        -11    1    3    3    0    0  0.54811231792E+02  0.51533011025E+02 -0.30098915829E+03  0.31024892548E+03  0.00000000000E+00 0. -1.
         11    1    3    3    0    0  0.20926900010E+01  0.16688028926E+02 -0.64498996923E+00  0.16831092446E+02  0.00000000000E+00 0.  1.
</event>
<event>
 7    1  0.6584658E-006  0.1845445E+03  0.7561462E-02  0.1163476E+00
         -1   -1    0    0    0  501 -0.00000000000E+00  0.00000000000E+00  0.45186125580E+02  0.45186125580E+02  0.00000000000E+00 0.  1.
          1   -1    0    0  501    0  0.00000000000E+00 -0.00000000000E+00 -0.84123409101E+03  0.84123409101E+03  0.00000000000E+00 0. -1.
         23    2    1    2    0    0 -0.17016178501E+01  0.16163503370E+03 -0.38912460602E+03  0.43104771127E+03  0.90859180895E+02 0.  0.
          5    1    1    2  502    0 -0.24434015429E+02 -0.15747748378E+03 -0.25229361753E+03  0.29843880588E+03  0.41800000000E+01 0. -1.
         -5    1    1    2    0  502  0.26135633279E+02 -0.41575499261E+01 -0.15462974188E+03  0.15693369945E+03  0.41800000000E+01 0. -1.
        -11    1    3    3    0    0  0.36346034091E+02  0.34273942608E+02 -0.76854839069E+02  0.91664625808E+02  0.00000000000E+00 0.  1.
         11    1    3    3    0    0 -0.38047651941E+02  0.12736109110E+03 -0.31226976695E+03  0.33938308546E+03  0.00000000000E+00 0. -1.
</event>
<event>
 7    1  0.6584658E-006  0.1600526E+03  0.7561462E-02  0.1188637E+00
          1   -1    0    0  501    0  0.00000000000E+00  0.00000000000E+00  0.19318218008E+03  0.19318218008E+03  0.00000000000E+00 0. -1.
         -1   -1    0    0    0  501 -0.00000000000E+00 -0.00000000000E+00 -0.16322112524E+03  0.16322112524E+03  0.00000000000E+00 0.  1.
         23    2    1    2    0    0 -0.10841495676E+03 -0.88140364969E+02  0.23420860299E+02  0.16875773634E+03  0.91695747393E+02 0.  0.
          5    1    1    2  502    0  0.29007503787E+02  0.93488758250E+02 -0.26306607482E+02  0.10144502547E+03  0.41800000000E+01 0.  1.
         -5    1    1    2    0  502  0.79407452974E+02 -0.53483932809E+01  0.32846802027E+02  0.86200543513E+02  0.41800000000E+01 0.  1.
        -11    1    3    3    0    0 -0.18634249824E+01 -0.10325959808E+02 -0.25865090924E+02  0.27912375878E+02  0.00000000000E+00 0.  1.
         11    1    3    3    0    0 -0.10655153178E+03 -0.77814405160E+02  0.49285951223E+02  0.14084536046E+03  0.00000000000E+00 0. -1.
</event>
<event>
 7    1  0.6584658E-006  0.9765316E+02  0.7561462E-02  0.1285310E+00
         -3   -1    0    0    0  501 -0.00000000000E+00  0.00000000000E+00  0.69875250506E+02  0.69875250506E+02  0.00000000000E+00 0.  1.
          3   -1    0    0  501    0  0.00000000000E+00 -0.00000000000E+00 -0.21026490976E+03  0.21026490976E+03  0.00000000000E+00 0. -1.
         23    2    1    2    0    0 -0.26882859521E+02  0.35248721730E+00 -0.13190209922E+03  0.16206249813E+03  0.90240108244E+02 0.  0.
          5    1    1    2  502    0  0.19519933346E+02  0.56125299616E+02  0.36936511778E+01  0.59684106040E+02  0.41800000000E+01 0. -1.
         -5    1    1    2    0  502  0.73629261751E+01 -0.56477786833E+02 -0.12181211206E+02  0.58393556099E+02  0.41800000000E+01 0.  1.
        -11    1    3    3    0    0 -0.48159021250E+02  0.17563550047E+02 -0.12304962144E+03  0.13330033366E+03  0.00000000000E+00 0. -1.
         11    1    3    3    0    0  0.21276161729E+02 -0.17211062830E+02 -0.88524777820E+01  0.28762164462E+02  0.00000000000E+00 0.  1.
</event>
<event>
 7    1  0.6584658E-006  0.9578914E+02  0.7561462E-02  0.1289409E+00
         -3   -1    0    0    0  501 -0.00000000000E+00  0.00000000000E+00  0.14251341993E+03  0.14251341993E+03  0.00000000000E+00 0.  1.
          3   -1    0    0  501    0  0.00000000000E+00 -0.00000000000E+00 -0.95021624112E+02  0.95021624112E+02  0.00000000000E+00 0. -1.
         23    2    1    2    0    0  0.28793100673E+02 -0.48285059648E+02  0.18984998156E+02  0.10700061050E+03  0.89040501242E+02 0.  0.
          5    1    1    2  502    0  0.62603001044E+01  0.66511768383E+02 -0.18052762878E+02  0.69328070349E+02  0.41800000000E+01 0. -1.
         -5    1    1    2    0  502 -0.35053400777E+02 -0.18226708735E+02  0.46559560540E+02  0.61206363191E+02  0.41800000000E+01 0.  1.
        -11    1    3    3    0    0  0.37891355542E+02 -0.22187069671E+01 -0.22687043776E+02  0.44219672553E+02  0.00000000000E+00 0. -1.
         11    1    3    3    0    0 -0.90982548695E+01 -0.46066352681E+02  0.41672041932E+02  0.62780937949E+02  0.00000000000E+00 0.  1.
</event>
<event>
 7    1  0.6584658E-006  0.9393565E+02  0.7561462E-02  0.1293591E+00
         -2   -1    0    0    0  501 -0.00000000000E+00  0.00000000000E+00  0.64478305214E+03  0.64478305214E+03  0.00000000000E+00 0.  1.
          2   -1    0    0  501    0  0.00000000000E+00 -0.00000000000E+00 -0.27146331576E+02  0.27146331576E+02  0.00000000000E+00 0. -1.
         23    2    1    2    0    0 -0.11616365693E+02 -0.71613879100E+02  0.21148314677E+03  0.24080053255E+03  0.89421963047E+02 0.  0.
          5    1    1    2  502    0 -0.68674455724E+01  0.19632552641E+02 -0.92953555863E-02  0.21214886714E+02  0.41800000000E+01 0.  1.
         -5    1    1    2    0  502  0.18483811265E+02  0.51981326459E+02  0.40616286915E+03  0.40991396445E+03  0.41800000000E+01 0.  1.
        -11    1    3    3    0    0 -0.30772172861E+01 -0.90525802448E+02  0.14327173154E+03  0.16950274108E+03  0.00000000000E+00 0. -1.
         11    1    3    3    0    0 -0.85391484066E+01  0.18911923348E+02  0.68211415237E+02  0.71297791473E+02  0.00000000000E+00 0.  1.
</event>
<event>
 7    1  0.6584658E-006  0.8248896E+02  0.7561462E-02  0.1322133E+00
         -2   -1    0    0    0  501 -0.00000000000E+00  0.00000000000E+00  0.73921613459E+03  0.73921613459E+03  0.00000000000E+00 0. -1.
          2   -1    0    0  501    0  0.00000000000E+00 -0.00000000000E+00 -0.24616710248E+02  0.24616710248E+02  0.00000000000E+00 0.  1.
         23    2    1    2    0    0  0.42157853752E+02  0.52242691073E+01  0.13030146128E+03  0.16478681010E+03  0.91496690375E+02 0.  0.
          5    1    1    2  502    0 -0.43160024608E+02 -0.47372483754E+02  0.50565585712E+03  0.50971782212E+03  0.41800000000E+01 0.  1.
         -5    1    1    2    0  502  0.10021708558E+01  0.42148214646E+02  0.78642105940E+02  0.89328212626E+02  0.41800000000E+01 0.  1.
        -11    1    3    3    0    0  0.31726188092E+02 -0.15408176536E+02  0.13639194983E+03  0.14087841173E+03  0.00000000000E+00 0. -1.
         11    1    3    3    0    0  0.10431665660E+02  0.20632445643E+02 -0.60904885446E+01  0.23908398365E+02  0.00000000000E+00 0.  1.
</event>
<event>
 7    1  0.6584658E-006  0.1000938E+03  0.7561462E-02  0.1280099E+00
         -1   -1    0    0    0  501 -0.00000000000E+00  0.00000000000E+00  0.44384196337E+03  0.44384196337E+03  0.00000000000E+00 0.  1.
          1   -1    0    0  501    0  0.00000000000E+00 -0.00000000000E+00 -0.33411630435E+02  0.33411630435E+02  0.00000000000E+00 0. -1.
         23    2    1    2    0    0  0.30685077535E+02 -0.16058989852E+02  0.99835856766E+02  0.14062852627E+03  0.92788571314E+02 0.  0.
          5    1    1    2  502    0 -0.77460099709E+02  0.12444899905E+02  0.15086606691E+03  0.17009698741E+03  0.41800000000E+01 0.  1.
         -5    1    1    2    0  502  0.46775022174E+02  0.36140899466E+01  0.15972840926E+03  0.16652808012E+03  0.41800000000E+01 0.  1.
        -11    1    3    3    0    0 -0.18714868093E+02 -0.16752856473E+02  0.85606568323E+02  0.89215408018E+02  0.00000000000E+00 0.  1.
         11    1    3    3    0    0  0.49399945627E+02  0.69386662070E+00  0.14229288443E+02  0.51413118253E+02  0.00000000000E+00 0. -1.
</event>
<event>
 7    1  0.6584658E-006  0.7752202E+02  0.7561462E-02  0.1336234E+00
         -1   -1    0    0    0  501 -0.00000000000E+00  0.00000000000E+00  0.54437386376E+02  0.54437386376E+02  0.00000000000E+00 0.  1.
          1   -1    0    0  501    0  0.00000000000E+00 -0.00000000000E+00 -0.25463519028E+03  0.25463519028E+03  0.00000000000E+00 0. -1.
         23    2    1    2    0    0 -0.19447211755E+02  0.13630723144E+00 -0.14265886072E+03  0.17003059683E+03  0.90446894316E+02 0.  0.
          5    1    1    2  502    0  0.28320127637E+02 -0.35305340640E+02  0.22759392124E+02  0.50832657189E+02  0.41800000000E+01 0.  1.
         -5    1    1    2    0  502 -0.88729158823E+01  0.35169033408E+02 -0.80298335307E+02  0.88209322638E+02  0.41800000000E+01 0.  1.
        -11    1    3    3    0    0 -0.45647298891E+02 -0.63555085475E+01 -0.13396753275E+03  0.14167345628E+03  0.00000000000E+00 0. -1.
         11    1    3    3    0    0  0.26200087136E+02  0.64918157790E+01 -0.86913279752E+01  0.28357140547E+02  0.00000000000E+00 0.  1.
</event>
<event>
 7    1  0.6584658E-006  0.6604955E+02  0.7561462E-02  0.1374066E+00
          2   -1    0    0  501    0  0.00000000000E+00  0.00000000000E+00  0.82174947035E+03  0.82174947035E+03  0.00000000000E+00 0. -1.
         -2   -1    0    0    0  501 -0.00000000000E+00 -0.00000000000E+00 -0.14547215769E+02  0.14547215769E+02  0.00000000000E+00 0.  1.
         23    2    1    2    0    0  0.12983428229E+02 -0.58360852484E+01  0.36400326255E+03  0.37556338111E+03  0.91361090091E+02 0.  0.
          5    1    1    2  502    0  0.79491264299E+00 -0.14750853572E+02 -0.14083814338E+01  0.15416728105E+02  0.41800000000E+01 0.  1.
         -5    1    1    2    0  502 -0.13778340872E+02  0.20586938820E+02  0.44460737346E+03  0.44531657690E+03  0.41800000000E+01 0.  1.
        -11    1    3    3    0    0 -0.33029415272E+02  0.20238795757E+02  0.17934302627E+03  0.18347880585E+03  0.00000000000E+00 0. -1.
         11    1    3    3    0    0  0.46012843501E+02 -0.26074881006E+02  0.18466023629E+03  0.19208457526E+03  0.00000000000E+00 0.  1.
</event>
<event>
 7    1  0.6584658E-006  0.1227104E+03  0.7561462E-02  0.1238692E+00
         -2   -1    0    0    0  501 -0.00000000000E+00  0.00000000000E+00  0.43996532248E+02  0.43996532248E+02  0.00000000000E+00 0.  1.
          2   -1    0    0  501    0  0.00000000000E+00 -0.00000000000E+00 -0.41024901971E+03  0.41024901971E+03  0.00000000000E+00 0. -1.
         23    2    1    2    0    0  0.47419193922E+02  0.55151638927E+02 -0.23461150565E+03  0.26216719034E+03  0.91644933726E+02 0.  0.
          5    1    1    2  502    0  0.24584449051E+02  0.15560040056E+02 -0.45583071720E+01  0.29744924710E+02  0.41800000000E+01 0. -1.
         -5    1    1    2    0  502 -0.72003642973E+02 -0.70711678983E+02 -0.12708267465E+03  0.16233343692E+03  0.41800000000E+01 0.  1.
        -11    1    3    3    0    0  0.29072048098E+02  0.79434144759E+02 -0.19196167999E+03  0.20977190927E+03  0.00000000000E+00 0. -1.
         11    1    3    3    0    0  0.18347145825E+02 -0.24282505832E+02 -0.42649825660E+02  0.52395281068E+02  0.00000000000E+00 0.  1.
</event>
<event>
 7    1  0.6584658E-006  0.1210528E+03  0.7561462E-02  0.1241370E+00
          1   -1    0    0  501    0  0.00000000000E+00  0.00000000000E+00  0.11000438617E+03  0.11000438617E+03  0.00000000000E+00 0. -1.
         -1   -1    0    0    0  501 -0.00000000000E+00 -0.00000000000E+00 -0.15581194144E+03  0.15581194144E+03  0.00000000000E+00 0.  1.
         23    2    1    2    0    0  0.21230988371E+02 -0.69247944182E+02 -0.11216548447E+01  0.11452243535E+03  0.88702296746E+02 0.  0.
          5    1    1    2  502    0 -0.69046357148E+02  0.55928419537E+02 -0.77677766603E+01  0.89292767353E+02  0.41800000000E+01 0. -1.
         -5    1    1    2    0  502  0.47815368777E+02  0.13319524645E+02 -0.36918123757E+02  0.62001124908E+02  0.41800000000E+01 0. -1.
        -11    1    3    3    0    0 -0.27171748790E+02 -0.16684349265E+02  0.22768349280E+02  0.39179958801E+02  0.00000000000E+00 0. -1.
         11    1    3    3    0    0  0.48402737161E+02 -0.52563594917E+02 -0.23890004125E+02  0.75342476548E+02  0.00000000000E+00 0.  1.
</event>
<event>
 7    1  0.6584658E-006  0.7880379E+02  0.7561462E-02  0.1332481E+00
         -3   -1    0    0    0  501 -0.00000000000E+00  0.00000000000E+00  0.91959577365E+03  0.91959577365E+03  0.00000000000E+00 0.  1.
          3   -1    0    0  501    0  0.00000000000E+00 -0.00000000000E+00 -0.44018087072E+02  0.44018087072E+02  0.00000000000E+00 0. -1.
         23    2    1    2    0    0  0.16688999498E+01  0.74035132828E+02  0.51161702093E+02  0.12755509092E+03  0.90381388233E+02 0.  0.
          5    1    1    2  502    0  0.11628731611E+02 -0.45591820825E+02  0.96371700977E+02  0.10732575960E+03  0.41800000000E+01 0. -1.
         -5    1    1    2    0  502 -0.13297631561E+02 -0.28443312003E+02  0.72804428351E+03  0.72873301020E+03  0.41800000000E+01 0.  1.
        -11    1    3    3    0    0 -0.12302627341E+02  0.27918724361E+02 -0.23626384163E+02  0.38587767985E+02  0.00000000000E+00 0. -1.
         11    1    3    3    0    0  0.13971527291E+02  0.46116408467E+02  0.74788086255E+02  0.88967322936E+02  0.00000000000E+00 0.  1.
</event>
<event>
 7    1  0.6584658E-006  0.9478036E+02  0.7561462E-02  0.1291672E+00
         -3   -1    0    0    0  501 -0.00000000000E+00  0.00000000000E+00  0.35139109394E+03  0.35139109394E+03  0.00000000000E+00 0.  1.
          3   -1    0    0  501    0  0.00000000000E+00 -0.00000000000E+00 -0.45595672972E+02  0.45595672972E+02  0.00000000000E+00 0. -1.
         23    2    1    2    0    0  0.18900372687E+02 -0.11328676067E+02  0.38008013587E+02  0.10060333045E+03  0.90503359122E+02 0.  0.
          5    1    1    2  502    0 -0.67237200898E+02  0.30929031652E+02  0.14306246371E+03  0.16112661825E+03  0.41800000000E+01 0.  1.
         -5    1    1    2    0  502  0.48336828211E+02 -0.19600355585E+02  0.12472494366E+03  0.13525681821E+03  0.41800000000E+01 0.  1.
        -11    1    3    3    0    0 -0.21562440620E+02 -0.52148821434E+01  0.52656232722E+02  0.57138539408E+02  0.00000000000E+00 0.  1.
         11    1    3    3    0    0  0.40462813306E+02 -0.61137939234E+01 -0.14648219134E+02  0.43464791045E+02  0.00000000000E+00 0. -1.
</event>
<event>
 7    1  0.6584658E-006  0.7323666E+02  0.7561462E-02  0.1349420E+00
          1   -1    0    0  501    0  0.00000000000E+00  0.00000000000E+00  0.17001812955E+03  0.17001812955E+03  0.00000000000E+00 0. -1.
         -1   -1    0    0    0  501 -0.00000000000E+00 -0.00000000000E+00 -0.77538585284E+02  0.77538585284E+02  0.00000000000E+00 0.  1.
         23    2    1    2    0    0 -0.11204229923E+02  0.32429343751E+02  0.63298572915E+02  0.11460783040E+03  0.89168651164E+02 0.  0.
          5    1    1    2  502    0 -0.12257887993E+02  0.79916929402E+01 -0.43697065024E+02  0.46271253125E+02  0.41800000000E+01 0. -1.
         -5    1    1    2    0  502  0.23462117916E+02 -0.40421036692E+02  0.72878036377E+02  0.86677631315E+02  0.41800000000E+01 0. -1.
        -11    1    3    3    0    0 -0.43536928604E+02  0.91439137377E+01  0.59907475248E+02  0.74618904450E+02  0.00000000000E+00 0.  1.
         11    1    3    3    0    0  0.32332698680E+02  0.23285430014E+02  0.33910976675E+01  0.39988925946E+02  0.00000000000E+00 0. -1.
</event>
<event>
 7    1  0.6584658E-006  0.9818706E+02  0.7561462E-02  0.1284155E+00
         -2   -1    0    0    0  501 -0.00000000000E+00  0.00000000000E+00  0.18336386101E+03  0.18336386101E+03  0.00000000000E+00 0.  1.
          2   -1    0    0  501    0  0.00000000000E+00 -0.00000000000E+00 -0.78333755693E+02  0.78333755693E+02  0.00000000000E+00 0. -1.
         23    2    1    2    0    0 -0.49710476301E+02 -0.40228567120E+01  0.42999615507E+02  0.11343295025E+03  0.92362072510E+02 0.  0.
          5    1    1    2  502    0 -0.25777331984E+02  0.14213874280E+02  0.65464946549E+02  0.71900185625E+02  0.41800000000E+01 0.  1.
         -5    1    1    2    0  502  0.75487808284E+02 -0.10191017568E+02 -0.34344567427E+01  0.76364480825E+02  0.41800000000E+01 0.  1.
        -11    1    3    3    0    0 -0.31857771964E+02 -0.39436103064E+02  0.52151711846E+02  0.72731869960E+02  0.00000000000E+00 0.  1.
         11    1    3    3    0    0 -0.17852704336E+02  0.35413246352E+02 -0.91520963388E+01  0.40701080289E+02  0.00000000000E+00 0. -1.
</event>
<event>
 7    1  0.6584658E-006  0.1925155E+03  0.7561462E-02  0.1156212E+00
         -1   -1    0    0    0  501 -0.00000000000E+00  0.00000000000E+00  0.41172947989E+03  0.41172947989E+03  0.00000000000E+00 0.  1.
          1   -1    0    0  501    0  0.00000000000E+00 -0.00000000000E+00 -0.14444772598E+03  0.14444772598E+03  0.00000000000E+00 0. -1.
         23    2    1    2    0    0 -0.31226807535E+02  0.14716951209E+03 -0.32205150308E+02  0.17952534992E+03  0.92510544046E+02 0.  0.
          5    1    1    2  502    0  0.27538911273E+02  0.26818814165E+02  0.11852023955E+02  0.40442345372E+02  0.41800000000E+01 0. -1.
         -5    1    1    2    0  502  0.36878962619E+01 -0.17398832626E+03  0.28763488026E+03  0.33620951057E+03  0.41800000000E+01 0.  1.
        -11    1    3    3    0    0 -0.58590027162E+02  0.75470351027E+02 -0.37408781163E+02  0.10260595536E+03  0.00000000000E+00 0.  1.
         11    1    3    3    0    0  0.27363219627E+02  0.71699161067E+02  0.52036308553E+01  0.76919394564E+02  0.00000000000E+00 0. -1.
</event>
<event>
 7    1  0.6584658E-006  0.1100477E+03  0.7561462E-02  0.1260481E+00
          1   -1    0    0  501    0  0.00000000000E+00  0.00000000000E+00  0.56963100044E+02  0.56963100044E+02  0.00000000000E+00 0. -1.
         -1   -1    0    0    0  501 -0.00000000000E+00 -0.00000000000E+00 -0.32574265801E+03  0.32574265801E+03  0.00000000000E+00 0.  1.
         23    2    1    2    0    0 -0.83926925851E+01  0.57493327547E+02 -0.50631578147E+02  0.12461290305E+03  0.97922923261E+02 0.  0.
          5    1    1    2  502    0 -0.45502609930E+02 -0.65850267541E+02 -0.10212221838E+03  0.12981974092E+03  0.41800000000E+01 0. -1.
         -5    1    1    2    0  502  0.53895302515E+02  0.83569399940E+01 -0.11602576144E+03  0.12827311409E+03  0.41800000000E+01 0. -1.
        -11    1    3    3    0    0  0.27194980175E+02  0.27891199241E+02 -0.65315241344E+02  0.76049764586E+02  0.00000000000E+00 0.  1.
         11    1    3    3    0    0 -0.35587672760E+02  0.29602128307E+02  0.14683663197E+02  0.48563138465E+02  0.00000000000E+00 0. -1.
</event>
<event>
 7    1  0.6584658E-006  0.1114341E+03  0.7561462E-02  0.1257937E+00
         -2   -1    0    0    0  501 -0.00000000000E+00  0.00000000000E+00  0.62872313834E+02  0.62872313834E+02  0.00000000000E+00 0.  1.
          2   -1    0    0  501    0  0.00000000000E+00 -0.00000000000E+00 -0.40160672319E+03  0.40160672319E+03  0.00000000000E+00 0. -1.
         23    2    1    2    0    0 -0.18410853030E+02 -0.42154017386E+02 -0.31193425061E+03  0.32853043452E+03  0.92267811343E+02 0.  0.
          5    1    1    2  502    0  0.38703602136E+02  0.72936786838E+02 -0.45530322382E+02  0.94383400812E+02  0.41800000000E+01 0. -1.
         -5    1    1    2    0  502 -0.20292749106E+02 -0.30782769452E+02  0.18730163641E+02  0.41565201689E+02  0.41800000000E+01 0. -1.
        -11    1    3    3    0    0 -0.43753372281E+02 -0.58409092448E+02 -0.22303644758E+03  0.23467261582E+03  0.00000000000E+00 0. -1.
         11    1    3    3    0    0  0.25342519251E+02  0.16255075062E+02 -0.88897803038E+02  0.93857818706E+02  0.00000000000E+00 0.  1.
</event>
<event>
 7    1  0.6584658E-006  0.8298208E+02  0.7561462E-02  0.1320796E+00
         -4   -1    0    0    0  501 -0.00000000000E+00  0.00000000000E+00  0.64539783068E+02  0.64539783068E+02  0.00000000000E+00 0.  1.
          4   -1    0    0  501    0  0.00000000000E+00 -0.00000000000E+00 -0.22934456048E+03  0.22934456048E+03  0.00000000000E+00 0. -1.
         23    2    1    2    0    0 -0.23240923601E+02 -0.13868170172E+02 -0.13797887727E+03  0.15740715438E+03  0.70755741847E+02 0.  0.
          5    1    1    2  502    0  0.53131553207E+02  0.28475305193E+02 -0.62903050206E+02  0.87224257390E+02  0.41800000000E+01 0. -1.
         -5    1    1    2    0  502 -0.29890629606E+02 -0.14607135021E+02  0.36077150064E+02  0.49252931776E+02  0.41800000000E+01 0.  1.
        -11    1    3    3    0    0 -0.32948109540E+02  0.18795624605E+02 -0.47912808640E+02  0.61110479120E+02  0.00000000000E+00 0. -1.
         11    1    3    3    0    0  0.97071859384E+01 -0.32663794777E+02 -0.90066068630E+02  0.96296675262E+02  0.00000000000E+00 0.  1.
</event>
<event>
 7    1  0.6584658E-006  0.1139138E+03  0.7561462E-02  0.1253489E+00
         -2   -1    0    0    0  501 -0.00000000000E+00  0.00000000000E+00  0.10239927105E+03  0.10239927105E+03  0.00000000000E+00 0.  1.
          2   -1    0    0  501    0  0.00000000000E+00 -0.00000000000E+00 -0.25658293984E+03  0.25658293984E+03  0.00000000000E+00 0. -1.
         23    2    1    2    0    0 -0.18107216280E+02 -0.66629847399E+02 -0.17972672454E+03  0.21383569659E+03  0.93040860795E+02 0.  0.
          5    1    1    2  502    0  0.44768125500E+02 -0.16364775204E+02 -0.13238213605E+02  0.49645882283E+02  0.41800000000E+01 0. -1.
         -5    1    1    2    0  502 -0.26660909220E+02  0.82994622603E+02  0.38781269362E+02  0.95500632012E+02  0.41800000000E+01 0. -1.
        -11    1    3    3    0    0  0.71474884657E+01 -0.67069048044E+02 -0.17577284155E+03  0.18826958231E+03  0.00000000000E+00 0. -1.
         11    1    3    3    0    0 -0.25254704746E+02  0.43920064556E+00 -0.39538829964E+01  0.25566114287E+02  0.00000000000E+00 0.  1.
</event>
<event>
 7    1  0.6584658E-006  0.1346337E+03  0.7561462E-02  0.1220738E+00
          2   -1    0    0  501    0  0.00000000000E+00  0.00000000000E+00  0.46504454148E+02  0.46504454148E+02  0.00000000000E+00 0. -1.
         -2   -1    0    0    0  501 -0.00000000000E+00 -0.00000000000E+00 -0.52975141277E+03  0.52975141277E+03  0.00000000000E+00 0.  1.
         23    2    1    2    0    0  0.47882764661E+02 -0.10231530388E+03 -0.18990044861E+03  0.23971707746E+03  0.92956529013E+02 0.  0.
          5    1    1    2  502    0  0.19354051562E+02  0.40866203765E+02 -0.22348254486E+02  0.50611686403E+02  0.41800000000E+01 0. -1.
         -5    1    1    2    0  502 -0.67236816223E+02  0.61449100114E+02 -0.27099825553E+03  0.28592710305E+03  0.41800000000E+01 0.  1.
        -11    1    3    3    0    0 -0.14163049318E+02 -0.48552970824E+02 -0.27080581718E+02  0.57370208716E+02  0.00000000000E+00 0.  1.
         11    1    3    3    0    0  0.62045813980E+02 -0.53762333055E+02 -0.16281986689E+03  0.18234686875E+03  0.00000000000E+00 0. -1.
</event>
<event>
 7    1  0.6584658E-006  0.9969498E+02  0.7561462E-02  0.1280939E+00
          2   -1    0    0  501    0  0.00000000000E+00  0.00000000000E+00  0.14858430772E+03  0.14858430772E+03  0.00000000000E+00 0. -1.
         -2   -1    0    0    0  501 -0.00000000000E+00 -0.00000000000E+00 -0.16953539674E+03  0.16953539674E+03  0.00000000000E+00 0.  1.
         23    2    1    2    0    0  0.97653612163E+02  0.30226873651E+01  0.52802697415E+02  0.14310982450E+03  0.90260359003E+02 0.  0.
          5    1    1    2  502    0 -0.61753988144E+02  0.77551437305E+01  0.26591822717E+02  0.67810727333E+02  0.41800000000E+01 0.  1.
         -5    1    1    2    0  502 -0.35899624019E+02 -0.10777831096E+02 -0.10034560915E+03  0.10719915263E+03  0.41800000000E+01 0.  1.
        -11    1    3    3    0    0  0.85342980869E+02  0.86106592473E+01  0.77080742383E+02  0.11532132796E+03  0.00000000000E+00 0. -1.
         11    1    3    3    0    0  0.12310631295E+02 -0.55879718822E+01 -0.24278044967E+02  0.27788496542E+02  0.00000000000E+00 0.  1.
</event>
<event>
 7    1  0.6584658E-006  0.1083806E+03  0.7561462E-02  0.1263598E+00
         -2   -1    0    0    0  501 -0.00000000000E+00  0.00000000000E+00  0.17185948900E+02  0.17185948900E+02  0.00000000000E+00 0.  1.
          2   -1    0    0  501    0  0.00000000000E+00 -0.00000000000E+00 -0.77113136017E+03  0.77113136017E+03  0.00000000000E+00 0. -1.
         23    2    1    2    0    0 -0.14346000862E+02 -0.38684525606E+02 -0.23891084423E+03  0.25839182451E+03  0.89362426237E+02 0.  0.
          5    1    1    2  502    0  0.63320485444E+02  0.25951372041E+02 -0.36901407231E+03  0.37532894312E+03  0.41800000000E+01 0. -1.
         -5    1    1    2    0  502 -0.48974484583E+02  0.12733153564E+02 -0.14602049474E+03  0.15459654143E+03  0.41800000000E+01 0.  1.
        -11    1    3    3    0    0 -0.41156718524E+02  0.95421049173E+01 -0.12214114311E+03  0.12924158033E+03  0.00000000000E+00 0.  1.
         11    1    3    3    0    0  0.26810717663E+02 -0.48226630523E+02 -0.11676970112E+03  0.12915024418E+03  0.00000000000E+00 0. -1.
</event>
<event>
 7    1  0.6584658E-006  0.1280331E+03  0.7561462E-02  0.1230404E+00
          2   -1    0    0  501    0  0.00000000000E+00  0.00000000000E+00  0.68568251749E+03  0.68568251749E+03  0.00000000000E+00 0. -1.
         -2   -1    0    0    0  501 -0.00000000000E+00 -0.00000000000E+00 -0.30136126758E+02  0.30136126758E+02  0.00000000000E+00 0.  1.
         23    2    1    2    0    0  0.51230973639E+02  0.31079646718E+02  0.28220040154E+03  0.30301139523E+03  0.92672983727E+02 0.  0.
          5    1    1    2  502    0 -0.20739947949E+02  0.57908761023E+02  0.25078462514E+03  0.25825175827E+03  0.41800000000E+01 0. -1.
         -5    1    1    2    0  502 -0.30491025690E+02 -0.88988407741E+02  0.12256136406E+03  0.15455549074E+03  0.41800000000E+01 0.  1.
        -11    1    3    3    0    0 -0.12870889030E+02 -0.16135468859E+02  0.19072054193E+02  0.28102604699E+02  0.00000000000E+00 0.  1.
         11    1    3    3    0    0  0.64101862669E+02  0.47215115577E+02  0.26312834734E+03  0.27490879053E+03  0.00000000000E+00 0. -1.
</event>
<event>
 7    1  0.6584658E-006  0.1177847E+03  0.7561462E-02  0.1246797E+00
          1   -1    0    0  501    0  0.00000000000E+00  0.00000000000E+00  0.13649675363E+03  0.13649675363E+03  0.00000000000E+00 0. -1.
         -1   -1    0    0    0  501 -0.00000000000E+00 -0.00000000000E+00 -0.18690708499E+03  0.18690708499E+03  0.00000000000E+00 0.  1.
         23    2    1    2    0    0  0.74291600997E+02  0.40198562747E+02  0.58376081221E+02  0.13739870731E+03  0.91298803317E+02 0.  0.
          5    1    1    2  502    0 -0.44303549019E+02  0.42397775468E+02 -0.32307877220E+02  0.69438081416E+02  0.41800000000E+01 0. -1.
         -5    1    1    2    0  502 -0.29988051979E+02 -0.82596338215E+02 -0.76478535363E+02  0.11656704989E+03  0.41800000000E+01 0. -1.
        -11    1    3    3    0    0  0.49630117042E+02  0.35523910700E+02 -0.12420144831E+02  0.62284482390E+02  0.00000000000E+00 0.  1.
         11    1    3    3    0    0  0.24661483956E+02  0.46746520462E+01  0.70796226052E+02  0.75114224924E+02  0.00000000000E+00 0. -1.
</event>
<event>
 7    1  0.6584658E-006  0.1169535E+03  0.7561462E-02  0.1248209E+00
          2   -1    0    0  501    0  0.00000000000E+00  0.00000000000E+00  0.51442291451E+03  0.51442291451E+03  0.00000000000E+00 0. -1.
         -2   -1    0    0    0  501 -0.00000000000E+00 -0.00000000000E+00 -0.27782052484E+02  0.27782052484E+02  0.00000000000E+00 0.  1.
         23    2    1    2    0    0 -0.32582717546E+02 -0.37004848221E+02  0.24640193589E+03  0.26690000829E+03  0.89948363753E+02 0.  0.
          5    1    1    2  502    0 -0.34339958979E+02  0.54489583815E+02  0.10273683324E+03  0.12132879638E+03  0.41800000000E+01 0.  1.
         -5    1    1    2    0  502  0.66922676525E+02 -0.17484735594E+02  0.13750209290E+03  0.15397616232E+03  0.41800000000E+01 0.  1.
        -11    1    3    3    0    0  0.16865980376E+02  0.18967827636E+02  0.91141565381E+02  0.94609855297E+02  0.00000000000E+00 0.  1.
         11    1    3    3    0    0 -0.49448697922E+02 -0.55972675856E+02  0.15526037051E+03  0.17229015299E+03  0.00000000000E+00 0. -1.
</event>
<event>
 7    1  0.6584658E-006  0.1036245E+03  0.7561462E-02  0.1272854E+00
         -1   -1    0    0    0  501 -0.00000000000E+00  0.00000000000E+00  0.65442332719E+02  0.65442332719E+02  0.00000000000E+00 0.  1.
          1   -1    0    0  501    0  0.00000000000E+00 -0.00000000000E+00 -0.32952672893E+03  0.32952672893E+03  0.00000000000E+00 0. -1.
         23    2    1    2    0    0 -0.42339269266E+02  0.57744685390E+02 -0.21793749601E+03  0.24362842984E+03  0.82042655045E+02 0.  0.
          5    1    1    2  502    0 -0.31502811116E+02  0.32775984885E+01  0.17333364065E+02  0.36346769731E+02  0.41800000000E+01 0. -1.
         -5    1    1    2    0  502  0.73842080382E+02 -0.61022283879E+02 -0.63480264273E+02  0.11499386208E+03  0.41800000000E+01 0. -1.
        -11    1    3    3    0    0  0.15476733829E+01  0.24017571939E+02 -0.63076362402E+01  0.24880219647E+02  0.00000000000E+00 0.  1.
         11    1    3    3    0    0 -0.43886942649E+02  0.33727113451E+02 -0.21162985977E+03  0.21874821019E+03  0.00000000000E+00 0. -1.
</event>
<event>
 7    1  0.6584658E-006  0.1214149E+03  0.7561462E-02  0.1240781E+00
         -3   -1    0    0    0  501 -0.00000000000E+00  0.00000000000E+00  0.62579737790E+03  0.62579737790E+03  0.00000000000E+00 0.  1.
          3   -1    0    0  501    0  0.00000000000E+00 -0.00000000000E+00 -0.31085693405E+02  0.31085693405E+02  0.00000000000E+00 0. -1.
         23    2    1    2    0    0 -0.84312943865E+02  0.11210455584E+02  0.22648214604E+03  0.25879460144E+03  0.91902864159E+02 0.  0.
          5    1    1    2  502    0  0.30730955952E+02  0.54427655176E+02  0.20156843580E+03  0.21107834568E+03  0.41800000000E+01 0. -1.
         -5    1    1    2    0  502  0.53581987913E+02 -0.65638110759E+02  0.16666110265E+03  0.18701012419E+03  0.41800000000E+01 0. -1.
        -11    1    3    3    0    0 -0.79509629556E+02 -0.37910742243E+01  0.22936181610E+03  0.24278178705E+03  0.00000000000E+00 0.  1.
         11    1    3    3    0    0 -0.48033143092E+01  0.15001529808E+02 -0.28796700654E+01  0.16012814388E+02  0.00000000000E+00 0. -1.
</event>
<event>
 7    1  0.6584658E-006  0.7554946E+02  0.7561462E-02  0.1342178E+00
          2   -1    0    0  501    0  0.00000000000E+00  0.00000000000E+00  0.19485691634E+03  0.19485691634E+03  0.00000000000E+00 0.  1.
         -2   -1    0    0    0  501 -0.00000000000E+00 -0.00000000000E+00 -0.67183459863E+02  0.67183459863E+02  0.00000000000E+00 0. -1.
         23    2    1    2    0    0 -0.18533819718E+02 -0.29649776412E+01  0.93476096279E+02  0.13100836433E+03  0.89850528009E+02 0.  0.
          5    1    1    2  502    0 -0.43514394656E+02  0.24299385794E+02 -0.11049573393E+02  0.51220388171E+02  0.41800000000E+01 0. -1.
         -5    1    1    2    0  502  0.62048214374E+02 -0.21334408153E+02  0.45246933591E+02  0.79811623700E+02  0.41800000000E+01 0. -1.
        -11    1    3    3    0    0 -0.15109417864E+02  0.12430939220E+02  0.10788530904E+03  0.10964516709E+03  0.00000000000E+00 0.  1.
         11    1    3    3    0    0 -0.34244018543E+01 -0.15395916861E+02 -0.14409212764E+02  0.21363197245E+02  0.00000000000E+00 0. -1.
</event>
<event>
 7    1  0.6584658E-006  0.9978036E+02  0.7561462E-02  0.1280759E+00
         -1   -1    0    0    0  501 -0.00000000000E+00  0.00000000000E+00  0.37963373984E+02  0.37963373984E+02  0.00000000000E+00 0.  1.
          1   -1    0    0  501    0  0.00000000000E+00 -0.00000000000E+00 -0.35695095167E+03  0.35695095167E+03  0.00000000000E+00 0. -1.
         23    2    1    2    0    0  0.39772915679E+02 -0.12747855294E+02 -0.14839704285E+03  0.17929279238E+03  0.91541413774E+02 0.  0.
          5    1    1    2  502    0  0.34793356031E+02  0.17790575923E+02 -0.13406965794E+02  0.41524707674E+02  0.41800000000E+01 0.  1.
         -5    1    1    2    0  502 -0.74566271709E+02 -0.50427206294E+01 -0.15718356904E+03  0.17409682560E+03  0.41800000000E+01 0.  1.
        -11    1    3    3    0    0 -0.22192685881E+02 -0.65095137184E+01 -0.60317815446E+01  0.23901285824E+02  0.00000000000E+00 0.  1.
         11    1    3    3    0    0  0.61965601560E+02 -0.62383415755E+01 -0.14236526131E+03  0.15539150656E+03  0.00000000000E+00 0. -1.
</event>
<event>
 7    1  0.6584658E-006  0.1154606E+03  0.7561462E-02  0.1250779E+00
          2   -1    0    0  501    0  0.00000000000E+00  0.00000000000E+00  0.31804156940E+03  0.31804156940E+03  0.00000000000E+00 0. -1.
         -2   -1    0    0    0  501 -0.00000000000E+00 -0.00000000000E+00 -0.79884399572E+02  0.79884399572E+02  0.00000000000E+00 0.  1.
         23    2    1    2    0    0 -0.74808917732E+02 -0.25287916223E+02  0.21932701567E+03  0.24880366404E+03  0.86965916052E+02 0.  0.
          5    1    1    2  502    0 -0.37136625282E+01 -0.24292315276E+02  0.45960015908E+02  0.52284828900E+02  0.41800000000E+01 0. -1.
         -5    1    1    2    0  502  0.78522580260E+02  0.49580231500E+02 -0.27129861752E+02  0.96837476036E+02  0.41800000000E+01 0. -1.
        -11    1    3    3    0    0  0.54820504574E+01 -0.31997259451E+02  0.35559256882E+02  0.48149125014E+02  0.00000000000E+00 0.  1.
         11    1    3    3    0    0 -0.80290968189E+02  0.67093432275E+01  0.18376775879E+03  0.20065453902E+03  0.00000000000E+00 0. -1.
</event>
<event>
 7    1  0.6584658E-006  0.1082340E+03  0.7561462E-02  0.1263876E+00
         -1   -1    0    0    0  501 -0.00000000000E+00  0.00000000000E+00  0.26876935812E+03  0.26876935812E+03  0.00000000000E+00 0.  1.
          1   -1    0    0  501    0  0.00000000000E+00 -0.00000000000E+00 -0.57890436502E+02  0.57890436502E+02  0.00000000000E+00 0. -1.
         23    2    1    2    0    0  0.30570466349E+02  0.24156178275E+02  0.31050173745E+02  0.10416920815E+03  0.91482436978E+02 0.  0.
          5    1    1    2  502    0 -0.19680103459E+02 -0.72415986321E+02  0.13976782232E+03  0.15869435435E+03  0.41800000000E+01 0.  1.
         -5    1    1    2    0  502 -0.10890362890E+02  0.48259808046E+02  0.40060925552E+02  0.63796232120E+02  0.41800000000E+01 0.  1.
        -11    1    3    3    0    0  0.37237570156E+02  0.51478942938E+02  0.39487684081E+02  0.74806386033E+02  0.00000000000E+00 0.  1.
         11    1    3    3    0    0 -0.66671038074E+01 -0.27322764664E+02 -0.84375103354E+01  0.29362822117E+02  0.00000000000E+00 0. -1.
</event>
<event>
 7    1  0.6584658E-006  0.1131800E+03  0.7561462E-02  0.1254792E+00
          3   -1    0    0  501    0  0.00000000000E+00  0.00000000000E+00  0.14576318037E+03  0.14576318037E+03  0.00000000000E+00 0. -1.
         -3   -1    0    0    0  501 -0.00000000000E+00 -0.00000000000E+00 -0.13314408321E+03  0.13314408321E+03  0.00000000000E+00 0.  1.
         23    2    1    2    0    0 -0.79842157857E+02  0.23198652531E+02  0.34155462040E+02  0.12705179936E+03  0.89792073616E+02 0.  0.
          5    1    1    2  502    0 -0.90251039259E+01  0.43459213921E+01 -0.52577857786E+02  0.53686525898E+02  0.41800000000E+01 0. -1.
         -5    1    1    2    0  502  0.88867261783E+02 -0.27544573923E+02  0.31041492902E+02  0.98168938320E+02  0.41800000000E+01 0. -1.
        -11    1    3    3    0    0 -0.89003922748E+02 -0.84704606562E+01  0.25168399512E+02  0.92881081509E+02  0.00000000000E+00 0.  1.
         11    1    3    3    0    0  0.91617648905E+01  0.31669113187E+02  0.89870625277E+01  0.34170717856E+02  0.00000000000E+00 0. -1.
</event>
<event>
 7    1  0.6584658E-006  0.1017985E+03  0.7561462E-02  0.1276559E+00
         -2   -1    0    0    0  501 -0.00000000000E+00  0.00000000000E+00  0.79723190723E+02  0.79723190723E+02  0.00000000000E+00 0.  1.
          2   -1    0    0  501    0  0.00000000000E+00 -0.00000000000E+00 -0.19331731346E+03  0.19331731346E+03  0.00000000000E+00 0. -1.
         23    2    1    2    0    0  0.57315065828E+02 -0.12799140578E+02 -0.65252292418E+02  0.12663977636E+03  0.91273964093E+02 0.  0.
          5    1    1    2  502    0 -0.51253069765E+02  0.66437575437E+02 -0.27810408927E+02  0.88497004667E+02  0.41800000000E+01 0. -1.
         -5    1    1    2    0  502 -0.60619960632E+01 -0.53638434860E+02 -0.20531421392E+02  0.57903723152E+02  0.41800000000E+01 0. -1.
        -11    1    3    3    0    0  0.48991822959E+02 -0.21410172098E+02 -0.86824539217E+02  0.10196614534E+03  0.00000000000E+00 0. -1.
         11    1    3    3    0    0  0.83232428693E+01  0.86110315201E+01  0.21572246799E+02  0.24673631019E+02  0.00000000000E+00 0.  1.
</event>
<event>
 7    1  0.6584658E-006  0.1073927E+03  0.7561462E-02  0.1265476E+00
          1   -1    0    0  501    0  0.00000000000E+00  0.00000000000E+00  0.36856801433E+02  0.36856801433E+02  0.00000000000E+00 0. -1.
         -1   -1    0    0    0  501 -0.00000000000E+00 -0.00000000000E+00 -0.43050427439E+03  0.43050427439E+03  0.00000000000E+00 0.  1.
         23    2    1    2    0    0 -0.46791588181E+02 -0.99181501424E+01 -0.10446644565E+03  0.14867221978E+03  0.94352362141E+02 0.  0.
          5    1    1    2  502    0 -0.34464839589E+02 -0.26045744653E+02 -0.73109930384E+02  0.85021998937E+02  0.41800000000E+01 0. -1.
         -5    1    1    2    0  502  0.81256427769E+02  0.35963894795E+02 -0.21607109693E+03  0.23366685711E+03  0.41800000000E+01 0. -1.
        -11    1    3    3    0    0  0.37779062189E+01 -0.28351292513E+02  0.27196734989E+01  0.28730906469E+02  0.00000000000E+00 0.  1.
         11    1    3    3    0    0 -0.50569494400E+02  0.18433142371E+02 -0.10718611914E+03  0.11994131331E+03  0.00000000000E+00 0. -1.
</event>
<event>
 7    1  0.6584658E-006  0.1251767E+03  0.7561462E-02  0.1234793E+00
          2   -1    0    0  501    0  0.00000000000E+00  0.00000000000E+00  0.61345109746E+03  0.61345109746E+03  0.00000000000E+00 0. -1.
         -2   -1    0    0    0  501 -0.00000000000E+00 -0.00000000000E+00 -0.52825639198E+02  0.52825639198E+02  0.00000000000E+00 0.  1.
         23    2    1    2    0    0  0.52618121576E+02 -0.84067721036E+02  0.45801577647E+03  0.47650950409E+03  0.86294887204E+02 0.  0.
          5    1    1    2  502    0  0.18193654769E+02  0.20871011338E+02 -0.20180516702E+02  0.34515704288E+02  0.41800000000E+01 0.  1.
         -5    1    1    2    0  502 -0.70811776345E+02  0.63196709698E+02  0.12279019849E+03  0.15525152828E+03  0.41800000000E+01 0.  1.
        -11    1    3    3    0    0 -0.20400865638E+02 -0.30887471869E+02  0.84975935898E+02  0.92688407684E+02  0.00000000000E+00 0. -1.
         11    1    3    3    0    0  0.73018987213E+02 -0.53180249168E+02  0.37303984057E+03  0.38382109641E+03  0.00000000000E+00 0.  1.
</event>
<event>
 7    1  0.6584658E-006  0.9578365E+02  0.7561462E-02  0.1289421E+00
         -1   -1    0    0    0  501 -0.00000000000E+00  0.00000000000E+00  0.34758457215E+02  0.34758457215E+02  0.00000000000E+00 0.  1.
          1   -1    0    0  501    0  0.00000000000E+00 -0.00000000000E+00 -0.41841036157E+03  0.41841036157E+03  0.00000000000E+00 0. -1.
         23    2    1    2    0    0  0.50441075333E+02 -0.11804754663E+02 -0.20025881485E+03  0.22521210633E+03  0.89068768924E+02 0.  0.
          5    1    1    2  502    0 -0.58337213016E+02 -0.28857280044E+02 -0.17323285748E+03  0.18510285882E+03  0.41800000000E+01 0. -1.
         -5    1    1    2    0  502  0.78961376828E+01  0.40662034708E+02 -0.10160232030E+02  0.42853853640E+02  0.41800000000E+01 0. -1.
        -11    1    3    3    0    0 -0.91368043480E+01 -0.22411304097E+02 -0.13110157016E+03  0.13331680105E+03  0.00000000000E+00 0.  1.
         11    1    3    3    0    0  0.59577879681E+02  0.10606549433E+02 -0.69157244696E+02  0.91895305278E+02  0.00000000000E+00 0. -1.
</event>
<event>
 7    1  0.6584658E-006  0.1268893E+03  0.7561462E-02  0.1232146E+00
         -2   -1    0    0    0  501 -0.00000000000E+00  0.00000000000E+00  0.20476848229E+03  0.20476848229E+03  0.00000000000E+00 0.  1.
          2   -1    0    0  501    0  0.00000000000E+00 -0.00000000000E+00 -0.98152256542E+02  0.98152256542E+02  0.00000000000E+00 0. -1.
         23    2    1    2    0    0  0.82527382697E+02  0.18745662416E+02  0.13516878322E+02  0.12550156560E+03  0.91682976689E+02 0.  0.
          5    1    1    2  502    0 -0.71260899619E+01 -0.61128936718E+02  0.22397449450E+02  0.65625042508E+02  0.41800000000E+01 0. -1.
         -5    1    1    2    0  502 -0.75401292735E+02  0.42383274302E+02  0.70701897976E+02  0.11179413072E+03  0.41800000000E+01 0. -1.
        -11    1    3    3    0    0  0.25244030256E+02 -0.23366883405E+02  0.37101497837E+02  0.50594401324E+02  0.00000000000E+00 0.  1.
         11    1    3    3    0    0  0.57283352442E+02  0.42112545820E+02 -0.23584619515E+02  0.74907164277E+02  0.00000000000E+00 0. -1.
</event>
<event>
 7    1  0.6584658E-006  0.9993080E+02  0.7561462E-02  0.1280442E+00
          1   -1    0    0  501    0  0.00000000000E+00  0.00000000000E+00  0.42348397097E+03  0.42348397097E+03  0.00000000000E+00 0. -1.
         -1   -1    0    0    0  501 -0.00000000000E+00 -0.00000000000E+00 -0.32244249172E+02  0.32244249172E+02  0.00000000000E+00 0.  1.
         23    2    1    2    0    0 -0.40021333626E+02 -0.12307110632E+01  0.21215057701E+03  0.23363813910E+03  0.89306723827E+02 0.  0.
          5    1    1    2  502    0  0.52750542638E+02  0.46722941197E+02  0.55760427647E+02  0.89957493707E+02  0.41800000000E+01 0. -1.
         -5    1    1    2    0  502 -0.12729209012E+02 -0.45492230134E+02  0.12332871714E+03  0.13213258733E+03  0.41800000000E+01 0. -1.
        -11    1    3    3    0    0 -0.59891119644E+02 -0.88978619840E+01  0.20032941947E+03  0.20927970390E+03  0.00000000000E+00 0. -1.
         11    1    3    3    0    0  0.19869786018E+02  0.76671509208E+01  0.11821157540E+02  0.24358435196E+02  0.00000000000E+00 0.  1.
</event>
<event>
 7    1  0.6584658E-006  0.8775957E+02  0.7561462E-02  0.1308370E+00
         -1   -1    0    0    0  501 -0.00000000000E+00  0.00000000000E+00  0.51214418251E+02  0.51214418251E+02  0.00000000000E+00 0.  1.
          1   -1    0    0  501    0  0.00000000000E+00 -0.00000000000E+00 -0.30323376113E+03  0.30323376113E+03  0.00000000000E+00 0. -1.
         23    2    1    2    0    0  0.56449677629E+00  0.53693866530E+01 -0.15415243956E+03  0.17956511026E+03  0.91932068577E+02 0.  0.
          5    1    1    2  502    0  0.13332745225E+02 -0.48885691167E+02 -0.11514026471E+03  0.12586630150E+03  0.41800000000E+01 0. -1.
         -5    1    1    2    0  502 -0.13897242001E+02  0.43516304514E+02  0.17273361388E+02  0.49016767615E+02  0.41800000000E+01 0.  1.
        -11    1    3    3    0    0  0.25906379243E+02  0.32576863692E+02 -0.33853274750E+02  0.53651064712E+02  0.00000000000E+00 0.  1.
         11    1    3    3    0    0 -0.25341882467E+02 -0.27207477039E+02 -0.12029916481E+03  0.12591404555E+03  0.00000000000E+00 0. -1.
</event>
<event>
 7    1  0.6584658E-006  0.3184844E+03  0.7561462E-02  0.1076349E+00
          1   -1    0    0  501    0  0.00000000000E+00  0.00000000000E+00  0.83379293737E+03  0.83379293737E+03  0.00000000000E+00 0. -1.
         -1   -1    0    0    0  501 -0.00000000000E+00 -0.00000000000E+00 -0.12515787426E+03  0.12515787426E+03  0.00000000000E+00 0.  1.
         23    2    1    2    0    0 -0.51461971942E+02  0.29750941646E+03  0.29584383001E+03  0.43244934509E+03  0.91261584895E+02 0.  0.
          5    1    1    2  502    0  0.82451960197E+02 -0.27318925812E+03  0.37897959636E+03  0.47441933282E+03  0.41800000000E+01 0. -1.
         -5    1    1    2    0  502 -0.30989988255E+02 -0.24320158335E+02  0.33811636747E+02  0.52082133721E+02  0.41800000000E+01 0. -1.
        -11    1    3    3    0    0 -0.25554872870E+01  0.22190153044E+03  0.23808292906E+03  0.32546935468E+03  0.00000000000E+00 0.  1.
         11    1    3    3    0    0 -0.48906484655E+02  0.75607886021E+02  0.57760900949E+02  0.10697999041E+03  0.00000000000E+00 0. -1.
</event>
<event>
 7    1  0.6584658E-006  0.1109237E+03  0.7561462E-02  0.1258869E+00
          1   -1    0    0  501    0  0.00000000000E+00  0.00000000000E+00  0.96649128188E+02  0.96649128188E+02  0.00000000000E+00 0. -1.
         -1   -1    0    0    0  501 -0.00000000000E+00 -0.00000000000E+00 -0.19144896380E+03  0.19144896380E+03  0.00000000000E+00 0.  1.
         23    2    1    2    0    0 -0.32177742698E+02 -0.72913073847E+02 -0.26707460357E+02  0.12489389461E+03  0.92376799081E+02 0.  0.
          5    1    1    2  502    0  0.10049583443E+02 -0.32143215482E+02 -0.39392278028E+02  0.51994272734E+02  0.41800000000E+01 0. -1.
         -5    1    1    2    0  502  0.22128159255E+02  0.10505628933E+03 -0.28700097230E+02  0.11120992465E+03  0.41800000000E+01 0. -1.
        -11    1    3    3    0    0 -0.14103817428E+01 -0.13388541511E+02  0.32688601709E+02  0.35352325272E+02  0.00000000000E+00 0. -1.
         11    1    3    3    0    0 -0.30767360955E+02 -0.59524532336E+02 -0.59396062066E+02  0.89541569334E+02  0.00000000000E+00 0.  1.
</event>
<event>
 7    1  0.6584658E-006  0.1288032E+03  0.7561462E-02  0.1229242E+00
         -1   -1    0    0    0  501 -0.00000000000E+00  0.00000000000E+00  0.12910579676E+03  0.12910579676E+03  0.00000000000E+00 0.  1.
          1   -1    0    0  501    0  0.00000000000E+00 -0.00000000000E+00 -0.14188531666E+03  0.14188531666E+03  0.00000000000E+00 0. -1.
         23    2    1    2    0    0  0.55643112895E+02  0.50540672315E+02 -0.10267377410E+02  0.11795583324E+03  0.90319676628E+02 0.  0.
          5    1    1    2  502    0 -0.93784560371E+02 -0.45855789881E+02 -0.26182042667E+02  0.10770918711E+03  0.41800000000E+01 0. -1.
         -5    1    1    2    0  502  0.38141447476E+02 -0.46848824347E+01  0.23669900177E+02  0.45326093075E+02  0.41800000000E+01 0.  1.
        -11    1    3    3    0    0  0.56083921467E+02 -0.73652150327E+01  0.82403939517E+01  0.57162546585E+02  0.00000000000E+00 0.  1.
         11    1    3    3    0    0 -0.44080857258E+00  0.57905887348E+02 -0.18507771362E+02  0.60793286657E+02  0.00000000000E+00 0. -1.
</event>
<event>
 7    1  0.6584658E-006  0.2988209E+03  0.7561462E-02  0.1085832E+00
          2   -1    0    0  501    0  0.00000000000E+00  0.00000000000E+00  0.35445153882E+03  0.35445153882E+03  0.00000000000E+00 0. -1.
         -2   -1    0    0    0  501 -0.00000000000E+00 -0.00000000000E+00 -0.52358575614E+03  0.52358575614E+03  0.00000000000E+00 0.  1.
         23    2    1    2    0    0 -0.62838136181E+02 -0.25669108056E+03 -0.41593038438E+02  0.28281128133E+03  0.91724030697E+02 0.  0.
          5    1    1    2  502    0  0.11168065684E+03  0.55649704856E+02  0.18331606864E+03  0.22179204716E+03  0.41800000000E+01 0. -1.
         -5    1    1    2    0  502 -0.48842520655E+02  0.20104137570E+03 -0.31085724753E+03  0.37343396646E+03  0.41800000000E+01 0.  1.
        -11    1    3    3    0    0 -0.63352811694E+02 -0.21429855255E+03 -0.67113127243E+02  0.23332728135E+03  0.00000000000E+00 0.  1.
         11    1    3    3    0    0  0.51467551315E+00 -0.42392528008E+02  0.25520088805E+02  0.49483999984E+02  0.00000000000E+00 0. -1.
</event>
<event>
 7    1  0.6584658E-006  0.1020987E+03  0.7561462E-02  0.1275944E+00
         -2   -1    0    0    0  501 -0.00000000000E+00  0.00000000000E+00  0.34058191751E+02  0.34058191751E+02  0.00000000000E+00 0.  1.
          2   -1    0    0  501    0  0.00000000000E+00 -0.00000000000E+00 -0.36378148110E+03  0.36378148110E+03  0.00000000000E+00 0. -1.
         23    2    1    2    0    0 -0.16543419672E+01  0.19167271283E+02 -0.15814239601E+03  0.18463148495E+03  0.93325487858E+02 0.  0.
          5    1    1    2  502    0 -0.42632522257E+02 -0.41336003173E+02 -0.37857006693E+02  0.70546597849E+02  0.41800000000E+01 0. -1.
         -5    1    1    2    0  502  0.44286864224E+02  0.22168731890E+02 -0.13372388664E+03  0.14266159005E+03  0.41800000000E+01 0. -1.
        -11    1    3    3    0    0 -0.46833777028E+02  0.28114531447E+01 -0.85704876607E+02  0.97706871886E+02  0.00000000000E+00 0. -1.
         11    1    3    3    0    0  0.45179435061E+02  0.16355818138E+02 -0.72437519405E+02  0.86924613068E+02  0.00000000000E+00 0.  1.
</event>
<event>
 7    1  0.6584658E-006  0.1038143E+03  0.7561462E-02  0.1272474E+00
          1   -1    0    0  501    0  0.00000000000E+00  0.00000000000E+00  0.75209978589E+02  0.75209978589E+02  0.00000000000E+00 0. -1.
         -1   -1    0    0    0  501 -0.00000000000E+00 -0.00000000000E+00 -0.16091763645E+03  0.16091763645E+03  0.00000000000E+00 0.  1.
         23    2    1    2    0    0 -0.25111238336E+02 -0.20069066367E+02 -0.12613302609E+02  0.87724099110E+02  0.80641679338E+02 0.  0.
          5    1    1    2  502    0  0.60089670278E+02 -0.28032068716E+02 -0.22306017517E+02  0.70082780824E+02  0.41800000000E+01 0. -1.
         -5    1    1    2    0  502 -0.34978431942E+02  0.48101135083E+02 -0.50788337736E+02  0.78320735105E+02  0.41800000000E+01 0. -1.
        -11    1    3    3    0    0  0.64198559372E+01  0.25421380529E+02  0.98240493463E+01  0.27999519349E+02  0.00000000000E+00 0. -1.
         11    1    3    3    0    0 -0.31531094273E+02 -0.45490446896E+02 -0.22437351956E+02  0.59724579761E+02  0.00000000000E+00 0.  1.
</event>
<event>
 7    1  0.6584658E-006  0.2469724E+03  0.7561462E-02  0.1115233E+00
          2   -1    0    0  501    0  0.00000000000E+00  0.00000000000E+00  0.15976674431E+03  0.15976674431E+03  0.00000000000E+00 0. -1.
         -2   -1    0    0    0  501 -0.00000000000E+00 -0.00000000000E+00 -0.45422100674E+03  0.45422100674E+03  0.00000000000E+00 0.  1.
         23    2    1    2    0    0  0.77275231839E+02  0.21969376278E+03 -0.52530386557E+02  0.25564241474E+03  0.91415490177E+02 0.  0.
          5    1    1    2  502    0 -0.10519333432E+03 -0.20184513592E+03 -0.18956984422E+03  0.29624532860E+03  0.41800000000E+01 0. -1.
         -5    1    1    2    0  502  0.27918102483E+02 -0.17848626858E+02 -0.52354031657E+02  0.62100007711E+02  0.41800000000E+01 0. -1.
        -11    1    3    3    0    0  0.34741362496E+02  0.10170827672E+03 -0.71085474502E+02  0.12885914987E+03  0.00000000000E+00 0.  1.
         11    1    3    3    0    0  0.42533869343E+02  0.11798548606E+03  0.18555087945E+02  0.12678326487E+03  0.00000000000E+00 0. -1.
</event>
<event>
 7    1  0.6584658E-006  0.1118281E+03  0.7561462E-02  0.1257222E+00
         -4   -1    0    0    0  501 -0.00000000000E+00  0.00000000000E+00  0.89948336979E+02  0.89948336979E+02  0.00000000000E+00 0.  1.
          4   -1    0    0  501    0  0.00000000000E+00 -0.00000000000E+00 -0.56698083247E+03  0.56698083247E+03  0.00000000000E+00 0. -1.
         23    2    1    2    0    0 -0.92033027251E+02  0.18260408810E+02 -0.48841260600E+03  0.50529728772E+03  0.89302601541E+02 0.  0.
          5    1    1    2  502    0  0.45600160055E+02 -0.33325982085E+02 -0.48288188133E+02  0.74425917476E+02  0.41800000000E+01 0. -1.
         -5    1    1    2    0  502  0.46432867196E+02  0.15065573275E+02  0.59668298640E+02  0.77205964256E+02  0.41800000000E+01 0.  1.
        -11    1    3    3    0    0  0.45778258329E+00  0.25267186105E+02 -0.39428948093E+02  0.46832490925E+02  0.00000000000E+00 0.  1.
         11    1    3    3    0    0 -0.92490809834E+02 -0.70067772946E+01 -0.44898365790E+03  0.45846479679E+03  0.00000000000E+00 0. -1.
</event>
<event>
 7    1  0.6584658E-006  0.1708054E+03  0.7561462E-02  0.1177011E+00
          1   -1    0    0  501    0  0.00000000000E+00  0.00000000000E+00  0.15183242025E+03  0.15183242025E+03  0.00000000000E+00 0. -1.
         -1   -1    0    0    0  501 -0.00000000000E+00 -0.00000000000E+00 -0.41384359498E+03  0.41384359498E+03  0.00000000000E+00 0.  1.
         23    2    1    2    0    0 -0.79271705641E+02 -0.12690218099E+03  0.63844441631E+02  0.18591625112E+03  0.90003182432E+02 0.  0.
          5    1    1    2  502    0  0.40937664840E+02 -0.42889292704E+01 -0.22699444110E+02  0.47191360224E+02  0.41800000000E+01 0. -1.
         -5    1    1    2    0  502  0.38334040801E+02  0.13119111026E+03 -0.30315617224E+03  0.33256840389E+03  0.41800000000E+01 0. -1.
        -11    1    3    3    0    0 -0.35538859105E+02 -0.11166706799E+03  0.73879892245E+02  0.13853080184E+03  0.00000000000E+00 0. -1.
         11    1    3    3    0    0 -0.43732846536E+02 -0.15235112994E+02 -0.10035450614E+02  0.47385449276E+02  0.00000000000E+00 0.  1.
</event>
<event>
 7    1  0.6584658E-006  0.1458362E+03  0.7561462E-02  0.1205685E+00
          2   -1    0    0  501    0  0.00000000000E+00  0.00000000000E+00  0.94008681345E+03  0.94008681345E+03  0.00000000000E+00 0. -1.
         -2   -1    0    0    0  501 -0.00000000000E+00 -0.00000000000E+00 -0.39657196741E+02  0.39657196741E+02  0.00000000000E+00 0.  1.
         23    2    1    2    0    0 -0.70860881296E+02 -0.33121068547E+01  0.41797799300E+03  0.43391499590E+03  0.92435850653E+02 0.  0.
          5    1    1    2  502    0  0.12485241391E+03 -0.35791954937E+02  0.11871823314E+03  0.17601329659E+03  0.41800000000E+01 0. -1.
         -5    1    1    2    0  502 -0.53991532609E+02  0.39104061792E+02  0.36373339058E+03  0.36981571771E+03  0.41800000000E+01 0.  1.
        -11    1    3    3    0    0 -0.77598345942E+02 -0.17209163303E+02  0.40767144527E+03  0.41534764461E+03  0.00000000000E+00 0. -1.
         11    1    3    3    0    0  0.67374646460E+01  0.13897056449E+02  0.10306547725E+02  0.18567351287E+02  0.00000000000E+00 0.  1.
</event>
<event>
 7    1  0.6584658E-006  0.2077156E+03  0.7561462E-02  0.1143388E+00
          1   -1    0    0  501    0  0.00000000000E+00  0.00000000000E+00  0.10103188952E+04  0.10103188952E+04  0.00000000000E+00 0. -1.
         -1   -1    0    0    0  501 -0.00000000000E+00 -0.00000000000E+00 -0.53730947691E+02  0.53730947691E+02  0.00000000000E+00 0.  1.
         23    2    1    2    0    0  0.11854896576E+03 -0.14962321769E+03  0.63892411307E+03  0.67290114976E+03  0.90171894324E+02 0.  0.
          5    1    1    2  502    0 -0.21839174617E+02  0.10688224195E+03  0.95396393324E+02  0.14497829993E+03  0.41800000000E+01 0. -1.
         -5    1    1    2    0  502 -0.96709791142E+02  0.42740975742E+02  0.22226744115E+03  0.24617039323E+03  0.41800000000E+01 0. -1.
        -11    1    3    3    0    0  0.75893568851E+02 -0.46896766796E+02  0.39289379793E+03  0.40289536729E+03  0.00000000000E+00 0.  1.
         11    1    3    3    0    0  0.42655396908E+02 -0.10272645090E+03  0.24603031514E+03  0.27000578247E+03  0.00000000000E+00 0. -1.
</event>
<event>
 6    1  0.6584658E-006  0.3504256E+03  0.7561462E-02  0.1062441E+00
          2   -1    0    0  501    0  0.00000000000E+00  0.00000000000E+00  0.14048746813E+04  0.14048746813E+04  0.00000000000E+00 0. -1.
         -2   -1    0    0    0  501 -0.00000000000E+00 -0.00000000000E+00 -0.10109223546E+03  0.10109223546E+03  0.00000000000E+00 0.  1.
          5    1    1    2  502    0 -0.59036881792E+01 -0.50172768421E+02  0.12054803784E+02  0.52105190907E+02  0.41800000000E+01 0. -1.
         -5    1    1    2    0  502 -0.57706317691E+02  0.18205232019E+02  0.19452600766E+03  0.20376282691E+03  0.41800000000E+01 0.  1.
        -11    1    1    2    0    0  0.17859152665E+03 -0.23713736502E+03  0.44111359899E+03  0.53170505968E+03  0.00000000000E+00 0.  1.
         11    1    1    2    0    0 -0.11498152078E+03  0.26910490142E+03  0.65608803538E+03  0.71839383924E+03  0.00000000000E+00 0. -1.
</event>
<event>
 7    1  0.6584658E-006  0.1699502E+03  0.7561462E-02  0.1177900E+00
          1   -1    0    0  501    0  0.00000000000E+00  0.00000000000E+00  0.27870002364E+03  0.27870002364E+03  0.00000000000E+00 0. -1.
         -1   -1    0    0    0  501 -0.00000000000E+00 -0.00000000000E+00 -0.10819029362E+03  0.10819029362E+03  0.00000000000E+00 0.  1.
         23    2    1    2    0    0  0.71675218973E+02 -0.11016692773E+03  0.11265105589E+03  0.19644444750E+03  0.92876647125E+02 0.  0.
          5    1    1    2  502    0 -0.77734249728E+02  0.84296280001E+01  0.14610983346E+02  0.79653157146E+02  0.41800000000E+01 0.  1.
         -5    1    1    2    0  502  0.60590307551E+01  0.10173729973E+03  0.43247690786E+02  0.11079271261E+03  0.41800000000E+01 0.  1.
        -11    1    3    3    0    0  0.21641869166E+02  0.13967078059E+02  0.28184811226E+02  0.38181583969E+02  0.00000000000E+00 0.  1.
         11    1    3    3    0    0  0.50033349807E+02 -0.12413400579E+03  0.84466244663E+02  0.15826286353E+03  0.00000000000E+00 0. -1.
</event>
<event>
 7    1  0.6584658E-006  0.1194885E+03  0.7561462E-02  0.1243943E+00
          3   -1    0    0  501    0  0.00000000000E+00  0.00000000000E+00  0.33815053930E+03  0.33815053930E+03  0.00000000000E+00 0. -1.
         -3   -1    0    0    0  501 -0.00000000000E+00 -0.00000000000E+00 -0.50083984228E+02  0.50083984228E+02  0.00000000000E+00 0.  1.
         23    2    1    2    0    0 -0.16135221208E+02 -0.67917236717E+02  0.10788904774E+03  0.15661498642E+03  0.89527151977E+02 0.  0.
          5    1    1    2  502    0  0.32362505656E+02 -0.29964835135E+02  0.73934167281E+02  0.86191395212E+02  0.41800000000E+01 0. -1.
         -5    1    1    2    0  502 -0.16227284448E+02  0.97882071853E+02  0.10624334005E+03  0.14542814189E+03  0.41800000000E+01 0.  1.
        -11    1    3    3    0    0 -0.20533530845E+02 -0.79956583163E+02  0.11530284498E+03  0.14180771185E+03  0.00000000000E+00 0.  1.
         11    1    3    3    0    0  0.43983096366E+01  0.12039346445E+02 -0.74137972412E+01  0.14807274564E+02  0.00000000000E+00 0. -1.
</event>
<event>
 7    1  0.6584658E-006  0.9745528E+02  0.7561462E-02  0.1285740E+00
         -1   -1    0    0    0  501 -0.00000000000E+00  0.00000000000E+00  0.14266896080E+03  0.14266896080E+03  0.00000000000E+00 0.  1.
          1   -1    0    0  501    0  0.00000000000E+00 -0.00000000000E+00 -0.10286922645E+03  0.10286922645E+03  0.00000000000E+00 0. -1.
         23    2    1    2    0    0  0.21700016722E+02 -0.52121212194E+02  0.24911390743E+02  0.10749289013E+03  0.88014956414E+02 0.  0.
          5    1    1    2  502    0 -0.47653595796E+02  0.90825072830E+01  0.55109591032E+02  0.73538401904E+02  0.41800000000E+01 0. -1.
         -5    1    1    2    0  502  0.25953579075E+02  0.43038704911E+02 -0.40221247418E+02  0.64506895221E+02  0.41800000000E+01 0. -1.
        -11    1    3    3    0    0  0.38761315092E+01 -0.70254206801E+02 -0.21059705933E+01  0.70392564102E+02  0.00000000000E+00 0. -1.
         11    1    3    3    0    0  0.17823885212E+02  0.18132994607E+02  0.27017361336E+02  0.37100326024E+02  0.00000000000E+00 0.  1.
</event>
<event>
 7    1  0.6584658E-006  0.9395802E+02  0.7561462E-02  0.1293540E+00
          2   -1    0    0  501    0  0.00000000000E+00  0.00000000000E+00  0.51261104807E+02  0.51261104807E+02  0.00000000000E+00 0. -1.
         -2   -1    0    0    0  501 -0.00000000000E+00 -0.00000000000E+00 -0.44345386682E+03  0.44345386682E+03  0.00000000000E+00 0.  1.
         23    2    1    2    0    0 -0.51825965212E+02  0.22190471863E+02 -0.35515330557E+02  0.11255722527E+03  0.90716274965E+02 0.  0.
          5    1    1    2  502    0  0.46482059685E+02 -0.50811836962E+02 -0.87739068656E+02  0.11161559576E+03  0.41800000000E+01 0. -1.
         -5    1    1    2    0  502  0.53439055264E+01  0.28621365098E+02 -0.26893836280E+03  0.27054215060E+03  0.41800000000E+01 0. -1.
        -11    1    3    3    0    0 -0.32284650988E+01  0.38205148616E+02  0.14512788383E+02  0.40996065596E+02  0.00000000000E+00 0. -1.
         11    1    3    3    0    0 -0.48597500113E+02 -0.16014676753E+02 -0.50028118940E+02  0.71561159671E+02  0.00000000000E+00 0.  1.
</event>
<event>
 7    1  0.6584658E-006  0.8897281E+02  0.7561462E-02  0.1305358E+00
          2   -1    0    0  501    0  0.00000000000E+00  0.00000000000E+00  0.23665752180E+03  0.23665752180E+03  0.00000000000E+00 0. -1.
         -2   -1    0    0    0  501 -0.00000000000E+00 -0.00000000000E+00 -0.57569103473E+02  0.57569103473E+02  0.00000000000E+00 0.  1.
         23    2    1    2    0    0 -0.20590562911E+02  0.30613861673E+02  0.10654910421E+03  0.14499328417E+03  0.91154599657E+02 0.  0.
          5    1    1    2  502    0 -0.36289884853E+02  0.26040506891E+02  0.67742667141E+01  0.45369889038E+02  0.41800000000E+01 0. -1.
         -5    1    1    2    0  502  0.56880447764E+02 -0.56654368565E+02  0.65765047404E+02  0.10386345207E+03  0.41800000000E+01 0. -1.
        -11    1    3    3    0    0 -0.30533543275E+02  0.14600022920E+02 -0.28666033969E+01  0.33965796756E+02  0.00000000000E+00 0.  1.
         11    1    3    3    0    0  0.99429803645E+01  0.16013838753E+02  0.10941570761E+03  0.11102748741E+03  0.00000000000E+00 0. -1.
</event>
<event>
 7    1  0.6584658E-006  0.8759209E+02  0.7561462E-02  0.1308790E+00
          1   -1    0    0  501    0  0.00000000000E+00  0.00000000000E+00  0.98618424717E+02  0.98618424717E+02  0.00000000000E+00 0. -1.
         -1   -1    0    0    0  501 -0.00000000000E+00 -0.00000000000E+00 -0.20303527932E+03  0.20303527932E+03  0.00000000000E+00 0.  1.
         23    2    1    2    0    0  0.32070703515E+02 -0.73706266391E+02 -0.52558318353E+01  0.12293177146E+03  0.92862548626E+02 0.  0.
          5    1    1    2  502    0 -0.97794669871E+01  0.54496753184E+02 -0.12661886154E+03  0.13825824597E+03  0.41800000000E+01 0.  1.
         -5    1    1    2    0  502 -0.22291236527E+02  0.19209513208E+02  0.27457838770E+02  0.40463686603E+02  0.41800000000E+01 0.  1.
        -11    1    3    3    0    0  0.19749980743E+02 -0.74992903648E+02  0.31832738710E+02  0.83829115412E+02  0.00000000000E+00 0. -1.
         11    1    3    3    0    0  0.12320722772E+02  0.12866372570E+01 -0.37088570546E+02  0.39102656050E+02  0.00000000000E+00 0.  1.
</event>
<event>
 7    1  0.6584658E-006  0.1067306E+03  0.7561462E-02  0.1266747E+00
         -2   -1    0    0    0  501 -0.00000000000E+00  0.00000000000E+00  0.64766341594E+03  0.64766341594E+03  0.00000000000E+00 0. -1.
          2   -1    0    0  501    0  0.00000000000E+00 -0.00000000000E+00 -0.32041140717E+02  0.32041140717E+02  0.00000000000E+00 0.  1.
         23    2    1    2    0    0 -0.78420936548E+02 -0.19162131874E+02  0.16228388434E+03  0.20253403525E+03  0.90371155422E+02 0.  0.
          5    1    1    2  502    0  0.36831220655E+02 -0.16904209491E+02  0.39407777852E+03  0.39617806481E+03  0.41800000000E+01 0. -1.
         -5    1    1    2    0  502  0.41589715893E+02  0.36066341365E+02  0.59260612362E+02  0.80992456593E+02  0.41800000000E+01 0. -1.
        -11    1    3    3    0    0 -0.27893408936E+02 -0.50759634569E+02  0.55339957435E+02  0.80106764087E+02  0.00000000000E+00 0.  1.
         11    1    3    3    0    0 -0.50527527612E+02  0.31597502696E+02  0.10694392691E+03  0.12242727117E+03  0.00000000000E+00 0. -1.
</event>
<event>
 7    1  0.6584658E-006  0.1787248E+03  0.7561462E-02  0.1169043E+00
          1   -1    0    0  501    0  0.00000000000E+00  0.00000000000E+00  0.64689372160E+02  0.64689372160E+02  0.00000000000E+00 0. -1.
         -1   -1    0    0    0  501 -0.00000000000E+00 -0.00000000000E+00 -0.74660498062E+03  0.74660498062E+03  0.00000000000E+00 0.  1.
         23    2    1    2    0    0  0.11958067101E+02 -0.15912684840E+03 -0.13562692213E+03  0.22859098228E+03  0.91623282641E+02 0.  0.
          5    1    1    2  502    0  0.35707191011E+02  0.20436372112E+02 -0.23453848304E+03  0.23815629579E+03  0.41800000000E+01 0.  1.
         -5    1    1    2    0  502 -0.47665258112E+02  0.13869047629E+03 -0.31175020329E+03  0.34454707472E+03  0.41800000000E+01 0.  1.
        -11    1    3    3    0    0 -0.19083072414E+02 -0.23612631420E+02 -0.66986504139E+02  0.73545304080E+02  0.00000000000E+00 0.  1.
         11    1    3    3    0    0  0.31041139516E+02 -0.13551421698E+03 -0.68640417994E+02  0.15504567820E+03  0.00000000000E+00 0. -1.
</event>
<event>
 7    1  0.6584658E-006  0.1096956E+03  0.7561462E-02  0.1261135E+00
          3   -1    0    0  501    0  0.00000000000E+00  0.00000000000E+00  0.57900061871E+02  0.57900061871E+02  0.00000000000E+00 0. -1.
         -3   -1    0    0    0  501 -0.00000000000E+00 -0.00000000000E+00 -0.71225131639E+03  0.71225131639E+03  0.00000000000E+00 0.  1.
         23    2    1    2    0    0 -0.67572753674E+01 -0.16316395365E+02  0.19273894308E+01  0.93349956005E+02  0.91643951945E+02 0.  0.
          5    1    1    2  502    0 -0.32026079797E+02  0.66779895008E+02 -0.15904458043E+03  0.17549323386E+03  0.41800000000E+01 0. -1.
         -5    1    1    2    0  502  0.38783355164E+02 -0.50463499643E+02 -0.49723406352E+03  0.50130818840E+03  0.41800000000E+01 0.  1.
        -11    1    3    3    0    0 -0.41602026401E+02 -0.20419594516E+02  0.23706250228E+02  0.52054536217E+02  0.00000000000E+00 0. -1.
         11    1    3    3    0    0  0.34844751033E+02  0.41031991509E+01 -0.21778860798E+02  0.41295419788E+02  0.00000000000E+00 0.  1.
</event>
<event>
 7    1  0.6584658E-006  0.1178806E+03  0.7561462E-02  0.1246635E+00
          1   -1    0    0  501    0  0.00000000000E+00  0.00000000000E+00  0.73532783597E+02  0.73532783597E+02  0.00000000000E+00 0. -1.
         -1   -1    0    0    0  501 -0.00000000000E+00 -0.00000000000E+00 -0.25586001391E+03  0.25586001391E+03  0.00000000000E+00 0.  1.
         23    2    1    2    0    0 -0.80369521160E+01  0.69826051865E+02 -0.25827512313E+02  0.11707164830E+03  0.89991334720E+02 0.  0.
          5    1    1    2  502    0  0.40768714252E+02 -0.78566626568E+02 -0.15452329702E+03  0.17812839356E+03  0.41800000000E+01 0. -1.
         -5    1    1    2    0  502 -0.32731762136E+02  0.87405747022E+01 -0.19764209816E+01  0.34192755644E+02  0.41800000000E+01 0. -1.
        -11    1    3    3    0    0 -0.29838247212E+02 -0.90487945003E+01 -0.14749812060E+02  0.34492878024E+02  0.00000000000E+00 0.  1.
         11    1    3    3    0    0  0.21801295096E+02  0.78874846366E+02 -0.11077700253E+02  0.82578770274E+02  0.00000000000E+00 0. -1.
</event>
<event>
 7    1  0.6584658E-006  0.9544683E+02  0.7561462E-02  0.1290173E+00
          1   -1    0    0  501    0  0.00000000000E+00  0.00000000000E+00  0.38786913892E+02  0.38786913892E+02  0.00000000000E+00 0. -1.
         -1   -1    0    0    0  501 -0.00000000000E+00 -0.00000000000E+00 -0.55002453738E+03  0.55002453738E+03  0.00000000000E+00 0.  1.
         23    2    1    2    0    0 -0.85874094752E+01 -0.52789295791E+02 -0.24412571357E+02  0.83334120036E+02  0.59060550034E+02 0.  0.
          5    1    1    2  502    0  0.16791770278E+02 -0.34473354228E+02 -0.74217630819E+02  0.83642721292E+02  0.41800000000E+01 0. -1.
         -5    1    1    2    0  502 -0.82043608024E+01  0.87262650019E+02 -0.41260742131E+03  0.42183460995E+03  0.41800000000E+01 0. -1.
        -11    1    3    3    0    0  0.14058276586E+02 -0.25440887933E+02 -0.35736547892E+02  0.46064897424E+02  0.00000000000E+00 0.  1.
         11    1    3    3    0    0 -0.22645686061E+02 -0.27348407858E+02  0.11323976535E+02  0.37269222612E+02  0.00000000000E+00 0. -1.
</event>
<event>
 7    1  0.6584658E-006  0.1576456E+03  0.7561462E-02  0.1191381E+00
         -1   -1    0    0    0  501 -0.00000000000E+00  0.00000000000E+00  0.15534985106E+03  0.15534985106E+03  0.00000000000E+00 0.  1.
          1   -1    0    0  501    0  0.00000000000E+00 -0.00000000000E+00 -0.21699596845E+03  0.21699596845E+03  0.00000000000E+00 0. -1.
         23    2    1    2    0    0 -0.11512116763E+03  0.70958766645E+02 -0.88873835208E+02  0.18612613493E+03  0.91958412978E+02 0.  0.
          5    1    1    2  502    0  0.13684163875E+03 -0.43578395602E+02  0.39395867017E+02  0.14897723784E+03  0.41800000000E+01 0. -1.
         -5    1    1    2    0  502 -0.21720471113E+02 -0.27380371043E+02 -0.12168149196E+02  0.37242446733E+02  0.41800000000E+01 0. -1.
        -11    1    3    3    0    0 -0.61198124108E+02  0.48154229238E+02  0.21471550306E+01  0.77901543390E+02  0.00000000000E+00 0.  1.
         11    1    3    3    0    0 -0.53923043525E+02  0.22804537407E+02 -0.91020990239E+02  0.10822459154E+03  0.00000000000E+00 0. -1.
</event>
<event>
 7    1  0.6584658E-006  0.2148339E+03  0.7561462E-02  0.1137794E+00
          2   -1    0    0  501    0  0.00000000000E+00  0.00000000000E+00  0.17780028436E+04  0.17780028436E+04  0.00000000000E+00 0. -1.
         -2   -1    0    0    0  501 -0.00000000000E+00 -0.00000000000E+00 -0.27528363829E+02  0.27528363829E+02  0.00000000000E+00 0.  1.
         23    2    1    2    0    0 -0.34549022606E+02  0.18697749672E+03  0.72647671790E+03  0.75654433048E+03  0.91851418599E+02 0.  0.
          5    1    1    2  502    0  0.46314250078E+02 -0.20064907045E+03  0.97697844671E+03  0.99845351268E+03  0.41800000000E+01 0. -1.
         -5    1    1    2    0  502 -0.11765227473E+02  0.13671573731E+02  0.47019315138E+02  0.50533364244E+02  0.41800000000E+01 0. -1.
        -11    1    3    3    0    0 -0.59497281035E+02  0.13509944037E+03  0.59460929387E+03  0.61265977311E+03  0.00000000000E+00 0. -1.
         11    1    3    3    0    0  0.24948258429E+02  0.51878056351E+02  0.13186742403E+03  0.14388455737E+03  0.00000000000E+00 0.  1.
</event>
<event>
 7    1  0.6584658E-006  0.7543460E+02  0.7561462E-02  0.1342530E+00
          1   -1    0    0  501    0  0.00000000000E+00  0.00000000000E+00  0.22485110897E+03  0.22485110897E+03  0.00000000000E+00 0. -1.
         -1   -1    0    0    0  501 -0.00000000000E+00 -0.00000000000E+00 -0.55533922206E+02  0.55533922206E+02  0.00000000000E+00 0.  1.
         23    2    1    2    0    0 -0.13140502090E+01  0.25784659519E+02  0.82895616661E+02  0.12616896913E+03  0.91544252229E+02 0.  0.
          5    1    1    2  502    0 -0.31359361810E+02  0.17457893915E+02  0.92701755132E+02  0.99495102581E+02  0.41800000000E+01 0. -1.
         -5    1    1    2    0  502  0.32673412019E+02 -0.43242553433E+02 -0.62801850282E+01  0.54720959462E+02  0.41800000000E+01 0. -1.
        -11    1    3    3    0    0 -0.20370041089E+02 -0.77586598510E+01 -0.11174944666E+02  0.24495198814E+02  0.00000000000E+00 0.  1.
         11    1    3    3    0    0  0.19055990880E+02  0.33543319370E+02  0.94070561327E+02  0.10167377032E+03  0.00000000000E+00 0. -1.
</event>
<event>
 7    1  0.6584658E-006  0.1321693E+03  0.7561462E-02  0.1224272E+00
          1   -1    0    0  501    0  0.00000000000E+00  0.00000000000E+00  0.89662156979E+02  0.89662156979E+02  0.00000000000E+00 0. -1.
         -1   -1    0    0    0  501 -0.00000000000E+00 -0.00000000000E+00 -0.25799556377E+03  0.25799556377E+03  0.00000000000E+00 0.  1.
         23    2    1    2    0    0 -0.96223691648E+02 -0.41426133282E+02 -0.58463720646E+02  0.15095020363E+03  0.91612411781E+02 0.  0.
          5    1    1    2  502    0  0.10481411702E+03  0.27615949413E+02 -0.26497808651E+02  0.11166130060E+03  0.41800000000E+01 0.  1.
         -5    1    1    2    0  502 -0.85904253695E+01  0.13810183869E+02 -0.83371877492E+02  0.85046216512E+02  0.41800000000E+01 0.  1.
        -11    1    3    3    0    0 -0.69950451409E+02  0.19590218577E+02 -0.33312241083E+02  0.79915879037E+02  0.00000000000E+00 0. -1.
         11    1    3    3    0    0 -0.26273240240E+02 -0.61016351859E+02 -0.25151479563E+02  0.71034324598E+02  0.00000000000E+00 0.  1.
</event>
<event>
 7    1  0.6584658E-006  0.1689629E+03  0.7561462E-02  0.1178934E+00
          2   -1    0    0  501    0  0.00000000000E+00  0.00000000000E+00  0.11628158799E+03  0.11628158799E+03  0.00000000000E+00 0.  1.
         -2   -1    0    0    0  501 -0.00000000000E+00 -0.00000000000E+00 -0.41055249719E+03  0.41055249719E+03  0.00000000000E+00 0. -1.
         23    2    1    2    0    0 -0.14587583650E+03 -0.77333283205E+02 -0.30308053601E+02  0.19129819619E+03  0.91739987944E+02 0.  0.
          5    1    1    2  502    0  0.12515551232E+03  0.81873808134E+02 -0.12517157381E+03  0.19507080256E+03  0.41800000000E+01 0. -1.
         -5    1    1    2    0  502  0.20720324176E+02 -0.45405249296E+01 -0.13879128180E+03  0.14046508642E+03  0.41800000000E+01 0. -1.
        -11    1    3    3    0    0 -0.87697008540E+02 -0.33623334976E+02  0.28047979542E+02  0.98020319925E+02  0.00000000000E+00 0.  1.
         11    1    3    3    0    0 -0.58178827959E+02 -0.43709948229E+02 -0.58356033143E+02  0.93277876268E+02  0.00000000000E+00 0. -1.
</event>
<event>
 7    1  0.6584658E-006  0.1270538E+03  0.7561462E-02  0.1231894E+00
          1   -1    0    0  501    0  0.00000000000E+00  0.00000000000E+00  0.46259502746E+03  0.46259502746E+03  0.00000000000E+00 0. -1.
         -1   -1    0    0    0  501 -0.00000000000E+00 -0.00000000000E+00 -0.37459507913E+02  0.37459507913E+02  0.00000000000E+00 0.  1.
         23    2    1    2    0    0 -0.39434109415E+02 -0.58138804142E+02  0.23175177536E+03  0.25926625571E+03  0.92600952673E+02 0.  0.
          5    1    1    2  502    0  0.27660357503E+02  0.96762241900E+02  0.11778382732E+03  0.15497912509E+03  0.41800000000E+01 0.  1.
         -5    1    1    2    0  502  0.11773751912E+02 -0.38623437758E+02  0.75599916867E+02  0.85809154574E+02  0.41800000000E+01 0.  1.
        -11    1    3    3    0    0  0.14584364957E+02 -0.56917761528E+02  0.89148888070E+02  0.10677012467E+03  0.00000000000E+00 0.  1.
         11    1    3    3    0    0 -0.54018474372E+02 -0.12210426140E+01  0.14260288729E+03  0.15249613103E+03  0.00000000000E+00 0. -1.
</event>
<event>
 7    1  0.6584658E-006  0.1573928E+03  0.7561462E-02  0.1191672E+00
          1   -1    0    0  501    0  0.00000000000E+00  0.00000000000E+00  0.62651968656E+02  0.62651968656E+02  0.00000000000E+00 0. -1.
         -1   -1    0    0    0  501 -0.00000000000E+00 -0.00000000000E+00 -0.87847225976E+03  0.87847225976E+03  0.00000000000E+00 0.  1.
         23    2    1    2    0    0  0.95600751485E+02 -0.94339005061E+02 -0.76672913123E+02  0.17953005935E+03  0.91175408106E+02 0.  0.
          5    1    1    2  502    0 -0.98543482696E+02  0.11880035739E+03 -0.56724755133E+03  0.58788740400E+03  0.41800000000E+01 0. -1.
         -5    1    1    2    0  502  0.29427312113E+01 -0.24461352329E+02 -0.17189982666E+03  0.17370676506E+03  0.41800000000E+01 0. -1.
        -11    1    3    3    0    0  0.44213731415E+02 -0.31889394776E+02  0.15725922862E+02  0.56737044290E+02  0.00000000000E+00 0. -1.
         11    1    3    3    0    0  0.51387020070E+02 -0.62449610285E+02 -0.92398835985E+02  0.12279301506E+03  0.00000000000E+00 0.  1.
</event>
<event>
 7    1  0.6584658E-006  0.8144924E+02  0.7561462E-02  0.1324988E+00
          1   -1    0    0  501    0  0.00000000000E+00  0.00000000000E+00  0.65545427821E+03  0.65545427821E+03  0.00000000000E+00 0. -1.
         -1   -1    0    0    0  501 -0.00000000000E+00 -0.00000000000E+00 -0.68200776759E+02  0.68200776759E+02  0.00000000000E+00 0.  1.
         23    2    1    2    0    0 -0.14829350622E+02 -0.23871791938E+02  0.39250310458E+03  0.40368187153E+03  0.90058837461E+02 0.  0.
          5    1    1    2  502    0 -0.24551076718E+02 -0.28976040562E+00  0.24805877722E+03  0.24930597403E+03  0.41800000000E+01 0. -1.
         -5    1    1    2    0  502  0.39380427340E+02  0.24161552343E+02 -0.53308380357E+02  0.70667209407E+02  0.41800000000E+01 0.  1.
        -11    1    3    3    0    0 -0.21781883603E+02 -0.55288868220E+02  0.29751812370E+03  0.30339469892E+03  0.00000000000E+00 0.  1.
         11    1    3    3    0    0  0.69525329811E+01  0.31417076282E+02  0.94984980881E+02  0.10028717261E+03  0.00000000000E+00 0. -1.
</event>
<event>
 7    1  0.6584658E-006  0.7665885E+02  0.7561462E-02  0.1338810E+00
         -1   -1    0    0    0  501 -0.00000000000E+00  0.00000000000E+00  0.52950085593E+02  0.52950085593E+02  0.00000000000E+00 0.  1.
          1   -1    0    0  501    0  0.00000000000E+00 -0.00000000000E+00 -0.30861716722E+03  0.30861716722E+03  0.00000000000E+00 0. -1.
         23    2    1    2    0    0 -0.19335814981E+02 -0.81825991850E+01 -0.20472854437E+03  0.22488301471E+03  0.90651887771E+02 0.  0.
          5    1    1    2  502    0 -0.27703218494E+02  0.14854776788E+02  0.29408013860E+02  0.43248542027E+02  0.41800000000E+01 0.  1.
         -5    1    1    2    0  502  0.47039033474E+02 -0.66721776031E+01 -0.80346551118E+02  0.93435696073E+02  0.41800000000E+01 0.  1.
        -11    1    3    3    0    0  0.39270196374E+01 -0.36813751242E+02 -0.34172173070E+02  0.50382647569E+02  0.00000000000E+00 0.  1.
         11    1    3    3    0    0 -0.23262834618E+02  0.28631152057E+02 -0.17055637130E+03  0.17450036715E+03  0.00000000000E+00 0. -1.
</event>
<event>
 7    1  0.6584658E-006  0.4144821E+02  0.7561462E-02  0.1497817E+00
         -1   -1    0    0    0  501 -0.00000000000E+00  0.00000000000E+00  0.33029810534E+03  0.33029810534E+03  0.00000000000E+00 0.  1.
          1   -1    0    0  501    0  0.00000000000E+00 -0.00000000000E+00 -0.38507914310E+02  0.38507914310E+02  0.00000000000E+00 0. -1.
         23    2    1    2    0    0  0.31278969701E+02 -0.82305004654E+01  0.11507316085E+03  0.14989263186E+03  0.90442543389E+02 0.  0.
          5    1    1    2  502    0 -0.21957871487E+02  0.12833975656E+01 -0.14903036993E+02  0.26895504107E+02  0.41800000000E+01 0.  1.
         -5    1    1    2    0  502 -0.93210982143E+01  0.69471028997E+01  0.19162006717E+03  0.19201788368E+03  0.41800000000E+01 0.  1.
        -11    1    3    3    0    0  0.72063287519E+01  0.13770200275E+02 -0.11405131841E+02  0.19277619718E+02  0.00000000000E+00 0. -1.
         11    1    3    3    0    0  0.24072640949E+02 -0.22000700740E+02  0.12647829269E+03  0.13061501214E+03  0.00000000000E+00 0.  1.
</event>
<event>
 7    1  0.6584658E-006  0.2577067E+03  0.7561462E-02  0.1108529E+00
         -2   -1    0    0    0  501 -0.00000000000E+00  0.00000000000E+00  0.39267925761E+03  0.39267925761E+03  0.00000000000E+00 0.  1.
          2   -1    0    0  501    0  0.00000000000E+00 -0.00000000000E+00 -0.19324936722E+03  0.19324936722E+03  0.00000000000E+00 0. -1.
         23    2    1    2    0    0  0.18827698371E+03 -0.16266054719E+03  0.53850690089E+02  0.27157673586E+03  0.94590435186E+02 0.  0.
          5    1    1    2  502    0 -0.59177167156E+02  0.59599176327E+02 -0.13276475875E+02  0.85133636967E+02  0.41800000000E+01 0.  1.
         -5    1    1    2    0  502 -0.12909981655E+03  0.10306137086E+03  0.15885567617E+03  0.22921825200E+03  0.41800000000E+01 0.  1.
        -11    1    3    3    0    0  0.18163785450E+03 -0.10863730276E+03  0.39705037068E+02  0.21533895074E+03  0.00000000000E+00 0.  1.
         11    1    3    3    0    0  0.66391292141E+01 -0.54023244432E+02  0.14145653021E+02  0.56237785119E+02  0.00000000000E+00 0. -1.
</event>
<event>
 7    1  0.6584658E-006  0.1708539E+03  0.7561462E-02  0.1176960E+00
         -2   -1    0    0    0  501 -0.00000000000E+00  0.00000000000E+00  0.11922458198E+03  0.11922458198E+03  0.00000000000E+00 0. -1.
          2   -1    0    0  501    0  0.00000000000E+00 -0.00000000000E+00 -0.35668865972E+03  0.35668865972E+03  0.00000000000E+00 0.  1.
         23    2    1    2    0    0 -0.32652345720E+02 -0.14978168749E+03 -0.21213529127E+03  0.27644195892E+03  0.88983398787E+02 0.  0.
          5    1    1    2  502    0 -0.20441917343E+02  0.56561888545E+02  0.41334966064E+02  0.73096997476E+02  0.41800000000E+01 0. -1.
         -5    1    1    2    0  502  0.53094263064E+02  0.93219798943E+02 -0.66663752527E+02  0.12637428530E+03  0.41800000000E+01 0. -1.
        -11    1    3    3    0    0  0.16581314978E+02 -0.19905762390E+00 -0.39126667342E+02  0.42495596568E+02  0.00000000000E+00 0.  1.
         11    1    3    3    0    0 -0.49233660699E+02 -0.14958262986E+03 -0.17300862393E+03  0.23394636235E+03  0.00000000000E+00 0. -1.
</event>
<event>
 7    1  0.6584658E-006  0.1539681E+03  0.7561462E-02  0.1195680E+00
         -2   -1    0    0    0  501 -0.00000000000E+00  0.00000000000E+00  0.12802584928E+03  0.12802584928E+03  0.00000000000E+00 0.  1.
          2   -1    0    0  501    0  0.00000000000E+00 -0.00000000000E+00 -0.25075995104E+03  0.25075995104E+03  0.00000000000E+00 0. -1.
         23    2    1    2    0    0  0.89541230841E+02  0.69139267888E+02 -0.14845991623E+03  0.20817980332E+03  0.92198771132E+02 0.  0.
          5    1    1    2  502    0 -0.11835253315E+03 -0.53743915978E+02  0.20871188617E+01  0.13006751736E+03  0.41800000000E+01 0.  1.
         -5    1    1    2    0  502  0.28811302311E+02 -0.15395351909E+02  0.23638695611E+02  0.40538479639E+02  0.41800000000E+01 0.  1.
        -11    1    3    3    0    0  0.88214365119E+02  0.88845803975E+02 -0.13585970965E+03  0.18475175724E+03  0.00000000000E+00 0.  1.
         11    1    3    3    0    0  0.13268657224E+01 -0.19706536087E+02 -0.12600206581E+02  0.23428046079E+02  0.00000000000E+00 0. -1.
</event>
<event>
 7    1  0.6584658E-006  0.1030636E+03  0.7561462E-02  0.1273982E+00
          1   -1    0    0  501    0  0.00000000000E+00  0.00000000000E+00  0.16729406525E+03  0.16729406525E+03  0.00000000000E+00 0. -1.
         -1   -1    0    0    0  501 -0.00000000000E+00 -0.00000000000E+00 -0.82575831782E+02  0.82575831782E+02  0.00000000000E+00 0.  1.
         23    2    1    2    0    0  0.24682960874E+02 -0.11424163706E+02  0.93657164002E+02  0.13460183783E+03  0.92769770426E+02 0.  0.
          5    1    1    2  502    0 -0.66681106572E+02  0.51058816761E+01  0.11439406055E+02  0.67976263595E+02  0.41800000000E+01 0. -1.
         -5    1    1    2    0  502  0.41998145698E+02  0.63182820299E+01 -0.20378336586E+02  0.47291795609E+02  0.41800000000E+01 0.  1.
        -11    1    3    3    0    0  0.46574720639E+02 -0.39341837365E+02  0.54668933268E+02  0.81888198384E+02  0.00000000000E+00 0. -1.
         11    1    3    3    0    0 -0.21891759765E+02  0.27917673659E+02  0.38988230734E+02  0.52713639448E+02  0.00000000000E+00 0.  1.
</event>
<event>
 7    1  0.6584658E-006  0.1104173E+03  0.7561462E-02  0.1259799E+00
         -2   -1    0    0    0  501 -0.00000000000E+00  0.00000000000E+00  0.76145238676E+03  0.76145238676E+03  0.00000000000E+00 0.  1.
          2   -1    0    0  501    0  0.00000000000E+00 -0.00000000000E+00 -0.22652167263E+02  0.22652167263E+02  0.00000000000E+00 0. -1.
         23    2    1    2    0    0  0.28520122254E+02 -0.49412814541E+02  0.19075557744E+03  0.21907715961E+03  0.91389758304E+02 0.  0.
          5    1    1    2  502    0  0.17603093039E+02 -0.34134241963E+02  0.10711001477E+03  0.11386414283E+03  0.41800000000E+01 0.  1.
         -5    1    1    2    0  502 -0.46123215293E+02  0.83547056503E+02  0.44093462728E+03  0.45116325158E+03  0.41800000000E+01 0.  1.
        -11    1    3    3    0    0 -0.19204613513E+02 -0.28972840011E+02  0.14738267600E+03  0.15142620587E+03  0.00000000000E+00 0. -1.
         11    1    3    3    0    0  0.47724735767E+02 -0.20439974530E+02  0.43372901447E+02  0.67650953746E+02  0.00000000000E+00 0.  1.
</event>
<event>
 7    1  0.6584658E-006  0.1384767E+03  0.7561462E-02  0.1215393E+00
          2   -1    0    0  501    0  0.00000000000E+00  0.00000000000E+00  0.46095276064E+03  0.46095276064E+03  0.00000000000E+00 0. -1.
         -2   -1    0    0    0  501 -0.00000000000E+00 -0.00000000000E+00 -0.49246388117E+02  0.49246388117E+02  0.00000000000E+00 0.  1.
         23    2    1    2    0    0 -0.58778360287E+02  0.81385681621E+02  0.24502314448E+03  0.27887889723E+03  0.87513274296E+02 0.  0.
          5    1    1    2  502    0 -0.14973066128E+02 -0.67477684794E+02  0.13086272505E+03  0.14805389512E+03  0.41800000000E+01 0.  1.
         -5    1    1    2    0  502  0.73751426414E+02 -0.13907996828E+02  0.35820502994E+02  0.83266356403E+02  0.41800000000E+01 0.  1.
        -11    1    3    3    0    0  0.13023567516E+02  0.54235040660E+02  0.11678305445E+03  0.12941922096E+03  0.00000000000E+00 0.  1.
         11    1    3    3    0    0 -0.71801927802E+02  0.27150640962E+02  0.12824009003E+03  0.14945967627E+03  0.00000000000E+00 0. -1.
</event>
<event>
 7    1  0.6584658E-006  0.1137449E+03  0.7561462E-02  0.1253788E+00
          1   -1    0    0  501    0  0.00000000000E+00  0.00000000000E+00  0.84697178629E+03  0.84697178629E+03  0.00000000000E+00 0. -1.
         -1   -1    0    0    0  501 -0.00000000000E+00 -0.00000000000E+00 -0.16873546842E+02  0.16873546842E+02  0.00000000000E+00 0.  1.
         23    2    1    2    0    0 -0.42937200654E+02 -0.11740402965E+02  0.45255771746E+03  0.46363860655E+03  0.90392641268E+02 0.  0.
          5    1    1    2  502    0  0.45088462131E+02 -0.48826389333E+02  0.25333324369E+03  0.26193928775E+03  0.41800000000E+01 0. -1.
         -5    1    1    2    0  502 -0.21512614777E+01  0.60566792297E+02  0.12420727831E+03  0.13826743883E+03  0.41800000000E+01 0. -1.
        -11    1    3    3    0    0 -0.35843476753E+02 -0.49842467545E+02  0.25200081025E+03  0.25937122964E+03  0.00000000000E+00 0.  1.
         11    1    3    3    0    0 -0.70937239010E+01  0.38102064580E+02  0.20055690721E+03  0.20426737692E+03  0.00000000000E+00 0. -1.
</event>
<event>
 7    1  0.6584658E-006  0.1020102E+03  0.7561462E-02  0.1276125E+00
         -1   -1    0    0    0  501 -0.00000000000E+00  0.00000000000E+00  0.45116714940E+02  0.45116714940E+02  0.00000000000E+00 0. -1.
          1   -1    0    0  501    0  0.00000000000E+00 -0.00000000000E+00 -0.29440498537E+03  0.29440498537E+03  0.00000000000E+00 0.  1.
         23    2    1    2    0    0 -0.10204598208E+02 -0.37101283907E+02 -0.12700548630E+03  0.16040816218E+03  0.90109632391E+02 0.  0.
          5    1    1    2  502    0  0.66226261913E+02  0.20454557545E+02 -0.84607265114E+02  0.10945395562E+03  0.41800000000E+01 0.  1.
         -5    1    1    2    0  502 -0.56021663705E+02  0.16646726363E+02 -0.37675519016E+02  0.69659582513E+02  0.41800000000E+01 0.  1.
        -11    1    3    3    0    0 -0.19584653089E+02  0.13974677042E+02 -0.98034067367E+02  0.10094319491E+03  0.00000000000E+00 0.  1.
         11    1    3    3    0    0  0.93800548807E+01 -0.51075960949E+02 -0.28971418938E+02  0.59464967264E+02  0.00000000000E+00 0. -1.
</event>
<event>
 7    1  0.6584658E-006  0.1152735E+03  0.7561462E-02  0.1251104E+00
         -2   -1    0    0    0  501 -0.00000000000E+00  0.00000000000E+00  0.30221125424E+03  0.30221125424E+03  0.00000000000E+00 0. -1.
          2   -1    0    0  501    0  0.00000000000E+00 -0.00000000000E+00 -0.55684042290E+02  0.55684042290E+02  0.00000000000E+00 0.  1.
         23    2    1    2    0    0  0.85910470789E+01  0.40929386546E+02  0.13265095361E+03  0.18364715127E+03  0.11992072341E+03 0.  0.
          5    1    1    2  502    0 -0.63639354018E+02 -0.42533141305E+02  0.66334439023E+02  0.10137438379E+03  0.41800000000E+01 0. -1.
         -5    1    1    2    0  502  0.55048306939E+02  0.16037547588E+01  0.47541819317E+02  0.72873761466E+02  0.41800000000E+01 0. -1.
        -11    1    3    3    0    0  0.26718655261E+02  0.63979394815E+02  0.27677033267E+02  0.74654321177E+02  0.00000000000E+00 0.  1.
         11    1    3    3    0    0 -0.18127608183E+02 -0.23050008269E+02  0.10497392034E+03  0.10899283009E+03  0.00000000000E+00 0. -1.
</event>
<event>
 7    1  0.6584658E-006  0.1091429E+03  0.7561462E-02  0.1262165E+00
         -2   -1    0    0    0  501 -0.00000000000E+00  0.00000000000E+00  0.35296866319E+02  0.35296866319E+02  0.00000000000E+00 0.  1.
          2   -1    0    0  501    0  0.00000000000E+00 -0.00000000000E+00 -0.44746995087E+03  0.44746995087E+03  0.00000000000E+00 0. -1.
         23    2    1    2    0    0  0.11494707606E+02 -0.47502762100E+02 -0.24981214292E+03  0.27205524522E+03  0.96017232790E+02 0.  0.
          5    1    1    2  502    0 -0.45114219757E+02  0.72068767626E+02 -0.13841417225E+03  0.16249663249E+03  0.41800000000E+01 0.  1.
         -5    1    1    2    0  502  0.33619512151E+02 -0.24566005526E+02 -0.23946769381E+02  0.48214939475E+02  0.41800000000E+01 0.  1.
        -11    1    3    3    0    0 -0.33230955651E+02 -0.21393321754E+02 -0.41121545971E+02  0.57034657641E+02  0.00000000000E+00 0.  1.
         11    1    3    3    0    0  0.44725663257E+02 -0.26109440346E+02 -0.20869059695E+03  0.21502058758E+03  0.00000000000E+00 0. -1.
</event>
<event>
 7    1  0.6584658E-006  0.9565375E+02  0.7561462E-02  0.1289710E+00
         -2   -1    0    0    0  501 -0.00000000000E+00  0.00000000000E+00  0.10279796996E+03  0.10279796996E+03  0.00000000000E+00 0.  1.
          2   -1    0    0  501    0  0.00000000000E+00 -0.00000000000E+00 -0.14660726136E+03  0.14660726136E+03  0.00000000000E+00 0. -1.
         23    2    1    2    0    0 -0.44868737055E+02  0.19558004748E+02  0.10915017967E+02  0.10436344481E+03  0.91525252697E+02 0.  0.
          5    1    1    2  502    0  0.68341227455E+02 -0.22075354352E+02 -0.81762454282E+02  0.10890553691E+03  0.41800000000E+01 0. -1.
         -5    1    1    2    0  502 -0.23472490400E+02  0.25173496030E+01  0.27038144917E+02  0.36136249600E+02  0.41800000000E+01 0. -1.
        -11    1    3    3    0    0  0.10351525648E+01 -0.28741499071E+02 -0.15516890123E+02  0.32679032862E+02  0.00000000000E+00 0. -1.
         11    1    3    3    0    0 -0.45903889620E+02  0.48299503820E+02  0.26431908089E+02  0.71684411951E+02  0.00000000000E+00 0.  1.
</event>
<event>
 7    1  0.6584658E-006  0.1080180E+03  0.7561462E-02  0.1264285E+00
          2   -1    0    0  501    0  0.00000000000E+00  0.00000000000E+00  0.68677944682E+02  0.68677944682E+02  0.00000000000E+00 0.  1.
         -2   -1    0    0    0  501 -0.00000000000E+00 -0.00000000000E+00 -0.38664602543E+03  0.38664602543E+03  0.00000000000E+00 0. -1.
         23    2    1    2    0    0  0.52008032888E+01 -0.18805014556E+02  0.18781890201E+02  0.95562668170E+02  0.91644897408E+02 0.  0.
          5    1    1    2  502    0 -0.85064110590E+01  0.70534948586E+02 -0.15207857074E+03  0.16790742116E+03  0.41800000000E+01 0. -1.
         -5    1    1    2    0  502  0.33056077702E+01 -0.51729934030E+02 -0.18467140021E+03  0.19185388079E+03  0.41800000000E+01 0. -1.
        -11    1    3    3    0    0  0.47719901739E+02 -0.41939947569E+01  0.16046733825E+02  0.50520058199E+02  0.00000000000E+00 0.  1.
         11    1    3    3    0    0 -0.42519098450E+02 -0.14611019799E+02  0.27351563758E+01  0.45042609971E+02  0.00000000000E+00 0. -1.
</event>
<event>
 7    1  0.6584658E-006  0.1509262E+03  0.7561462E-02  0.1199340E+00
         -4   -1    0    0    0  501 -0.00000000000E+00  0.00000000000E+00  0.16630508349E+03  0.16630508349E+03  0.00000000000E+00 0.  1.
          4   -1    0    0  501    0  0.00000000000E+00 -0.00000000000E+00 -0.20402131073E+03  0.20402131073E+03  0.00000000000E+00 0. -1.
         23    2    1    2    0    0 -0.83528298847E+02 -0.79656418062E+02 -0.10975338213E+03  0.18550386764E+03  0.95098677027E+02 0.  0.
          5    1    1    2  502    0 -0.25862323162E+02  0.63758814019E+00  0.36999656907E+02  0.45339974517E+02  0.41800000000E+01 0.  1.
         -5    1    1    2    0  502  0.10939062201E+03  0.79018829922E+02  0.35037497987E+02  0.13948255207E+03  0.41800000000E+01 0.  1.
        -11    1    3    3    0    0 -0.38397569506E+02  0.10506628418E+02 -0.50201914229E+01  0.40124367991E+02  0.00000000000E+00 0.  1.
         11    1    3    3    0    0 -0.45130729340E+02 -0.90163046480E+02 -0.10473319071E+03  0.14537949965E+03  0.00000000000E+00 0. -1.
</event>
<event>
 7    1  0.6584658E-006  0.1206960E+03  0.7561462E-02  0.1241953E+00
          1   -1    0    0  501    0  0.00000000000E+00  0.00000000000E+00  0.14491780625E+03  0.14491780625E+03  0.00000000000E+00 0. -1.
         -1   -1    0    0    0  501 -0.00000000000E+00 -0.00000000000E+00 -0.12946211247E+03  0.12946211247E+03  0.00000000000E+00 0.  1.
         23    2    1    2    0    0 -0.36373178449E+02  0.73682579881E+02  0.23549901714E+02  0.12449726187E+03  0.90514306345E+02 0.  0.
          5    1    1    2  502    0  0.63522449413E+02 -0.33387059678E+02  0.39260627206E+02  0.81906450185E+02  0.41800000000E+01 0.  1.
         -5    1    1    2    0  502 -0.27149270964E+02 -0.40295520203E+02 -0.47354835139E+02  0.67976206671E+02  0.41800000000E+01 0.  1.
        -11    1    3    3    0    0 -0.26351573818E+02 -0.15782218796E+02 -0.23933812379E+01  0.30809286693E+02  0.00000000000E+00 0.  1.
         11    1    3    3    0    0 -0.10021604631E+02  0.89464798677E+02  0.25943282952E+02  0.93687975173E+02  0.00000000000E+00 0. -1.
</event>
<event>
 7    1  0.6584658E-006  0.9115439E+02  0.7561462E-02  0.1300080E+00
         -3   -1    0    0    0  501 -0.00000000000E+00  0.00000000000E+00  0.29258210227E+02  0.29258210227E+02  0.00000000000E+00 0. -1.
          3   -1    0    0  501    0  0.00000000000E+00 -0.00000000000E+00 -0.58247248797E+03  0.58247248797E+03  0.00000000000E+00 0.  1.
         23    2    1    2    0    0  0.56869803062E+02 -0.33153509063E+02 -0.31539633200E+03  0.33507508786E+03  0.92017056014E+02 0.  0.
          5    1    1    2  502    0 -0.13201698210E+02 -0.80668544733E+01  0.11787603905E+02  0.19894194695E+02  0.41800000000E+01 0. -1.
         -5    1    1    2    0  502 -0.43668104852E+02  0.41220363536E+02 -0.24960554965E+03  0.25676141565E+03  0.41800000000E+01 0. -1.
        -11    1    3    3    0    0  0.14945864821E+02  0.28119388824E+02 -0.15626561689E+03  0.15947733985E+03  0.00000000000E+00 0.  1.
         11    1    3    3    0    0  0.41923938241E+02 -0.61272897886E+02 -0.15913071511E+03  0.17559774800E+03  0.00000000000E+00 0. -1.
</event>
<event>
 7    1  0.6611993E-006  0.2482140E+03  0.7561462E-02  0.1114439E+00
          4   -1    0    0  501    0  0.00000000000E+00  0.00000000000E+00  0.24388765595E+03  0.24388765595E+03  0.00000000000E+00 0. -1.
         -4   -1    0    0    0  501 -0.00000000000E+00 -0.00000000000E+00 -0.27617449324E+03  0.27617449324E+03  0.00000000000E+00 0.  1.
         23    2    1    2    0    0 -0.23321874213E+03 -0.21199208675E+02  0.14788957142E+02  0.25042520943E+03  0.87485336699E+02 0.  0.
          5    1    1    2  502    0  0.36608138242E+02  0.34987577431E+02  0.28795215051E+02  0.58403109248E+02  0.41800000000E+01 0.  1.
         -5    1    1    2    0  502  0.19661060389E+03 -0.13788368756E+02 -0.75871009481E+02  0.21123383051E+03  0.41800000000E+01 0.  1.
        -11    1    3    3    0    0 -0.47298752361E+02  0.29533008209E+02  0.14859944997E+02  0.57707785559E+02  0.00000000000E+00 0. -1.
         11    1    3    3    0    0 -0.18591998977E+03 -0.50732216884E+02 -0.70987855116E-01  0.19271742387E+03  0.00000000000E+00 0.  1.
</event>
<event>
 7    1  0.6584658E-006  0.2661091E+03  0.7561462E-02  0.1103527E+00
         -1   -1    0    0    0  501 -0.00000000000E+00  0.00000000000E+00  0.29166044070E+03  0.29166044070E+03  0.00000000000E+00 0.  1.
          1   -1    0    0  501    0  0.00000000000E+00 -0.00000000000E+00 -0.29564599823E+03  0.29564599823E+03  0.00000000000E+00 0. -1.
         23    2    1    2    0    0 -0.87920708041E+02  0.23505083949E+03 -0.10717343045E+03  0.28851906731E+03  0.93691835079E+02 0.  0.
          5    1    1    2  502    0 -0.85622102096E+01 -0.10618752356E+03  0.85733701369E+02  0.13680950828E+03  0.41800000000E+01 0. -1.
         -5    1    1    2    0  502  0.96482918250E+02 -0.12886331593E+03  0.17454171554E+02  0.16197786334E+03  0.41800000000E+01 0. -1.
        -11    1    3    3    0    0 -0.95302090725E+01  0.14444516033E+03 -0.81011750035E+02  0.16588590317E+03  0.00000000000E+00 0.  1.
         11    1    3    3    0    0 -0.78390498968E+02  0.90605679164E+02 -0.26161680415E+02  0.12263316414E+03  0.00000000000E+00 0. -1.
</event>
<event>
 7    1  0.6584658E-006  0.1019086E+03  0.7561462E-02  0.1276333E+00
         -1   -1    0    0    0  501 -0.00000000000E+00  0.00000000000E+00  0.40618093039E+02  0.40618093039E+02  0.00000000000E+00 0.  1.
          1   -1    0    0  501    0  0.00000000000E+00 -0.00000000000E+00 -0.39412875050E+03  0.39412875050E+03  0.00000000000E+00 0. -1.
         23    2    1    2    0    0 -0.34087203118E+02 -0.36298256975E+02 -0.22505927015E+03  0.24866157978E+03  0.93281323442E+02 0.  0.
          5    1    1    2  502    0  0.25175644299E+01  0.79321181118E+02 -0.62233426396E+02  0.10093889075E+03  0.41800000000E+01 0. -1.
         -5    1    1    2    0  502  0.31569638688E+02 -0.43022924142E+02 -0.66217960909E+02  0.85146373003E+02  0.41800000000E+01 0. -1.
        -11    1    3    3    0    0 -0.23335588401E+01 -0.38890389536E+02 -0.20970855490E+03  0.21329694300E+03  0.00000000000E+00 0. -1.
         11    1    3    3    0    0 -0.31753644278E+02  0.25921325606E+01 -0.15350715255E+02  0.35364636786E+02  0.00000000000E+00 0.  1.
</event>
<event>
 7    1  0.6584658E-006  0.3327352E+03  0.7561462E-02  0.1069933E+00
          2   -1    0    0  501    0  0.00000000000E+00  0.00000000000E+00  0.66151996208E+03  0.66151996208E+03  0.00000000000E+00 0. -1.
         -2   -1    0    0    0  501 -0.00000000000E+00 -0.00000000000E+00 -0.21077253968E+03  0.21077253968E+03  0.00000000000E+00 0.  1.
         23    2    1    2    0    0  0.19534973733E+03 -0.26500866770E+03  0.38432045798E+03  0.51389083727E+03  0.89389397440E+02 0.  0.
          5    1    1    2  502    0 -0.48702887271E+02  0.10800406688E+03 -0.30894553708E+02  0.12251038952E+03  0.41800000000E+01 0. -1.
         -5    1    1    2    0  502 -0.14664685006E+03  0.15700460083E+03  0.97321518126E+02  0.23589127496E+03  0.41800000000E+01 0. -1.
        -11    1    3    3    0    0  0.16334769926E+03 -0.24444822702E+03  0.29350248698E+03  0.41542883435E+03  0.00000000000E+00 0.  1.
         11    1    3    3    0    0  0.32002038068E+02 -0.20560440681E+02  0.90817971006E+02  0.98462002921E+02  0.00000000000E+00 0. -1.
</event>
<event>
 7    1  0.6584658E-006  0.2260511E+03  0.7561462E-02  0.1129450E+00
         -2   -1    0    0    0  501 -0.00000000000E+00  0.00000000000E+00  0.11586869842E+04  0.11586869842E+04  0.00000000000E+00 0. -1.
          2   -1    0    0  501    0  0.00000000000E+00 -0.00000000000E+00 -0.53593083434E+02  0.53593083434E+02  0.00000000000E+00 0.  1.
         23    2    1    2    0    0  0.52833340226E+02  0.21703082493E+03  0.57703100060E+03  0.62543087005E+03  0.91133181357E+02 0.  0.
          5    1    1    2  502    0 -0.47332332253E+02 -0.20713765824E+03  0.35776652777E+03  0.41612584626E+03  0.41800000000E+01 0. -1.
         -5    1    1    2    0  502 -0.55010079729E+01 -0.98931666960E+01  0.17029637238E+03  0.17072335130E+03  0.41800000000E+01 0. -1.
        -11    1    3    3    0    0  0.90911657801E+01  0.12798910263E+03  0.21812091762E+03  0.25306243180E+03  0.00000000000E+00 0.  1.
         11    1    3    3    0    0  0.43742174446E+02  0.89041722306E+02  0.35891008298E+03  0.37236843824E+03  0.00000000000E+00 0. -1.
</event>
<event>
 7    1  0.6584658E-006  0.1203282E+03  0.7561462E-02  0.1242557E+00
         -2   -1    0    0    0  501 -0.00000000000E+00  0.00000000000E+00  0.34979733507E+02  0.34979733507E+02  0.00000000000E+00 0.  1.
          2   -1    0    0  501    0  0.00000000000E+00 -0.00000000000E+00 -0.64169837750E+03  0.64169837750E+03  0.00000000000E+00 0. -1.
         23    2    1    2    0    0 -0.10226868464E+02 -0.89922498112E+02 -0.37280419225E+03  0.39640097977E+03  0.99800433343E+02 0.  0.
          5    1    1    2  502    0  0.49416908232E+02  0.60571090974E+02 -0.57461252875E+02  0.97108989609E+02  0.41800000000E+01 0. -1.
         -5    1    1    2    0  502 -0.39190039768E+02  0.29351407138E+02 -0.17645319887E+03  0.18316814163E+03  0.41800000000E+01 0. -1.
        -11    1    3    3    0    0 -0.33715137533E+02 -0.19394933357E+02 -0.41575201484E+02  0.56933042402E+02  0.00000000000E+00 0.  1.
         11    1    3    3    0    0  0.23488269069E+02 -0.70527564756E+02 -0.33122899077E+03  0.33946793737E+03  0.00000000000E+00 0. -1.
</event>
<event>
 7    1  0.6584658E-006  0.5412757E+03  0.7561462E-02  0.1003534E+00
          2   -1    0    0  501    0  0.00000000000E+00  0.00000000000E+00  0.33100921070E+04  0.33100921070E+04  0.00000000000E+00 0. -1.
         -2   -1    0    0    0  501 -0.00000000000E+00 -0.00000000000E+00 -0.98975477642E+02  0.98975477642E+02  0.00000000000E+00 0.  1.
         23    2    1    2    0    0 -0.13332657721E+03  0.60100181947E+01  0.58760883065E+03  0.60947308150E+03  0.91439612317E+02 0.  0.
          5    1    1    2  502    0  0.14946686896E+03  0.45333440501E+03  0.17318667538E+04  0.17964499305E+04  0.41800000000E+01 0. -1.
         -5    1    1    2    0  502 -0.16140291760E+02 -0.45934442320E+03  0.89164104487E+03  0.10031445726E+04  0.41800000000E+01 0.  1.
        -11    1    3    3    0    0 -0.55917474129E+02  0.31337637690E+02  0.13317930117E+03  0.14780236029E+03  0.00000000000E+00 0. -1.
         11    1    3    3    0    0 -0.77409103076E+02 -0.25327619495E+02  0.45442952949E+03  0.46167072121E+03  0.00000000000E+00 0.  1.
</event>
<event>
 7    1  0.6584658E-006  0.1032973E+03  0.7561462E-02  0.1273511E+00
          1   -1    0    0  501    0  0.00000000000E+00  0.00000000000E+00  0.32743979046E+02  0.32743979046E+02  0.00000000000E+00 0. -1.
         -1   -1    0    0    0  501 -0.00000000000E+00 -0.00000000000E+00 -0.38290038520E+03  0.38290038520E+03  0.00000000000E+00 0.  1.
         23    2    1    2    0    0  0.27326131819E+02  0.15797860002E+02 -0.10964212945E+03  0.14652751089E+03  0.91938158763E+02 0.  0.
          5    1    1    2  502    0  0.43187822980E+02 -0.19728216297E+02 -0.12349294859E+03  0.13237209421E+03  0.41800000000E+01 0. -1.
         -5    1    1    2    0  502 -0.70513954799E+02  0.39303562952E+01 -0.11702132811E+03  0.13674475915E+03  0.41800000000E+01 0.  1.
        -11    1    3    3    0    0  0.31769789177E+02 -0.29090118183E+02 -0.22964382105E+02  0.48815134188E+02  0.00000000000E+00 0. -1.
         11    1    3    3    0    0 -0.44436573589E+01  0.44887978185E+02 -0.86677747341E+02  0.97712376700E+02  0.00000000000E+00 0.  1.
</event>
<event>
 7    1  0.6584658E-006  0.9269091E+02  0.7561462E-02  0.1296463E+00
         -1   -1    0    0    0  501 -0.00000000000E+00  0.00000000000E+00  0.34720076181E+03  0.34720076181E+03  0.00000000000E+00 0.  1.
          1   -1    0    0  501    0  0.00000000000E+00 -0.00000000000E+00 -0.68822467117E+02  0.68822467117E+02  0.00000000000E+00 0. -1.
         23    2    1    2    0    0 -0.50456289878E+02 -0.36265331776E+02  0.12136570128E+02  0.11536918553E+03  0.96445534679E+02 0.  0.
          5    1    1    2  502    0 -0.13937913667E+02  0.73843129276E+00 -0.80480991581E+01  0.16644969758E+02  0.41800000000E+01 0.  1.
         -5    1    1    2    0  502  0.64394203545E+02  0.35526900483E+02  0.27428982373E+03  0.28400907364E+03  0.41800000000E+01 0.  1.
        -11    1    3    3    0    0 -0.20643285007E+02  0.22940067975E+02 -0.24704874428E+02  0.39531288306E+02  0.00000000000E+00 0. -1.
         11    1    3    3    0    0 -0.29813004871E+02 -0.59205399751E+02  0.36841444556E+02  0.75837897229E+02  0.00000000000E+00 0.  1.
</event>
<event>
 7    1  0.6584658E-006  0.9603256E+02  0.7561462E-02  0.1288867E+00
          1   -1    0    0  501    0  0.00000000000E+00  0.00000000000E+00  0.31082433646E+03  0.31082433646E+03  0.00000000000E+00 0. -1.
         -1   -1    0    0    0  501 -0.00000000000E+00 -0.00000000000E+00 -0.44723509684E+02  0.44723509684E+02  0.00000000000E+00 0.  1.
         23    2    1    2    0    0 -0.42726322005E+02  0.41305809322E+00  0.87172152772E+02  0.13309505651E+03  0.91047243997E+02 0.  0.
          5    1    1    2  502    0  0.69420698557E+02 -0.32082175378E+02  0.15860084234E+03  0.17612552046E+03  0.41800000000E+01 0.  1.
         -5    1    1    2    0  502 -0.26694376553E+02  0.31669117285E+02  0.20327831661E+02  0.46327269174E+02  0.41800000000E+01 0.  1.
        -11    1    3    3    0    0 -0.16733355137E+02 -0.29685831852E+02 -0.33310279734E+01  0.34239590159E+02  0.00000000000E+00 0.  1.
         11    1    3    3    0    0 -0.25992966868E+02  0.30098889945E+02  0.90503180745E+02  0.98855466351E+02  0.00000000000E+00 0. -1.
</event>
<event>
 7    1  0.6584658E-006  0.1116781E+03  0.7561462E-02  0.1257493E+00
          1   -1    0    0  501    0  0.00000000000E+00  0.00000000000E+00  0.15564958853E+03  0.15564958853E+03  0.00000000000E+00 0. -1.
         -1   -1    0    0    0  501 -0.00000000000E+00 -0.00000000000E+00 -0.94254654297E+02  0.94254654297E+02  0.00000000000E+00 0.  1.
         23    2    1    2    0    0 -0.30941195916E+01 -0.47211655091E+02  0.35339870750E+02  0.11365259556E+03  0.97105571732E+02 0.  0.
          5    1    1    2  502    0 -0.44654629820E+02  0.65522194677E+02  0.16146681757E+01  0.79418344940E+02  0.41800000000E+01 0.  1.
         -5    1    1    2    0  502  0.47748749412E+02 -0.18310539585E+02  0.24440395312E+02  0.56833302326E+02  0.41800000000E+01 0.  1.
        -11    1    3    3    0    0  0.13921849271E+02 -0.65909089221E+02  0.50485314100E+02  0.84181903452E+02  0.00000000000E+00 0. -1.
         11    1    3    3    0    0 -0.17015968863E+02  0.18697434129E+02 -0.15145443350E+02  0.29470692113E+02  0.00000000000E+00 0.  1.
</event>
<event>
 7    1  0.6584658E-006  0.1441710E+03  0.7561462E-02  0.1207824E+00
         -1   -1    0    0    0  501 -0.00000000000E+00  0.00000000000E+00  0.15539606277E+03  0.15539606277E+03  0.00000000000E+00 0.  1.
          1   -1    0    0  501    0  0.00000000000E+00 -0.00000000000E+00 -0.17783345971E+03  0.17783345971E+03  0.00000000000E+00 0. -1.
         23    2    1    2    0    0  0.95217977522E+02 -0.41809731580E+02 -0.82467392925E+02  0.15983488288E+03  0.89060664663E+02 0.  0.
          5    1    1    2  502    0 -0.48437300856E+02  0.84497768272E+02  0.23936894479E+02  0.10038173277E+03  0.41800000000E+01 0.  1.
         -5    1    1    2    0  502 -0.46780676666E+02 -0.42688036693E+02  0.36093101506E+02  0.73012906820E+02  0.41800000000E+01 0.  1.
        -11    1    3    3    0    0  0.32874221251E+02  0.20904936894E+02 -0.57920394514E-01  0.38958107811E+02  0.00000000000E+00 0.  1.
         11    1    3    3    0    0  0.62343756271E+02 -0.62714668473E+02 -0.82409472530E+02  0.12087677507E+03  0.00000000000E+00 0. -1.
</event>
<event>
 7    1  0.6584658E-006  0.1209458E+03  0.7561462E-02  0.1241545E+00
          3   -1    0    0  501    0  0.00000000000E+00  0.00000000000E+00  0.13484577700E+03  0.13484577700E+03  0.00000000000E+00 0. -1.
         -3   -1    0    0    0  501 -0.00000000000E+00 -0.00000000000E+00 -0.13392684418E+03  0.13392684418E+03  0.00000000000E+00 0.  1.
         23    2    1    2    0    0  0.30676685323E+01  0.63452447018E+02  0.43228502263E+02  0.12223488761E+03  0.95063351073E+02 0.  0.
          5    1    1    2  502    0  0.39514026373E+02 -0.78087205674E+02 -0.49681337398E+02  0.10072079058E+03  0.41800000000E+01 0. -1.
         -5    1    1    2    0  502 -0.42581694906E+02  0.14634758656E+02  0.73717679618E+01  0.45816942989E+02  0.41800000000E+01 0. -1.
        -11    1    3    3    0    0  0.40703731008E+02  0.71406358617E+01 -0.10080780469E+01  0.41337617491E+02  0.00000000000E+00 0.  1.
         11    1    3    3    0    0 -0.37636062476E+02  0.56311811156E+02  0.44236580310E+02  0.80897270114E+02  0.00000000000E+00 0. -1.
</event>
<event>
 7    1  0.6584658E-006  0.1389279E+03  0.7561462E-02  0.1214779E+00
          1   -1    0    0  501    0  0.00000000000E+00  0.00000000000E+00  0.11076452639E+03  0.11076452639E+03  0.00000000000E+00 0. -1.
         -1   -1    0    0    0  501 -0.00000000000E+00 -0.00000000000E+00 -0.26327995670E+03  0.26327995670E+03  0.00000000000E+00 0.  1.
         23    2    1    2    0    0  0.11830967999E+03  0.61646448031E+01 -0.15457343102E+02  0.15105909475E+03  0.92437748921E+02 0.  0.
          5    1    1    2  502    0 -0.93033807006E+00  0.25037496844E+02  0.14084503247E+02  0.29044576238E+02  0.41800000000E+01 0. -1.
         -5    1    1    2    0  502 -0.11737934192E+03 -0.31202141647E+02 -0.15114259045E+03  0.19394081211E+03  0.41800000000E+01 0.  1.
        -11    1    3    3    0    0  0.47493092756E+02 -0.24867773852E+02 -0.43267900784E+02  0.68892026202E+02  0.00000000000E+00 0.  1.
         11    1    3    3    0    0  0.70816587232E+02  0.31032418655E+02  0.27810557682E+02  0.82167068545E+02  0.00000000000E+00 0. -1.
</event>
<event>
 7    1  0.6584658E-006  0.1727672E+03  0.7561462E-02  0.1174992E+00
         -2   -1    0    0    0  501 -0.00000000000E+00  0.00000000000E+00  0.47290708255E+03  0.47290708255E+03  0.00000000000E+00 0.  1.
          2   -1    0    0  501    0  0.00000000000E+00 -0.00000000000E+00 -0.78691651670E+02  0.78691651670E+02  0.00000000000E+00 0. -1.
         23    2    1    2    0    0  0.13939980785E+03  0.69176730829E+02  0.13278161414E+03  0.22264233396E+03  0.87868795928E+02 0.  0.
          5    1    1    2  502    0 -0.15427404024E+03 -0.75743594307E+02  0.26053609297E+03  0.31214435717E+03  0.41800000000E+01 0. -1.
         -5    1    1    2    0  502  0.14874232386E+02  0.65668634787E+01  0.89772376361E+00  0.16812043093E+02  0.41800000000E+01 0. -1.
        -11    1    3    3    0    0  0.67622997434E+02  0.44405535139E+02  0.12136659922E+03  0.14585805682E+03  0.00000000000E+00 0.  1.
         11    1    3    3    0    0  0.71776810420E+02  0.24771195690E+02  0.11415014923E+02  0.76784277138E+02  0.00000000000E+00 0. -1.
</event>
<event>
 7    1  0.6584658E-006  0.2440908E+03  0.7561462E-02  0.1117097E+00
          2   -1    0    0  501    0  0.00000000000E+00  0.00000000000E+00  0.13740819136E+04  0.13740819136E+04  0.00000000000E+00 0. -1.
         -2   -1    0    0    0  501 -0.00000000000E+00 -0.00000000000E+00 -0.47335350378E+02  0.47335350378E+02  0.00000000000E+00 0.  1.
         23    2    1    2    0    0  0.68026645819E+02 -0.17163445400E+03  0.73354838876E+03  0.76188072844E+03  0.91010962920E+02 0.  0.
          5    1    1    2  502    0 -0.73701548919E+02 -0.30745264003E+02  0.23268895425E+03  0.24604636027E+03  0.41800000000E+01 0. -1.
         -5    1    1    2    0  502  0.56749031003E+01  0.20237971800E+03  0.36050922018E+03  0.41349017524E+03  0.41800000000E+01 0.  1.
        -11    1    3    3    0    0 -0.21865897746E+02 -0.21135225885E+02  0.99332152131E+02  0.10388306746E+03  0.00000000000E+00 0.  1.
         11    1    3    3    0    0  0.89892543565E+02 -0.15049922812E+03  0.63421623663E+03  0.65799766098E+03  0.00000000000E+00 0. -1.
</event>
<event>
 7    1  0.6584658E-006  0.1027764E+03  0.7561462E-02  0.1274564E+00
         -4   -1    0    0    0  501 -0.00000000000E+00  0.00000000000E+00  0.99637335679E+03  0.99637335679E+03  0.00000000000E+00 0. -1.
          4   -1    0    0  501    0  0.00000000000E+00 -0.00000000000E+00 -0.16997699801E+02  0.16997699801E+02  0.00000000000E+00 0.  1.
         23    2    1    2    0    0  0.18935198214E+02 -0.36781155217E+02  0.16175498678E+03  0.18520403490E+03  0.80152752185E+02 0.  0.
          5    1    1    2  502    0  0.38125413852E+02  0.57971544261E+02  0.37874176435E+03  0.38506758314E+03  0.41800000000E+01 0.  1.
         -5    1    1    2    0  502 -0.57060612066E+02 -0.21190389044E+02  0.43887890586E+03  0.44309943855E+03  0.41800000000E+01 0.  1.
        -11    1    3    3    0    0  0.40138859357E+02 -0.35831886929E+02  0.57252160939E+02  0.78567563813E+02  0.00000000000E+00 0.  1.
         11    1    3    3    0    0 -0.21203661143E+02 -0.94926828831E+00  0.10450282584E+03  0.10663647108E+03  0.00000000000E+00 0. -1.
</event>
<event>
 7    1  0.6584658E-006  0.1343030E+03  0.7561462E-02  0.1221207E+00
          2   -1    0    0  501    0  0.00000000000E+00  0.00000000000E+00  0.79941252857E+02  0.79941252857E+02  0.00000000000E+00 0. -1.
         -2   -1    0    0    0  501 -0.00000000000E+00 -0.00000000000E+00 -0.29743127066E+03  0.29743127066E+03  0.00000000000E+00 0.  1.
         23    2    1    2    0    0  0.75701040842E+02  0.31600796317E+02 -0.11697961337E+02  0.12295867387E+03  0.90844566532E+02 0.  0.
          5    1    1    2  502    0 -0.11014898425E+03 -0.15661552628E+02 -0.15645204345E+03  0.19202290816E+03  0.41800000000E+01 0.  1.
         -5    1    1    2    0  502  0.34447943403E+02 -0.15939243689E+02 -0.49340013016E+02  0.62390941478E+02  0.41800000000E+01 0.  1.
        -11    1    3    3    0    0  0.49784017355E+02 -0.25823093723E+02  0.86646072509E+01  0.56748180343E+02  0.00000000000E+00 0. -1.
         11    1    3    3    0    0  0.25917023487E+02  0.57423890040E+02 -0.20362568588E+02  0.66210493529E+02  0.00000000000E+00 0.  1.
</event>
<event>
 7    1  0.6584658E-006  0.9982354E+02  0.7561462E-02  0.1280667E+00
         -2   -1    0    0    0  501 -0.00000000000E+00  0.00000000000E+00  0.63865432422E+02  0.63865432422E+02  0.00000000000E+00 0.  1.
          2   -1    0    0  501    0  0.00000000000E+00 -0.00000000000E+00 -0.21179937444E+03  0.21179937444E+03  0.00000000000E+00 0. -1.
         23    2    1    2    0    0 -0.47261053925E+01 -0.39680743197E+02 -0.75484498468E+02  0.12568697839E+03  0.92208511406E+02 0.  0.
          5    1    1    2  502    0 -0.28933448401E+02 -0.21749348656E+02  0.13645585416E+02  0.38908263964E+02  0.41800000000E+01 0. -1.
         -5    1    1    2    0  502  0.33659553794E+02  0.61430091853E+02 -0.86095028968E+02  0.11106956451E+03  0.41800000000E+01 0. -1.
        -11    1    3    3    0    0  0.17862695251E+02 -0.60032393917E+02 -0.71449463972E+02  0.95015736081E+02  0.00000000000E+00 0. -1.
         11    1    3    3    0    0 -0.22588800644E+02  0.20351650721E+02 -0.40350344959E+01  0.30671242312E+02  0.00000000000E+00 0.  1.
</event>
<event>
 7    1  0.6584658E-006  0.8513418E+02  0.7561462E-02  0.1315082E+00
         -2   -1    0    0    0  501 -0.00000000000E+00  0.00000000000E+00  0.14001335138E+02  0.14001335138E+02  0.00000000000E+00 0.  1.
          2   -1    0    0  501    0  0.00000000000E+00 -0.00000000000E+00 -0.11388813061E+04  0.11388813061E+04  0.00000000000E+00 0. -1.
         23    2    1    2    0    0  0.23921931214E+02 -0.55762553870E+02 -0.60879486224E+03  0.61839765010E+03  0.90015266233E+02 0.  0.
          5    1    1    2  502    0 -0.19927309706E+02  0.47670594052E+02 -0.52087381553E+03  0.52344683332E+03  0.41800000000E+01 0.  1.
         -5    1    1    2    0  502 -0.39946215077E+01  0.80919598180E+01  0.47887068197E+01  0.11038157803E+02  0.41800000000E+01 0.  1.
        -11    1    3    3    0    0  0.56792769177E+02 -0.20758232702E+02 -0.35031655702E+03  0.35549685368E+03  0.00000000000E+00 0. -1.
         11    1    3    3    0    0 -0.32870837963E+02 -0.35004321169E+02 -0.25847830522E+03  0.26290079642E+03  0.00000000000E+00 0.  1.
</event>
<event>
 7    1  0.6584658E-006  0.9043588E+02  0.7561462E-02  0.1301800E+00
          1   -1    0    0  501    0  0.00000000000E+00  0.00000000000E+00  0.25399079663E+03  0.25399079663E+03  0.00000000000E+00 0. -1.
         -1   -1    0    0    0  501 -0.00000000000E+00 -0.00000000000E+00 -0.54265199374E+02  0.54265199374E+02  0.00000000000E+00 0.  1.
         23    2    1    2    0    0  0.20362112386E+02  0.19447571658E+02  0.13324184874E+03  0.16382587077E+03  0.91064274085E+02 0.  0.
          5    1    1    2  502    0 -0.20536518910E+02  0.45848710994E+02  0.60465763963E+02  0.78723782432E+02  0.41800000000E+01 0. -1.
         -5    1    1    2    0  502  0.17440652381E+00 -0.65296282652E+02  0.60179845531E+01  0.65706342798E+02  0.41800000000E+01 0. -1.
        -11    1    3    3    0    0  0.41183426508E+02  0.14135330462E+02  0.13540059876E+03  0.14222940740E+03  0.00000000000E+00 0. -1.
         11    1    3    3    0    0 -0.20821314122E+02  0.53122411962E+01 -0.21587500213E+01  0.21596463367E+02  0.00000000000E+00 0.  1.
</event>
<event>
 7    1  0.6584658E-006  0.8990021E+02  0.7561462E-02  0.1303094E+00
          1   -1    0    0  501    0  0.00000000000E+00  0.00000000000E+00  0.30519116866E+02  0.30519116866E+02  0.00000000000E+00 0. -1.
         -1   -1    0    0    0  501 -0.00000000000E+00 -0.00000000000E+00 -0.49745794844E+03  0.49745794844E+03  0.00000000000E+00 0.  1.
         23    2    1    2    0    0 -0.10617130488E+02 -0.37896304748E+01 -0.81639747431E+02  0.12272446684E+03  0.90934930817E+02 0.  0.
          5    1    1    2  502    0 -0.78181941870E+01  0.61177493301E+02 -0.24127272984E+03  0.24906587966E+03  0.41800000000E+01 0.  1.
         -5    1    1    2    0  502  0.18435324675E+02 -0.57387862826E+02 -0.14402635430E+03  0.15618671880E+03  0.41800000000E+01 0.  1.
        -11    1    3    3    0    0 -0.31575533759E+02 -0.13651390614E+02  0.34177358601E+01  0.34569577901E+02  0.00000000000E+00 0. -1.
         11    1    3    3    0    0  0.20958403271E+02  0.98617601392E+01 -0.85057483291E+02  0.88154888943E+02  0.00000000000E+00 0.  1.
</event>
<event>
 7    1  0.6584658E-006  0.2025245E+03  0.7561462E-02  0.1147626E+00
          2   -1    0    0  501    0  0.00000000000E+00  0.00000000000E+00  0.37220339835E+03  0.37220339835E+03  0.00000000000E+00 0. -1.
         -2   -1    0    0    0  501 -0.00000000000E+00 -0.00000000000E+00 -0.15812486656E+03  0.15812486656E+03  0.00000000000E+00 0.  1.
         23    2    1    2    0    0  0.12821828728E+03 -0.14844292798E+03  0.20447492287E+03  0.29748800506E+03  0.90630497149E+02 0.  0.
          5    1    1    2  502    0 -0.74108637827E+02  0.58472719250E+02 -0.55159804839E+02  0.10941309596E+03  0.41800000000E+01 0.  1.
         -5    1    1    2    0  502 -0.54109649458E+02  0.89970208726E+02  0.64763413757E+02  0.12342716388E+03  0.41800000000E+01 0.  1.
        -11    1    3    3    0    0  0.82781548647E+02 -0.13454431824E+03  0.11240699825E+03  0.19388215911E+03  0.00000000000E+00 0.  1.
         11    1    3    3    0    0  0.45436738637E+02 -0.13898609734E+02  0.92067924623E+02  0.10360584595E+03  0.00000000000E+00 0. -1.
</event>
<event>
 7    1  0.6584658E-006  0.1183666E+03  0.7561462E-02  0.1245816E+00
         -1   -1    0    0    0  501 -0.00000000000E+00  0.00000000000E+00  0.61204265899E+02  0.61204265899E+02  0.00000000000E+00 0.  1.
          1   -1    0    0  501    0  0.00000000000E+00 -0.00000000000E+00 -0.31995875258E+03  0.31995875258E+03  0.00000000000E+00 0. -1.
         23    2    1    2    0    0  0.67427880638E+02 -0.50697944758E+02 -0.15374698625E+03  0.19734048276E+03  0.90489389794E+02 0.  0.
          5    1    1    2  502    0  0.12539579279E+02  0.67612533546E+02 -0.44030318738E+02  0.81760853158E+02  0.41800000000E+01 0.  1.
         -5    1    1    2    0  502 -0.79967459917E+02 -0.16914588787E+02 -0.60977181688E+02  0.10206168256E+03  0.41800000000E+01 0.  1.
        -11    1    3    3    0    0  0.48048508307E+02 -0.44917359398E+02 -0.16249815196E+03  0.17530509894E+03  0.00000000000E+00 0. -1.
         11    1    3    3    0    0  0.19379372332E+02 -0.57805853600E+01  0.87511657019E+01  0.22035383823E+02  0.00000000000E+00 0.  1.
</event>
<event>
 7    1  0.6584658E-006  0.1130701E+03  0.7561462E-02  0.1254988E+00
         -2   -1    0    0    0  501 -0.00000000000E+00  0.00000000000E+00  0.48026629627E+02  0.48026629627E+02  0.00000000000E+00 0.  1.
          2   -1    0    0  501    0  0.00000000000E+00 -0.00000000000E+00 -0.38397987274E+03  0.38397987274E+03  0.00000000000E+00 0. -1.
         23    2    1    2    0    0  0.78704563633E+02 -0.87360150170E+00 -0.18224188931E+03  0.21876268620E+03  0.91922984832E+02 0.  0.
          5    1    1    2  502    0 -0.80523650888E+02  0.24473533524E+02 -0.33543038019E+02  0.90695203815E+02  0.41800000000E+01 0. -1.
         -5    1    1    2    0  502  0.18190872551E+01 -0.23599932022E+02 -0.12016831579E+03  0.12254861235E+03  0.41800000000E+01 0. -1.
        -11    1    3    3    0    0  0.27269189173E+02  0.42541371046E+02 -0.10347749290E+03  0.11515627844E+03  0.00000000000E+00 0.  1.
         11    1    3    3    0    0  0.51435374460E+02 -0.43414972548E+02 -0.78764396413E+02  0.10360640776E+03  0.00000000000E+00 0. -1.
</event>
<event>
 7    1  0.6584658E-006  0.1453656E+03  0.7561462E-02  0.1206286E+00
          1   -1    0    0  501    0  0.00000000000E+00  0.00000000000E+00  0.23369278897E+03  0.23369278897E+03  0.00000000000E+00 0. -1.
         -1   -1    0    0    0  501 -0.00000000000E+00 -0.00000000000E+00 -0.12348255214E+03  0.12348255214E+03  0.00000000000E+00 0.  1.
         23    2    1    2    0    0 -0.10079056131E+03 -0.80951398552E+02  0.62344400756E+02  0.17093056492E+03  0.92836240447E+02 0.  0.
          5    1    1    2  502    0 -0.12999106749E+01  0.38337913627E+02  0.63635969853E+02  0.74421061859E+02  0.41800000000E+01 0.  1.
         -5    1    1    2    0  502  0.10209047198E+03  0.42613484925E+02 -0.15770133776E+02  0.11182371433E+03  0.41800000000E+01 0.  1.
        -11    1    3    3    0    0 -0.57454824457E+02 -0.10028519370E+02 -0.11852850242E+02  0.59515696359E+02  0.00000000000E+00 0.  1.
         11    1    3    3    0    0 -0.43335736851E+02 -0.70922879182E+02  0.74197250999E+02  0.11141486856E+03  0.00000000000E+00 0. -1.
</event>
<event>
 7    1  0.6584658E-006  0.7285616E+02  0.7561462E-02  0.1350641E+00
          2   -1    0    0  501    0  0.00000000000E+00  0.00000000000E+00  0.84576371341E+02  0.84576371341E+02  0.00000000000E+00 0. -1.
         -2   -1    0    0    0  501 -0.00000000000E+00 -0.00000000000E+00 -0.16292557596E+03  0.16292557596E+03  0.00000000000E+00 0.  1.
         23    2    1    2    0    0 -0.72309913062E+01  0.27908662051E+02  0.43963726782E+01  0.94775555986E+02  0.90177032924E+02 0.  0.
          5    1    1    2  502    0  0.24383988731E+02 -0.62635412080E+02 -0.90697787107E+02  0.11296607782E+03  0.41800000000E+01 0.  1.
         -5    1    1    2    0  502 -0.17152997425E+02  0.34726750029E+02  0.79522098069E+01  0.39760313493E+02  0.41800000000E+01 0.  1.
        -11    1    3    3    0    0  0.72403080592E+01  0.23027261372E+02 -0.40613354958E+02  0.47245332341E+02  0.00000000000E+00 0.  1.
         11    1    3    3    0    0 -0.14471299365E+02  0.48814006790E+01  0.45009727636E+02  0.47530223645E+02  0.00000000000E+00 0. -1.
</event>
<event>
 7    1  0.6584658E-006  0.1506603E+03  0.7561462E-02  0.1199664E+00
         -3   -1    0    0    0  501 -0.00000000000E+00  0.00000000000E+00  0.37770779548E+03  0.37770779548E+03  0.00000000000E+00 0. -1.
          3   -1    0    0  501    0  0.00000000000E+00 -0.00000000000E+00 -0.80474233740E+02  0.80474233740E+02  0.00000000000E+00 0.  1.
         23    2    1    2    0    0  0.32250320346E+02 -0.12805204696E+03  0.96945024520E+02  0.18762411937E+03  0.91471648600E+02 0.  0.
          5    1    1    2  502    0 -0.96054882665E+01  0.13814873560E+03  0.11020426463E+03  0.17703048013E+03  0.41800000000E+01 0. -1.
         -5    1    1    2    0  502 -0.22644832080E+02 -0.10096688639E+02  0.90084272596E+02  0.93527429723E+02  0.41800000000E+01 0. -1.
        -11    1    3    3    0    0 -0.15996747027E+01 -0.72918249394E+02  0.98915836505E+02  0.12289822116E+03  0.00000000000E+00 0.  1.
         11    1    3    3    0    0  0.33849995049E+02 -0.55133797567E+02 -0.19708119846E+01  0.64725898208E+02  0.00000000000E+00 0. -1.
</event>
<event>
 7    1  0.6584658E-006  0.6153138E+02  0.7561462E-02  0.1391515E+00
          2   -1    0    0  501    0  0.00000000000E+00  0.00000000000E+00  0.23132224817E+03  0.23132224817E+03  0.00000000000E+00 0. -1.
         -2   -1    0    0    0  501 -0.00000000000E+00 -0.00000000000E+00 -0.72925379224E+02  0.72925379224E+02  0.00000000000E+00 0.  1.
         23    2    1    2    0    0  0.41131162154E+02  0.17959840531E+02  0.13547828826E+03  0.16937987848E+03  0.91218683784E+02 0.  0.
          5    1    1    2  502    0 -0.27536406771E+02 -0.25411736053E+02  0.73061898599E+02  0.82216321093E+02  0.41800000000E+01 0. -1.
         -5    1    1    2    0  502 -0.13594755382E+02  0.74518955225E+01 -0.50143317912E+02  0.52651427825E+02  0.41800000000E+01 0. -1.
        -11    1    3    3    0    0  0.88746438297E+01  0.32667898938E+02  0.50586592412E+01  0.34227780492E+02  0.00000000000E+00 0.  1.
         11    1    3    3    0    0  0.32256518324E+02 -0.14708058407E+02  0.13041962902E+03  0.13515209799E+03  0.00000000000E+00 0. -1.
</event>
<event>
 7    1  0.6584658E-006  0.9899998E+02  0.7561462E-02  0.1282413E+00
         -2   -1    0    0    0  501 -0.00000000000E+00  0.00000000000E+00  0.65760678116E+03  0.65760678116E+03  0.00000000000E+00 0.  1.
          2   -1    0    0  501    0  0.00000000000E+00 -0.00000000000E+00 -0.23075010124E+02  0.23075010124E+02  0.00000000000E+00 0. -1.
         23    2    1    2    0    0 -0.13299576504E+02  0.42841758375E+02  0.16059368150E+03  0.18846521643E+03  0.87843680877E+02 0.  0.
          5    1    1    2  502    0  0.63102778416E+02 -0.16445076864E+02  0.15346480698E+03  0.16679724392E+03  0.41800000000E+01 0. -1.
         -5    1    1    2    0  502 -0.49803201911E+02 -0.26396681511E+02  0.32047328255E+03  0.32541933094E+03  0.41800000000E+01 0. -1.
        -11    1    3    3    0    0  0.15334058037E+01  0.56171458435E+02  0.47358853448E+02  0.73487720580E+02  0.00000000000E+00 0.  1.
         11    1    3    3    0    0 -0.14832982308E+02 -0.13329700061E+02  0.11323482805E+03  0.11497749585E+03  0.00000000000E+00 0. -1.
</event>
<event>
 7    1  0.6584658E-006  0.9529679E+02  0.7561462E-02  0.1290509E+00
          3   -1    0    0  501    0  0.00000000000E+00  0.00000000000E+00  0.10386589067E+03  0.10386589067E+03  0.00000000000E+00 0. -1.
         -3   -1    0    0    0  501 -0.00000000000E+00 -0.00000000000E+00 -0.16430476790E+03  0.16430476790E+03  0.00000000000E+00 0.  1.
         23    2    1    2    0    0 -0.61982991500E+02 -0.35036889866E+02 -0.10805606820E+02  0.11592079753E+03  0.90837191029E+02 0.  0.
          5    1    1    2  502    0 -0.31437380318E+00  0.26781714416E+02 -0.78441312495E+02  0.82993198299E+02  0.41800000000E+01 0. -1.
         -5    1    1    2    0  502  0.62297365303E+02  0.82551754497E+01  0.28808042080E+02  0.69256662740E+02  0.41800000000E+01 0. -1.
        -11    1    3    3    0    0 -0.78000530844E+02 -0.31374995665E+02  0.14927804721E+02  0.85389182680E+02  0.00000000000E+00 0. -1.
         11    1    3    3    0    0  0.16017539344E+02 -0.36618942008E+01 -0.25733411541E+02  0.30531614849E+02  0.00000000000E+00 0.  1.
</event>
<event>
 7    1  0.6584658E-006  0.1132998E+03  0.7561462E-02  0.1254578E+00
          2   -1    0    0  501    0  0.00000000000E+00  0.00000000000E+00  0.37035343956E+03  0.37035343956E+03  0.00000000000E+00 0. -1.
         -2   -1    0    0    0  501 -0.00000000000E+00 -0.00000000000E+00 -0.36653082784E+02  0.36653082784E+02  0.00000000000E+00 0.  1.
         23    2    1    2    0    0 -0.13793459076E+02 -0.41605121510E+02  0.16162515333E+03  0.18979941738E+03  0.89330190870E+02 0.  0.
          5    1    1    2  502    0 -0.46226056800E+02 -0.10627263678E+02  0.95439659612E+02  0.10665827716E+03  0.41800000000E+01 0.  1.
         -5    1    1    2    0  502  0.60019515876E+02  0.52232385188E+02  0.76635543833E+02  0.11054882780E+03  0.41800000000E+01 0.  1.
        -11    1    3    3    0    0  0.46035254408E+01  0.27456288351E+02  0.40109278231E+02  0.48824117162E+02  0.00000000000E+00 0.  1.
         11    1    3    3    0    0 -0.18396984517E+02 -0.69061409861E+02  0.12151587510E+03  0.14097530022E+03  0.00000000000E+00 0. -1.
</event>
<event>
 7    1  0.6584658E-006  0.6748725E+02  0.7561462E-02  0.1368852E+00
          2   -1    0    0  501    0  0.00000000000E+00  0.00000000000E+00  0.28723719286E+03  0.28723719286E+03  0.00000000000E+00 0. -1.
         -2   -1    0    0    0  501 -0.00000000000E+00 -0.00000000000E+00 -0.84767740252E+02  0.84767740252E+02  0.00000000000E+00 0.  1.
         23    2    1    2    0    0  0.99300089021E+01 -0.15308797672E+02  0.17568148243E+03  0.19906636426E+03  0.91817589533E+02 0.  0.
          5    1    1    2  502    0  0.33220103592E+02 -0.80558725800E+01  0.87927885770E+02  0.94431233507E+02  0.41800000000E+01 0. -1.
         -5    1    1    2    0  502 -0.43150112494E+02  0.23364670252E+02 -0.61139915593E+02  0.78507335345E+02  0.41800000000E+01 0.  1.
        -11    1    3    3    0    0  0.22905989396E+02 -0.25873897102E+02  0.17874534906E+03  0.18205505407E+03  0.00000000000E+00 0. -1.
         11    1    3    3    0    0 -0.12975980494E+02  0.10565099430E+02 -0.30638666276E+01  0.17011310192E+02  0.00000000000E+00 0.  1.
</event>
<event>
 7    1  0.6584658E-006  0.1334978E+03  0.7561462E-02  0.1222356E+00
         -1   -1    0    0    0  501 -0.00000000000E+00  0.00000000000E+00  0.94925065967E+02  0.94925065967E+02  0.00000000000E+00 0.  1.
          1   -1    0    0  501    0  0.00000000000E+00 -0.00000000000E+00 -0.48618519480E+03  0.48618519480E+03  0.00000000000E+00 0. -1.
         23    2    1    2    0    0 -0.69915293574E+02 -0.55199785616E+02 -0.40732037718E+03  0.42670604681E+03  0.90735859003E+02 0.  0.
          5    1    1    2  502    0 -0.29127203641E+02 -0.83996353366E+01 -0.12753701407E+02  0.33152332728E+02  0.41800000000E+01 0. -1.
         -5    1    1    2    0  502  0.99042497215E+02  0.63599420953E+02  0.28813949759E+02  0.12125188123E+03  0.41800000000E+01 0. -1.
        -11    1    3    3    0    0 -0.43632929848E+02  0.12999100514E+02 -0.87447323410E+02  0.98589266925E+02  0.00000000000E+00 0.  1.
         11    1    3    3    0    0 -0.26282363726E+02 -0.68198886130E+02 -0.31987305377E+03  0.32811677988E+03  0.00000000000E+00 0. -1.
</event>
<event>
 7    1  0.6584658E-006  0.1421845E+03  0.7561462E-02  0.1210419E+00
          1   -1    0    0  501    0  0.00000000000E+00  0.00000000000E+00  0.85027738040E+02  0.85027738040E+02  0.00000000000E+00 0. -1.
         -1   -1    0    0    0  501 -0.00000000000E+00 -0.00000000000E+00 -0.34017288535E+03  0.34017288535E+03  0.00000000000E+00 0.  1.
         23    2    1    2    0    0  0.28214218007E+02 -0.12146897247E+03 -0.13807014266E+03  0.20732005355E+03  0.91473968643E+02 0.  0.
          5    1    1    2  502    0  0.26840719661E+02  0.89903036142E+02 -0.12214688015E+03  0.15407891767E+03  0.41800000000E+01 0. -1.
         -5    1    1    2    0  502 -0.55054937668E+02  0.31565936333E+02  0.50718755030E+01  0.63801652168E+02  0.41800000000E+01 0.  1.
        -11    1    3    3    0    0  0.27706512099E+02 -0.68644275882E+02 -0.18058081269E+02  0.76195680476E+02  0.00000000000E+00 0. -1.
         11    1    3    3    0    0  0.50770590780E+00 -0.52824696593E+02 -0.12001206139E+03  0.13112437308E+03  0.00000000000E+00 0.  1.
</event>
<event>
 7    1  0.6584658E-006  0.1671545E+03  0.7561462E-02  0.1180848E+00
          1   -1    0    0  501    0  0.00000000000E+00  0.00000000000E+00  0.11661618273E+03  0.11661618273E+03  0.00000000000E+00 0.  1.
         -1   -1    0    0    0  501 -0.00000000000E+00 -0.00000000000E+00 -0.35380936840E+03  0.35380936840E+03  0.00000000000E+00 0. -1.
         23    2    1    2    0    0 -0.12287540769E+03 -0.64875603294E+02  0.23286273996E+01  0.16657520245E+03  0.91840436891E+02 0.  0.
          5    1    1    2  502    0  0.52018597339E+02 -0.21760581623E+02 -0.24939019479E+02  0.61797123511E+02  0.41800000000E+01 0.  1.
         -5    1    1    2    0  502  0.70856810347E+02  0.86636184917E+02 -0.21458279360E+03  0.24205322517E+03  0.41800000000E+01 0.  1.
        -11    1    3    3    0    0 -0.10923875996E+02 -0.51934173681E+02  0.83208512351E+01  0.53718954085E+02  0.00000000000E+00 0.  1.
         11    1    3    3    0    0 -0.11195153169E+03 -0.12941429613E+02 -0.59922238355E+01  0.11285624836E+03  0.00000000000E+00 0. -1.
</event>
<event>
 7    1  0.6584658E-006  0.8773265E+02  0.7561462E-02  0.1308437E+00
         -2   -1    0    0    0  501 -0.00000000000E+00  0.00000000000E+00  0.57281726337E+02  0.57281726337E+02  0.00000000000E+00 0. -1.
          2   -1    0    0  501    0  0.00000000000E+00 -0.00000000000E+00 -0.26790056377E+03  0.26790056377E+03  0.00000000000E+00 0.  1.
         23    2    1    2    0    0  0.21393750703E+02 -0.46455718610E+02 -0.13447316224E+03  0.17006754935E+03  0.90686898819E+02 0.  0.
          5    1    1    2  502    0  0.18370762488E+02  0.12421133235E+02 -0.96272486609E+02  0.98881917170E+02  0.41800000000E+01 0.  1.
         -5    1    1    2    0  502 -0.39764513191E+02  0.34034585375E+02  0.20126811418E+02  0.56232823589E+02  0.41800000000E+01 0.  1.
        -11    1    3    3    0    0 -0.19686036063E+02 -0.55013502607E+02 -0.99745452711E+02  0.11559922500E+03  0.00000000000E+00 0.  1.
         11    1    3    3    0    0  0.41079786766E+02  0.85577839968E+01 -0.34727709532E+02  0.54468324346E+02  0.00000000000E+00 0. -1.
</event>
<event>
 7    1  0.6584658E-006  0.1428016E+03  0.7561462E-02  0.1209608E+00
         -1   -1    0    0    0  501 -0.00000000000E+00  0.00000000000E+00  0.35386059185E+03  0.35386059185E+03  0.00000000000E+00 0.  1.
          1   -1    0    0  501    0  0.00000000000E+00 -0.00000000000E+00 -0.76200606401E+02  0.76200606401E+02  0.00000000000E+00 0. -1.
         23    2    1    2    0    0 -0.25838055598E+02 -0.25350004526E+02  0.23387443866E+02  0.99213577293E+02  0.89365169625E+02 0.  0.
          5    1    1    2  502    0  0.66245423761E+02 -0.68852453743E+02  0.18121726277E+03  0.20490555210E+03  0.41800000000E+01 0. -1.
         -5    1    1    2    0  502 -0.40407368163E+02  0.94202458269E+02  0.73055278811E+02  0.12594206886E+03  0.41800000000E+01 0.  1.
        -11    1    3    3    0    0 -0.53954059868E+02 -0.24479716688E+02  0.34963897044E+02  0.68795139377E+02  0.00000000000E+00 0.  1.
         11    1    3    3    0    0  0.28116004270E+02 -0.87028783774E+00 -0.11576453179E+02  0.30418437916E+02  0.00000000000E+00 0. -1.
</event>
<event>
 7    1  0.6584658E-006  0.1090504E+03  0.7561462E-02  0.1262338E+00
         -3   -1    0    0    0  501 -0.00000000000E+00  0.00000000000E+00  0.13406298303E+03  0.13406298303E+03  0.00000000000E+00 0.  1.
          3   -1    0    0  501    0  0.00000000000E+00 -0.00000000000E+00 -0.12060328438E+03  0.12060328438E+03  0.00000000000E+00 0. -1.
         23    2    1    2    0    0 -0.31470747681E+02  0.54937660852E+02  0.13464711525E+01  0.11394443285E+03  0.94725742294E+02 0.  0.
          5    1    1    2  502    0 -0.25575276782E+00  0.23052788594E+02 -0.36526780673E+02  0.43395559425E+02  0.41800000000E+01 0. -1.
         -5    1    1    2    0  502  0.31726500448E+02 -0.77990449446E+02  0.48640008170E+02  0.97326275128E+02  0.41800000000E+01 0. -1.
        -11    1    3    3    0    0  0.31943676242E+02  0.23038502673E+02  0.14079657670E+02  0.41825922792E+02  0.00000000000E+00 0.  1.
         11    1    3    3    0    0 -0.63414423922E+02  0.31899158179E+02 -0.12733186518E+02  0.72118510057E+02  0.00000000000E+00 0. -1.
</event>
<event>
 7    1  0.6584658E-006  0.1121998E+03  0.7561462E-02  0.1256550E+00
         -2   -1    0    0    0  501 -0.00000000000E+00  0.00000000000E+00  0.54726671074E+02  0.54726671074E+02  0.00000000000E+00 0.  1.
          2   -1    0    0  501    0  0.00000000000E+00 -0.00000000000E+00 -0.52418364134E+03  0.52418364134E+03  0.00000000000E+00 0. -1.
         23    2    1    2    0    0 -0.48437279755E+02 -0.23226390343E+02 -0.42149850171E+03  0.43457213507E+03  0.91139005646E+02 0.  0.
          5    1    1    2  502    0  0.73276397720E+02 -0.14948932914E+02  0.41346361747E+01  0.75016456024E+02  0.41800000000E+01 0. -1.
         -5    1    1    2    0  502 -0.24839117965E+02  0.38175323258E+02 -0.52093104724E+02  0.69321721321E+02  0.41800000000E+01 0. -1.
        -11    1    3    3    0    0  0.15818505866E+02 -0.35024418148E+02 -0.11721078681E+03  0.12335032850E+03  0.00000000000E+00 0.  1.
         11    1    3    3    0    0 -0.64255785621E+02  0.11798027805E+02 -0.30428771490E+03  0.31122180657E+03  0.00000000000E+00 0. -1.
</event>
<event>
 7    1  0.6584658E-006  0.1298806E+03  0.7561462E-02  0.1227633E+00
         -3   -1    0    0    0  501 -0.00000000000E+00  0.00000000000E+00  0.33299151379E+02  0.33299151379E+02  0.00000000000E+00 0.  1.
          3   -1    0    0  501    0  0.00000000000E+00 -0.00000000000E+00 -0.60692792295E+03  0.60692792295E+03  0.00000000000E+00 0. -1.
         23    2    1    2    0    0  0.42801682768E+02 -0.79886820949E+02 -0.28748800007E+03  0.31505323959E+03  0.91625899064E+02 0.  0.
          5    1    1    2  502    0 -0.54293554725E+02  0.18418750300E+00 -0.19957425665E+03  0.20686995994E+03  0.41800000000E+01 0. -1.
         -5    1    1    2    0  502  0.11491871957E+02  0.79702633446E+02 -0.86566514845E+02  0.11830387480E+03  0.41800000000E+01 0. -1.
        -11    1    3    3    0    0  0.68035044333E+02 -0.44827855705E+02 -0.14693577506E+03  0.16801317180E+03  0.00000000000E+00 0.  1.
         11    1    3    3    0    0 -0.25233361565E+02 -0.35058965245E+02 -0.14055222501E+03  0.14704006779E+03  0.00000000000E+00 0. -1.
</event>
<event>
 7    1  0.6584658E-006  0.1212449E+03  0.7561462E-02  0.1241057E+00
          2   -1    0    0  501    0  0.00000000000E+00  0.00000000000E+00  0.64659018987E+02  0.64659018987E+02  0.00000000000E+00 0. -1.
         -2   -1    0    0    0  501 -0.00000000000E+00 -0.00000000000E+00 -0.46108035904E+03  0.46108035904E+03  0.00000000000E+00 0.  1.
         23    2    1    2    0    0  0.84217209312E+02  0.35536997353E+02 -0.39802538874E+02  0.13692058709E+03  0.93848753556E+02 0.  0.
          5    1    1    2  502    0 -0.19110317370E+02 -0.70224925627E+02 -0.23941929192E+03  0.25027148091E+03  0.41800000000E+01 0. -1.
         -5    1    1    2    0  502 -0.65106891942E+02  0.34687928274E+02 -0.11719950926E+03  0.13854731003E+03  0.41800000000E+01 0. -1.
        -11    1    3    3    0    0  0.51247337642E+02  0.62951528835E+01  0.25933473676E+02  0.57779439441E+02  0.00000000000E+00 0. -1.
         11    1    3    3    0    0  0.32969871670E+02  0.29241844470E+02 -0.65736012549E+02  0.79141147653E+02  0.00000000000E+00 0.  1.
</event>
<event>
 7    1  0.6584658E-006  0.1019993E+03  0.7561462E-02  0.1276147E+00
         -4   -1    0    0    0  501 -0.00000000000E+00  0.00000000000E+00  0.23922230899E+03  0.23922230899E+03  0.00000000000E+00 0.  1.
          4   -1    0    0  501    0  0.00000000000E+00 -0.00000000000E+00 -0.10059519209E+03  0.10059519209E+03  0.00000000000E+00 0. -1.
         23    2    1    2    0    0  0.43638996767E+02 -0.34301220384E+02 -0.45937081847E+02  0.11788991716E+03  0.93310670996E+02 0.  0.
          5    1    1    2  502    0  0.43013609981E+01 -0.36134442258E+02  0.41420745321E+02  0.55293310324E+02  0.41800000000E+01 0. -1.
         -5    1    1    2    0  502 -0.47940357765E+02  0.70435662642E+02  0.14314345343E+03  0.16663427358E+03  0.41800000000E+01 0.  1.
        -11    1    3    3    0    0 -0.88894659958E+01 -0.27738374242E+02  0.18492518305E+02  0.34502365782E+02  0.00000000000E+00 0.  1.
         11    1    3    3    0    0  0.52528462763E+02 -0.65628461416E+01 -0.64429600152E+02  0.83387551382E+02  0.00000000000E+00 0. -1.
</event>
<event>
 7    1  0.9297654E-006  0.3000945E+03  0.7561462E-02  0.1085193E+00
         -2   -1    0    0    0  501 -0.00000000000E+00  0.00000000000E+00  0.83498720590E+02  0.83498720590E+02  0.00000000000E+00 0.  1.
          2   -1    0    0  501    0  0.00000000000E+00 -0.00000000000E+00 -0.11513631405E+04  0.11513631405E+04  0.00000000000E+00 0. -1.
         23    2    1    2    0    0 -0.17080387479E+03 -0.23126117473E+03 -0.45142128119E+03  0.54326579329E+03  0.93278370809E+02 0.  0.
          5    1    1    2  502    0  0.79371131657E+02  0.17261986760E+03 -0.28304277811E+03  0.34092239860E+03  0.41800000000E+01 0. -1.
         -5    1    1    2    0  502  0.91432743133E+02  0.58641307128E+02 -0.33340036065E+03  0.35067366925E+03  0.41800000000E+01 0. -1.
        -11    1    3    3    0    0 -0.11849636798E+03 -0.84212028338E+02 -0.23753770871E+03  0.27849096574E+03  0.00000000000E+00 0.  1.
         11    1    3    3    0    0 -0.52307506814E+02 -0.14704914639E+03 -0.21388357248E+03  0.26477482754E+03  0.00000000000E+00 0. -1.
</event>
<event>
 7    1  0.6584658E-006  0.8255347E+02  0.7561462E-02  0.1321957E+00
          2   -1    0    0  501    0  0.00000000000E+00  0.00000000000E+00  0.99225549488E+03  0.99225549488E+03  0.00000000000E+00 0. -1.
         -2   -1    0    0    0  501 -0.00000000000E+00 -0.00000000000E+00 -0.12059651525E+02  0.12059651525E+02  0.00000000000E+00 0.  1.
         23    2    1    2    0    0 -0.88298701614E+01  0.16004694271E+02  0.41214611039E+03  0.42236823869E+03  0.90533948850E+02 0.  0.
          5    1    1    2  502    0 -0.30422363323E+02 -0.83507123753E+00  0.32464998673E+02  0.44695257836E+02  0.41800000000E+01 0. -1.
         -5    1    1    2    0  502  0.39252233485E+02 -0.15169623033E+02  0.53558473429E+03  0.53725164988E+03  0.41800000000E+01 0. -1.
        -11    1    3    3    0    0 -0.49042817901E+02  0.62983013071E+00  0.23527274551E+03  0.24033072931E+03  0.00000000000E+00 0.  1.
         11    1    3    3    0    0  0.40212947740E+02  0.15374864140E+02  0.17687336489E+03  0.18203750938E+03  0.00000000000E+00 0. -1.
</event>
<event>
 7    1  0.6584658E-006  0.1444285E+03  0.7561462E-02  0.1207491E+00
         -1   -1    0    0    0  501 -0.00000000000E+00  0.00000000000E+00  0.11291893898E+03  0.11291893898E+03  0.00000000000E+00 0.  1.
          1   -1    0    0  501    0  0.00000000000E+00 -0.00000000000E+00 -0.23130101413E+03  0.23130101413E+03  0.00000000000E+00 0. -1.
         23    2    1    2    0    0  0.93151195305E+02  0.64799187164E+02 -0.95452189064E+02  0.17378052466E+03  0.90622682097E+02 0.  0.
          5    1    1    2  502    0  0.37039920512E+00  0.33094474176E+02 -0.24530204624E+01  0.33449531027E+02  0.41800000000E+01 0. -1.
         -5    1    1    2    0  502 -0.93521594511E+02 -0.97893661340E+02 -0.20476865629E+02  0.13698989742E+03  0.41800000000E+01 0. -1.
        -11    1    3    3    0    0  0.24349022602E+02  0.40161485776E+02  0.74649974410E+01  0.47555714990E+02  0.00000000000E+00 0.  1.
         11    1    3    3    0    0  0.68802172703E+02  0.24637701387E+02 -0.10291718650E+03  0.12622480967E+03  0.00000000000E+00 0. -1.
</event>
<event>
 7    1  0.6584658E-006  0.1195754E+03  0.7561462E-02  0.1243799E+00
         -1   -1    0    0    0  501 -0.00000000000E+00  0.00000000000E+00  0.59557678822E+03  0.59557678822E+03  0.00000000000E+00 0.  1.
          1   -1    0    0  501    0  0.00000000000E+00 -0.00000000000E+00 -0.39443165930E+02  0.39443165930E+02  0.00000000000E+00 0. -1.
         23    2    1    2    0    0  0.99520743071E+02 -0.11815426613E+02  0.19859399744E+03  0.24319654665E+03  0.98290395638E+02 0.  0.
          5    1    1    2  502    0 -0.10406316303E+03  0.48425817512E+01  0.14242677475E+03  0.17650906793E+03  0.41800000000E+01 0.  1.
         -5    1    1    2    0  502  0.45424199600E+01  0.69728448616E+01  0.21511285010E+03  0.21531433957E+03  0.41800000000E+01 0.  1.
        -11    1    3    3    0    0  0.44890389077E+02 -0.43429543669E+02  0.44541949764E+02  0.76715432499E+02  0.00000000000E+00 0. -1.
         11    1    3    3    0    0  0.54630353994E+02  0.31614117056E+02  0.15405204768E+03  0.16648111415E+03  0.00000000000E+00 0.  1.
</event>
<event>
 7    1  0.6584658E-006  0.2681341E+03  0.7561462E-02  0.1102352E+00
          2   -1    0    0  501    0  0.00000000000E+00  0.00000000000E+00  0.69398734594E+03  0.69398734594E+03  0.00000000000E+00 0. -1.
         -2   -1    0    0    0  501 -0.00000000000E+00 -0.00000000000E+00 -0.10991872312E+03  0.10991872312E+03  0.00000000000E+00 0.  1.
         23    2    1    2    0    0  0.14560916825E+03  0.20814690965E+03  0.30817375854E+03  0.40856701452E+03  0.86190336014E+02 0.  0.
          5    1    1    2  502    0 -0.16111817508E+03 -0.19120200287E+03  0.27538784598E+03  0.37198549750E+03  0.41800000000E+01 0. -1.
         -5    1    1    2    0  502  0.15509006834E+02 -0.16944906788E+02  0.50701829615E+00  0.23353557043E+02  0.41800000000E+01 0. -1.
        -11    1    3    3    0    0  0.12277662408E+03  0.11957586387E+03  0.16015541717E+03  0.23456820818E+03  0.00000000000E+00 0. -1.
         11    1    3    3    0    0  0.22832544172E+02  0.88571045785E+02  0.14801834138E+03  0.17399880634E+03  0.00000000000E+00 0.  1.
</event>
<event>
 7    1  0.6584658E-006  0.2826425E+03  0.7561462E-02  0.1094254E+00
          1   -1    0    0  501    0  0.00000000000E+00  0.00000000000E+00  0.59832887837E+03  0.59832887837E+03  0.00000000000E+00 0. -1.
         -1   -1    0    0    0  501 -0.00000000000E+00 -0.00000000000E+00 -0.19474839498E+03  0.19474839498E+03  0.00000000000E+00 0.  1.
         23    2    1    2    0    0  0.15901807944E+03  0.21610347284E+03  0.40869453033E+03  0.49700068740E+03  0.89392413519E+02 0.  0.
          5    1    1    2  502    0 -0.52605873742E+01 -0.10743348934E+03 -0.47160454021E+01  0.10774665608E+03  0.41800000000E+01 0. -1.
         -5    1    1    2    0  502 -0.15375749207E+03 -0.10866998350E+03 -0.39800154000E+00  0.18832992987E+03  0.41800000000E+01 0. -1.
        -11    1    3    3    0    0  0.83257847042E+02  0.13251680778E+03  0.15948011731E+03  0.22344234437E+03  0.00000000000E+00 0.  1.
         11    1    3    3    0    0  0.75760232398E+02  0.83586665060E+02  0.24921441301E+03  0.27355834303E+03  0.00000000000E+00 0. -1.
</event>
<event>
 7    1  0.6584658E-006  0.1111061E+03  0.7561462E-02  0.1258535E+00
         -1   -1    0    0    0  501 -0.00000000000E+00  0.00000000000E+00  0.43505460272E+02  0.43505460272E+02  0.00000000000E+00 0.  1.
          1   -1    0    0  501    0  0.00000000000E+00 -0.00000000000E+00 -0.29213954255E+03  0.29213954255E+03  0.00000000000E+00 0. -1.
         23    2    1    2    0    0  0.10189690463E+01  0.28815807305E+02 -0.12553360115E+03  0.15779146264E+03  0.91148623774E+02 0.  0.
          5    1    1    2  502    0 -0.42604258912E+02 -0.60992813985E+02 -0.83370357510E+02  0.11181831311E+03  0.41800000000E+01 0.  1.
         -5    1    1    2    0  502  0.41585289866E+02  0.32177006680E+02 -0.39730123621E+02  0.66035227077E+02  0.41800000000E+01 0.  1.
        -11    1    3    3    0    0 -0.77439693917E+00 -0.33049244224E+02 -0.52730226504E+02  0.62236074921E+02  0.00000000000E+00 0.  1.
         11    1    3    3    0    0  0.17933659855E+01  0.61865051530E+02 -0.72803374648E+02  0.95555387720E+02  0.00000000000E+00 0. -1.
</event>
<event>
 7    1  0.6584658E-006  0.1034991E+03  0.7561462E-02  0.1273105E+00
         -1   -1    0    0    0  501 -0.00000000000E+00  0.00000000000E+00  0.82805444159E+02  0.82805444159E+02  0.00000000000E+00 0.  1.
          1   -1    0    0  501    0  0.00000000000E+00 -0.00000000000E+00 -0.17319864847E+03  0.17319864847E+03  0.00000000000E+00 0. -1.
         23    2    1    2    0    0 -0.43045763796E+02 -0.22797173612E+02 -0.38951901092E+02  0.11224636946E+03  0.93323887367E+02 0.  0.
          5    1    1    2  502    0 -0.22350737162E+02 -0.14671369819E+02  0.24629190658E+02  0.36590626894E+02  0.41800000000E+01 0.  1.
         -5    1    1    2    0  502  0.65396500958E+02  0.37468543432E+02 -0.76070493874E+02  0.10716709627E+03  0.41800000000E+01 0.  1.
        -11    1    3    3    0    0  0.29407817762E+02 -0.83735462584E+01 -0.51588697526E+01  0.31008869047E+02  0.00000000000E+00 0.  1.
         11    1    3    3    0    0 -0.72453581558E+02 -0.14423627354E+02 -0.33793031340E+02  0.81237500415E+02  0.00000000000E+00 0. -1.
</event>
<event>
 7    1  0.6584658E-006  0.9233714E+02  0.7561462E-02  0.1297289E+00
         -4   -1    0    0    0  501 -0.00000000000E+00  0.00000000000E+00  0.18981386361E+03  0.18981386361E+03  0.00000000000E+00 0.  1.
          4   -1    0    0  501    0  0.00000000000E+00 -0.00000000000E+00 -0.15312853787E+03  0.15312853787E+03  0.00000000000E+00 0. -1.
         23    2    1    2    0    0 -0.56414368403E+02 -0.13853643404E+02 -0.10114074849E+03  0.14796380752E+03  0.91045773826E+02 0.  0.
          5    1    1    2  502    0  0.38780715489E+02  0.51192042299E+02  0.13929971820E+03  0.15344853528E+03  0.41800000000E+01 0.  1.
         -5    1    1    2    0  502  0.17633652914E+02 -0.37338398895E+02 -0.14736439739E+01  0.41530058677E+02  0.41800000000E+01 0.  1.
        -11    1    3    3    0    0 -0.56297934324E+02 -0.29230721939E+02 -0.21691982839E+02  0.67040544701E+02  0.00000000000E+00 0.  1.
         11    1    3    3    0    0 -0.11643407808E+00  0.15377078535E+02 -0.79448765651E+02  0.80923262816E+02  0.00000000000E+00 0. -1.
</event>
<event>
 7    1  0.6584658E-006  0.8642512E+02  0.7561462E-02  0.1311747E+00
         -2   -1    0    0    0  501 -0.00000000000E+00  0.00000000000E+00  0.42289856732E+03  0.42289856732E+03  0.00000000000E+00 0.  1.
          2   -1    0    0  501    0  0.00000000000E+00 -0.00000000000E+00 -0.39921591838E+02  0.39921591838E+02  0.00000000000E+00 0. -1.
         23    2    1    2    0    0 -0.42920297601E+02 -0.49539514993E+02  0.12460687979E+03  0.16837313483E+03  0.92338088300E+02 0.  0.
          5    1    1    2  502    0  0.20080887210E+02 -0.15275320058E+02  0.20692972644E+03  0.20850410432E+03  0.41800000000E+01 0.  1.
         -5    1    1    2    0  502  0.22839410391E+02  0.64814835051E+02  0.51440369254E+02  0.85942920004E+02  0.41800000000E+01 0.  1.
        -11    1    3    3    0    0  0.77252249265E+01 -0.15756995184E+02  0.10189601588E+03  0.10339613170E+03  0.00000000000E+00 0.  1.
         11    1    3    3    0    0 -0.50645522528E+02 -0.33782519809E+02  0.22710863901E+02  0.64977003131E+02  0.00000000000E+00 0. -1.
</event>
<event>
 7    1  0.6584658E-006  0.1417067E+03  0.7561462E-02  0.1211051E+00
          2   -1    0    0  501    0  0.00000000000E+00  0.00000000000E+00  0.20573010952E+03  0.20573010952E+03  0.00000000000E+00 0. -1.
         -2   -1    0    0    0  501 -0.00000000000E+00 -0.00000000000E+00 -0.12131952238E+03  0.12131952238E+03  0.00000000000E+00 0.  1.
         23    2    1    2    0    0  0.83874236178E+02 -0.83575457332E+02  0.68311710945E+02  0.15405511176E+03  0.71040432468E+02 0.  0.
          5    1    1    2  502    0  0.13931054776E+01  0.77333837208E+02 -0.20151066028E+02  0.80037497351E+02  0.41800000000E+01 0. -1.
         -5    1    1    2    0  502 -0.85267341655E+02  0.62416201242E+01  0.36249942220E+02  0.92957022788E+02  0.41800000000E+01 0. -1.
        -11    1    3    3    0    0  0.24901230398E+02 -0.39656087998E+02 -0.86446573905E+01  0.47617294043E+02  0.00000000000E+00 0.  1.
         11    1    3    3    0    0  0.58973005780E+02 -0.43919369335E+02  0.76956368335E+02  0.10643781772E+03  0.00000000000E+00 0. -1.
</event>
<event>
 7    1  0.6584658E-006  0.9316974E+02  0.7561462E-02  0.1295352E+00
          1   -1    0    0  501    0  0.00000000000E+00  0.00000000000E+00  0.15111575862E+02  0.15111575862E+02  0.00000000000E+00 0. -1.
         -1   -1    0    0    0  501 -0.00000000000E+00 -0.00000000000E+00 -0.79240392378E+03  0.79240392378E+03  0.00000000000E+00 0.  1.
         23    2    1    2    0    0 -0.16677012728E+02  0.73923686364E+01 -0.30424918301E+03  0.31787313219E+03  0.90238533546E+02 0.  0.
          5    1    1    2  502    0  0.20112402788E+02 -0.50702707044E+02 -0.99410008181E+02  0.11346847745E+03  0.41800000000E+01 0.  1.
         -5    1    1    2    0  502 -0.34353900600E+01  0.43310338408E+02 -0.37363315672E+03  0.37617389001E+03  0.41800000000E+01 0.  1.
        -11    1    3    3    0    0  0.24662363853E+02  0.31596916087E+02 -0.18637946512E+03  0.19064076772E+03  0.00000000000E+00 0.  1.
         11    1    3    3    0    0 -0.41339376581E+02 -0.24204547450E+02 -0.11786971789E+03  0.12723236447E+03  0.00000000000E+00 0. -1.
</event>
<event>
 7    1  0.6584658E-006  0.1524620E+03  0.7561462E-02  0.1197480E+00
          2   -1    0    0  501    0  0.00000000000E+00  0.00000000000E+00  0.82511916449E+03  0.82511916449E+03  0.00000000000E+00 0. -1.
         -2   -1    0    0    0  501 -0.00000000000E+00 -0.00000000000E+00 -0.44680295079E+02  0.44680295079E+02  0.00000000000E+00 0.  1.
         23    2    1    2    0    0 -0.27864636184E+01  0.10841871815E+03  0.62998271388E+03  0.64608640453E+03  0.93739210075E+02 0.  0.
          5    1    1    2  502    0  0.11603500175E+02 -0.13382775438E+03  0.14127333377E+03  0.19498752856E+03  0.41800000000E+01 0. -1.
         -5    1    1    2    0  502 -0.88170365567E+01  0.25409036234E+02  0.91828217569E+01  0.28725526478E+02  0.41800000000E+01 0. -1.
        -11    1    3    3    0    0  0.45009856481E+02  0.62589908769E+02  0.33129544879E+03  0.34014711266E+03  0.00000000000E+00 0. -1.
         11    1    3    3    0    0 -0.47796320099E+02  0.45828809379E+02  0.29868726509E+03  0.30593929187E+03  0.00000000000E+00 0.  1.
</event>
<event>
 7    1  0.6584658E-006  0.1649966E+03  0.7561462E-02  0.1183168E+00
         -1   -1    0    0    0  501 -0.00000000000E+00  0.00000000000E+00  0.68959719234E+02  0.68959719234E+02  0.00000000000E+00 0.  1.
          1   -1    0    0  501    0  0.00000000000E+00 -0.00000000000E+00 -0.51627168066E+03  0.51627168066E+03  0.00000000000E+00 0. -1.
         23    2    1    2    0    0  0.94229817035E+02 -0.18371824732E+02 -0.27562390032E+03  0.30529137650E+03  0.89540537055E+02 0.  0.
          5    1    1    2  502    0  0.35652690767E+02 -0.51432484224E+02 -0.94591589937E+02  0.11349650250E+03  0.41800000000E+01 0. -1.
         -5    1    1    2    0  502 -0.12988250780E+03  0.69804308956E+02 -0.77096471174E+02  0.16644352090E+03  0.41800000000E+01 0.  1.
        -11    1    3    3    0    0  0.31764702102E+02  0.27697944630E+02 -0.43642781882E+02  0.60670131422E+02  0.00000000000E+00 0.  1.
         11    1    3    3    0    0  0.62465114934E+02 -0.46069769362E+02 -0.23198111844E+03  0.24462124508E+03  0.00000000000E+00 0. -1.
</event>
<event>
 7    1  0.6584658E-006  0.1029139E+03  0.7561462E-02  0.1274285E+00
         -1   -1    0    0    0  501 -0.00000000000E+00  0.00000000000E+00  0.61987937116E+02  0.61987937116E+02  0.00000000000E+00 0.  1.
          1   -1    0    0  501    0  0.00000000000E+00 -0.00000000000E+00 -0.25539284050E+03  0.25539284050E+03  0.00000000000E+00 0. -1.
         23    2    1    2    0    0 -0.49325995770E+02  0.15682109605E+02 -0.13485050530E+03  0.16990402911E+03  0.89463612202E+02 0.  0.
          5    1    1    2  502    0 -0.83276472605E+01 -0.61121218084E+02 -0.26547832164E+02  0.67286052058E+02  0.41800000000E+01 0. -1.
         -5    1    1    2    0  502  0.57653643030E+02  0.45439108479E+02 -0.32006565912E+02  0.80190696440E+02  0.41800000000E+01 0. -1.
        -11    1    3    3    0    0 -0.18121091208E+02 -0.17311494020E+02 -0.11929799200E+03  0.12190189771E+03  0.00000000000E+00 0. -1.
         11    1    3    3    0    0 -0.31204904562E+02  0.32993603625E+02 -0.15552513308E+02  0.48002131401E+02  0.00000000000E+00 0.  1.
</event>
<event>
 7    1  0.6584658E-006  0.1329615E+03  0.7561462E-02  0.1223126E+00
         -2   -1    0    0    0  501 -0.00000000000E+00  0.00000000000E+00  0.42960807719E+02  0.42960807719E+02  0.00000000000E+00 0.  1.
          2   -1    0    0  501    0  0.00000000000E+00 -0.00000000000E+00 -0.62939780278E+03  0.62939780278E+03  0.00000000000E+00 0. -1.
         23    2    1    2    0    0 -0.11606130525E+03 -0.26718642877E+02 -0.32789237439E+03  0.36142944913E+03  0.94518384758E+02 0.  0.
          5    1    1    2  502    0  0.55738766616E+02  0.15190305791E+02 -0.15149950718E+02  0.59871102384E+02  0.41800000000E+01 0. -1.
         -5    1    1    2    0  502  0.60322538632E+02  0.11528337085E+02 -0.24339466996E+03  0.25105805899E+03  0.41800000000E+01 0. -1.
        -11    1    3    3    0    0 -0.12868502918E+03 -0.15609737781E+02 -0.24852390733E+03  0.28029918510E+03  0.00000000000E+00 0.  1.
         11    1    3    3    0    0  0.12623723932E+02 -0.11108905095E+02 -0.79368467059E+02  0.81130264030E+02  0.00000000000E+00 0. -1.
</event>
<event>
 7    1  0.6584658E-006  0.1170685E+03  0.7561462E-02  0.1248013E+00
         -1   -1    0    0    0  501 -0.00000000000E+00  0.00000000000E+00  0.62009180554E+02  0.62009180554E+02  0.00000000000E+00 0.  1.
          1   -1    0    0  501    0  0.00000000000E+00 -0.00000000000E+00 -0.33683307733E+03  0.33683307733E+03  0.00000000000E+00 0. -1.
         23    2    1    2    0    0 -0.38525771909E+02  0.78813102525E+02 -0.17662281587E+03  0.21722152976E+03  0.91070487392E+02 0.  0.
          5    1    1    2  502    0 -0.18553436499E+02 -0.83622170280E+01 -0.87839746916E+02  0.90263227384E+02  0.41800000000E+01 0. -1.
         -5    1    1    2    0  502  0.57079208408E+02 -0.70450885497E+02 -0.10361333991E+02  0.91357500742E+02  0.41800000000E+01 0. -1.
        -11    1    3    3    0    0 -0.64584306144E+02  0.40412868295E+02 -0.13434478146E+03  0.15444368821E+03  0.00000000000E+00 0.  1.
         11    1    3    3    0    0  0.26058534235E+02  0.38400234230E+02 -0.42278034417E+02  0.62777841549E+02  0.00000000000E+00 0. -1.
</event>
<event>
 7    1  0.6584658E-006  0.2773971E+03  0.7561462E-02  0.1097119E+00
          1   -1    0    0  501    0  0.00000000000E+00  0.00000000000E+00  0.10008508651E+04  0.10008508651E+04  0.00000000000E+00 0. -1.
         -1   -1    0    0    0  501 -0.00000000000E+00 -0.00000000000E+00 -0.87663386218E+02  0.87663386218E+02  0.00000000000E+00 0.  1.
         23    2    1    2    0    0 -0.26269612435E+03  0.56300982395E+02  0.55897900658E+03  0.62667939415E+03  0.89947089356E+02 0.  0.
          5    1    1    2  502    0  0.35495375679E+02 -0.21166947989E+02  0.14545784121E+03  0.15127265897E+03  0.41800000000E+01 0.  1.
         -5    1    1    2    0  502  0.22720074867E+03 -0.35134034407E+02  0.20875063110E+03  0.31056219821E+03  0.41800000000E+01 0.  1.
        -11    1    3    3    0    0 -0.78305712245E+02  0.60379673638E+02  0.19394804844E+03  0.21770010347E+03  0.00000000000E+00 0. -1.
         11    1    3    3    0    0 -0.18439041211E+03 -0.40786912425E+01  0.36503095814E+03  0.40897929067E+03  0.00000000000E+00 0.  1.
</event>
<event>
 7    1  0.6584658E-006  0.8880880E+02  0.7561462E-02  0.1305762E+00
         -1   -1    0    0    0  501 -0.00000000000E+00  0.00000000000E+00  0.61594397862E+03  0.61594397862E+03  0.00000000000E+00 0.  1.
          1   -1    0    0  501    0  0.00000000000E+00 -0.00000000000E+00 -0.22169706722E+02  0.22169706722E+02  0.00000000000E+00 0. -1.
         23    2    1    2    0    0 -0.18569002864E+02 -0.28378612301E+02  0.17970408037E+03  0.20423244013E+03  0.90924032020E+02 0.  0.
          5    1    1    2  502    0  0.59729839959E+01 -0.48058719584E+02  0.11371743303E+03  0.12367070810E+03  0.41800000000E+01 0. -1.
         -5    1    1    2    0  502  0.12596018868E+02  0.76437331885E+02  0.30035275850E+03  0.31021053711E+03  0.41800000000E+01 0. -1.
        -11    1    3    3    0    0 -0.29404438945E+02 -0.11932296316E+02  0.18168752024E+03  0.18443794549E+03  0.00000000000E+00 0.  1.
         11    1    3    3    0    0  0.10835436081E+02 -0.16446315985E+02 -0.19834398727E+01  0.19794494645E+02  0.00000000000E+00 0. -1.
</event>
<event>
 7    1  0.6817925E-006  0.1712970E+03  0.7561462E-02  0.1176502E+00
         -3   -1    0    0    0  501 -0.00000000000E+00  0.00000000000E+00  0.52344086758E+02  0.52344086758E+02  0.00000000000E+00 0.  1.
          3   -1    0    0  501    0  0.00000000000E+00 -0.00000000000E+00 -0.64780640695E+03  0.64780640695E+03  0.00000000000E+00 0. -1.
         23    2    1    2    0    0  0.14515059869E+03 -0.20878937794E+02 -0.32639570578E+03  0.36916857739E+03  0.90811097539E+02 0.  0.
          5    1    1    2  502    0 -0.33482107447E+02  0.59957404773E+02 -0.13908125706E+03  0.15516768469E+03  0.41800000000E+01 0. -1.
         -5    1    1    2    0  502 -0.11166849124E+03 -0.39078466980E+02 -0.12998535734E+03  0.17581423162E+03  0.41800000000E+01 0. -1.
        -11    1    3    3    0    0  0.30029096143E+02 -0.26644678579E+02 -0.27079419082E+02  0.48424998189E+02  0.00000000000E+00 0.  1.
         11    1    3    3    0    0  0.11512150255E+03  0.57657407852E+01 -0.29931628670E+03  0.32074357920E+03  0.00000000000E+00 0. -1.
</event>
<event>
 7    1  0.6584658E-006  0.1173462E+03  0.7561462E-02  0.1247540E+00
          2   -1    0    0  501    0  0.00000000000E+00  0.00000000000E+00  0.22060654049E+03  0.22060654049E+03  0.00000000000E+00 0. -1.
         -2   -1    0    0    0  501 -0.00000000000E+00 -0.00000000000E+00 -0.14308045209E+03  0.14308045209E+03  0.00000000000E+00 0.  1.
         23    2    1    2    0    0  0.73773519895E+02  0.46439970437E+02  0.14987093954E+03  0.19492677587E+03  0.89083928625E+02 0.  0.
          5    1    1    2  502    0 -0.72916014008E+02 -0.64228285602E+02 -0.32814659761E+01  0.97315251575E+02  0.41800000000E+01 0. -1.
         -5    1    1    2    0  502 -0.85750588771E+00  0.17788315165E+02 -0.69063385166E+02  0.71444965137E+02  0.41800000000E+01 0. -1.
        -11    1    3    3    0    0 -0.11370065379E+02  0.30455194418E+02  0.69625977543E+02  0.76841225931E+02  0.00000000000E+00 0.  1.
         11    1    3    3    0    0  0.85143585274E+02  0.15984776018E+02  0.80244961996E+02  0.11808554993E+03  0.00000000000E+00 0. -1.
</event>
<event>
 7    1  0.6584658E-006  0.1258689E+03  0.7561462E-02  0.1233718E+00
         -1   -1    0    0    0  501 -0.00000000000E+00  0.00000000000E+00  0.59864468785E+02  0.59864468785E+02  0.00000000000E+00 0.  1.
          1   -1    0    0  501    0  0.00000000000E+00 -0.00000000000E+00 -0.31173227186E+03  0.31173227186E+03  0.00000000000E+00 0. -1.
         23    2    1    2    0    0 -0.33736409253E+02 -0.72145123621E+02 -0.15311757055E+03  0.19463675550E+03  0.89974507549E+02 0.  0.
          5    1    1    2  502    0  0.51939498733E+02 -0.17292217332E+02 -0.29579443188E+02  0.62363035271E+02  0.41800000000E+01 0. -1.
         -5    1    1    2    0  502 -0.18203089479E+02  0.89437340953E+02 -0.69170789335E+02  0.11459694987E+03  0.41800000000E+01 0.  1.
        -11    1    3    3    0    0  0.13201839369E+02  0.58496139020E+01 -0.69655883608E+02  0.71136830592E+02  0.00000000000E+00 0. -1.
         11    1    3    3    0    0 -0.46938248623E+02 -0.77994737523E+02 -0.83461686947E+02  0.12349992491E+03  0.00000000000E+00 0.  1.
</event>
<event>
 7    1  0.6584658E-006  0.1329290E+03  0.7561462E-02  0.1223173E+00
          2   -1    0    0  501    0  0.00000000000E+00  0.00000000000E+00  0.43258071741E+03  0.43258071741E+03  0.00000000000E+00 0. -1.
         -2   -1    0    0    0  501 -0.00000000000E+00 -0.00000000000E+00 -0.13042430510E+03  0.13042430510E+03  0.00000000000E+00 0.  1.
         23    2    1    2    0    0  0.17352589786E+01 -0.61701929641E+02  0.31103344751E+03  0.32954606306E+03  0.89714340876E+02 0.  0.
          5    1    1    2  502    0 -0.72765717007E+02  0.36790969877E+02  0.81775304489E+02  0.11555560506E+03  0.41800000000E+01 0. -1.
         -5    1    1    2    0  502  0.71030458028E+02  0.24910959764E+02 -0.90652339700E+02  0.11790335439E+03  0.41800000000E+01 0.  1.
        -11    1    3    3    0    0 -0.41214488035E+02 -0.11563790002E+02  0.12828492553E+03  0.13523822455E+03  0.00000000000E+00 0. -1.
         11    1    3    3    0    0  0.42949747014E+02 -0.50138139639E+02  0.18274852199E+03  0.19430783850E+03  0.00000000000E+00 0.  1.
</event>
<event>
 7    1  0.6584658E-006  0.1405392E+03  0.7561462E-02  0.1212605E+00
          1   -1    0    0  501    0  0.00000000000E+00  0.00000000000E+00  0.90272917294E+02  0.90272917294E+02  0.00000000000E+00 0. -1.
         -1   -1    0    0    0  501 -0.00000000000E+00 -0.00000000000E+00 -0.29785587611E+03  0.29785587611E+03  0.00000000000E+00 0.  1.
         23    2    1    2    0    0  0.85327029555E+02  0.87446222359E+02 -0.11917057484E+03  0.19218988239E+03  0.88361650089E+02 0.  0.
          5    1    1    2  502    0 -0.68756268670E+02 -0.38235795589E+02 -0.11346480279E+03  0.13813447947E+03  0.41800000000E+01 0. -1.
         -5    1    1    2    0  502 -0.16570760885E+02 -0.49210426770E+02  0.25052418809E+02  0.57804431555E+02  0.41800000000E+01 0. -1.
        -11    1    3    3    0    0  0.36363256496E+01  0.65517597525E+02 -0.43757541922E+02  0.78870152305E+02  0.00000000000E+00 0. -1.
         11    1    3    3    0    0  0.81690703905E+02  0.21928624834E+02 -0.75413032919E+02  0.11331973008E+03  0.00000000000E+00 0.  1.
</event>
<event>
 7    1  0.6584658E-006  0.1247144E+03  0.7561462E-02  0.1235516E+00
          4   -1    0    0  501    0  0.00000000000E+00  0.00000000000E+00  0.12766495219E+03  0.12766495219E+03  0.00000000000E+00 0. -1.
         -4   -1    0    0    0  501 -0.00000000000E+00 -0.00000000000E+00 -0.12437648864E+03  0.12437648864E+03  0.00000000000E+00 0.  1.
         23    2    1    2    0    0 -0.40752152889E+02 -0.49597132616E+02  0.89024916003E+01  0.11132940005E+03  0.90522745378E+02 0.  0.
          5    1    1    2  502    0  0.41446279696E+02  0.90103373666E+02 -0.99034294382E+01  0.99759522660E+02  0.41800000000E+01 0.  1.
         -5    1    1    2    0  502 -0.69412680685E+00 -0.40506241050E+02  0.42894013901E+01  0.40952518119E+02  0.41800000000E+01 0.  1.
        -11    1    3    3    0    0  0.11310347375E+01 -0.64850611421E+02  0.14333688956E+02  0.66425414416E+02  0.00000000000E+00 0. -1.
         11    1    3    3    0    0 -0.41883187627E+02  0.15253478805E+02 -0.54311973557E+01  0.44903985638E+02  0.00000000000E+00 0.  1.
</event>
<event>
 7    1  0.6584658E-006  0.1112153E+03  0.7561462E-02  0.1258336E+00
         -2   -1    0    0    0  501 -0.00000000000E+00  0.00000000000E+00  0.31534670185E+03  0.31534670185E+03  0.00000000000E+00 0.  1.
          2   -1    0    0  501    0  0.00000000000E+00 -0.00000000000E+00 -0.59203486834E+02  0.59203486834E+02  0.00000000000E+00 0. -1.
         23    2    1    2    0    0  0.22032304129E+01  0.81581131168E+02  0.12719810229E+03  0.17723182748E+03  0.92582008287E+02 0.  0.
          5    1    1    2  502    0  0.29241539169E+02 -0.36201232802E+02  0.13381441948E+03  0.14173696812E+03  0.41800000000E+01 0. -1.
         -5    1    1    2    0  502 -0.31444769582E+02 -0.45379898366E+02 -0.48693067538E+01  0.55581393092E+02  0.41800000000E+01 0. -1.
        -11    1    3    3    0    0 -0.43053007034E+02  0.43348423861E+02  0.84192958539E+02  0.10402452371E+03  0.00000000000E+00 0.  1.
         11    1    3    3    0    0  0.45256237446E+02  0.38232707307E+02  0.43005143749E+02  0.73207303766E+02  0.00000000000E+00 0. -1.
</event>
<event>
 7    1  0.6584658E-006  0.5039660E+02  0.7561462E-02  0.1443214E+00
         -2   -1    0    0    0  501 -0.00000000000E+00  0.00000000000E+00  0.73902320425E+02  0.73902320425E+02  0.00000000000E+00 0.  1.
          2   -1    0    0  501    0  0.00000000000E+00 -0.00000000000E+00 -0.17809217768E+03  0.17809217768E+03  0.00000000000E+00 0. -1.
         23    2    1    2    0    0 -0.32894474493E+02  0.91965232114E+01 -0.63238783151E+02  0.11601344503E+03  0.91067849659E+02 0.  0.
          5    1    1    2  502    0  0.21285595832E+02 -0.65608136760E+01  0.44321894181E+02  0.49779750600E+02  0.41800000000E+01 0.  1.
         -5    1    1    2    0  502  0.11608878661E+02 -0.26357095353E+01 -0.85272968286E+02  0.86201302478E+02  0.41800000000E+01 0.  1.
        -11    1    3    3    0    0 -0.86207130794E+01  0.31433475457E+02 -0.74421649796E+02  0.81246304726E+02  0.00000000000E+00 0. -1.
         11    1    3    3    0    0 -0.24273761414E+02 -0.22236952246E+02  0.11182866645E+02  0.34767140302E+02  0.00000000000E+00 0.  1.
</event>
<event>
 7    1  0.6584658E-006  0.8631296E+02  0.7561462E-02  0.1312034E+00
          1   -1    0    0  501    0  0.00000000000E+00  0.00000000000E+00  0.44938251253E+02  0.44938251253E+02  0.00000000000E+00 0. -1.
         -1   -1    0    0    0  501 -0.00000000000E+00 -0.00000000000E+00 -0.31994731744E+03  0.31994731744E+03  0.00000000000E+00 0.  1.
         23    2    1    2    0    0  0.82138994748E+01  0.37949716884E+02 -0.70308413022E+02  0.12186287473E+03  0.91649539767E+02 0.  0.
          5    1    1    2  502    0  0.19599691385E+02 -0.62532236518E+02 -0.19302085748E+03  0.20388465447E+03  0.41800000000E+01 0.  1.
         -5    1    1    2    0  502 -0.27813590860E+02  0.24582519634E+02 -0.11679795685E+02  0.39138039493E+02  0.41800000000E+01 0.  1.
        -11    1    3    3    0    0 -0.24589230486E+02  0.22567999335E+02 -0.77986077817E+02  0.84827903329E+02  0.00000000000E+00 0.  1.
         11    1    3    3    0    0  0.32803129961E+02  0.15381717549E+02  0.76776647951E+01  0.37034971401E+02  0.00000000000E+00 0. -1.
</event>
<event>
 7    1  0.6584658E-006  0.8126563E+02  0.7561462E-02  0.1325498E+00
          2   -1    0    0  501    0  0.00000000000E+00  0.00000000000E+00  0.34085613406E+02  0.34085613406E+02  0.00000000000E+00 0. -1.
         -2   -1    0    0    0  501 -0.00000000000E+00 -0.00000000000E+00 -0.36004500030E+03  0.36004500030E+03  0.00000000000E+00 0.  1.
         23    2    1    2    0    0  0.14068342858E+01  0.23111300619E+02 -0.11474554389E+03  0.14756752014E+03  0.89852778244E+02 0.  0.
          5    1    1    2  502    0  0.35983615341E+02 -0.66670886284E+01 -0.60459638950E+01  0.37326890082E+02  0.41800000000E+01 0. -1.
         -5    1    1    2    0  502 -0.37390449627E+02 -0.16444211991E+02 -0.20516787910E+03  0.20923620348E+03  0.41800000000E+01 0. -1.
        -11    1    3    3    0    0  0.39980760147E+02  0.22875682526E+02 -0.31454764305E+02  0.55777775416E+02  0.00000000000E+00 0. -1.
         11    1    3    3    0    0 -0.38573925861E+02  0.23561809374E+00 -0.83290779587E+02  0.91789744724E+02  0.00000000000E+00 0.  1.
</event>
<event>
 7    1  0.6584658E-006  0.1684752E+03  0.7561462E-02  0.1179447E+00
          1   -1    0    0  501    0  0.00000000000E+00  0.00000000000E+00  0.48344967803E+03  0.48344967803E+03  0.00000000000E+00 0. -1.
         -1   -1    0    0    0  501 -0.00000000000E+00 -0.00000000000E+00 -0.93474722763E+02  0.93474722763E+02  0.00000000000E+00 0.  1.
         23    2    1    2    0    0  0.29560570748E+01  0.15999632660E+03  0.30663346671E+03  0.35737345859E+03  0.89911863484E+02 0.  0.
          5    1    1    2  502    0 -0.20054746965E+02 -0.59568859645E+01 -0.23133180084E+02  0.31468933681E+02  0.41800000000E+01 0. -1.
         -5    1    1    2    0  502  0.17098689890E+02 -0.15403944064E+03  0.10647466864E+03  0.18808200853E+03  0.41800000000E+01 0. -1.
        -11    1    3    3    0    0  0.62372510008E+01  0.36121279495E+02  0.13394659783E+02  0.39026491555E+02  0.00000000000E+00 0.  1.
         11    1    3    3    0    0 -0.32811939260E+01  0.12387504711E+03  0.29323880693E+03  0.31834696703E+03  0.00000000000E+00 0. -1.
</event>
<event>
 7    1  0.6584658E-006  0.1235833E+03  0.7561462E-02  0.1237300E+00
         -2   -1    0    0    0  501 -0.00000000000E+00  0.00000000000E+00  0.14447916199E+03  0.14447916199E+03  0.00000000000E+00 0.  1.
          2   -1    0    0  501    0  0.00000000000E+00 -0.00000000000E+00 -0.11513958840E+03  0.11513958840E+03  0.00000000000E+00 0. -1.
         23    2    1    2    0    0  0.11733899649E+02 -0.65038776511E+02  0.27265647183E+01  0.11570977533E+03  0.94939934169E+02 0.  0.
          5    1    1    2  502    0  0.50090102529E+02  0.41976342022E+02 -0.13096079356E+02  0.66783316446E+02  0.41800000000E+01 0.  1.
         -5    1    1    2    0  502 -0.61824002178E+02  0.23062434489E+02  0.39709088225E+02  0.77125658620E+02  0.41800000000E+01 0.  1.
        -11    1    3    3    0    0 -0.25279445368E+02  0.13558322045E+02 -0.15555776039E+01  0.28728005090E+02  0.00000000000E+00 0. -1.
         11    1    3    3    0    0  0.37013345016E+02 -0.78597098556E+02  0.42821423222E+01  0.86981770237E+02  0.00000000000E+00 0.  1.
</event>
<event>
 7    1  0.6584658E-006  0.1171322E+03  0.7561462E-02  0.1247904E+00
         -4   -1    0    0    0  501 -0.00000000000E+00  0.00000000000E+00  0.25417287044E+03  0.25417287044E+03  0.00000000000E+00 0.  1.
          4   -1    0    0  501    0  0.00000000000E+00 -0.00000000000E+00 -0.12539191783E+03  0.12539191783E+03  0.00000000000E+00 0. -1.
         23    2    1    2    0    0  0.73017995159E+02  0.71618369814E+02 -0.42720337721E+02  0.14393059036E+03  0.91815952172E+02 0.  0.
          5    1    1    2  502    0 -0.16655171977E+02 -0.40282847530E+02  0.16496865953E+03  0.17068167325E+03  0.41800000000E+01 0.  1.
         -5    1    1    2    0  502 -0.56362823182E+02 -0.31335522284E+02  0.65326308004E+01  0.64952524655E+02  0.41800000000E+01 0.  1.
        -11    1    3    3    0    0 -0.35279376146E+01 -0.11987951782E+02  0.12644608755E+02  0.17777611265E+02  0.00000000000E+00 0.  1.
         11    1    3    3    0    0  0.76545932774E+02  0.83606321596E+02 -0.55364946476E+02  0.12615297909E+03  0.00000000000E+00 0. -1.
</event>
<event>
 7    1  0.6584658E-006  0.1214832E+03  0.7561462E-02  0.1240670E+00
          2   -1    0    0  501    0  0.00000000000E+00  0.00000000000E+00  0.94669933879E+02  0.94669933879E+02  0.00000000000E+00 0. -1.
         -2   -1    0    0    0  501 -0.00000000000E+00 -0.00000000000E+00 -0.15995850340E+03  0.15995850340E+03  0.00000000000E+00 0.  1.
         23    2    1    2    0    0  0.35522696673E+02  0.46657876712E+02 -0.16785577969E+02  0.10820850019E+03  0.89378433911E+02 0.  0.
          5    1    1    2  502    0  0.28168209713E+02  0.27705070129E+02 -0.88604389370E+01  0.40706249243E+02  0.41800000000E+01 0.  1.
         -5    1    1    2    0  502 -0.63690906386E+02 -0.74362946841E+02 -0.39642552614E+02  0.10571368784E+03  0.41800000000E+01 0.  1.
        -11    1    3    3    0    0  0.60708662726E+02  0.51475416321E+02 -0.43591460594E+01  0.79713627253E+02  0.00000000000E+00 0. -1.
         11    1    3    3    0    0 -0.25185966053E+02 -0.48175396094E+01 -0.12426431910E+02  0.28494872941E+02  0.00000000000E+00 0.  1.
</event>
<event>
 7    1  0.6584658E-006  0.1263601E+03  0.7561462E-02  0.1232959E+00
          1   -1    0    0  501    0  0.00000000000E+00  0.00000000000E+00  0.98706387950E+03  0.98706387950E+03  0.00000000000E+00 0. -1.
         -1   -1    0    0    0  501 -0.00000000000E+00 -0.00000000000E+00 -0.21942393626E+02  0.21942393626E+02  0.00000000000E+00 0.  1.
         23    2    1    2    0    0 -0.71100200333E+02 -0.62041113325E+02  0.55496025673E+03  0.56993899152E+03  0.89136015628E+02 0.  0.
          5    1    1    2  502    0  0.30209150521E+02 -0.16670725011E+02  0.27600894761E+03  0.27818863637E+03  0.41800000000E+01 0. -1.
         -5    1    1    2    0  502  0.40891049813E+02  0.78711838337E+02  0.13415228154E+03  0.16087864524E+03  0.41800000000E+01 0. -1.
        -11    1    3    3    0    0 -0.87776738649E+02 -0.29501260496E+02  0.42216896996E+03  0.43220564482E+03  0.00000000000E+00 0.  1.
         11    1    3    3    0    0  0.16676538316E+02 -0.32539852830E+02  0.13279128676E+03  0.13773334670E+03  0.00000000000E+00 0. -1.
</event>
<event>
 7    1  0.6584658E-006  0.1059710E+03  0.7561462E-02  0.1268218E+00
          2   -1    0    0  501    0  0.00000000000E+00  0.00000000000E+00  0.38412075983E+02  0.38412075983E+02  0.00000000000E+00 0. -1.
         -2   -1    0    0    0  501 -0.00000000000E+00 -0.00000000000E+00 -0.40512500938E+03  0.40512500938E+03  0.00000000000E+00 0.  1.
         23    2    1    2    0    0 -0.28262615465E+02 -0.37232831360E+01 -0.70311145390E+02  0.12055985019E+03  0.93693020241E+02 0.  0.
          5    1    1    2  502    0 -0.41880671611E+02  0.26407380525E+02 -0.16419396464E+03  0.17154728451E+03  0.41800000000E+01 0.  1.
         -5    1    1    2    0  502  0.70143287076E+02 -0.22684097389E+02 -0.13220782337E+03  0.15142995066E+03  0.41800000000E+01 0.  1.
        -11    1    3    3    0    0 -0.44945097828E+02  0.27731214329E+02 -0.15213750564E+02  0.54959442074E+02  0.00000000000E+00 0. -1.
         11    1    3    3    0    0  0.16682482363E+02 -0.31454497465E+02 -0.55097394826E+02  0.65600408117E+02  0.00000000000E+00 0.  1.
</event>
<event>
 7    1  0.6584658E-006  0.2489485E+03  0.7561462E-02  0.1113971E+00
         -1   -1    0    0    0  501 -0.00000000000E+00  0.00000000000E+00  0.35023975956E+03  0.35023975956E+03  0.00000000000E+00 0.  1.
          1   -1    0    0  501    0  0.00000000000E+00 -0.00000000000E+00 -0.21231062657E+03  0.21231062657E+03  0.00000000000E+00 0. -1.
         23    2    1    2    0    0 -0.19761372781E+03  0.14371870607E+03  0.34350788493E+02  0.26915421391E+03  0.10750703373E+03 0.  0.
          5    1    1    2  502    0  0.16179508714E+03 -0.13555119421E+03  0.13001909574E+03  0.24793994057E+03  0.41800000000E+01 0. -1.
         -5    1    1    2    0  502  0.35818640668E+02 -0.81675118629E+01 -0.26440751245E+02  0.45456231649E+02  0.41800000000E+01 0. -1.
        -11    1    3    3    0    0 -0.99138930572E+02  0.40335547828E+02 -0.32001718495E+02  0.11171210302E+03  0.00000000000E+00 0.  1.
         11    1    3    3    0    0 -0.98474797236E+02  0.10338315824E+03  0.66352506988E+02  0.15744211089E+03  0.00000000000E+00 0. -1.
</event>
<event>
 7    1  0.6584658E-006  0.1155126E+03  0.7561462E-02  0.1250689E+00
          2   -1    0    0  501    0  0.00000000000E+00  0.00000000000E+00  0.83918667232E+03  0.83918667232E+03  0.00000000000E+00 0. -1.
         -2   -1    0    0    0  501 -0.00000000000E+00 -0.00000000000E+00 -0.20943089078E+02  0.20943089078E+02  0.00000000000E+00 0.  1.
         23    2    1    2    0    0  0.38265079054E+02 -0.16022066109E+02  0.57427296061E+03  0.58283997873E+03  0.90510135590E+02 0.  0.
          5    1    1    2  502    0  0.45941997781E+02  0.35721928119E+01  0.77185455455E+02  0.89991636586E+02  0.41800000000E+01 0. -1.
         -5    1    1    2    0  502 -0.84207076835E+02  0.12449873297E+02  0.16678516718E+03  0.18729814608E+03  0.41800000000E+01 0. -1.
        -11    1    3    3    0    0  0.65695546914E+02 -0.25554462420E+02  0.41354501216E+03  0.41950972875E+03  0.00000000000E+00 0.  1.
         11    1    3    3    0    0 -0.27430467860E+02  0.95323963112E+01  0.16072794845E+03  0.16333024998E+03  0.00000000000E+00 0. -1.
</event>
<event>
 7    1  0.6584658E-006  0.1062229E+03  0.7561462E-02  0.1267729E+00
          1   -1    0    0  501    0  0.00000000000E+00  0.00000000000E+00  0.74616059389E+02  0.74616059389E+02  0.00000000000E+00 0. -1.
         -1   -1    0    0    0  501 -0.00000000000E+00 -0.00000000000E+00 -0.19014496034E+03  0.19014496034E+03  0.00000000000E+00 0.  1.
         23    2    1    2    0    0 -0.14512864751E+02  0.19804871490E+02 -0.29663539675E+01  0.94701616163E+02  0.91415210277E+02 0.  0.
          5    1    1    2  502    0 -0.53909033576E+02  0.42730091510E+01 -0.56207405316E+02  0.78110097431E+02  0.41800000000E+01 0. -1.
         -5    1    1    2    0  502  0.68421898326E+02 -0.24077880641E+02 -0.56355141671E+02  0.91949306139E+02  0.41800000000E+01 0. -1.
        -11    1    3    3    0    0  0.18099313246E+02  0.42248650235E+02 -0.21789532068E+02  0.50865678944E+02  0.00000000000E+00 0.  1.
         11    1    3    3    0    0 -0.32612177997E+02 -0.22443778745E+02  0.18823178101E+02  0.43835937219E+02  0.00000000000E+00 0. -1.
</event>
<event>
 7    1  0.6584658E-006  0.7544263E+02  0.7561462E-02  0.1342506E+00
         -1   -1    0    0    0  501 -0.00000000000E+00  0.00000000000E+00  0.44790100222E+03  0.44790100222E+03  0.00000000000E+00 0.  1.
          1   -1    0    0  501    0  0.00000000000E+00 -0.00000000000E+00 -0.88694872202E+02  0.88694872202E+02  0.00000000000E+00 0. -1.
         23    2    1    2    0    0  0.68389558894E+01 -0.90753912757E+00 -0.53408058535E+02  0.10538189853E+03  0.90583270396E+02 0.  0.
          5    1    1    2  502    0 -0.33221826402E+02  0.22100954294E+02  0.38683252493E+02  0.55731574118E+02  0.41800000000E+01 0.  1.
         -5    1    1    2    0  502  0.26382870512E+02 -0.21193415167E+02  0.37393093606E+03  0.37548240178E+03  0.41800000000E+01 0.  1.
        -11    1    3    3    0    0 -0.11999406676E+02 -0.35392901470E+02 -0.54486990897E+02  0.66071744430E+02  0.00000000000E+00 0. -1.
         11    1    3    3    0    0  0.18838362565E+02  0.34485362342E+02  0.10789323619E+01  0.39310154096E+02  0.00000000000E+00 0.  1.
</event>
<event>
 7    1  0.6584658E-006  0.1112097E+03  0.7561462E-02  0.1258346E+00
         -1   -1    0    0    0  501 -0.00000000000E+00  0.00000000000E+00  0.80508342295E+03  0.80508342295E+03  0.00000000000E+00 0.  1.
          1   -1    0    0  501    0  0.00000000000E+00 -0.00000000000E+00 -0.20329695050E+02  0.20329695050E+02  0.00000000000E+00 0. -1.
         23    2    1    2    0    0 -0.42843339931E+02 -0.42964575762E+02  0.24239756655E+03  0.26552124299E+03  0.89796679557E+02 0.  0.
          5    1    1    2  502    0  0.73889312348E+02  0.97489589763E+01  0.45733521755E+03  0.46338714515E+03  0.41800000000E+01 0. -1.
         -5    1    1    2    0  502 -0.31045972417E+02  0.33215616786E+02  0.85020943801E+02  0.96504729866E+02  0.41800000000E+01 0. -1.
        -11    1    3    3    0    0 -0.23062734887E+02 -0.67074838996E+02  0.20444412646E+03  0.21639853190E+03  0.00000000000E+00 0.  1.
         11    1    3    3    0    0 -0.19780605044E+02  0.24110263235E+02  0.37953440098E+02  0.49122711086E+02  0.00000000000E+00 0. -1.
</event>
<event>
 7    1  0.6584658E-006  0.1203750E+03  0.7561462E-02  0.1242480E+00
          3   -1    0    0  501    0  0.00000000000E+00  0.00000000000E+00  0.30974690277E+03  0.30974690277E+03  0.00000000000E+00 0. -1.
         -3   -1    0    0    0  501 -0.00000000000E+00 -0.00000000000E+00 -0.49286381975E+02  0.49286381975E+02  0.00000000000E+00 0.  1.
         23    2    1    2    0    0  0.16786102759E+02 -0.33219163473E+02  0.12455169209E+03  0.15701821811E+03  0.88069919653E+02 0.  0.
          5    1    1    2  502    0  0.61469708002E+01 -0.55189311545E+02  0.69261000632E+02  0.88871840126E+02  0.41800000000E+01 0. -1.
         -5    1    1    2    0  502 -0.22933073559E+02  0.88408475018E+02  0.66647828064E+02  0.11314322650E+03  0.41800000000E+01 0.  1.
        -11    1    3    3    0    0  0.49350582886E+02 -0.33834144780E+01  0.81525056553E+02  0.95358598829E+02  0.00000000000E+00 0.  1.
         11    1    3    3    0    0 -0.32564480127E+02 -0.29835748995E+02  0.43026635542E+02  0.61659619283E+02  0.00000000000E+00 0. -1.
</event>
<event>
 7    1  0.6584658E-006  0.1020249E+03  0.7561462E-02  0.1276095E+00
         -2   -1    0    0    0  501 -0.00000000000E+00  0.00000000000E+00  0.31651025247E+02  0.31651025247E+02  0.00000000000E+00 0. -1.
          2   -1    0    0  501    0  0.00000000000E+00 -0.00000000000E+00 -0.43773642401E+03  0.43773642401E+03  0.00000000000E+00 0.  1.
         23    2    1    2    0    0  0.16540249885E+00 -0.13282285403E+02 -0.26690462708E+03  0.28178496333E+03  0.89376949716E+02 0.  0.
          5    1    1    2  502    0  0.56055884085E+02 -0.12209843401E+02 -0.96820195049E+02  0.11261867068E+03  0.41800000000E+01 0.  1.
         -5    1    1    2    0  502 -0.56221286583E+02  0.25492128804E+02 -0.42360576638E+02  0.74983815248E+02  0.41800000000E+01 0.  1.
        -11    1    3    3    0    0  0.38811227607E+02 -0.22586945329E+02 -0.91403306559E+02  0.10183833236E+03  0.00000000000E+00 0.  1.
         11    1    3    3    0    0 -0.38645825108E+02  0.93046599258E+01 -0.17550132052E+03  0.17994663097E+03  0.00000000000E+00 0. -1.
</event>
<event>
 7    1  0.6584658E-006  0.1050655E+03  0.7561462E-02  0.1269991E+00
          1   -1    0    0  501    0  0.00000000000E+00  0.00000000000E+00  0.23236191066E+03  0.23236191066E+03  0.00000000000E+00 0. -1.
         -1   -1    0    0    0  501 -0.00000000000E+00 -0.00000000000E+00 -0.84449719022E+02  0.84449719022E+02  0.00000000000E+00 0.  1.
         23    2    1    2    0    0 -0.29971769072E+02  0.12117692328E+02  0.16052097898E+03  0.18699432129E+03  0.90303632781E+02 0.  0.
          5    1    1    2  502    0  0.59548169907E+02  0.35772330791E+02 -0.21144056425E+02  0.72733676599E+02  0.41800000000E+01 0.  1.
         -5    1    1    2    0  502 -0.29576400835E+02 -0.47890023120E+02  0.85352690883E+01  0.57083631797E+02  0.41800000000E+01 0.  1.
        -11    1    3    3    0    0  0.60992286148E+01 -0.28864112207E+02  0.18452973817E+02  0.34797267219E+02  0.00000000000E+00 0. -1.
         11    1    3    3    0    0 -0.36070997687E+02  0.40981804535E+02  0.14206800516E+03  0.15219705407E+03  0.00000000000E+00 0.  1.
</event>
<event>
 7    1  0.6584658E-006  0.1767686E+03  0.7561462E-02  0.1170968E+00
          2   -1    0    0  501    0  0.00000000000E+00  0.00000000000E+00  0.10648057775E+03  0.10648057775E+03  0.00000000000E+00 0. -1.
         -2   -1    0    0    0  501 -0.00000000000E+00 -0.00000000000E+00 -0.37940958497E+03  0.37940958497E+03  0.00000000000E+00 0.  1.
         23    2    1    2    0    0  0.16306562440E+03  0.44526736067E+01 -0.77714672769E+02  0.20240238478E+03  0.91197208493E+02 0.  0.
          5    1    1    2  502    0 -0.16741467662E+03 -0.16609872949E+02 -0.20610758971E+03  0.26608527348E+03  0.41800000000E+01 0. -1.
         -5    1    1    2    0  502  0.43490522233E+01  0.12157199342E+02  0.10893255267E+02  0.17402504457E+02  0.41800000000E+01 0. -1.
        -11    1    3    3    0    0  0.12090979098E+03 -0.20580749932E+02 -0.89676025577E+02  0.15193595488E+03  0.00000000000E+00 0.  1.
         11    1    3    3    0    0  0.42155833422E+02  0.25033423539E+02  0.11961352808E+02  0.50466429898E+02  0.00000000000E+00 0. -1.
</event>
<event>
 7    1  0.6584658E-006  0.1169223E+03  0.7561462E-02  0.1248262E+00
          2   -1    0    0  501    0  0.00000000000E+00  0.00000000000E+00  0.99175091571E+02  0.99175091571E+02  0.00000000000E+00 0. -1.
         -2   -1    0    0    0  501 -0.00000000000E+00 -0.00000000000E+00 -0.17548844447E+03  0.17548844447E+03  0.00000000000E+00 0.  1.
         23    2    1    2    0    0  0.56657800668E+02 -0.19018161973E+02  0.11264423457E+02  0.11068512196E+03  0.92479793067E+02 0.  0.
          5    1    1    2  502    0  0.21398351879E+01 -0.46484268385E+02 -0.12894983563E+02  0.48467711964E+02  0.41800000000E+01 0.  1.
         -5    1    1    2    0  502 -0.58797635856E+02  0.65502430358E+02 -0.74682792797E+02  0.11551070212E+03  0.41800000000E+01 0.  1.
        -11    1    3    3    0    0  0.47876911902E+02 -0.48554710810E+02 -0.15433538946E+02  0.69913895325E+02  0.00000000000E+00 0. -1.
         11    1    3    3    0    0  0.87808887661E+01  0.29536548837E+02  0.26697962403E+02  0.40771226634E+02  0.00000000000E+00 0.  1.
</event>
<event>
 7    1  0.6584658E-006  0.1347348E+03  0.7561462E-02  0.1220595E+00
          3   -1    0    0  501    0  0.00000000000E+00  0.00000000000E+00  0.60734627104E+03  0.60734627104E+03  0.00000000000E+00 0. -1.
         -3   -1    0    0    0  501 -0.00000000000E+00 -0.00000000000E+00 -0.32153247373E+02  0.32153247373E+02  0.00000000000E+00 0.  1.
         23    2    1    2    0    0 -0.98310954186E+02 -0.13399139851E+01  0.26498100071E+03  0.29549221789E+03  0.86219957175E+02 0.  0.
          5    1    1    2  502    0  0.10945277757E+03  0.26512172820E+02  0.19263299776E+03  0.22317649977E+03  0.41800000000E+01 0. -1.
         -5    1    1    2    0  502 -0.11141823379E+02 -0.25172258835E+02  0.11757902520E+03  0.12083080075E+03  0.41800000000E+01 0.  1.
        -11    1    3    3    0    0 -0.11089844970E+03  0.10824911560E+02  0.20912749014E+03  0.23695981091E+03  0.00000000000E+00 0.  1.
         11    1    3    3    0    0  0.12587495512E+02 -0.12164825545E+02  0.55853510570E+02  0.58532406980E+02  0.00000000000E+00 0. -1.
</event>
<event>
 7    1  0.6584658E-006  0.9838778E+02  0.7561462E-02  0.1283723E+00
          2   -1    0    0  501    0  0.00000000000E+00  0.00000000000E+00  0.24290735526E+03  0.24290735526E+03  0.00000000000E+00 0. -1.
         -2   -1    0    0    0  501 -0.00000000000E+00 -0.00000000000E+00 -0.49456312481E+02  0.49456312481E+02  0.00000000000E+00 0.  1.
         23    2    1    2    0    0  0.75465730612E+01  0.73526131980E+01  0.10610729822E+03  0.13943286089E+03  0.89842931135E+02 0.  0.
          5    1    1    2  502    0 -0.29948423912E+02 -0.55520707530E+02  0.75261339271E+02  0.98291396614E+02  0.41800000000E+01 0.  1.
         -5    1    1    2    0  502  0.22401850850E+02  0.48168094332E+02  0.12082405283E+02  0.54639410232E+02  0.41800000000E+01 0.  1.
        -11    1    3    3    0    0  0.12725169164E+02 -0.35185213107E+02  0.18135197447E+02  0.41579015598E+02  0.00000000000E+00 0.  1.
         11    1    3    3    0    0 -0.51785961028E+01  0.42537826305E+02  0.87972100773E+02  0.97853845293E+02  0.00000000000E+00 0. -1.
</event>
<event>
 7    1  0.6584658E-006  0.2840323E+03  0.7561462E-02  0.1093507E+00
         -2   -1    0    0    0  501 -0.00000000000E+00  0.00000000000E+00  0.18010202352E+03  0.18010202352E+03  0.00000000000E+00 0.  1.
          2   -1    0    0  501    0  0.00000000000E+00 -0.00000000000E+00 -0.78620718868E+03  0.78620718868E+03  0.00000000000E+00 0. -1.
         23    2    1    2    0    0  0.24656643421E+03 -0.12127907873E+03 -0.59831243798E+03  0.66429611940E+03  0.88362545165E+02 0.  0.
          5    1    1    2  502    0 -0.61222858483E+02  0.82633177108E+02 -0.39029350459E+02  0.11007834917E+03  0.41800000000E+01 0.  1.
         -5    1    1    2    0  502 -0.18534357572E+03  0.38645901622E+02  0.31236623281E+02  0.19193474362E+03  0.41800000000E+01 0.  1.
        -11    1    3    3    0    0  0.16532102984E+03 -0.68954174627E+02 -0.47484209700E+03  0.50750442184E+03  0.00000000000E+00 0.  1.
         11    1    3    3    0    0  0.81245404368E+02 -0.52324904103E+02 -0.12347034098E+03  0.15679169756E+03  0.00000000000E+00 0. -1.
</event>
<event>
 7    1  0.6584658E-006  0.1639661E+03  0.7561462E-02  0.1184290E+00
         -1   -1    0    0    0  501 -0.00000000000E+00  0.00000000000E+00  0.61216639596E+02  0.61216639596E+02  0.00000000000E+00 0.  1.
          1   -1    0    0  501    0  0.00000000000E+00 -0.00000000000E+00 -0.52457845947E+03  0.52457845947E+03  0.00000000000E+00 0. -1.
         23    2    1    2    0    0  0.85702389563E+02 -0.94115444742E+02 -0.31816106093E+03  0.35572503030E+03  0.95452710680E+02 0.  0.
          5    1    1    2  502    0  0.12116387341E+02  0.65777440458E+02 -0.22799006833E+02  0.70786620402E+02  0.41800000000E+01 0.  1.
         -5    1    1    2    0  502 -0.97818776903E+02  0.28338004283E+02 -0.12240175210E+03  0.15928344835E+03  0.41800000000E+01 0.  1.
        -11    1    3    3    0    0  0.22071271255E+02  0.19054862702E+02 -0.63663679574E+02  0.70023516795E+02  0.00000000000E+00 0. -1.
         11    1    3    3    0    0  0.63631118308E+02 -0.11317030744E+03 -0.25449738136E+03  0.28570151351E+03  0.00000000000E+00 0.  1.
</event>
<event>
 7    1  0.6820047E-006  0.2184491E+03  0.7561462E-02  0.1135045E+00
          3   -1    0    0  501    0  0.00000000000E+00  0.00000000000E+00  0.10409960369E+03  0.10409960369E+03  0.00000000000E+00 0. -1.
         -3   -1    0    0    0  501 -0.00000000000E+00 -0.00000000000E+00 -0.65806652836E+03  0.65806652836E+03  0.00000000000E+00 0.  1.
         23    2    1    2    0    0 -0.19826214569E+03  0.47729585816E+02 -0.10209570702E+03  0.25087253046E+03  0.10453468981E+03 0.  0.
          5    1    1    2  502    0  0.85496854445E+02  0.31971985377E+01 -0.31632862443E+03  0.32772123098E+03  0.41800000000E+01 0.  1.
         -5    1    1    2    0  502  0.11276529124E+03 -0.50926784354E+02 -0.13554259322E+03  0.18357237060E+03  0.41800000000E+01 0.  1.
        -11    1    3    3    0    0 -0.13301709980E+03 -0.18700373248E+02 -0.45065674190E+02  0.14168333631E+03  0.00000000000E+00 0. -1.
         11    1    3    3    0    0 -0.65245045886E+02  0.66429959064E+02 -0.57030032830E+02  0.10918919415E+03  0.00000000000E+00 0.  1.
</event>
<event>
 7    1  0.6584658E-006  0.1091185E+03  0.7561462E-02  0.1262211E+00
          1   -1    0    0  501    0  0.00000000000E+00  0.00000000000E+00  0.50922992924E+03  0.50922992924E+03  0.00000000000E+00 0. -1.
         -1   -1    0    0    0  501 -0.00000000000E+00 -0.00000000000E+00 -0.34363313311E+02  0.34363313311E+02  0.00000000000E+00 0.  1.
         23    2    1    2    0    0 -0.46801429323E+02  0.28499628843E+02  0.31544352047E+03  0.33361533854E+03  0.93765542032E+02 0.  0.
          5    1    1    2  502    0  0.76492118663E+02 -0.97639796018E+01  0.43182417302E+02  0.88479223998E+02  0.41800000000E+01 0.  1.
         -5    1    1    2    0  502 -0.29690689340E+02 -0.18735649242E+02  0.11624067816E+03  0.12149868001E+03  0.41800000000E+01 0.  1.
        -11    1    3    3    0    0  0.22250356022E+02  0.29061291534E+02  0.14870642942E+03  0.15314450418E+03  0.00000000000E+00 0. -1.
         11    1    3    3    0    0 -0.69051785345E+02 -0.56166269036E+00  0.16673709105E+03  0.18047083436E+03  0.00000000000E+00 0.  1.
</event>
<event>
 7    1  0.6584658E-006  0.1320614E+03  0.7561462E-02  0.1224429E+00
         -2   -1    0    0    0  501 -0.00000000000E+00  0.00000000000E+00  0.40378451507E+02  0.40378451507E+02  0.00000000000E+00 0.  1.
          2   -1    0    0  501    0  0.00000000000E+00 -0.00000000000E+00 -0.62151398251E+03  0.62151398251E+03  0.00000000000E+00 0. -1.
         23    2    1    2    0    0  0.67242414468E+01 -0.10597421065E+03 -0.35965944524E+03  0.38625278258E+03  0.92523222787E+02 0.  0.
          5    1    1    2  502    0 -0.51155240384E+02  0.21610739578E+02 -0.13811598866E+03  0.14892072189E+03  0.41800000000E+01 0.  1.
         -5    1    1    2    0  502  0.44430998938E+02  0.84363471067E+02 -0.83360097100E+02  0.12671892955E+03  0.41800000000E+01 0.  1.
        -11    1    3    3    0    0 -0.16207526932E+02 -0.40737644315E+02 -0.40494630228E+02  0.59682951258E+02  0.00000000000E+00 0.  1.
         11    1    3    3    0    0  0.22931768379E+02 -0.65236566331E+02 -0.31916481501E+03  0.32656983132E+03  0.00000000000E+00 0. -1.
</event>
<event>
 7    1  0.6584658E-006  0.2156763E+03  0.7561462E-02  0.1137148E+00
         -1   -1    0    0    0  501 -0.00000000000E+00  0.00000000000E+00  0.54118298976E+03  0.54118298976E+03  0.00000000000E+00 0.  1.
          1   -1    0    0  501    0  0.00000000000E+00 -0.00000000000E+00 -0.98793516910E+02  0.98793516910E+02  0.00000000000E+00 0. -1.
         23    2    1    2    0    0 -0.11408640597E+01  0.19923133233E+03  0.16035198657E+03  0.27270882303E+03  0.94672684604E+02 0.  0.
          5    1    1    2  502    0 -0.36517883757E+02 -0.79313336385E+02  0.43575614972E+02  0.97675318186E+02  0.41800000000E+01 0. -1.
         -5    1    1    2    0  502  0.37658747817E+02 -0.11991799595E+03  0.23846187131E+03  0.26959236545E+03  0.41800000000E+01 0. -1.
        -11    1    3    3    0    0 -0.20465219602E+02  0.26389808829E+01  0.28584616057E+02  0.35254357299E+02  0.00000000000E+00 0.  1.
         11    1    3    3    0    0  0.19324355542E+02  0.19659235145E+03  0.13176737051E+03  0.23745446574E+03  0.00000000000E+00 0. -1.
</event>
<event>
 7    1  0.6584658E-006  0.9740982E+02  0.7561462E-02  0.1285839E+00
         -2   -1    0    0    0  501 -0.00000000000E+00  0.00000000000E+00  0.15862053926E+03  0.15862053926E+03  0.00000000000E+00 0.  1.
          2   -1    0    0  501    0  0.00000000000E+00 -0.00000000000E+00 -0.20339981041E+03  0.20339981041E+03  0.00000000000E+00 0. -1.
         23    2    1    2    0    0 -0.27022435887E+02 -0.60684450476E+02 -0.14746676042E+03  0.18707798114E+03  0.94015482918E+02 0.  0.
          5    1    1    2  502    0  0.32222793293E+02  0.17567187563E+02 -0.21896084260E+02  0.42939787987E+02  0.41800000000E+01 0. -1.
         -5    1    1    2    0  502 -0.52003574061E+01  0.43117262913E+02  0.12458357353E+03  0.13200258055E+03  0.41800000000E+01 0. -1.
        -11    1    3    3    0    0 -0.58685467399E+02 -0.18552474534E+02 -0.90764509667E+02  0.10966482850E+03  0.00000000000E+00 0. -1.
         11    1    3    3    0    0  0.31663031512E+02 -0.42131975941E+02 -0.56702250753E+02  0.77413152640E+02  0.00000000000E+00 0.  1.
</event>
<event>
 7    1  0.6584658E-006  0.1732996E+03  0.7561462E-02  0.1174450E+00
          2   -1    0    0  501    0  0.00000000000E+00  0.00000000000E+00  0.43237378399E+03  0.43237378399E+03  0.00000000000E+00 0. -1.
         -2   -1    0    0    0  501 -0.00000000000E+00 -0.00000000000E+00 -0.74379440093E+02  0.74379440093E+02  0.00000000000E+00 0.  1.
         23    2    1    2    0    0 -0.24639662168E+02  0.13717197109E+03  0.20885666763E+03  0.26734971378E+03  0.91823195573E+02 0.  0.
          5    1    1    2  502    0 -0.44366446986E+02 -0.97527180921E+02  0.92807071358E+02  0.14181169744E+03  0.41800000000E+01 0.  1.
         -5    1    1    2    0  502  0.69006109154E+02 -0.39644790165E+02  0.56330604918E+02  0.97591812865E+02  0.41800000000E+01 0.  1.
        -11    1    3    3    0    0  0.21446109597E+02  0.86144214540E+01  0.79895549301E+01  0.24453565422E+02  0.00000000000E+00 0. -1.
         11    1    3    3    0    0 -0.46085771766E+02  0.12855754963E+03  0.20086711270E+03  0.24289614836E+03  0.00000000000E+00 0.  1.
</event>
<event>
 7    1  0.6584658E-006  0.2132654E+03  0.7561462E-02  0.1139006E+00
         -2   -1    0    0    0  501 -0.00000000000E+00  0.00000000000E+00  0.33601969717E+02  0.33601969717E+02  0.00000000000E+00 0.  1.
          2   -1    0    0  501    0  0.00000000000E+00 -0.00000000000E+00 -0.15742828186E+04  0.15742828186E+04  0.00000000000E+00 0. -1.
         23    2    1    2    0    0  0.12499954588E+03 -0.99096710762E+02 -0.49010319216E+03  0.52331617571E+03  0.90629113624E+02 0.  0.
          5    1    1    2  502    0 -0.14484591460E+02 -0.52979171631E+02 -0.49451058707E+03  0.49756887879E+03  0.41800000000E+01 0. -1.
         -5    1    1    2    0  502 -0.11051495442E+03  0.15207588239E+03 -0.55606706968E+03  0.58699973385E+03  0.41800000000E+01 0.  1.
        -11    1    3    3    0    0  0.50937569930E+02 -0.96717058546E+02 -0.28594683627E+03  0.30612810818E+03  0.00000000000E+00 0. -1.
         11    1    3    3    0    0  0.74061975947E+02 -0.23796522167E+01 -0.20415635589E+03  0.21718806753E+03  0.00000000000E+00 0.  1.
</event>
<event>
 7    1  0.6584658E-006  0.1039753E+03  0.7561462E-02  0.1272152E+00
         -2   -1    0    0    0  501 -0.00000000000E+00  0.00000000000E+00  0.49308426080E+02  0.49308426080E+02  0.00000000000E+00 0.  1.
          2   -1    0    0  501    0  0.00000000000E+00 -0.00000000000E+00 -0.35524135141E+03  0.35524135141E+03  0.00000000000E+00 0. -1.
         23    2    1    2    0    0  0.71675730576E+02 -0.33777389704E+02 -0.18633709907E+03  0.22364745179E+03  0.94964971392E+02 0.  0.
          5    1    1    2  502    0 -0.16295435396E+02  0.25083677666E+02 -0.12095794053E+03  0.12467168033E+03  0.41800000000E+01 0. -1.
         -5    1    1    2    0  502 -0.55380295180E+02  0.86937120371E+01  0.13621142722E+01  0.56230645368E+02  0.41800000000E+01 0.  1.
        -11    1    3    3    0    0 -0.15741413234E+02  0.14731506607E+02 -0.19084256157E+02  0.28792676335E+02  0.00000000000E+00 0.  1.
         11    1    3    3    0    0  0.87417143810E+02 -0.48508896311E+02 -0.16725284291E+03  0.19485477545E+03  0.00000000000E+00 0. -1.
</event>
<event>
 7    1  0.6584658E-006  0.7009697E+02  0.7561462E-02  0.1359764E+00
         -1   -1    0    0    0  501 -0.00000000000E+00  0.00000000000E+00  0.34447969475E+02  0.34447969475E+02  0.00000000000E+00 0.  1.
          1   -1    0    0  501    0  0.00000000000E+00 -0.00000000000E+00 -0.38687674746E+03  0.38687674746E+03  0.00000000000E+00 0. -1.
         23    2    1    2    0    0 -0.13266789162E+01 -0.24738436708E+02 -0.21173158236E+03  0.23143860192E+03  0.90110005875E+02 0.  0.
          5    1    1    2  502    0 -0.14693407676E+01  0.35026093888E+02  0.11597688417E+02  0.37161337328E+02  0.41800000000E+01 0.  1.
         -5    1    1    2    0  502  0.27960196837E+01 -0.10287657181E+02 -0.15229488404E+03  0.15272477769E+03  0.41800000000E+01 0.  1.
        -11    1    3    3    0    0  0.42528925444E+02 -0.25476598980E+02 -0.11446507738E+03  0.12473981134E+03  0.00000000000E+00 0.  1.
         11    1    3    3    0    0 -0.43855604360E+02  0.73816227236E+00 -0.97266504984E+02  0.10669879057E+03  0.00000000000E+00 0. -1.
</event>
<event>
 7    1  0.6584658E-006  0.7806709E+02  0.7561462E-02  0.1334628E+00
          2   -1    0    0  501    0  0.00000000000E+00  0.00000000000E+00  0.14027646056E+03  0.14027646056E+03  0.00000000000E+00 0. -1.
         -2   -1    0    0    0  501 -0.00000000000E+00 -0.00000000000E+00 -0.98780015837E+02  0.98780015837E+02  0.00000000000E+00 0.  1.
         23    2    1    2    0    0 -0.25334068662E+02 -0.15806928101E+02  0.51615904631E+02  0.11005468540E+03  0.92499503551E+02 0.  0.
          5    1    1    2  502    0  0.15324650360E+02 -0.18579355031E+02  0.51840340895E+02  0.57314314845E+02  0.41800000000E+01 0. -1.
         -5    1    1    2    0  502  0.10009418302E+02  0.34386283132E+02 -0.61959800799E+02  0.71687476154E+02  0.41800000000E+01 0. -1.
        -11    1    3    3    0    0 -0.35483023981E+02  0.31379598111E+02  0.15734845378E+02  0.49913019619E+02  0.00000000000E+00 0. -1.
         11    1    3    3    0    0  0.10148955318E+02 -0.47186526212E+02  0.35881059254E+02  0.60141665783E+02  0.00000000000E+00 0.  1.
</event>
<event>
 7    1  0.6584658E-006  0.1081027E+03  0.7561462E-02  0.1264124E+00
          2   -1    0    0  501    0  0.00000000000E+00  0.00000000000E+00  0.53462563405E+03  0.53462563405E+03  0.00000000000E+00 0. -1.
         -2   -1    0    0    0  501 -0.00000000000E+00 -0.00000000000E+00 -0.33818274004E+02  0.33818274004E+02  0.00000000000E+00 0.  1.
         23    2    1    2    0    0  0.58949974005E+02  0.26024125973E+02  0.32113492697E+03  0.34022925340E+03  0.92064917209E+02 0.  0.
          5    1    1    2  502    0 -0.72030882565E+02  0.90391557177E+01  0.38848456195E+02  0.82442885247E+02  0.41800000000E+01 0. -1.
         -5    1    1    2    0  502  0.13080908560E+02 -0.35063281691E+02  0.14082397688E+03  0.14577176940E+03  0.41800000000E+01 0. -1.
        -11    1    3    3    0    0  0.24025999375E+02  0.55279117877E+02  0.12366362483E+03  0.13757078769E+03  0.00000000000E+00 0.  1.
         11    1    3    3    0    0  0.34923974630E+02 -0.29254991904E+02  0.19747130214E+03  0.20265846571E+03  0.00000000000E+00 0. -1.
</event>
<event>
 7    1  0.6584658E-006  0.2441996E+03  0.7561462E-02  0.1117026E+00
          2   -1    0    0  501    0  0.00000000000E+00  0.00000000000E+00  0.79022685539E+03  0.79022685539E+03  0.00000000000E+00 0.  1.
         -2   -1    0    0    0  501 -0.00000000000E+00 -0.00000000000E+00 -0.92783583255E+02  0.92783583255E+02  0.00000000000E+00 0. -1.
         23    2    1    2    0    0 -0.22194316916E+03  0.55718446304E+02  0.49450986964E+03  0.55256656233E+03  0.91795855235E+02 0.  0.
          5    1    1    2  502    0  0.10711403596E+02 -0.46490690271E+02  0.24741526999E+02  0.53904860700E+02  0.41800000000E+01 0. -1.
         -5    1    1    2    0  502  0.21123176556E+03 -0.92277560336E+01  0.17819187549E+03  0.27653901561E+03  0.41800000000E+01 0. -1.
        -11    1    3    3    0    0 -0.13714355314E+03  0.29589053819E+02  0.19525822925E+03  0.24043635824E+03  0.00000000000E+00 0. -1.
         11    1    3    3    0    0 -0.84799616018E+02  0.26129392485E+02  0.29925164039E+03  0.31213020409E+03  0.00000000000E+00 0.  1.
</event>
<event>
 7    1  0.6584658E-006  0.1077894E+03  0.7561462E-02  0.1264719E+00
         -2   -1    0    0    0  501 -0.00000000000E+00  0.00000000000E+00  0.10867861814E+04  0.10867861814E+04  0.00000000000E+00 0.  1.
          2   -1    0    0  501    0  0.00000000000E+00 -0.00000000000E+00 -0.19286628451E+02  0.19286628451E+02  0.00000000000E+00 0. -1.
         23    2    1    2    0    0  0.20094972962E+02  0.86946397792E+02  0.34586534912E+03  0.36826123130E+03  0.89610327138E+02 0.  0.
          5    1    1    2  502    0  0.28840631323E+02 -0.48149970876E+02  0.11579965608E+03  0.12875260952E+03  0.41800000000E+01 0. -1.
         -5    1    1    2    0  502 -0.48935604285E+02 -0.38796426915E+02  0.60583454773E+03  0.60905896901E+03  0.41800000000E+01 0. -1.
        -11    1    3    3    0    0 -0.11113494040E+02  0.21562346979E+02  0.12840697220E+02  0.27446822441E+02  0.00000000000E+00 0. -1.
         11    1    3    3    0    0  0.31208467001E+02  0.65384050813E+02  0.33302465190E+03  0.34081440886E+03  0.00000000000E+00 0.  1.
</event>
<event>
 7    1  0.6584658E-006  0.8973481E+02  0.7561462E-02  0.1303495E+00
          1   -1    0    0  501    0  0.00000000000E+00  0.00000000000E+00  0.14928079517E+03  0.14928079517E+03  0.00000000000E+00 0. -1.
         -1   -1    0    0    0  501 -0.00000000000E+00 -0.00000000000E+00 -0.97402417795E+02  0.97402417795E+02  0.00000000000E+00 0.  1.
         23    2    1    2    0    0  0.11842467275E+02  0.16419595730E+01  0.70250610434E+02  0.11967859811E+03  0.96150291294E+02 0.  0.
          5    1    1    2  502    0 -0.77804536975E+01  0.40521804215E+02  0.38080019596E+02  0.56303750932E+02  0.41800000000E+01 0.  1.
         -5    1    1    2    0  502 -0.40620135771E+01 -0.42163763788E+02 -0.56452252651E+02  0.70700863930E+02  0.41800000000E+01 0.  1.
        -11    1    3    3    0    0  0.44271796680E+02  0.29066573989E+02  0.49155619275E+02  0.72257405233E+02  0.00000000000E+00 0. -1.
         11    1    3    3    0    0 -0.32429329405E+02 -0.27424614416E+02  0.21094991158E+02  0.47421192873E+02  0.00000000000E+00 0.  1.
</event>
<event>
 7    1  0.6584658E-006  0.1024311E+03  0.7561462E-02  0.1275265E+00
          2   -1    0    0  501    0  0.00000000000E+00  0.00000000000E+00  0.49627149666E+03  0.49627149666E+03  0.00000000000E+00 0.  1.
         -2   -1    0    0    0  501 -0.00000000000E+00 -0.00000000000E+00 -0.38306217566E+02  0.38306217566E+02  0.00000000000E+00 0. -1.
         23    2    1    2    0    0  0.46544224241E+02  0.71639447186E+02  0.18055609840E+03  0.21850557508E+03  0.88575428113E+02 0.  0.
          5    1    1    2  502    0 -0.10877995441E+01  0.10407070098E+01  0.20133398116E+03  0.20138299518E+03  0.41800000000E+01 0.  1.
         -5    1    1    2    0  502 -0.45456424697E+02 -0.72680154196E+02  0.76075199529E+02  0.11468914397E+03  0.41800000000E+01 0.  1.
        -11    1    3    3    0    0  0.10512658977E+02 -0.16391802566E+02  0.71878947016E+01  0.20757481070E+02  0.00000000000E+00 0. -1.
         11    1    3    3    0    0  0.36031565265E+02  0.88031249752E+02  0.17336820370E+03  0.19774809401E+03  0.00000000000E+00 0.  1.
</event>
<event>
 7    1  0.6584658E-006  0.1314655E+03  0.7561462E-02  0.1225297E+00
          1   -1    0    0  501    0  0.00000000000E+00  0.00000000000E+00  0.17824056078E+03  0.17824056078E+03  0.00000000000E+00 0. -1.
         -1   -1    0    0    0  501 -0.00000000000E+00 -0.00000000000E+00 -0.12470166440E+03  0.12470166440E+03  0.00000000000E+00 0.  1.
         23    2    1    2    0    0 -0.19472532290E+01 -0.10159096395E+03  0.40320618269E+02  0.14124188314E+03  0.89437137396E+02 0.  0.
          5    1    1    2  502    0  0.62157310136E+02  0.36809359213E+02  0.13865628459E+01  0.72373027334E+02  0.41800000000E+01 0. -1.
         -5    1    1    2    0  502 -0.60210056907E+02  0.64781604736E+02  0.11831715270E+02  0.89327314698E+02  0.41800000000E+01 0. -1.
        -11    1    3    3    0    0  0.37426341031E+01 -0.36271157068E+02 -0.28430826007E+02  0.46237603880E+02  0.00000000000E+00 0.  1.
         11    1    3    3    0    0 -0.56898873321E+01 -0.65319806880E+02  0.68751444276E+02  0.95004279265E+02  0.00000000000E+00 0. -1.
</event>
<event>
 7    1  0.6584658E-006  0.1578593E+03  0.7561462E-02  0.1191135E+00
          1   -1    0    0  501    0  0.00000000000E+00  0.00000000000E+00  0.48976608373E+03  0.48976608373E+03  0.00000000000E+00 0. -1.
         -1   -1    0    0    0  501 -0.00000000000E+00 -0.00000000000E+00 -0.12485352929E+03  0.12485352929E+03  0.00000000000E+00 0.  1.
         23    2    1    2    0    0 -0.10682078356E+03 -0.49356249446E+02  0.41065061583E+03  0.43689637501E+03  0.91639484178E+02 0.  0.
          5    1    1    2  502    0 -0.11412503349E+02  0.51974199792E+02 -0.12831189989E+02  0.54896944480E+02  0.41800000000E+01 0.  1.
         -5    1    1    2    0  502  0.11823328691E+03 -0.26179503454E+01 -0.32906871395E+02  0.12282629353E+03  0.41800000000E+01 0.  1.
        -11    1    3    3    0    0 -0.51106364012E+02 -0.68170917022E+02  0.29636686509E+03  0.30837064240E+03  0.00000000000E+00 0. -1.
         11    1    3    3    0    0 -0.55714419547E+02  0.18814667576E+02  0.11428375074E+03  0.12852573262E+03  0.00000000000E+00 0.  1.
</event>
<event>
 7    1  0.6584658E-006  0.1129592E+03  0.7561462E-02  0.1255186E+00
         -2   -1    0    0    0  501 -0.00000000000E+00  0.00000000000E+00  0.72866744072E+02  0.72866744072E+02  0.00000000000E+00 0.  1.
          2   -1    0    0  501    0  0.00000000000E+00 -0.00000000000E+00 -0.25045990917E+03  0.25045990917E+03  0.00000000000E+00 0. -1.
         23    2    1    2    0    0  0.30447947854E+02  0.63930181038E+02 -0.12566501621E+03  0.17049090765E+03  0.90891736237E+02 0.  0.
          5    1    1    2  502    0  0.90931787833E+01  0.32358927898E+02 -0.32347124300E+02  0.46835829934E+02  0.41800000000E+01 0. -1.
         -5    1    1    2    0  502 -0.39541126637E+02 -0.96289108937E+02 -0.19581024588E+02  0.10599991566E+03  0.41800000000E+01 0. -1.
        -11    1    3    3    0    0  0.43939279961E+02  0.58875982361E+02 -0.40050128284E+02  0.83672303650E+02  0.00000000000E+00 0.  1.
         11    1    3    3    0    0 -0.13491332107E+02  0.50541986775E+01 -0.85614887921E+02  0.86818603998E+02  0.00000000000E+00 0. -1.
</event>
<event>
 7    1  0.6584658E-006  0.5845200E+02  0.7561462E-02  0.1404445E+00
         -1   -1    0    0    0  501 -0.00000000000E+00  0.00000000000E+00  0.68914791725E+02  0.68914791725E+02  0.00000000000E+00 0.  1.
          1   -1    0    0  501    0  0.00000000000E+00 -0.00000000000E+00 -0.28381866061E+03  0.28381866061E+03  0.00000000000E+00 0. -1.
         23    2    1    2    0    0  0.19770432614E+02  0.16567255668E+02 -0.20287507355E+03  0.22440934998E+03  0.92390026131E+02 0.  0.
          5    1    1    2  502    0  0.82868166094E+01 -0.37640720355E+01  0.54215673419E+02  0.55133031951E+02  0.41800000000E+01 0. -1.
         -5    1    1    2    0  502 -0.28057249223E+02 -0.12803183633E+02 -0.66244468759E+02  0.73191070400E+02  0.41800000000E+01 0. -1.
        -11    1    3    3    0    0 -0.11124646280E+02  0.37059108175E+02 -0.33986678420E+02  0.51499801588E+02  0.00000000000E+00 0.  1.
         11    1    3    3    0    0  0.30895078893E+02 -0.20491852507E+02 -0.16888839512E+03  0.17290954840E+03  0.00000000000E+00 0. -1.
</event>
<event>
 7    1  0.6584658E-006  0.1366321E+03  0.7561462E-02  0.1217934E+00
          3   -1    0    0  501    0  0.00000000000E+00  0.00000000000E+00  0.33101454196E+03  0.33101454196E+03  0.00000000000E+00 0. -1.
         -3   -1    0    0    0  501 -0.00000000000E+00 -0.00000000000E+00 -0.73594482581E+02  0.73594482581E+02  0.00000000000E+00 0.  1.
         23    2    1    2    0    0  0.53914472869E+02  0.77886096087E+02  0.19539582800E+03  0.23588649254E+03  0.92140617627E+02 0.  0.
          5    1    1    2  502    0  0.25109011380E+02 -0.53047317991E+02 -0.90057782738E+01  0.59523582225E+02  0.41800000000E+01 0. -1.
         -5    1    1    2    0  502 -0.79023484249E+02 -0.24838778096E+02  0.71030009658E+02  0.10919894978E+03  0.41800000000E+01 0. -1.
        -11    1    3    3    0    0  0.78350406997E+02  0.71867456263E+02  0.16670082703E+03  0.19771920311E+03  0.00000000000E+00 0. -1.
         11    1    3    3    0    0 -0.24435934128E+02  0.60186398241E+01  0.28695000969E+02  0.38167289433E+02  0.00000000000E+00 0.  1.
</event>
<event>
 7    1  0.6584658E-006  0.1087342E+03  0.7561462E-02  0.1262932E+00
          2   -1    0    0  501    0  0.00000000000E+00  0.00000000000E+00  0.39081427858E+03  0.39081427858E+03  0.00000000000E+00 0. -1.
         -2   -1    0    0    0  501 -0.00000000000E+00 -0.00000000000E+00 -0.48977227686E+02  0.48977227686E+02  0.00000000000E+00 0.  1.
         23    2    1    2    0    0 -0.47299862135E+02  0.61682573961E+02  0.20689110051E+03  0.24004337035E+03  0.93674304311E+02 0.  0.
          5    1    1    2  502    0  0.76204672929E+02 -0.67657954748E+02  0.13590912848E+03  0.16992208397E+03  0.41800000000E+01 0. -1.
         -5    1    1    2    0  502 -0.28904810794E+02  0.59753807870E+01 -0.96317810004E+00  0.29826051945E+02  0.41800000000E+01 0. -1.
        -11    1    3    3    0    0 -0.10321143298E+02  0.43028690448E+02  0.19038260641E+03  0.19545723579E+03  0.00000000000E+00 0. -1.
         11    1    3    3    0    0 -0.36978718838E+02  0.18653883513E+02  0.16508494103E+02  0.44586134555E+02  0.00000000000E+00 0.  1.
</event>
<event>
 7    1  0.6584658E-006  0.1119381E+03  0.7561462E-02  0.1257022E+00
         -1   -1    0    0    0  501 -0.00000000000E+00  0.00000000000E+00  0.44970509036E+03  0.44970509036E+03  0.00000000000E+00 0.  1.
          1   -1    0    0  501    0  0.00000000000E+00 -0.00000000000E+00 -0.34691289429E+02  0.34691289429E+02  0.00000000000E+00 0. -1.
         23    2    1    2    0    0  0.38263029845E+01 -0.48990357672E+02  0.10882225328E+03  0.15000924003E+03  0.90806351894E+02 0.  0.
          5    1    1    2  502    0 -0.55016047095E+02  0.47471790124E+02  0.23877182228E+03  0.24961929374E+03  0.41800000000E+01 0.  1.
         -5    1    1    2    0  502  0.51189744111E+02  0.15185675479E+01  0.67419725370E+02  0.84767846018E+02  0.41800000000E+01 0.  1.
        -11    1    3    3    0    0  0.21071699736E+02  0.19723685720E+02  0.15251162550E+02  0.32644115354E+02  0.00000000000E+00 0. -1.
         11    1    3    3    0    0 -0.17245396752E+02 -0.68714043391E+02  0.93571090733E+02  0.11736512467E+03  0.00000000000E+00 0.  1.
</event>
<event>
 7    1  0.6584658E-006  0.1108012E+03  0.7561462E-02  0.1259093E+00
         -2   -1    0    0    0  501 -0.00000000000E+00  0.00000000000E+00  0.80637134397E+02  0.80637134397E+02  0.00000000000E+00 0.  1.
          2   -1    0    0  501    0  0.00000000000E+00 -0.00000000000E+00 -0.19077400083E+03  0.19077400083E+03  0.00000000000E+00 0. -1.
         23    2    1    2    0    0  0.45907192032E+02 -0.33691196169E+02 -0.51505536573E+02  0.12198655833E+03  0.94790997125E+02 0.  0.
          5    1    1    2  502    0 -0.30261648632E+02  0.70114457048E+02  0.24126745106E+01  0.76518611222E+02  0.41800000000E+01 0. -1.
         -5    1    1    2    0  502 -0.15645543400E+02 -0.36423260879E+02 -0.61044004371E+02  0.72905965675E+02  0.41800000000E+01 0. -1.
        -11    1    3    3    0    0 -0.22035042015E+02  0.10296475525E+02  0.28522760912E+01  0.24488690527E+02  0.00000000000E+00 0.  1.
         11    1    3    3    0    0  0.67942234047E+02 -0.43987671694E+02 -0.54357812665E+02  0.97497867803E+02  0.00000000000E+00 0. -1.
</event>
<event>
 7    1  0.6584658E-006  0.8086013E+02  0.7561462E-02  0.1326628E+00
          2   -1    0    0  501    0  0.00000000000E+00  0.00000000000E+00  0.25200990641E+03  0.25200990641E+03  0.00000000000E+00 0. -1.
         -2   -1    0    0    0  501 -0.00000000000E+00 -0.00000000000E+00 -0.57990884548E+02  0.57990884548E+02  0.00000000000E+00 0.  1.
         23    2    1    2    0    0  0.22332895890E+02  0.45189714525E+02  0.10103137833E+03  0.14618544393E+03  0.92854596393E+02 0.  0.
          5    1    1    2  502    0  0.16992152948E+02 -0.18036404186E+02 -0.25611818610E+02  0.35881510423E+02  0.41800000000E+01 0.  1.
         -5    1    1    2    0  502 -0.39325048838E+02 -0.27153310340E+02  0.11859946214E+03  0.12793383660E+03  0.41800000000E+01 0.  1.
        -11    1    3    3    0    0 -0.70782315329E+01  0.56623075152E+02  0.22124092085E+02  0.61202528150E+02  0.00000000000E+00 0.  1.
         11    1    3    3    0    0  0.29411127423E+02 -0.11433360627E+02  0.78907286247E+02  0.84982915779E+02  0.00000000000E+00 0. -1.
</event>
<event>
 7    1  0.6584658E-006  0.2530589E+03  0.7561462E-02  0.1111387E+00
         -2   -1    0    0    0  501 -0.00000000000E+00  0.00000000000E+00  0.27000666420E+03  0.27000666420E+03  0.00000000000E+00 0.  1.
          2   -1    0    0  501    0  0.00000000000E+00 -0.00000000000E+00 -0.31519290683E+03  0.31519290683E+03  0.00000000000E+00 0. -1.
         23    2    1    2    0    0  0.25290988479E+02 -0.24421136320E+03 -0.13674382532E+03  0.29483853472E+03  0.89174344847E+02 0.  0.
          5    1    1    2  502    0 -0.15147633529E+02  0.91572173923E+02  0.10075170519E+03  0.13705215189E+03  0.41800000000E+01 0. -1.
         -5    1    1    2    0  502 -0.10143354951E+02  0.15263918928E+03 -0.91941224963E+01  0.15330888442E+03  0.41800000000E+01 0. -1.
        -11    1    3    3    0    0  0.57261887728E+02 -0.16945189400E+03 -0.81637729903E+02  0.19661532776E+03  0.00000000000E+00 0. -1.
         11    1    3    3    0    0 -0.31970899248E+02 -0.74759469207E+02 -0.55106095412E+02  0.98223206965E+02  0.00000000000E+00 0.  1.
</event>
<event>
 7    1  0.6584658E-006  0.1287702E+03  0.7561462E-02  0.1229292E+00
          2   -1    0    0  501    0  0.00000000000E+00  0.00000000000E+00  0.95573400279E+02  0.95573400279E+02  0.00000000000E+00 0. -1.
         -2   -1    0    0    0  501 -0.00000000000E+00 -0.00000000000E+00 -0.21515583277E+03  0.21515583277E+03  0.00000000000E+00 0.  1.
         23    2    1    2    0    0 -0.90691106157E+02 -0.28662213039E+02 -0.39923362102E+02  0.13454984819E+03  0.86390900064E+02 0.  0.
          5    1    1    2  502    0  0.88412460371E+02  0.55813665686E+02 -0.97761096555E+02  0.14320137159E+03  0.41800000000E+01 0. -1.
         -5    1    1    2    0  502  0.22786457868E+01 -0.27151452648E+02  0.18102026168E+02  0.32978013265E+02  0.41800000000E+01 0. -1.
        -11    1    3    3    0    0 -0.19108030800E+02 -0.47597883947E+02 -0.19307329080E+01  0.51326436920E+02  0.00000000000E+00 0. -1.
         11    1    3    3    0    0 -0.71583075357E+02  0.18935670908E+02 -0.37992629194E+02  0.83223411270E+02  0.00000000000E+00 0.  1.
</event>
<event>
 7    1  0.6584658E-006  0.1006296E+03  0.7561462E-02  0.1278978E+00
         -1   -1    0    0    0  501 -0.00000000000E+00  0.00000000000E+00  0.11464203298E+03  0.11464203298E+03  0.00000000000E+00 0.  1.
          1   -1    0    0  501    0  0.00000000000E+00 -0.00000000000E+00 -0.11979500469E+03  0.11979500469E+03  0.00000000000E+00 0. -1.
         23    2    1    2    0    0 -0.41257908289E+02 -0.33997201743E+01 -0.20429869592E+02  0.10180331825E+03  0.90734574122E+02 0.  0.
          5    1    1    2  502    0  0.53414000599E+02  0.39507669978E+02  0.48135673269E+02  0.82148809414E+02  0.41800000000E+01 0.  1.
         -5    1    1    2    0  502 -0.12156092310E+02 -0.36107949804E+02 -0.32858775383E+02  0.50484910012E+02  0.41800000000E+01 0.  1.
        -11    1    3    3    0    0 -0.68644734449E+02 -0.56907384814E+01 -0.23758342863E+01  0.68921177156E+02  0.00000000000E+00 0. -1.
         11    1    3    3    0    0  0.27386826160E+02  0.22910183071E+01 -0.18054035306E+02  0.32882141092E+02  0.00000000000E+00 0.  1.
</event>
<event>
 7    1  0.6584658E-006  0.1891320E+03  0.7561462E-02  0.1159247E+00
         -2   -1    0    0    0  501 -0.00000000000E+00  0.00000000000E+00  0.68501503561E+02  0.68501503561E+02  0.00000000000E+00 0.  1.
          2   -1    0    0  501    0  0.00000000000E+00 -0.00000000000E+00 -0.54693518331E+03  0.54693518331E+03  0.00000000000E+00 0. -1.
         23    2    1    2    0    0 -0.13057113981E+03 -0.88726787514E+02 -0.26680114506E+03  0.32327962479E+03  0.91682056179E+02 0.  0.
          5    1    1    2  502    0 -0.10144641599E+02 -0.20323046860E+02 -0.29086034977E+02  0.37140406803E+02  0.41800000000E+01 0.  1.
         -5    1    1    2    0  502  0.14071578140E+03  0.10904983437E+03 -0.18254649971E+03  0.25501665528E+03  0.41800000000E+01 0.  1.
        -11    1    3    3    0    0 -0.89972789777E+01  0.14862051153E+02 -0.79239199292E+01  0.19095028162E+02  0.00000000000E+00 0.  1.
         11    1    3    3    0    0 -0.12157386083E+03 -0.10358883867E+03 -0.25887722513E+03  0.30418459663E+03  0.00000000000E+00 0. -1.
</event>
<event>
 7    1  0.6584658E-006  0.1677613E+03  0.7561462E-02  0.1180203E+00
         -1   -1    0    0    0  501 -0.00000000000E+00  0.00000000000E+00  0.49522719686E+02  0.49522719686E+02  0.00000000000E+00 0.  1.
          1   -1    0    0  501    0  0.00000000000E+00 -0.00000000000E+00 -0.71943524990E+03  0.71943524990E+03  0.00000000000E+00 0. -1.
         23    2    1    2    0    0  0.14750935303E+03  0.87890680735E+01 -0.40751160034E+03  0.44286358439E+03  0.90698362842E+02 0.  0.
          5    1    1    2  502    0 -0.68742964364E+02  0.48291013804E+02 -0.66115036892E+02  0.10698732480E+03  0.41800000000E+01 0. -1.
         -5    1    1    2    0  502 -0.78766388670E+02 -0.57080081877E+02 -0.19628589299E+03  0.21910706040E+03  0.41800000000E+01 0. -1.
        -11    1    3    3    0    0  0.11729018517E+03 -0.11183494141E+02 -0.19928114071E+03  0.23150600667E+03  0.00000000000E+00 0.  1.
         11    1    3    3    0    0  0.30219167865E+02  0.19972562215E+02 -0.20823045962E+03  0.21135757772E+03  0.00000000000E+00 0. -1.
</event>
<event>
 7    1  0.6584658E-006  0.1212497E+03  0.7561462E-02  0.1241050E+00
          2   -1    0    0  501    0  0.00000000000E+00  0.00000000000E+00  0.31717375876E+03  0.31717375876E+03  0.00000000000E+00 0. -1.
         -2   -1    0    0    0  501 -0.00000000000E+00 -0.00000000000E+00 -0.76211704185E+02  0.76211704185E+02  0.00000000000E+00 0.  1.
         23    2    1    2    0    0 -0.29389116455E+02 -0.10113210576E+03  0.15602595089E+03  0.20911992320E+03  0.91080304922E+02 0.  0.
          5    1    1    2  502    0 -0.28974738115E+02  0.22677677836E+02  0.77764415102E+02  0.86131232297E+02  0.41800000000E+01 0. -1.
         -5    1    1    2    0  502  0.58363854570E+02  0.78454427925E+02  0.71716885796E+01  0.98134307448E+02  0.41800000000E+01 0. -1.
        -11    1    3    3    0    0  0.51653061728E+00 -0.35147982007E+02  0.12580612599E+03  0.13062476327E+03  0.00000000000E+00 0. -1.
         11    1    3    3    0    0 -0.29905647072E+02 -0.65984123754E+02  0.30219824898E+02  0.78495159923E+02  0.00000000000E+00 0.  1.
</event>
<event>
 7    1  0.6584658E-006  0.7762258E+02  0.7561462E-02  0.1335937E+00
         -1   -1    0    0    0  501 -0.00000000000E+00  0.00000000000E+00  0.14346086621E+03  0.14346086621E+03  0.00000000000E+00 0.  1.
          1   -1    0    0  501    0  0.00000000000E+00 -0.00000000000E+00 -0.96886124439E+02  0.96886124439E+02  0.00000000000E+00 0. -1.
         23    2    1    2    0    0  0.25054347171E+02 -0.28919557446E+02 -0.32519764420E+01  0.10036854829E+03  0.92731920178E+02 0.  0.
          5    1    1    2  502    0  0.25271462075E+02  0.10871514419E+02  0.75542219350E+02  0.80504260294E+02  0.41800000000E+01 0.  1.
         -5    1    1    2    0  502 -0.50325809246E+02  0.18048043027E+02 -0.25715501138E+02  0.59474182064E+02  0.41800000000E+01 0.  1.
        -11    1    3    3    0    0 -0.51664169143E+01  0.17585985257E+02  0.30398053987E+02  0.35496484719E+02  0.00000000000E+00 0. -1.
         11    1    3    3    0    0  0.30220764086E+02 -0.46505542703E+02 -0.33650030429E+02  0.64872063571E+02  0.00000000000E+00 0.  1.
</event>
<event>
 7    1  0.6584658E-006  0.1764127E+03  0.7561462E-02  0.1171321E+00
         -1   -1    0    0    0  501 -0.00000000000E+00  0.00000000000E+00  0.16443666959E+03  0.16443666959E+03  0.00000000000E+00 0.  1.
          1   -1    0    0  501    0  0.00000000000E+00 -0.00000000000E+00 -0.22177146046E+03  0.22177146046E+03  0.00000000000E+00 0. -1.
         23    2    1    2    0    0 -0.10765351839E+03  0.11230584762E+03 -0.71914930539E+01  0.18038233969E+03  0.91017511881E+02 0.  0.
          5    1    1    2  502    0 -0.19795256962E+02 -0.50649863460E+02 -0.31443896265E+02  0.62955951895E+02  0.41800000000E+01 0.  1.
         -5    1    1    2    0  502  0.12744877535E+03 -0.61655984161E+02 -0.18699401555E+02  0.14286983846E+03  0.41800000000E+01 0.  1.
        -11    1    3    3    0    0 -0.57448193934E+02  0.72928619661E+02  0.39932117628E+02  0.10106162758E+03  0.00000000000E+00 0.  1.
         11    1    3    3    0    0 -0.50205324459E+02  0.39377227961E+02 -0.47123610682E+02  0.79320712109E+02  0.00000000000E+00 0. -1.
</event>
<event>
 7    1  0.6584658E-006  0.1238144E+03  0.7561462E-02  0.1236934E+00
          1   -1    0    0  501    0  0.00000000000E+00  0.00000000000E+00  0.38238903864E+03  0.38238903864E+03  0.00000000000E+00 0. -1.
         -1   -1    0    0    0  501 -0.00000000000E+00 -0.00000000000E+00 -0.60737779757E+02  0.60737779757E+02  0.00000000000E+00 0.  1.
         23    2    1    2    0    0 -0.61127666878E+02 -0.86474678553E+02  0.15863812299E+03  0.21196740048E+03  0.92464388348E+02 0.  0.
          5    1    1    2  502    0  0.15590820760E+02  0.64862757096E+02  0.70638015452E+01  0.67213247521E+02  0.41800000000E+01 0. -1.
         -5    1    1    2    0  502  0.45536846118E+02  0.21611921458E+02  0.15594933434E+03  0.16394617039E+03  0.41800000000E+01 0. -1.
        -11    1    3    3    0    0 -0.54251967200E+01 -0.72603534364E+02  0.12708699771E+03  0.14646436751E+03  0.00000000000E+00 0. -1.
         11    1    3    3    0    0 -0.55702470158E+02 -0.13871144189E+02  0.31551125280E+02  0.65503032978E+02  0.00000000000E+00 0.  1.
</event>
<event>
 7    1  0.6584658E-006  0.1538267E+03  0.7561462E-02  0.1195848E+00
          1   -1    0    0  501    0  0.00000000000E+00  0.00000000000E+00  0.46747942917E+03  0.46747942917E+03  0.00000000000E+00 0. -1.
         -1   -1    0    0    0  501 -0.00000000000E+00 -0.00000000000E+00 -0.60159217571E+02  0.60159217571E+02  0.00000000000E+00 0.  1.
         23    2    1    2    0    0  0.12465623662E+03 -0.25884460229E+02  0.18378396163E+03  0.24158694694E+03  0.91534287403E+02 0.  0.
          5    1    1    2  502    0 -0.12747085264E+03 -0.52966116960E+01  0.21989078125E+03  0.25425636757E+03  0.41800000000E+01 0. -1.
         -5    1    1    2    0  502  0.28146160174E+01  0.31181071925E+02  0.36454687209E+01  0.31795332235E+02  0.41800000000E+01 0. -1.
        -11    1    3    3    0    0  0.24584106789E+02 -0.40406975003E+02  0.25431050348E+02  0.53701399026E+02  0.00000000000E+00 0.  1.
         11    1    3    3    0    0  0.10007212983E+03  0.14522514774E+02  0.15835291128E+03  0.18788554792E+03  0.00000000000E+00 0. -1.
</event>
<event>
 7    1  0.6584658E-006  0.1805396E+03  0.7561462E-02  0.1167282E+00
         -1   -1    0    0    0  501 -0.00000000000E+00  0.00000000000E+00  0.50816846450E+03  0.50816846450E+03  0.00000000000E+00 0.  1.
          1   -1    0    0  501    0  0.00000000000E+00 -0.00000000000E+00 -0.69547173761E+02  0.69547173761E+02  0.00000000000E+00 0. -1.
         23    2    1    2    0    0 -0.52177725179E+02 -0.14354871380E+03  0.20899340092E+03  0.27488586090E+03  0.92494576378E+02 0.  0.
          5    1    1    2  502    0  0.83736168925E+02  0.11764413749E+03  0.12718690920E+03  0.19247304056E+03  0.41800000000E+01 0.  1.
         -5    1    1    2    0  502 -0.31558443746E+02  0.25904576306E+02  0.10244098062E+03  0.11035673679E+03  0.41800000000E+01 0.  1.
        -11    1    3    3    0    0 -0.66491196910E+02 -0.56198265597E+02  0.12868904452E+03  0.15537115080E+03  0.00000000000E+00 0.  1.
         11    1    3    3    0    0  0.14313471731E+02 -0.87350448201E+02  0.80304356405E+02  0.11951471011E+03  0.00000000000E+00 0. -1.
</event>
<event>
 7    1  0.6584658E-006  0.1081348E+03  0.7561462E-02  0.1264063E+00
          1   -1    0    0  501    0  0.00000000000E+00  0.00000000000E+00  0.33921760648E+03  0.33921760648E+03  0.00000000000E+00 0. -1.
         -1   -1    0    0    0  501 -0.00000000000E+00 -0.00000000000E+00 -0.55695458782E+02  0.55695458782E+02  0.00000000000E+00 0.  1.
         23    2    1    2    0    0 -0.44553300791E+02 -0.18293745250E+02  0.22776607681E+03  0.24973914734E+03  0.90402423865E+02 0.  0.
          5    1    1    2  502    0  0.63433328738E+02  0.47942865257E+02  0.70955320221E+02  0.10665099808E+03  0.41800000000E+01 0.  1.
         -5    1    1    2    0  502 -0.18880027947E+02 -0.29649120007E+02 -0.15199249340E+02  0.38522919840E+02  0.41800000000E+01 0.  1.
        -11    1    3    3    0    0 -0.14847453406E+02  0.36232189080E+02  0.10711608898E+03  0.11404856385E+03  0.00000000000E+00 0. -1.
         11    1    3    3    0    0 -0.29705847384E+02 -0.54525934330E+02  0.12064998784E+03  0.13569058349E+03  0.00000000000E+00 0.  1.
</event>
<event>
 7    1  0.6584658E-006  0.1608755E+03  0.7561462E-02  0.1187712E+00
         -3   -1    0    0    0  501 -0.00000000000E+00  0.00000000000E+00  0.26516678460E+03  0.26516678460E+03  0.00000000000E+00 0.  1.
          3   -1    0    0  501    0  0.00000000000E+00 -0.00000000000E+00 -0.12719133946E+03  0.12719133946E+03  0.00000000000E+00 0. -1.
         23    2    1    2    0    0 -0.37798271442E+01  0.13092061543E+03 -0.10298902117E+02  0.15829143389E+03  0.88292785781E+02 0.  0.
          5    1    1    2  502    0 -0.41800976421E+02 -0.18565735284E+02  0.48076207824E+01  0.46180014876E+02  0.41800000000E+01 0. -1.
         -5    1    1    2    0  502  0.45580803565E+02 -0.11235488015E+03  0.14346672647E+03  0.18788667529E+03  0.41800000000E+01 0. -1.
        -11    1    3    3    0    0 -0.39753929967E+02  0.38562679334E+02  0.12063900323E+02  0.56683268045E+02  0.00000000000E+00 0.  1.
         11    1    3    3    0    0  0.35974102823E+02  0.92357936098E+02 -0.22362802440E+02  0.10160816585E+03  0.00000000000E+00 0. -1.
</event>
<event>
 7    1  0.6584658E-006  0.7725086E+02  0.7561462E-02  0.1337039E+00
          3   -1    0    0  501    0  0.00000000000E+00  0.00000000000E+00  0.79625488297E+02  0.79625488297E+02  0.00000000000E+00 0. -1.
         -3   -1    0    0    0  501 -0.00000000000E+00 -0.00000000000E+00 -0.13729274943E+03  0.13729274943E+03  0.00000000000E+00 0.  1.
         23    2    1    2    0    0 -0.38303090580E+01 -0.17420373503E+02 -0.18387819273E+02  0.84598361552E+02  0.80626485717E+02 0.  0.
          5    1    1    2  502    0 -0.56371117014E+02  0.19765004999E+02  0.71400746576E+00  0.59886062340E+02  0.41800000000E+01 0. -1.
         -5    1    1    2    0  502  0.60201426072E+02 -0.23446314962E+01 -0.39993449329E+02  0.72433813838E+02  0.41800000000E+01 0. -1.
        -11    1    3    3    0    0  0.12589702892E+02 -0.46291481874E+01  0.29486988597E+02  0.32394631166E+02  0.00000000000E+00 0. -1.
         11    1    3    3    0    0 -0.16420011950E+02 -0.12791225316E+02 -0.47874807871E+02  0.52203730386E+02  0.00000000000E+00 0.  1.
</event>
<event>
 7    1  0.6584658E-006  0.7128883E+02  0.7561462E-02  0.1355764E+00
         -1   -1    0    0    0  501 -0.00000000000E+00  0.00000000000E+00  0.32514386834E+02  0.32514386834E+02  0.00000000000E+00 0.  1.
          1   -1    0    0  501    0  0.00000000000E+00 -0.00000000000E+00 -0.37805036409E+03  0.37805036409E+03  0.00000000000E+00 0. -1.
         23    2    1    2    0    0  0.12278463615E+02  0.19601900066E+02 -0.18202608047E+03  0.20339804213E+03  0.87762602602E+02 0.  0.
          5    1    1    2  502    0 -0.27902707984E+02  0.22673162037E+02 -0.15738186345E+03  0.16149042304E+03  0.41800000000E+01 0. -1.
         -5    1    1    2    0  502  0.15624244370E+02 -0.42275062103E+02 -0.61280333329E+01  0.45676285756E+02  0.41800000000E+01 0. -1.
        -11    1    3    3    0    0  0.29790994939E+02 -0.57160411881E+01 -0.15527706379E+02  0.34077649152E+02  0.00000000000E+00 0.  1.
         11    1    3    3    0    0 -0.17512531324E+02  0.25317941254E+02 -0.16649837409E+03  0.16932039298E+03  0.00000000000E+00 0. -1.
</event>
<event>
 7    1  0.6584658E-006  0.1279398E+03  0.7561462E-02  0.1230545E+00
         -2   -1    0    0    0  501 -0.00000000000E+00  0.00000000000E+00  0.13896695958E+03  0.13896695958E+03  0.00000000000E+00 0.  1.
          2   -1    0    0  501    0  0.00000000000E+00 -0.00000000000E+00 -0.14811876222E+03  0.14811876222E+03  0.00000000000E+00 0. -1.
         23    2    1    2    0    0  0.35056829127E+01 -0.91080339142E+02  0.12506263888E+02  0.13080057449E+03  0.92975618626E+02 0.  0.
          5    1    1    2  502    0 -0.11530182530E+02 -0.27637592171E+02  0.12040663451E+02  0.32545838237E+02  0.41800000000E+01 0.  1.
         -5    1    1    2    0  502  0.80244996168E+01  0.11871793131E+03 -0.33698729980E+02  0.12373930908E+03  0.41800000000E+01 0.  1.
        -11    1    3    3    0    0 -0.20073881284E+02 -0.75964569496E+02 -0.26375697044E+02  0.82880962368E+02  0.00000000000E+00 0. -1.
         11    1    3    3    0    0  0.23579564196E+02 -0.15115769646E+02  0.38881960933E+02  0.47919612119E+02  0.00000000000E+00 0.  1.
</event>
<event>
 7    1  0.6584658E-006  0.1739382E+03  0.7561462E-02  0.1173802E+00
          2   -1    0    0  501    0  0.00000000000E+00  0.00000000000E+00  0.27831601074E+02  0.27831601074E+02  0.00000000000E+00 0. -1.
         -2   -1    0    0    0  501 -0.00000000000E+00 -0.00000000000E+00 -0.13534772509E+04  0.13534772509E+04  0.00000000000E+00 0.  1.
         23    2    1    2    0    0  0.14776801739E+03  0.45064030224E+02 -0.49364378510E+03  0.52588994028E+03  0.94920434737E+02 0.  0.
          5    1    1    2  502    0 -0.74576137621E+02 -0.72206049440E+02 -0.29503443037E+03  0.31279082688E+03  0.41800000000E+01 0. -1.
         -5    1    1    2    0  502 -0.73191879772E+02  0.27142019216E+02 -0.53696743432E+03  0.54262808478E+03  0.41800000000E+01 0. -1.
        -11    1    3    3    0    0  0.10698654629E+03  0.59662831371E+02 -0.44110031300E+03  0.45779390632E+03  0.00000000000E+00 0.  1.
         11    1    3    3    0    0  0.40781471102E+02 -0.14598801147E+02 -0.52543472099E+02  0.68096033955E+02  0.00000000000E+00 0. -1.
</event>
<event>
 7    1  0.6584658E-006  0.1562057E+03  0.7561462E-02  0.1193048E+00
         -3   -1    0    0    0  501 -0.00000000000E+00  0.00000000000E+00  0.10782053761E+03  0.10782053761E+03  0.00000000000E+00 0.  1.
          3   -1    0    0  501    0  0.00000000000E+00 -0.00000000000E+00 -0.32960374792E+03  0.32960374792E+03  0.00000000000E+00 0. -1.
         23    2    1    2    0    0  0.69826676326E+02  0.12385268809E+03 -0.17336818021E+03  0.24195130318E+03  0.90932140238E+02 0.  0.
          5    1    1    2  502    0  0.56862407639E+01 -0.31080302900E+02 -0.67143338525E+02  0.74323743653E+02  0.41800000000E+01 0. -1.
         -5    1    1    2    0  502 -0.75512917090E+02 -0.92772385188E+02  0.18728308420E+02  0.12114923870E+03  0.41800000000E+01 0. -1.
        -11    1    3    3    0    0 -0.10929543190E+02  0.50763740144E+02 -0.93269105502E+02  0.10674988651E+03  0.00000000000E+00 0.  1.
         11    1    3    3    0    0  0.80756219516E+02  0.73088947944E+02 -0.80099074707E+02  0.13520141668E+03  0.00000000000E+00 0. -1.
</event>
<event>
 7    1  0.6584658E-006  0.1068411E+03  0.7561462E-02  0.1266534E+00
          1   -1    0    0  501    0  0.00000000000E+00  0.00000000000E+00  0.64471487758E+03  0.64471487758E+03  0.00000000000E+00 0. -1.
         -1   -1    0    0    0  501 -0.00000000000E+00 -0.00000000000E+00 -0.21070177548E+02  0.21070177548E+02  0.00000000000E+00 0.  1.
         23    2    1    2    0    0  0.25719284974E+02 -0.26712923030E+01  0.36294961992E+03  0.37547469187E+03  0.92629370171E+02 0.  0.
          5    1    1    2  502    0  0.32180645666E+02  0.38218800238E+02  0.58930885844E+02  0.77373072535E+02  0.41800000000E+01 0. -1.
         -5    1    1    2    0  502 -0.57899930640E+02 -0.35547507935E+02  0.20176419427E+03  0.21293729072E+03  0.41800000000E+01 0. -1.
        -11    1    3    3    0    0 -0.18331025886E+02  0.33691302122E+02  0.12421502498E+03  0.13000193375E+03  0.00000000000E+00 0.  1.
         11    1    3    3    0    0  0.44050310860E+02 -0.36362594425E+02  0.23873459494E+03  0.24547275812E+03  0.00000000000E+00 0. -1.
</event>
<event>
 7    1  0.6584658E-006  0.1112061E+03  0.7561462E-02  0.1258353E+00
         -1   -1    0    0    0  501 -0.00000000000E+00  0.00000000000E+00  0.10292199511E+03  0.10292199511E+03  0.00000000000E+00 0.  1.
          1   -1    0    0  501    0  0.00000000000E+00 -0.00000000000E+00 -0.18721058666E+03  0.18721058666E+03  0.00000000000E+00 0. -1.
         23    2    1    2    0    0  0.62053724279E+02  0.85716663235E+01 -0.10132928336E+03  0.14920132741E+03  0.89829139342E+02 0.  0.
          5    1    1    2  502    0 -0.81518171345E+02 -0.48687312288E+02  0.13666472935E+02  0.96020370337E+02  0.41800000000E+01 0. -1.
         -5    1    1    2    0  502  0.19464447066E+02  0.40115645965E+02  0.33742188774E+01  0.44910884024E+02  0.41800000000E+01 0. -1.
        -11    1    3    3    0    0  0.94384173105E+01 -0.20431256495E+02 -0.83576708393E+02  0.86553949356E+02  0.00000000000E+00 0. -1.
         11    1    3    3    0    0  0.52615306968E+02  0.29002922819E+02 -0.17752574968E+02  0.62647378057E+02  0.00000000000E+00 0.  1.
</event>
<event>
 7    1  0.6584658E-006  0.1242434E+03  0.7561462E-02  0.1236256E+00
         -2   -1    0    0    0  501 -0.00000000000E+00  0.00000000000E+00  0.65328264278E+02  0.65328264278E+02  0.00000000000E+00 0.  1.
          2   -1    0    0  501    0  0.00000000000E+00 -0.00000000000E+00 -0.29895449733E+03  0.29895449733E+03  0.00000000000E+00 0. -1.
         23    2    1    2    0    0 -0.22346831896E+02  0.62514598571E+02 -0.18150693151E+03  0.21338439043E+03  0.90447089307E+02 0.  0.
          5    1    1    2  502    0 -0.51542467743E+02 -0.24877788617E+02 -0.31016884398E+02  0.65230743253E+02  0.41800000000E+01 0.  1.
         -5    1    1    2    0  502  0.73889299639E+02 -0.37636809954E+02 -0.21102417146E+02  0.85667627923E+02  0.41800000000E+01 0.  1.
        -11    1    3    3    0    0 -0.28440547139E+02 -0.13733642326E+02 -0.82023222637E+02  0.87893610148E+02  0.00000000000E+00 0. -1.
         11    1    3    3    0    0  0.60937152433E+01  0.76248240898E+02 -0.99483708873E+02  0.12549078029E+03  0.00000000000E+00 0.  1.
</event>
<event>
 7    1  0.6584658E-006  0.8909604E+02  0.7561462E-02  0.1305056E+00
          1   -1    0    0  501    0  0.00000000000E+00  0.00000000000E+00  0.18825901012E+02  0.18825901012E+02  0.00000000000E+00 0. -1.
         -1   -1    0    0    0  501 -0.00000000000E+00 -0.00000000000E+00 -0.11822935324E+04  0.11822935324E+04  0.00000000000E+00 0.  1.
         23    2    1    2    0    0 -0.29504526120E+02  0.34072621172E+02 -0.16729529282E+03  0.19611288513E+03  0.91875394622E+02 0.  0.
          5    1    1    2  502    0  0.13575193515E+02 -0.73363683588E+02 -0.37487405490E+03  0.38224932359E+03  0.41800000000E+01 0. -1.
         -5    1    1    2    0  502  0.15929332605E+02  0.39291062416E+02 -0.62129828363E+03  0.62275722466E+03  0.41800000000E+01 0. -1.
        -11    1    3    3    0    0 -0.39897583203E+02  0.25129264900E+02 -0.17440595763E+03  0.18066747122E+03  0.00000000000E+00 0.  1.
         11    1    3    3    0    0  0.10393057082E+02  0.89433562712E+01  0.71106648042E+01  0.15445413911E+02  0.00000000000E+00 0. -1.
</event>
<event>
 7    1  0.6584658E-006  0.6173213E+02  0.7561462E-02  0.1390703E+00
         -2   -1    0    0    0  501 -0.00000000000E+00  0.00000000000E+00  0.50305005537E+02  0.50305005537E+02  0.00000000000E+00 0.  1.
          2   -1    0    0  501    0  0.00000000000E+00 -0.00000000000E+00 -0.30947238928E+03  0.30947238928E+03  0.00000000000E+00 0. -1.
         23    2    1    2    0    0  0.19130666721E+02 -0.55280170078E+02 -0.93908960813E+02  0.14441566160E+03  0.92817621070E+02 0.  0.
          5    1    1    2  502    0  0.15557238599E+01  0.91387080315E+01 -0.16429939833E+03  0.16461379333E+03  0.41800000000E+01 0.  1.
         -5    1    1    2    0  502 -0.20686390581E+02  0.46141462047E+02 -0.95902459900E+00  0.50747939892E+02  0.41800000000E+01 0.  1.
        -11    1    3    3    0    0 -0.37125721088E+01 -0.21239218329E+02 -0.10059425391E+03  0.10287901392E+03  0.00000000000E+00 0. -1.
         11    1    3    3    0    0  0.22843238830E+02 -0.34040951749E+02  0.66852930951E+01  0.41536647674E+02  0.00000000000E+00 0.  1.
</event>
<event>
 7    1  0.6584658E-006  0.1096590E+03  0.7561462E-02  0.1261203E+00
          1   -1    0    0  501    0  0.00000000000E+00  0.00000000000E+00  0.53393052051E+03  0.53393052051E+03  0.00000000000E+00 0. -1.
         -1   -1    0    0    0  501 -0.00000000000E+00 -0.00000000000E+00 -0.28143273818E+02  0.28143273818E+02  0.00000000000E+00 0.  1.
         23    2    1    2    0    0  0.17104458227E+02  0.54281564728E+02  0.25262384298E+03  0.27401410817E+03  0.89587246160E+02 0.  0.
          5    1    1    2  502    0 -0.48846454001E+02 -0.66258194795E+02  0.23565563159E+03  0.24965410781E+03  0.41800000000E+01 0. -1.
         -5    1    1    2    0  502  0.31741995775E+02  0.11976630067E+02  0.17507772124E+02  0.38405578348E+02  0.41800000000E+01 0. -1.
        -11    1    3    3    0    0  0.50539304619E+02  0.45831713374E+02  0.19790048645E+03  0.20933076649E+03  0.00000000000E+00 0. -1.
         11    1    3    3    0    0 -0.33434846392E+02  0.84498513538E+01  0.54723356529E+02  0.64683341681E+02  0.00000000000E+00 0.  1.
</event>
<event>
 7    1  0.6584658E-006  0.1260192E+03  0.7561462E-02  0.1233485E+00
          1   -1    0    0  501    0  0.00000000000E+00  0.00000000000E+00  0.14470800050E+03  0.14470800050E+03  0.00000000000E+00 0. -1.
         -1   -1    0    0    0  501 -0.00000000000E+00 -0.00000000000E+00 -0.16500333733E+03  0.16500333733E+03  0.00000000000E+00 0.  1.
         23    2    1    2    0    0  0.71998925407E+02 -0.37872920367E+02  0.64631297835E+02  0.13801864821E+03  0.90850092109E+02 0.  0.
          5    1    1    2  502    0  0.25130311219E+02 -0.14243703796E+02  0.47007908914E+01  0.29563245336E+02  0.41800000000E+01 0. -1.
         -5    1    1    2    0  502 -0.97129236626E+02  0.52116624162E+02 -0.89627425556E+02  0.14212944429E+03  0.41800000000E+01 0. -1.
        -11    1    3    3    0    0  0.50533230025E+02 -0.62173962341E+02  0.68439712543E+02  0.10537173806E+03  0.00000000000E+00 0. -1.
         11    1    3    3    0    0  0.21465695383E+02  0.24301041974E+02 -0.38084147073E+01  0.32646910143E+02  0.00000000000E+00 0.  1.
</event>
<event>
 7    1  0.6584658E-006  0.1326097E+03  0.7561462E-02  0.1223634E+00
          2   -1    0    0  501    0  0.00000000000E+00  0.00000000000E+00  0.66326860749E+03  0.66326860749E+03  0.00000000000E+00 0. -1.
         -2   -1    0    0    0  501 -0.00000000000E+00 -0.00000000000E+00 -0.55793857604E+02  0.55793857604E+02  0.00000000000E+00 0.  1.
         23    2    1    2    0    0  0.85182791899E+02  0.28433111015E+02  0.50379482139E+03  0.51970651405E+03  0.90670220254E+02 0.  0.
          5    1    1    2  502    0 -0.91719977215E+02  0.17359672576E+02  0.11821824131E+03  0.15068821265E+03  0.41800000000E+01 0. -1.
         -5    1    1    2    0  502  0.65371853159E+01 -0.45792783591E+02 -0.14538312822E+02  0.48667738396E+02  0.41800000000E+01 0.  1.
        -11    1    3    3    0    0  0.22654308304E+02  0.53397363109E+02  0.28262644503E+03  0.28851724992E+03  0.00000000000E+00 0. -1.
         11    1    3    3    0    0  0.62528483595E+02 -0.24964252094E+02  0.22116837637E+03  0.23118926413E+03  0.00000000000E+00 0.  1.
</event>
<event>
 7    1  0.6584658E-006  0.1089757E+03  0.7561462E-02  0.1262479E+00
          1   -1    0    0  501    0  0.00000000000E+00  0.00000000000E+00  0.31329847634E+02  0.31329847634E+02  0.00000000000E+00 0. -1.
         -1   -1    0    0    0  501 -0.00000000000E+00 -0.00000000000E+00 -0.40719008643E+03  0.40719008643E+03  0.00000000000E+00 0.  1.
         23    2    1    2    0    0 -0.12489300916E+02 -0.23860406685E+02 -0.16857147360E+03  0.19491936089E+03  0.94084610276E+02 0.  0.
          5    1    1    2  502    0 -0.11057327829E+02 -0.49047851738E+02 -0.69404602253E+02  0.85804588879E+02  0.41800000000E+01 0. -1.
         -5    1    1    2    0  502  0.23546628745E+02  0.72908258423E+02 -0.13788416294E+03  0.15779598430E+03  0.41800000000E+01 0. -1.
        -11    1    3    3    0    0 -0.37895977038E+02  0.17881473426E+02 -0.42384833142E+02  0.59601394681E+02  0.00000000000E+00 0. -1.
         11    1    3    3    0    0  0.25406676121E+02 -0.41741880111E+02 -0.12618664046E+03  0.13531796620E+03  0.00000000000E+00 0.  1.
</event>
<event>
 7    1  0.6584658E-006  0.1234289E+03  0.7561462E-02  0.1237545E+00
          1   -1    0    0  501    0  0.00000000000E+00  0.00000000000E+00  0.19062818386E+03  0.19062818386E+03  0.00000000000E+00 0. -1.
         -1   -1    0    0    0  501 -0.00000000000E+00 -0.00000000000E+00 -0.13623785414E+03  0.13623785414E+03  0.00000000000E+00 0.  1.
         23    2    1    2    0    0  0.15704610905E+02 -0.87836361232E+02  0.10517347742E+03  0.16503542280E+03  0.90627640742E+02 0.  0.
          5    1    1    2  502    0 -0.66154169983E+02  0.47719512288E+02 -0.34426716143E+01  0.81748703030E+02  0.41800000000E+01 0. -1.
         -5    1    1    2    0  502  0.50449559078E+02  0.40116848944E+02 -0.47340476085E+02  0.80081912167E+02  0.41800000000E+01 0. -1.
        -11    1    3    3    0    0 -0.15118749596E+02 -0.47356994899E+02  0.10269718642E+03  0.11409633497E+03  0.00000000000E+00 0. -1.
         11    1    3    3    0    0  0.30823360501E+02 -0.40479366333E+02  0.24762910001E+01  0.50939087824E+02  0.00000000000E+00 0.  1.
</event>
<event>
 7    1  0.6584658E-006  0.1285009E+03  0.7561462E-02  0.1229697E+00
         -2   -1    0    0    0  501 -0.00000000000E+00  0.00000000000E+00  0.15906207182E+03  0.15906207182E+03  0.00000000000E+00 0.  1.
          2   -1    0    0  501    0  0.00000000000E+00 -0.00000000000E+00 -0.14219150318E+03  0.14219150318E+03  0.00000000000E+00 0. -1.
         23    2    1    2    0    0  0.28799958699E+02 -0.70565818833E+02 -0.37068336931E+02  0.12597858701E+03  0.93207136920E+02 0.  0.
          5    1    1    2  502    0  0.90770753814E+01 -0.29386313056E+02 -0.26996371417E+02  0.41136664451E+02  0.41800000000E+01 0. -1.
         -5    1    1    2    0  502 -0.37877034080E+02  0.99952131889E+02  0.80935276991E+02  0.13413832354E+03  0.41800000000E+01 0.  1.
        -11    1    3    3    0    0  0.50850618640E+02 -0.65317150469E+01 -0.25547973810E+02  0.57281303087E+02  0.00000000000E+00 0.  1.
         11    1    3    3    0    0 -0.22050659941E+02 -0.64034103786E+02 -0.11520363120E+02  0.68697283920E+02  0.00000000000E+00 0. -1.
</event>
<event>
 7    1  0.6584658E-006  0.9552415E+02  0.7561462E-02  0.1290000E+00
         -2   -1    0    0    0  501 -0.00000000000E+00  0.00000000000E+00  0.26690161347E+02  0.26690161347E+02  0.00000000000E+00 0.  1.
          2   -1    0    0  501    0  0.00000000000E+00 -0.00000000000E+00 -0.63923042831E+03  0.63923042831E+03  0.00000000000E+00 0. -1.
         23    2    1    2    0    0 -0.13574452774E+02  0.56999695156E+02 -0.43131303493E+03  0.44455267054E+03  0.90348833819E+02 0.  0.
          5    1    1    2  502    0 -0.93864035672E+01  0.15104236995E+02 -0.12668414464E+03  0.12799448211E+03  0.41800000000E+01 0. -1.
         -5    1    1    2    0  502  0.22960856342E+02 -0.72103932150E+02 -0.54543087396E+02  0.93373437005E+02  0.41800000000E+01 0.  1.
        -11    1    3    3    0    0 -0.31320330676E+01  0.75598731223E+02 -0.39703230023E+03  0.40417771490E+03  0.00000000000E+00 0.  1.
         11    1    3    3    0    0 -0.10442419707E+02 -0.18599036068E+02 -0.34280734697E+02  0.40374955645E+02  0.00000000000E+00 0. -1.
</event>
<event>
 7    1  0.6584658E-006  0.2609808E+03  0.7561462E-02  0.1106555E+00
         -2   -1    0    0    0  501 -0.00000000000E+00  0.00000000000E+00  0.65475523001E+02  0.65475523001E+02  0.00000000000E+00 0.  1.
          2   -1    0    0  501    0  0.00000000000E+00 -0.00000000000E+00 -0.11189926860E+04  0.11189926860E+04  0.00000000000E+00 0. -1.
         23    2    1    2    0    0 -0.11468101736E+03  0.21809256949E+03 -0.57284411922E+03  0.63002060905E+03  0.89774597176E+02 0.  0.
          5    1    1    2  502    0  0.70043441471E+02 -0.21976026981E+03 -0.38599735973E+03  0.44967999066E+03  0.41800000000E+01 0.  1.
         -5    1    1    2    0  502  0.44637575887E+02  0.16677003151E+01 -0.94675684035E+02  0.10476760927E+03  0.41800000000E+01 0.  1.
        -11    1    3    3    0    0 -0.85432473742E+02  0.16185276776E+03 -0.31321970000E+03  0.36276935712E+03  0.00000000000E+00 0.  1.
         11    1    3    3    0    0 -0.29248543617E+02  0.56239801736E+02 -0.25962441922E+03  0.26725125193E+03  0.00000000000E+00 0. -1.
</event>
<event>
 7    1  0.6584658E-006  0.9043205E+02  0.7561462E-02  0.1301809E+00
         -1   -1    0    0    0  501 -0.00000000000E+00  0.00000000000E+00  0.25162609857E+02  0.25162609857E+02  0.00000000000E+00 0.  1.
          1   -1    0    0  501    0  0.00000000000E+00 -0.00000000000E+00 -0.50572189913E+03  0.50572189913E+03  0.00000000000E+00 0. -1.
         23    2    1    2    0    0 -0.21728601488E+01 -0.11711253167E+01 -0.28313300955E+03  0.29715361601E+03  0.90165833646E+02 0.  0.
          5    1    1    2  502    0  0.43540942291E+02  0.17223153665E+02 -0.17973063000E+03  0.18577680813E+03  0.41800000000E+01 0. -1.
         -5    1    1    2    0  502 -0.41368082143E+02 -0.16052028348E+02 -0.17695649720E+02  0.47954084844E+02  0.41800000000E+01 0. -1.
        -11    1    3    3    0    0  0.41530440326E+02 -0.13850504189E+02 -0.11777908484E+03  0.12565240453E+03  0.00000000000E+00 0. -1.
         11    1    3    3    0    0 -0.43703300475E+02  0.12679378872E+02 -0.16535392471E+03  0.17150121148E+03  0.00000000000E+00 0.  1.
</event>
<event>
 7    1  0.6584658E-006  0.9239338E+02  0.7561462E-02  0.1297157E+00
          2   -1    0    0  501    0  0.00000000000E+00  0.00000000000E+00  0.58398220066E+03  0.58398220066E+03  0.00000000000E+00 0. -1.
         -2   -1    0    0    0  501 -0.00000000000E+00 -0.00000000000E+00 -0.29370979959E+02  0.29370979959E+02  0.00000000000E+00 0.  1.
         23    2    1    2    0    0  0.54987770972E+02  0.21644113638E+02  0.33322936630E+03  0.35229861575E+03  0.97879423199E+02 0.  0.
          5    1    1    2  502    0 -0.36674022741E+02 -0.36354427339E+02  0.15901578567E+02  0.54193735174E+02  0.41800000000E+01 0. -1.
         -5    1    1    2    0  502 -0.18313748232E+02  0.14710313701E+02  0.20548027584E+03  0.20686082969E+03  0.41800000000E+01 0. -1.
        -11    1    3    3    0    0  0.56005319232E+02  0.53378656160E+02  0.18182981546E+03  0.19760556294E+03  0.00000000000E+00 0. -1.
         11    1    3    3    0    0 -0.10175482594E+01 -0.31734542522E+02  0.15139955084E+03  0.15469305281E+03  0.00000000000E+00 0.  1.
</event>
<event>
 7    1  0.6584658E-006  0.2092330E+03  0.7561462E-02  0.1142175E+00
          3   -1    0    0  501    0  0.00000000000E+00  0.00000000000E+00  0.30707759165E+03  0.30707759165E+03  0.00000000000E+00 0. -1.
         -3   -1    0    0    0  501 -0.00000000000E+00 -0.00000000000E+00 -0.17001291467E+03  0.17001291467E+03  0.00000000000E+00 0.  1.
         23    2    1    2    0    0  0.18651876949E+03  0.12500631229E+02  0.14236850948E+03  0.25210143409E+03  0.91328108646E+02 0.  0.
          5    1    1    2  502    0 -0.16836149824E+02  0.35112084922E+02 -0.26715476856E+02  0.47407842728E+02  0.41800000000E+01 0.  1.
         -5    1    1    2    0  502 -0.16968261966E+03 -0.47612716151E+02  0.21411644359E+02  0.17758122949E+03  0.41800000000E+01 0.  1.
        -11    1    3    3    0    0  0.12670659482E+03  0.45593578027E+02  0.67189388039E+02  0.15049169211E+03  0.00000000000E+00 0.  1.
         11    1    3    3    0    0  0.59812174666E+02 -0.33092946798E+02  0.75179121437E+02  0.10160974198E+03  0.00000000000E+00 0. -1.
</event>
<event>
 7    1  0.6584658E-006  0.8663828E+02  0.7561462E-02  0.1311203E+00
         -2   -1    0    0    0  501 -0.00000000000E+00  0.00000000000E+00  0.43770988395E+02  0.43770988395E+02  0.00000000000E+00 0.  1.
          2   -1    0    0  501    0  0.00000000000E+00 -0.00000000000E+00 -0.31724016876E+03  0.31724016876E+03  0.00000000000E+00 0. -1.
         23    2    1    2    0    0  0.41029934259E+02  0.14357037864E+02 -0.13853183462E+03  0.17194589717E+03  0.92112660964E+02 0.  0.
          5    1    1    2  502    0 -0.63891886938E+02 -0.11483304337E+02 -0.14860126489E+02  0.66725821496E+02  0.41800000000E+01 0. -1.
         -5    1    1    2    0  502  0.22861952679E+02 -0.28737335271E+01 -0.12007721926E+03  0.12233943849E+03  0.41800000000E+01 0. -1.
        -11    1    3    3    0    0 -0.15585644453E+02 -0.14478215577E+02 -0.88655193477E+02  0.91171675260E+02  0.00000000000E+00 0. -1.
         11    1    3    3    0    0  0.56615578712E+02  0.28835253441E+02 -0.49876641141E+02  0.80774221911E+02  0.00000000000E+00 0.  1.
</event>
<event>
 7    1  0.6584658E-006  0.9973623E+02  0.7561462E-02  0.1280852E+00
         -1   -1    0    0    0  501 -0.00000000000E+00  0.00000000000E+00  0.51713301224E+03  0.51713301224E+03  0.00000000000E+00 0.  1.
          1   -1    0    0  501    0  0.00000000000E+00 -0.00000000000E+00 -0.29251370814E+02  0.29251370814E+02  0.00000000000E+00 0. -1.
         23    2    1    2    0    0 -0.61526524512E+01 -0.55055999966E+01  0.79378105361E+02  0.11907817948E+03  0.88377386549E+02 0.  0.
          5    1    1    2  502    0  0.64046292575E+02 -0.10763969707E+02  0.21292496397E+03  0.22264838495E+03  0.41800000000E+01 0. -1.
         -5    1    1    2    0  502 -0.57893640124E+02  0.16269569704E+02  0.19557857209E+03  0.20465781863E+03  0.41800000000E+01 0. -1.
        -11    1    3    3    0    0  0.33762045213E+02  0.39081750141E+00  0.45556791300E+01  0.34070260457E+02  0.00000000000E+00 0. -1.
         11    1    3    3    0    0 -0.39914697664E+02 -0.58964174980E+01  0.74822426231E+02  0.85007919020E+02  0.00000000000E+00 0.  1.
</event>
<event>
 7    1  0.6584658E-006  0.3006374E+03  0.7561462E-02  0.1084922E+00
         -1   -1    0    0    0  501 -0.00000000000E+00  0.00000000000E+00  0.40858640311E+03  0.40858640311E+03  0.00000000000E+00 0.  1.
          1   -1    0    0  501    0  0.00000000000E+00 -0.00000000000E+00 -0.22329673020E+03  0.22329673020E+03  0.00000000000E+00 0. -1.
         23    2    1    2    0    0  0.25125478717E+03 -0.12773549130E+03  0.86501152199E+02  0.30807259466E+03  0.89336165314E+02 0.  0.
          5    1    1    2  502    0 -0.14899129189E+03  0.93826843546E+01  0.69071400962E+02  0.16454412982E+03  0.41800000000E+01 0. -1.
         -5    1    1    2    0  502 -0.10226349527E+03  0.11835280695E+03  0.29717119747E+02  0.15926640884E+03  0.41800000000E+01 0. -1.
        -11    1    3    3    0    0  0.12957802155E+03 -0.11476595271E+03  0.56503257478E+02  0.18208323832E+03  0.00000000000E+00 0. -1.
         11    1    3    3    0    0  0.12167676562E+03 -0.12969538589E+02  0.29997894721E+02  0.12598935634E+03  0.00000000000E+00 0.  1.
</event>
<event>
 7    1  0.6584658E-006  0.8601830E+02  0.7561462E-02  0.1312791E+00
         -2   -1    0    0    0  501 -0.00000000000E+00  0.00000000000E+00  0.17151896865E+04  0.17151896865E+04  0.00000000000E+00 0.  1.
          2   -1    0    0  501    0  0.00000000000E+00 -0.00000000000E+00 -0.11921199409E+02  0.11921199409E+02  0.00000000000E+00 0. -1.
         23    2    1    2    0    0 -0.33768554408E+02 -0.28792079808E+01  0.25245142747E+03  0.27051737528E+03  0.91100614672E+02 0.  0.
          5    1    1    2  502    0 -0.23507427585E+02 -0.29643560990E+01  0.60929198855E+02  0.65507451727E+02  0.41800000000E+01 0.  1.
         -5    1    1    2    0  502  0.57275981994E+02  0.58435640798E+01  0.13898878608E+04  0.13910860589E+04  0.41800000000E+01 0.  1.
        -11    1    3    3    0    0 -0.21421913225E+02 -0.43126451317E+02  0.83404508145E+02  0.96307326555E+02  0.00000000000E+00 0.  1.
         11    1    3    3    0    0 -0.12346641183E+02  0.40247243336E+02  0.16904691932E+03  0.17421004873E+03  0.00000000000E+00 0. -1.
</event>
<event>
 7    1  0.6584658E-006  0.9991985E+02  0.7561462E-02  0.1280465E+00
         -2   -1    0    0    0  501 -0.00000000000E+00  0.00000000000E+00  0.19574220538E+03  0.19574220538E+03  0.00000000000E+00 0. -1.
          2   -1    0    0  501    0  0.00000000000E+00 -0.00000000000E+00 -0.92138167514E+02  0.92138167514E+02  0.00000000000E+00 0.  1.
         23    2    1    2    0    0 -0.41666274966E+02 -0.45866523371E+02 -0.52995725347E+01  0.11082888675E+03  0.91734073459E+02 0.  0.
          5    1    1    2  502    0  0.77789640804E+01  0.62681839630E+02  0.17344658585E+01  0.63324608751E+02  0.41800000000E+01 0.  1.
         -5    1    1    2    0  502  0.33887310886E+02 -0.16815316260E+02  0.10716914454E+03  0.11372687739E+03  0.41800000000E+01 0.  1.
        -11    1    3    3    0    0 -0.54436950320E+01  0.21398806496E+02 -0.23548625551E+02  0.32281271666E+02  0.00000000000E+00 0.  1.
         11    1    3    3    0    0 -0.36222579934E+02 -0.67265329867E+02  0.18249053016E+02  0.78547615083E+02  0.00000000000E+00 0. -1.
</event>
<event>
 7    1  0.1261349E-005  0.1986290E+03  0.7561462E-02  0.1150901E+00
         -1   -1    0    0    0  501 -0.00000000000E+00  0.00000000000E+00  0.12626736630E+03  0.12626736630E+03  0.00000000000E+00 0.  1.
          1   -1    0    0  501    0  0.00000000000E+00 -0.00000000000E+00 -0.35488694567E+03  0.35488694567E+03  0.00000000000E+00 0. -1.
         23    2    1    2    0    0  0.14268685379E+03  0.11195894298E+03 -0.11645392896E+03  0.23392421131E+03  0.90910262941E+02 0.  0.
          5    1    1    2  502    0 -0.12532457206E+03 -0.49539318991E+02 -0.22752022403E+02  0.13673155968E+03  0.41800000000E+01 0.  1.
         -5    1    1    2    0  502 -0.17362281728E+02 -0.62419623989E+02 -0.89413628004E+02  0.11049854098E+03  0.41800000000E+01 0.  1.
        -11    1    3    3    0    0  0.51375764862E+02  0.89941579933E+02 -0.87621554886E+02  0.13567053437E+03  0.00000000000E+00 0. -1.
         11    1    3    3    0    0  0.91311088929E+02  0.22017363047E+02 -0.28832374077E+02  0.98253676938E+02  0.00000000000E+00 0.  1.
</event>
<event>
 7    1  0.6584658E-006  0.1750300E+03  0.7561462E-02  0.1172702E+00
          1   -1    0    0  501    0  0.00000000000E+00  0.00000000000E+00  0.22269900345E+03  0.22269900345E+03  0.00000000000E+00 0. -1.
         -1   -1    0    0    0  501 -0.00000000000E+00 -0.00000000000E+00 -0.16847680727E+03  0.16847680727E+03  0.00000000000E+00 0.  1.
         23    2    1    2    0    0 -0.15428354032E+03 -0.25927641231E+02  0.54438084861E+02  0.19086678886E+03  0.94820739362E+02 0.  0.
          5    1    1    2  502    0  0.98145396582E+02 -0.13178664437E+02  0.54041262565E+02  0.11288988673E+03  0.41800000000E+01 0. -1.
         -5    1    1    2    0  502  0.56138143737E+02  0.39106305667E+02 -0.54257151242E+02  0.87419135126E+02  0.41800000000E+01 0. -1.
        -11    1    3    3    0    0 -0.60656310958E+02  0.35633601188E+02  0.13915900758E+02  0.71711881070E+02  0.00000000000E+00 0. -1.
         11    1    3    3    0    0 -0.93627229360E+02 -0.61561242419E+02  0.40522184103E+02  0.11915490779E+03  0.00000000000E+00 0.  1.
</event>
<event>
 7    1  0.6584658E-006  0.9275682E+02  0.7561462E-02  0.1296310E+00
         -3   -1    0    0    0  501 -0.00000000000E+00  0.00000000000E+00  0.14471142628E+03  0.14471142628E+03  0.00000000000E+00 0.  1.
          3   -1    0    0  501    0  0.00000000000E+00 -0.00000000000E+00 -0.11563862258E+03  0.11563862258E+03  0.00000000000E+00 0. -1.
         23    2    1    2    0    0  0.28480269780E+02  0.23710323835E+02 -0.46635160280E+02  0.10951177767E+03  0.91894972937E+02 0.  0.
          5    1    1    2  502    0 -0.42091683072E+02  0.36279072029E+02  0.69187446462E+02  0.88838370083E+02  0.41800000000E+01 0.  1.
         -5    1    1    2    0  502  0.13611413292E+02 -0.59989395864E+02  0.65205175143E+01  0.61999901102E+02  0.41800000000E+01 0.  1.
        -11    1    3    3    0    0 -0.10613925570E+02  0.26889637709E+02 -0.61189971543E+02  0.67675111005E+02  0.00000000000E+00 0. -1.
         11    1    3    3    0    0  0.39094195350E+02 -0.31793138734E+01  0.14554811263E+02  0.41836666666E+02  0.00000000000E+00 0.  1.
</event>
<event>
 7    1  0.6584658E-006  0.9948611E+02  0.7561462E-02  0.1281380E+00
         -2   -1    0    0    0  501 -0.00000000000E+00  0.00000000000E+00  0.13295293820E+03  0.13295293820E+03  0.00000000000E+00 0.  1.
          2   -1    0    0  501    0  0.00000000000E+00 -0.00000000000E+00 -0.15632226267E+03  0.15632226267E+03  0.00000000000E+00 0. -1.
         23    2    1    2    0    0 -0.25148662941E+02  0.18132465623E+02 -0.96835230500E+02  0.13860827901E+03  0.94201653849E+02 0.  0.
          5    1    1    2  502    0 -0.41557789442E+02 -0.38876104932E+02  0.13807947660E+02  0.58707181984E+02  0.41800000000E+01 0. -1.
         -5    1    1    2    0  502  0.66706452383E+02  0.20743639309E+02  0.59657958372E+02  0.91959739878E+02  0.41800000000E+01 0.  1.
        -11    1    3    3    0    0 -0.44731991097E+02  0.24917973511E+02 -0.10461244869E+03  0.11647154525E+03  0.00000000000E+00 0. -1.
         11    1    3    3    0    0  0.19583328156E+02 -0.67855078883E+01  0.77772181920E+01  0.22136733764E+02  0.00000000000E+00 0.  1.
</event>
<event>
 7    1  0.6584658E-006  0.1121137E+03  0.7561462E-02  0.1256705E+00
         -2   -1    0    0    0  501 -0.00000000000E+00  0.00000000000E+00  0.13957102060E+03  0.13957102060E+03  0.00000000000E+00 0.  1.
          2   -1    0    0  501    0  0.00000000000E+00 -0.00000000000E+00 -0.15366137129E+03  0.15366137129E+03  0.00000000000E+00 0. -1.
         23    2    1    2    0    0  0.41419163756E+02 -0.50996057126E+02 -0.78829578499E+02  0.13781664432E+03  0.91995543562E+02 0.  0.
          5    1    1    2  502    0 -0.58429682252E+02 -0.23057119671E+02  0.43128736163E+02  0.76310017813E+02  0.41800000000E+01 0.  1.
         -5    1    1    2    0  502  0.17010518495E+02  0.74053176797E+02  0.21610491645E+02  0.79105729770E+02  0.41800000000E+01 0.  1.
        -11    1    3    3    0    0 -0.45521745003E+01 -0.36776220457E+02  0.85797001673E+01  0.38037138940E+02  0.00000000000E+00 0.  1.
         11    1    3    3    0    0  0.45971338257E+02 -0.14219836669E+02 -0.87409278667E+02  0.99779505376E+02  0.00000000000E+00 0. -1.
</event>
<event>
 7    1  0.6584658E-006  0.1724093E+03  0.7561462E-02  0.1175358E+00
          2   -1    0    0  501    0  0.00000000000E+00  0.00000000000E+00  0.12430605591E+04  0.12430605591E+04  0.00000000000E+00 0. -1.
         -2   -1    0    0    0  501 -0.00000000000E+00 -0.00000000000E+00 -0.32157798406E+02  0.32157798406E+02  0.00000000000E+00 0.  1.
         23    2    1    2    0    0  0.31341824132E+02 -0.16188645876E+03  0.67612656004E+03  0.70178803034E+03  0.90386829041E+02 0.  0.
          5    1    1    2  502    0 -0.26441944917E+02  0.55985743004E+02  0.38449895230E+03  0.38947464178E+03  0.41800000000E+01 0. -1.
         -5    1    1    2    0  502 -0.48998792152E+01  0.10590071576E+03  0.15027724838E+03  0.18395568541E+03  0.41800000000E+01 0. -1.
        -11    1    3    3    0    0  0.40764522396E+02 -0.50586658311E+02  0.37555482121E+03  0.38113275905E+03  0.00000000000E+00 0. -1.
         11    1    3    3    0    0 -0.94226982637E+01 -0.11129980045E+03  0.30057173883E+03  0.32065527129E+03  0.00000000000E+00 0.  1.
</event>
<event>
 7    1  0.6584658E-006  0.1215938E+03  0.7561462E-02  0.1240491E+00
          1   -1    0    0  501    0  0.00000000000E+00  0.00000000000E+00  0.39553978102E+02  0.39553978102E+02  0.00000000000E+00 0. -1.
         -1   -1    0    0    0  501 -0.00000000000E+00 -0.00000000000E+00 -0.45307213271E+03  0.45307213271E+03  0.00000000000E+00 0.  1.
         23    2    1    2    0    0 -0.47787302100E+01  0.78435765584E+02 -0.17192972845E+03  0.20945163129E+03  0.90195059392E+02 0.  0.
          5    1    1    2  502    0 -0.31200528196E+02  0.23521268795E+02 -0.57563566644E+02  0.69697630162E+02  0.41800000000E+01 0.  1.
         -5    1    1    2    0  502  0.35979258406E+02 -0.10195703438E+03 -0.18402485951E+03  0.21347684936E+03  0.41800000000E+01 0.  1.
        -11    1    3    3    0    0 -0.28729972588E+02  0.29335007273E+02 -0.14060378912E+03  0.14647654928E+03  0.00000000000E+00 0.  1.
         11    1    3    3    0    0  0.23951242378E+02  0.49100758311E+02 -0.31325939336E+02  0.62975082004E+02  0.00000000000E+00 0. -1.
</event>
<event>
 7    1  0.6584658E-006  0.1023387E+03  0.7561462E-02  0.1275453E+00
         -4   -1    0    0    0  501 -0.00000000000E+00  0.00000000000E+00  0.22570820737E+03  0.22570820737E+03  0.00000000000E+00 0.  1.
          4   -1    0    0  501    0  0.00000000000E+00 -0.00000000000E+00 -0.60089423781E+02  0.60089423781E+02  0.00000000000E+00 0. -1.
         23    2    1    2    0    0 -0.29155901001E+02 -0.80415155196E+01  0.35117251569E+02  0.10252337334E+03  0.91449921746E+02 0.  0.
          5    1    1    2  502    0  0.44722400921E+02  0.48054762884E+02  0.12300727962E+03  0.13949056104E+03  0.41800000000E+01 0. -1.
         -5    1    1    2    0  502 -0.15566499920E+02 -0.40013247365E+02  0.74942524036E+01  0.43783696778E+02  0.41800000000E+01 0. -1.
        -11    1    3    3    0    0  0.19774161560E+02  0.28502869174E+02  0.74684599413E+01  0.35485333737E+02  0.00000000000E+00 0.  1.
         11    1    3    3    0    0 -0.48930062560E+02 -0.36544384693E+02  0.27648791628E+02  0.67038039599E+02  0.00000000000E+00 0. -1.
</event>
<event>
 7    1  0.6584658E-006  0.1364832E+03  0.7561462E-02  0.1218141E+00
          1   -1    0    0  501    0  0.00000000000E+00  0.00000000000E+00  0.87390947379E+02  0.87390947379E+02  0.00000000000E+00 0. -1.
         -1   -1    0    0    0  501 -0.00000000000E+00 -0.00000000000E+00 -0.30142643074E+03  0.30142643074E+03  0.00000000000E+00 0.  1.
         23    2    1    2    0    0 -0.32210307924E+02  0.10241920906E+03 -0.33117167087E+02  0.14405976243E+03  0.90162464882E+02 0.  0.
          5    1    1    2  502    0  0.80116211423E+02 -0.67352382785E+02 -0.10530584327E+03  0.14853196230E+03  0.41800000000E+01 0.  1.
         -5    1    1    2    0  502 -0.47905903499E+02 -0.35066826278E+02 -0.75612473007E+02  0.96225653386E+02  0.41800000000E+01 0.  1.
        -11    1    3    3    0    0 -0.13898183557E+02  0.70894475303E+02 -0.63820262180E+02  0.96396120250E+02  0.00000000000E+00 0.  1.
         11    1    3    3    0    0 -0.18312124366E+02  0.31524733760E+02  0.30703095093E+02  0.47663642179E+02  0.00000000000E+00 0. -1.
</event>
<event>
 7    1  0.6584658E-006  0.1516451E+03  0.7561462E-02  0.1198466E+00
         -1   -1    0    0    0  501 -0.00000000000E+00  0.00000000000E+00  0.51051082357E+03  0.51051082357E+03  0.00000000000E+00 0.  1.
          1   -1    0    0  501    0  0.00000000000E+00 -0.00000000000E+00 -0.79096894434E+02  0.79096894434E+02  0.00000000000E+00 0. -1.
         23    2    1    2    0    0 -0.11487158511E+03  0.22487865012E+02  0.26932205777E+02  0.15032578046E+03  0.90395306429E+02 0.  0.
          5    1    1    2  502    0 -0.23278135479E+02 -0.23144099404E+02  0.82465080283E+02  0.88856529275E+02  0.41800000000E+01 0. -1.
         -5    1    1    2    0  502  0.13814972059E+03  0.65623439178E+00  0.32201664307E+03  0.35042540827E+03  0.41800000000E+01 0. -1.
        -11    1    3    3    0    0 -0.86309335819E+02  0.43379605469E+02  0.49311189478E+02  0.10845591283E+03  0.00000000000E+00 0.  1.
         11    1    3    3    0    0 -0.28562249292E+02 -0.20891740456E+02 -0.22378983701E+02  0.41869867630E+02  0.00000000000E+00 0. -1.
</event>
<event>
 7    1  0.6584658E-006  0.1139061E+03  0.7561462E-02  0.1253503E+00
          1   -1    0    0  501    0  0.00000000000E+00  0.00000000000E+00  0.87126871193E+02  0.87126871193E+02  0.00000000000E+00 0. -1.
         -1   -1    0    0    0  501 -0.00000000000E+00 -0.00000000000E+00 -0.15083158515E+03  0.15083158515E+03  0.00000000000E+00 0.  1.
         23    2    1    2    0    0 -0.33295101948E+02  0.15364964423E+02 -0.37718189415E+02  0.10503941611E+03  0.90917386557E+02 0.  0.
          5    1    1    2  502    0  0.55126398018E+02  0.41494310879E+02 -0.17282693314E+02  0.71252098088E+02  0.41800000000E+01 0. -1.
         -5    1    1    2    0  502 -0.21831296069E+02 -0.56859275302E+02 -0.87038312313E+01  0.61666942149E+02  0.41800000000E+01 0. -1.
        -11    1    3    3    0    0  0.21188948806E+02  0.33994328691E+02 -0.20138730088E+02  0.44834745279E+02  0.00000000000E+00 0.  1.
         11    1    3    3    0    0 -0.54484050754E+02 -0.18629364268E+02 -0.17579459326E+02  0.60204670831E+02  0.00000000000E+00 0. -1.
</event>
<event>
 7    1  0.6584658E-006  0.8683410E+02  0.7561462E-02  0.1310705E+00
          3   -1    0    0  501    0  0.00000000000E+00  0.00000000000E+00  0.44449510570E+03  0.44449510570E+03  0.00000000000E+00 0. -1.
         -3   -1    0    0    0  501 -0.00000000000E+00 -0.00000000000E+00 -0.32914036608E+02  0.32914036608E+02  0.00000000000E+00 0.  1.
         23    2    1    2    0    0 -0.10192493568E+02 -0.21260066045E+02  0.27625995595E+03  0.29164383724E+03  0.90447151456E+02 0.  0.
          5    1    1    2  502    0 -0.12228271992E+02 -0.36534241238E+02  0.21485420947E+01  0.38811983354E+02  0.41800000000E+01 0. -1.
         -5    1    1    2    0  502  0.22420765560E+02  0.57794307284E+02  0.13317257105E+03  0.14695332172E+03  0.41800000000E+01 0. -1.
        -11    1    3    3    0    0 -0.76763298650E+01 -0.46646164587E+02  0.25214902377E+03  0.25654223999E+03  0.00000000000E+00 0. -1.
         11    1    3    3    0    0 -0.25161637032E+01  0.25386098542E+02  0.24110932174E+02  0.35101597247E+02  0.00000000000E+00 0.  1.
</event>
<event>
 7    1  0.6584658E-006  0.1183956E+03  0.7561462E-02  0.1245767E+00
          2   -1    0    0  501    0  0.00000000000E+00  0.00000000000E+00  0.24405901590E+03  0.24405901590E+03  0.00000000000E+00 0. -1.
         -2   -1    0    0    0  501 -0.00000000000E+00 -0.00000000000E+00 -0.77849900469E+02  0.77849900469E+02  0.00000000000E+00 0.  1.
         23    2    1    2    0    0  0.72453584741E+01  0.66930974915E+02  0.14096120511E+03  0.17762845955E+03  0.84555057038E+02 0.  0.
          5    1    1    2  502    0  0.50315985988E+02 -0.16319459877E+02 -0.18175784964E+02  0.56087920051E+02  0.41800000000E+01 0. -1.
         -5    1    1    2    0  502 -0.57561344462E+02 -0.50611515038E+02  0.43423695283E+02  0.88192536775E+02  0.41800000000E+01 0. -1.
        -11    1    3    3    0    0 -0.24423355672E+02 -0.79351154776E+01  0.45496653691E+02  0.52243773380E+02  0.00000000000E+00 0.  1.
         11    1    3    3    0    0  0.31668714146E+02  0.74866090393E+02  0.95464551423E+02  0.12538468617E+03  0.00000000000E+00 0. -1.
</event>
<event>
 7    1  0.6584658E-006  0.1230149E+03  0.7561462E-02  0.1238205E+00
          1   -1    0    0  501    0  0.00000000000E+00  0.00000000000E+00  0.35760667304E+02  0.35760667304E+02  0.00000000000E+00 0. -1.
         -1   -1    0    0    0  501 -0.00000000000E+00 -0.00000000000E+00 -0.46833535337E+03  0.46833535337E+03  0.00000000000E+00 0.  1.
         23    2    1    2    0    0 -0.30663331010E+02 -0.17684288022E+02 -0.20040998610E+03  0.23801116448E+03  0.12341871000E+03 0.  0.
          5    1    1    2  502    0 -0.16575451296E+02 -0.42476061373E+02 -0.13375210695E+03  0.14137206191E+03  0.41800000000E+01 0.  1.
         -5    1    1    2    0  502  0.47238782305E+02  0.60160349395E+02 -0.98412593014E+02  0.12471279428E+03  0.41800000000E+01 0.  1.
        -11    1    3    3    0    0  0.18561820007E+02 -0.57439780769E+02 -0.13009983655E+03  0.14342188483E+03  0.00000000000E+00 0.  1.
         11    1    3    3    0    0 -0.49225151016E+02  0.39755492747E+02 -0.70310149551E+02  0.94589279657E+02  0.00000000000E+00 0. -1.
</event>
<event>
 7    1  0.6584658E-006  0.1607430E+03  0.7561462E-02  0.1187861E+00
         -1   -1    0    0    0  501 -0.00000000000E+00  0.00000000000E+00  0.28616016819E+02  0.28616016819E+02  0.00000000000E+00 0.  1.
          1   -1    0    0  501    0  0.00000000000E+00 -0.00000000000E+00 -0.92547935332E+03  0.92547935332E+03  0.00000000000E+00 0. -1.
         23    2    1    2    0    0  0.87233702272E+02  0.82318580438E+02 -0.44776525279E+03  0.47271854096E+03  0.92644642930E+02 0.  0.
          5    1    1    2  502    0  0.11255971212E+01 -0.83099523022E+02 -0.18488264266E+03  0.20274580551E+03  0.41800000000E+01 0. -1.
         -5    1    1    2    0  502 -0.88359299393E+02  0.78094258375E+00 -0.26421544105E+03  0.27863102367E+03  0.41800000000E+01 0. -1.
        -11    1    3    3    0    0  0.10533496045E+03  0.60539156815E+02 -0.33174276964E+03  0.35328983655E+03  0.00000000000E+00 0. -1.
         11    1    3    3    0    0 -0.18101258176E+02  0.21779423624E+02 -0.11602248315E+03  0.11942870441E+03  0.00000000000E+00 0.  1.
</event>
<event>
 7    1  0.6584658E-006  0.7525508E+02  0.7561462E-02  0.1343083E+00
         -2   -1    0    0    0  501 -0.00000000000E+00  0.00000000000E+00  0.15609877131E+03  0.15609877131E+03  0.00000000000E+00 0.  1.
          2   -1    0    0  501    0  0.00000000000E+00 -0.00000000000E+00 -0.76008491177E+02  0.76008491177E+02  0.00000000000E+00 0. -1.
         23    2    1    2    0    0  0.49773304558E+01  0.14969455052E+02  0.22029445744E+02  0.93297940856E+02  0.89276821657E+02 0.  0.
          5    1    1    2  502    0  0.19037440628E+02 -0.31023330933E+02  0.89017590617E+02  0.96262531897E+02  0.41800000000E+01 0. -1.
         -5    1    1    2    0  502 -0.24014771084E+02  0.16053875881E+02 -0.30956756225E+02  0.42546789737E+02  0.41800000000E+01 0. -1.
        -11    1    3    3    0    0 -0.32035960798E+02  0.30788774437E+02 -0.51482744656E+01  0.44729812716E+02  0.00000000000E+00 0. -1.
         11    1    3    3    0    0  0.37013291254E+02 -0.15819319385E+02  0.27177720209E+02  0.48568128140E+02  0.00000000000E+00 0.  1.
</event>
<event>
 7    1  0.6584658E-006  0.1119365E+03  0.7561462E-02  0.1257025E+00
          1   -1    0    0  501    0  0.00000000000E+00  0.00000000000E+00  0.10942892907E+03  0.10942892907E+03  0.00000000000E+00 0. -1.
         -1   -1    0    0    0  501 -0.00000000000E+00 -0.00000000000E+00 -0.20054307106E+03  0.20054307106E+03  0.00000000000E+00 0.  1.
         23    2    1    2    0    0  0.18390106399E+02  0.98483508848E+02 -0.24528301688E+02  0.13642495298E+03  0.89291279998E+02 0.  0.
          5    1    1    2  502    0 -0.35353951710E+01 -0.83342805456E+02 -0.10213662687E+03  0.13193894493E+03  0.41800000000E+01 0.  1.
         -5    1    1    2    0  502 -0.14854711228E+02 -0.15140703392E+02  0.35550786563E+02  0.41608102218E+02  0.41800000000E+01 0.  1.
        -11    1    3    3    0    0  0.39751248849E+02  0.39671047013E+02 -0.43504257301E+02  0.71039243799E+02  0.00000000000E+00 0.  1.
         11    1    3    3    0    0 -0.21361142450E+02  0.58812461835E+02  0.18975955613E+02  0.65385709183E+02  0.00000000000E+00 0. -1.
</event>
<event>
 7    1  0.6584658E-006  0.1215393E+03  0.7561462E-02  0.1240579E+00
         -2   -1    0    0    0  501 -0.00000000000E+00  0.00000000000E+00  0.41141748446E+02  0.41141748446E+02  0.00000000000E+00 0.  1.
          2   -1    0    0  501    0  0.00000000000E+00 -0.00000000000E+00 -0.47764151025E+03  0.47764151025E+03  0.00000000000E+00 0. -1.
         23    2    1    2    0    0 -0.12271928128E+02 -0.54017205877E+02 -0.30135289007E+03  0.32647031355E+03  0.11269801471E+03 0.  0.
          5    1    1    2  502    0 -0.41852665565E+02  0.63864141724E+02 -0.10357678481E+03  0.12874741537E+03  0.41800000000E+01 0.  1.
         -5    1    1    2    0  502  0.54124593693E+02 -0.98469358475E+01 -0.31570086918E+02  0.63565529779E+02  0.41800000000E+01 0.  1.
        -11    1    3    3    0    0  0.43855493856E+01  0.27696837551E+02 -0.15928340476E+03  0.16173296166E+03  0.00000000000E+00 0. -1.
         11    1    3    3    0    0 -0.16657477514E+02 -0.81714043428E+02 -0.14206948531E+03  0.16473735189E+03  0.00000000000E+00 0.  1.
</event>
<event>
 7    1  0.7260424E-006  0.1655514E+03  0.7561462E-02  0.1182568E+00
         -2   -1    0    0    0  501 -0.00000000000E+00  0.00000000000E+00  0.64650856103E+02  0.64650856103E+02  0.00000000000E+00 0.  1.
          2   -1    0    0  501    0  0.00000000000E+00 -0.00000000000E+00 -0.54202138174E+03  0.54202138174E+03  0.00000000000E+00 0. -1.
         23    2    1    2    0    0  0.14912251529E+03 -0.24269202247E+02 -0.26665832187E+03  0.31879428714E+03  0.87730371855E+02 0.  0.
          5    1    1    2  502    0 -0.71562812732E+02 -0.35686980729E+02 -0.15645055546E+03  0.17575279646E+03  0.41800000000E+01 0. -1.
         -5    1    1    2    0  502 -0.77559702556E+02  0.59956182976E+02 -0.54261648307E+02  0.11212515425E+03  0.41800000000E+01 0. -1.
        -11    1    3    3    0    0  0.95819318884E+02 -0.40785157654E+01 -0.84141920990E+02  0.12758463477E+03  0.00000000000E+00 0.  1.
         11    1    3    3    0    0  0.53303196404E+02 -0.20190686482E+02 -0.18251640088E+03  0.19120965236E+03  0.00000000000E+00 0. -1.
</event>
<event>
 7    1  0.6584658E-006  0.9739471E+02  0.7561462E-02  0.1285872E+00
          3   -1    0    0  501    0  0.00000000000E+00  0.00000000000E+00  0.58515915615E+02  0.58515915615E+02  0.00000000000E+00 0. -1.
         -3   -1    0    0    0  501 -0.00000000000E+00 -0.00000000000E+00 -0.29125387576E+03  0.29125387576E+03  0.00000000000E+00 0.  1.
         23    2    1    2    0    0 -0.61685151421E+02  0.27239950099E+02 -0.60602654768E+02  0.12654165058E+03  0.88278167059E+02 0.  0.
          5    1    1    2  502    0  0.40167985275E+02  0.32765186896E+02 -0.15812333452E+02  0.54355559077E+02  0.41800000000E+01 0.  1.
         -5    1    1    2    0  502  0.21517166146E+02 -0.60005136995E+02 -0.15632297192E+03  0.16887258172E+03  0.41800000000E+01 0.  1.
        -11    1    3    3    0    0 -0.46205174637E+02 -0.15307386203E+01  0.11276558735E+02  0.47585944362E+02  0.00000000000E+00 0. -1.
         11    1    3    3    0    0 -0.15479976784E+02  0.28770688719E+02 -0.71879213502E+02  0.78955706218E+02  0.00000000000E+00 0.  1.
</event>
<event>
 7    1  0.6584658E-006  0.9742530E+02  0.7561462E-02  0.1285805E+00
          1   -1    0    0  501    0  0.00000000000E+00  0.00000000000E+00  0.81670084906E+02  0.81670084906E+02  0.00000000000E+00 0. -1.
         -1   -1    0    0    0  501 -0.00000000000E+00 -0.00000000000E+00 -0.24806597661E+03  0.24806597661E+03  0.00000000000E+00 0.  1.
         23    2    1    2    0    0  0.17778011100E+02 -0.29854092691E+02  0.19243339315E+02  0.10568922680E+03  0.97941727697E+02 0.  0.
          5    1    1    2  502    0  0.82492021852E+01 -0.44101043910E+02 -0.86990352584E+02  0.97968082830E+02  0.41800000000E+01 0. -1.
         -5    1    1    2    0  502 -0.26027213285E+02  0.73955136601E+02 -0.98648878439E+02  0.12607875189E+03  0.41800000000E+01 0.  1.
        -11    1    3    3    0    0  0.34203985078E+02  0.32139239235E+01 -0.28985862656E+02  0.44949106066E+02  0.00000000000E+00 0.  1.
         11    1    3    3    0    0 -0.16425973978E+02 -0.33068016615E+02  0.48229201971E+02  0.60740120734E+02  0.00000000000E+00 0. -1.
</event>
<event>
 7    1  0.6584658E-006  0.1281513E+03  0.7561462E-02  0.1230225E+00
          2   -1    0    0  501    0  0.00000000000E+00  0.00000000000E+00  0.19338762620E+03  0.19338762620E+03  0.00000000000E+00 0. -1.
         -2   -1    0    0    0  501 -0.00000000000E+00 -0.00000000000E+00 -0.96456033580E+02  0.96456033580E+02  0.00000000000E+00 0.  1.
         23    2    1    2    0    0  0.77724289668E+02  0.59826919054E+01  0.82739004992E+02  0.14827741794E+03  0.95202898688E+02 0.  0.
          5    1    1    2  502    0 -0.92404119964E+02 -0.37530343479E+02 -0.79054709879E+01  0.10013499358E+03  0.41800000000E+01 0. -1.
         -5    1    1    2    0  502  0.14679830296E+02  0.31547651573E+02  0.22098058616E+02  0.41431248254E+02  0.41800000000E+01 0.  1.
        -11    1    3    3    0    0 -0.12742102346E+02  0.25842792713E+02  0.30426865907E+02  0.41904716636E+02  0.00000000000E+00 0. -1.
         11    1    3    3    0    0  0.90466392014E+02 -0.19860100808E+02  0.52312139085E+02  0.10637270131E+03  0.00000000000E+00 0.  1.
</event>
<event>
 7    1  0.6584658E-006  0.9878050E+02  0.7561462E-02  0.1282881E+00
          2   -1    0    0  501    0  0.00000000000E+00  0.00000000000E+00  0.28248620765E+02  0.28248620765E+02  0.00000000000E+00 0. -1.
         -2   -1    0    0    0  501 -0.00000000000E+00 -0.00000000000E+00 -0.57325518378E+03  0.57325518378E+03  0.00000000000E+00 0.  1.
         23    2    1    2    0    0 -0.13038304769E+02 -0.43422140949E+02 -0.12857124460E+03  0.16432953594E+03  0.91750486246E+02 0.  0.
          5    1    1    2  502    0 -0.21513096348E+02 -0.15767973684E+02 -0.30562036966E+03  0.30681056869E+03  0.41800000000E+01 0.  1.
         -5    1    1    2    0  502  0.34551401117E+02  0.59190114633E+02 -0.11081494875E+03  0.13036369992E+03  0.41800000000E+01 0.  1.
        -11    1    3    3    0    0  0.83052012030E+00 -0.71013179407E+02 -0.82370949219E+02  0.10875906715E+03  0.00000000000E+00 0. -1.
         11    1    3    3    0    0 -0.13868824889E+02  0.27591038458E+02 -0.46200295383E+02  0.55570468780E+02  0.00000000000E+00 0.  1.
</event>
<event>
 7    1  0.6584658E-006  0.1269141E+03  0.7561462E-02  0.1232108E+00
         -2   -1    0    0    0  501 -0.00000000000E+00  0.00000000000E+00  0.77847589549E+03  0.77847589549E+03  0.00000000000E+00 0.  1.
          2   -1    0    0  501    0  0.00000000000E+00 -0.00000000000E+00 -0.29930754114E+02  0.29930754114E+02  0.00000000000E+00 0. -1.
         23    2    1    2    0    0  0.44607894581E+02 -0.67140652157E+02  0.15370545037E+03  0.19523511934E+03  0.89407241988E+02 0.  0.
          5    1    1    2  502    0  0.24213325226E+02  0.61342538536E+02  0.16402103251E+03  0.17683202102E+03  0.41800000000E+01 0. -1.
         -5    1    1    2    0  502 -0.68821219807E+02  0.57981136213E+01  0.43081865850E+03  0.43633950925E+03  0.41800000000E+01 0. -1.
        -11    1    3    3    0    0  0.66537846928E+02 -0.25053780146E+02  0.10831659383E+03  0.12956643652E+03  0.00000000000E+00 0. -1.
         11    1    3    3    0    0 -0.21929952347E+02 -0.42086872011E+02  0.45388856540E+02  0.65668682822E+02  0.00000000000E+00 0.  1.
</event>
<event>
 7    1  0.6584658E-006  0.2198517E+03  0.7561462E-02  0.1133994E+00
         -1   -1    0    0    0  501 -0.00000000000E+00  0.00000000000E+00  0.48826125065E+02  0.48826125065E+02  0.00000000000E+00 0. -1.
          1   -1    0    0  501    0  0.00000000000E+00 -0.00000000000E+00 -0.11104333965E+04  0.11104333965E+04  0.00000000000E+00 0.  1.
         23    2    1    2    0    0 -0.98320349222E+02 -0.17666808037E+03 -0.60629773544E+03  0.64561224103E+03  0.91322067859E+02 0.  0.
          5    1    1    2  502    0 -0.20650834953E+02  0.23755777238E+02 -0.21011864233E+02  0.38075776748E+02  0.41800000000E+01 0.  1.
         -5    1    1    2    0  502  0.11897118417E+03  0.15291230313E+03 -0.43429767172E+03  0.47557150374E+03  0.41800000000E+01 0.  1.
        -11    1    3    3    0    0 -0.10534623885E+03 -0.13170549629E+03 -0.39550802879E+03  0.42996600869E+03  0.00000000000E+00 0. -1.
         11    1    3    3    0    0  0.70258896326E+01 -0.44962584072E+02 -0.21078970665E+03  0.21564623234E+03  0.00000000000E+00 0.  1.
</event>
<event>
 7    1  0.6584658E-006  0.1540127E+03  0.7561462E-02  0.1195627E+00
         -2   -1    0    0    0  501 -0.00000000000E+00  0.00000000000E+00  0.39293113419E+02  0.39293113419E+02  0.00000000000E+00 0.  1.
          2   -1    0    0  501    0  0.00000000000E+00 -0.00000000000E+00 -0.73680134058E+03  0.73680134058E+03  0.00000000000E+00 0. -1.
         23    2    1    2    0    0 -0.83441621343E+02  0.79695751869E+02 -0.46641031974E+03  0.48909608836E+03  0.91446597833E+02 0.  0.
          5    1    1    2  502    0  0.20545427403E+02 -0.94044813409E+02 -0.18159623213E+03  0.20557530357E+03  0.41800000000E+01 0. -1.
         -5    1    1    2    0  502  0.62896193940E+02  0.14349061540E+02 -0.49501675303E+02  0.81423062071E+02  0.41800000000E+01 0. -1.
        -11    1    3    3    0    0 -0.79867729127E+02  0.13823456025E+02 -0.26989114234E+03  0.28179987723E+03  0.00000000000E+00 0. -1.
         11    1    3    3    0    0 -0.35738922161E+01  0.65872295844E+02 -0.19651917739E+03  0.20729621113E+03  0.00000000000E+00 0.  1.
</event>
<event>
 7    1  0.6584658E-006  0.1386362E+03  0.7561462E-02  0.1215176E+00
         -2   -1    0    0    0  501 -0.00000000000E+00  0.00000000000E+00  0.18271060701E+02  0.18271060701E+02  0.00000000000E+00 0.  1.
          2   -1    0    0  501    0  0.00000000000E+00 -0.00000000000E+00 -0.12184169575E+04  0.12184169575E+04  0.00000000000E+00 0. -1.
         23    2    1    2    0    0 -0.80353129334E+02 -0.55163310174E+02 -0.42987249395E+03  0.45026018263E+03  0.91892626564E+02 0.  0.
          5    1    1    2  502    0 -0.63192362928E+01  0.64154825818E+02 -0.22022559538E+03  0.22950503193E+03  0.41800000000E+01 0. -1.
         -5    1    1    2    0  502  0.86672365626E+02 -0.89915156446E+01 -0.55004780748E+03  0.55692280365E+03  0.41800000000E+01 0. -1.
        -11    1    3    3    0    0 -0.78211035377E+02 -0.84439813052E+01 -0.18612212500E+03  0.20206363426E+03  0.00000000000E+00 0.  1.
         11    1    3    3    0    0 -0.21420939567E+01 -0.46719328868E+02 -0.24375036895E+03  0.24819654837E+03  0.00000000000E+00 0. -1.
</event>
<event>
 7    1  0.6584658E-006  0.1123729E+03  0.7561462E-02  0.1256238E+00
         -2   -1    0    0    0  501 -0.00000000000E+00  0.00000000000E+00  0.52414177353E+02  0.52414177353E+02  0.00000000000E+00 0.  1.
          2   -1    0    0  501    0  0.00000000000E+00 -0.00000000000E+00 -0.32049430917E+03  0.32049430917E+03  0.00000000000E+00 0. -1.
         23    2    1    2    0    0 -0.11836735078E+02  0.60801400400E+02 -0.17045257045E+03  0.20257120249E+03  0.90244638155E+02 0.  0.
          5    1    1    2  502    0 -0.37979305680E+02  0.18957063415E+01 -0.79353989740E+02  0.88093980782E+02  0.41800000000E+01 0. -1.
         -5    1    1    2    0  502  0.49816040758E+02 -0.62697106741E+02 -0.18273571630E+02  0.82243303257E+02  0.41800000000E+01 0. -1.
        -11    1    3    3    0    0  0.37419238330E+02  0.20541882586E+02 -0.93097802286E+02  0.10241762118E+03  0.00000000000E+00 0. -1.
         11    1    3    3    0    0 -0.49255973408E+02  0.40259517814E+02 -0.77354768165E+02  0.10015358131E+03  0.00000000000E+00 0.  1.
</event>
<event>
 7    1  0.6614448E-006  0.9900450E+02  0.7561462E-02  0.1282403E+00
         -1   -1    0    0    0  501 -0.00000000000E+00  0.00000000000E+00  0.13686426317E+03  0.13686426317E+03  0.00000000000E+00 0.  1.
          1   -1    0    0  501    0  0.00000000000E+00 -0.00000000000E+00 -0.12602146696E+03  0.12602146696E+03  0.00000000000E+00 0. -1.
         23    2    1    2    0    0  0.70285197365E+02 -0.11249267919E+02 -0.93062668331E+01  0.11755868966E+03  0.93096100424E+02 0.  0.
          5    1    1    2  502    0  0.78934200033E+01  0.23261932957E+02  0.53783295947E+02  0.59275112207E+02  0.41800000000E+01 0.  1.
         -5    1    1    2    0  502 -0.78178617369E+02 -0.12012665038E+02 -0.33634232910E+02  0.86051928267E+02  0.41800000000E+01 0.  1.
        -11    1    3    3    0    0  0.34016039456E+02  0.25300567643E+02  0.30708654152E+02  0.52347216767E+02  0.00000000000E+00 0.  1.
         11    1    3    3    0    0  0.36269157909E+02 -0.36549835562E+02 -0.40014920985E+02  0.65211472890E+02  0.00000000000E+00 0. -1.
</event>
<event>
 7    1  0.6584658E-006  0.1326104E+03  0.7561462E-02  0.1223633E+00
         -1   -1    0    0    0  501 -0.00000000000E+00  0.00000000000E+00  0.36918511367E+02  0.36918511367E+02  0.00000000000E+00 0.  1.
          1   -1    0    0  501    0  0.00000000000E+00 -0.00000000000E+00 -0.73786205806E+03  0.73786205806E+03  0.00000000000E+00 0. -1.
         23    2    1    2    0    0 -0.32445086657E+02  0.11055688163E+03 -0.43656650879E+03  0.46042300938E+03  0.90130589955E+02 0.  0.
          5    1    1    2  502    0  0.26119074661E+02 -0.39707405314E+02 -0.23063463186E+03  0.23551791845E+03  0.41800000000E+01 0. -1.
         -5    1    1    2    0  502  0.63260119957E+01 -0.70849476316E+02 -0.33742406048E+02  0.78839641602E+02  0.41800000000E+01 0. -1.
        -11    1    3    3    0    0 -0.52966848366E+02  0.11375913389E+03 -0.37134018817E+03  0.39196959438E+03  0.00000000000E+00 0.  1.
         11    1    3    3    0    0  0.20521761710E+02 -0.32022522645E+01 -0.65226320615E+02  0.68453414993E+02  0.00000000000E+00 0. -1.
</event>
<event>
 7    1  0.6584658E-006  0.5341874E+02  0.7561462E-02  0.1427728E+00
          1   -1    0    0  501    0  0.00000000000E+00  0.00000000000E+00  0.38041817678E+02  0.38041817678E+02  0.00000000000E+00 0. -1.
         -1   -1    0    0    0  501 -0.00000000000E+00 -0.00000000000E+00 -0.32268834087E+03  0.32268834087E+03  0.00000000000E+00 0.  1.
         23    2    1    2    0    0  0.23719397405E+02  0.83531375290E+01 -0.11833646255E+03  0.15111565216E+03  0.90554056993E+02 0.  0.
          5    1    1    2  502    0 -0.22071231809E+02 -0.28834762262E+02 -0.18058557645E+03  0.18424767464E+03  0.41800000000E+01 0. -1.
         -5    1    1    2    0  502 -0.16481655962E+01  0.20481624733E+02  0.14275515809E+02  0.25366831752E+02  0.41800000000E+01 0. -1.
        -11    1    3    3    0    0  0.20906456010E+02 -0.15040512397E+02  0.44089439172E+01  0.26129211671E+02  0.00000000000E+00 0. -1.
         11    1    3    3    0    0  0.28129413949E+01  0.23393649926E+02 -0.12274540647E+03  0.12498644049E+03  0.00000000000E+00 0.  1.
</event>
<event>
 7    1  0.6584658E-006  0.9810730E+02  0.7561462E-02  0.1284327E+00
          1   -1    0    0  501    0  0.00000000000E+00  0.00000000000E+00  0.11398579669E+03  0.11398579669E+03  0.00000000000E+00 0. -1.
         -1   -1    0    0    0  501 -0.00000000000E+00 -0.00000000000E+00 -0.12168248011E+03  0.12168248011E+03  0.00000000000E+00 0.  1.
         23    2    1    2    0    0  0.26490358496E+02 -0.76571558587E+01  0.40217214335E+02  0.10839712443E+03  0.96809819371E+02 0.  0.
          5    1    1    2  502    0  0.43610322566E+02 -0.72058888164E+01 -0.79171437609E+01  0.45099208788E+02  0.41800000000E+01 0. -1.
         -5    1    1    2    0  502 -0.70100681062E+02  0.14863044675E+02 -0.39996753990E+02  0.82171943583E+02  0.41800000000E+01 0.  1.
        -11    1    3    3    0    0 -0.16783009595E+02  0.21928965291E+02 -0.15688096755E+02  0.31759491646E+02  0.00000000000E+00 0.  1.
         11    1    3    3    0    0  0.43273368091E+02 -0.29586121149E+02  0.55905311090E+02  0.76637632784E+02  0.00000000000E+00 0. -1.
</event>
<event>
 7    1  0.6584658E-006  0.1305615E+03  0.7561462E-02  0.1226625E+00
          2   -1    0    0  501    0  0.00000000000E+00  0.00000000000E+00  0.25407867969E+03  0.25407867969E+03  0.00000000000E+00 0. -1.
         -2   -1    0    0    0  501 -0.00000000000E+00 -0.00000000000E+00 -0.84371369318E+02  0.84371369318E+02  0.00000000000E+00 0.  1.
         23    2    1    2    0    0  0.93577160993E+02  0.16064047274E+02  0.97129112578E+02  0.16544994629E+03  0.94471591187E+02 0.  0.
          5    1    1    2  502    0  0.12500738455E+02 -0.35462080342E+02 -0.75610650169E+01  0.38580690873E+02  0.41800000000E+01 0. -1.
         -5    1    1    2    0  502 -0.10607789945E+03  0.19398033067E+02  0.80139262812E+02  0.13441941185E+03  0.41800000000E+01 0. -1.
        -11    1    3    3    0    0  0.15898732494E+02  0.32313321761E+02 -0.47331611831E+01  0.36322489905E+02  0.00000000000E+00 0.  1.
         11    1    3    3    0    0  0.77678428499E+02 -0.16249274487E+02  0.10186227376E+03  0.12912745638E+03  0.00000000000E+00 0. -1.
</event>
<event>
 7    1  0.6584658E-006  0.8494553E+02  0.7561462E-02  0.1315575E+00
          2   -1    0    0  501    0  0.00000000000E+00  0.00000000000E+00  0.11258395720E+03  0.11258395720E+03  0.00000000000E+00 0. -1.
         -2   -1    0    0    0  501 -0.00000000000E+00 -0.00000000000E+00 -0.12917581778E+03  0.12917581778E+03  0.00000000000E+00 0.  1.
         23    2    1    2    0    0  0.30971183668E+02 -0.42634049444E+02 -0.88704774324E+01  0.10580189033E+03  0.91315268377E+02 0.  0.
          5    1    1    2  502    0 -0.17812796738E+02  0.62927805328E+02  0.43844736329E+02  0.78848194112E+02  0.41800000000E+01 0.  1.
         -5    1    1    2    0  502 -0.13158386930E+02 -0.20293755884E+02 -0.51566119477E+02  0.57109690530E+02  0.41800000000E+01 0.  1.
        -11    1    3    3    0    0  0.33871443969E+02 -0.56375432626E+02 -0.36201728866E+02  0.75073492614E+02  0.00000000000E+00 0.  1.
         11    1    3    3    0    0 -0.29002603006E+01  0.13741383182E+02  0.27331251434E+02  0.30728397721E+02  0.00000000000E+00 0. -1.
</event>
<event>
 7    1  0.6584658E-006  0.3830139E+03  0.7561462E-02  0.1049825E+00
          2   -1    0    0  501    0  0.00000000000E+00  0.00000000000E+00  0.62317504167E+03  0.62317504167E+03  0.00000000000E+00 0.  1.
         -2   -1    0    0    0  501 -0.00000000000E+00 -0.00000000000E+00 -0.32527023029E+03  0.32527023029E+03  0.00000000000E+00 0. -1.
         23    2    1    2    0    0 -0.28926818240E+03 -0.22812293027E+03  0.39453486926E+03  0.54756708726E+03  0.91955420319E+02 0.  0.
          5    1    1    2  502    0  0.71646770837E+00  0.46927350903E+02 -0.16936783493E+01  0.47149024753E+02  0.41800000000E+01 0.  1.
         -5    1    1    2    0  502  0.28855171469E+03  0.18119557937E+03 -0.94936379529E+02  0.35372915994E+03  0.41800000000E+01 0.  1.
        -11    1    3    3    0    0 -0.20037268633E+03 -0.10476928551E+03  0.21141471227E+03  0.30955128360E+03  0.00000000000E+00 0.  1.
         11    1    3    3    0    0 -0.88895496070E+02 -0.12335364476E+03  0.18312015699E+03  0.23801580366E+03  0.00000000000E+00 0. -1.
</event>
<event>
 7    1  0.6584658E-006  0.2214772E+03  0.7561462E-02  0.1132787E+00
         -2   -1    0    0    0  501 -0.00000000000E+00  0.00000000000E+00  0.12642737132E+03  0.12642737132E+03  0.00000000000E+00 0.  1.
          2   -1    0    0  501    0  0.00000000000E+00 -0.00000000000E+00 -0.44671148675E+03  0.44671148675E+03  0.00000000000E+00 0. -1.
         23    2    1    2    0    0  0.43768915873E+02 -0.19579797793E+03 -0.23611265336E+03  0.32227961493E+03  0.88670169502E+02 0.  0.
          5    1    1    2  502    0 -0.74293761031E+02  0.18887132936E+03 -0.61941741815E+02  0.21224088617E+03  0.41800000000E+01 0. -1.
         -5    1    1    2    0  502  0.30524845158E+02  0.69266485682E+01 -0.22229720255E+02  0.38618356968E+02  0.41800000000E+01 0. -1.
        -11    1    3    3    0    0  0.47527238229E+02 -0.83999367806E+02 -0.16042155770E+03  0.18721594040E+03  0.00000000000E+00 0. -1.
         11    1    3    3    0    0 -0.37583223564E+01 -0.11179861013E+03 -0.75691095661E+02  0.13506367452E+03  0.00000000000E+00 0.  1.
</event>
<event>
 7    1  0.6584658E-006  0.1003832E+03  0.7561462E-02  0.1279492E+00
         -1   -1    0    0    0  501 -0.00000000000E+00  0.00000000000E+00  0.53444397293E+03  0.53444397293E+03  0.00000000000E+00 0.  1.
          1   -1    0    0  501    0  0.00000000000E+00 -0.00000000000E+00 -0.56223516219E+02  0.56223516219E+02  0.00000000000E+00 0. -1.
         23    2    1    2    0    0 -0.14872426235E+02  0.74644551410E+02  0.31166961595E+02  0.12023979641E+03  0.87711065596E+02 0.  0.
          5    1    1    2  502    0 -0.14942841634E+02 -0.43410784906E+02  0.39899432460E+02  0.60969023879E+02  0.41800000000E+01 0. -1.
         -5    1    1    2    0  502  0.29815267869E+02 -0.31233766504E+02  0.40715406266E+03  0.40945866886E+03  0.41800000000E+01 0. -1.
        -11    1    3    3    0    0 -0.35369268523E+02  0.82162531102E+02  0.10306580333E+02  0.90043835275E+02  0.00000000000E+00 0. -1.
         11    1    3    3    0    0  0.20496842288E+02 -0.75179796918E+01  0.20860381262E+02  0.30195961134E+02  0.00000000000E+00 0.  1.
</event>
<event>
 7    1  0.6584658E-006  0.1111824E+03  0.7561462E-02  0.1258396E+00
         -1   -1    0    0    0  501 -0.00000000000E+00  0.00000000000E+00  0.39077262022E+03  0.39077262022E+03  0.00000000000E+00 0.  1.
          1   -1    0    0  501    0  0.00000000000E+00 -0.00000000000E+00 -0.59375163140E+02  0.59375163140E+02  0.00000000000E+00 0. -1.
         23    2    1    2    0    0  0.55834854706E+02  0.17192810327E+01  0.20653947681E+02  0.11054453218E+03  0.93129056224E+02 0.  0.
          5    1    1    2  502    0 -0.53999262276E+02 -0.46662849739E+02  0.93427199360E+02  0.11764121664E+03  0.41800000000E+01 0. -1.
         -5    1    1    2    0  502 -0.18355924297E+01  0.44943568707E+02  0.21731631004E+03  0.22196203454E+03  0.41800000000E+01 0. -1.
        -11    1    3    3    0    0  0.80504244743E+02  0.57250396598E+01  0.26370686778E+02  0.84906552291E+02  0.00000000000E+00 0.  1.
         11    1    3    3    0    0 -0.24669390037E+02 -0.40057586271E+01 -0.57167390977E+01  0.25637979891E+02  0.00000000000E+00 0. -1.
</event>
<event>
 7    1  0.6584658E-006  0.1644394E+03  0.7561462E-02  0.1183774E+00
         -1   -1    0    0    0  501 -0.00000000000E+00  0.00000000000E+00  0.52213472222E+02  0.52213472222E+02  0.00000000000E+00 0.  1.
          1   -1    0    0  501    0  0.00000000000E+00 -0.00000000000E+00 -0.67506237729E+03  0.67506237729E+03  0.00000000000E+00 0. -1.
         23    2    1    2    0    0 -0.36202784198E+02  0.14294023239E+03 -0.35627559655E+03  0.39807150254E+03  0.98924561252E+02 0.  0.
          5    1    1    2  502    0  0.43538703384E+02 -0.12646457782E+02 -0.19049807856E+02  0.49355031822E+02  0.41800000000E+01 0.  1.
         -5    1    1    2    0  502 -0.73359191859E+01 -0.13029377460E+03 -0.24752350067E+03  0.27984931516E+03  0.41800000000E+01 0.  1.
        -11    1    3    3    0    0 -0.44377274952E+02  0.10540058673E+03 -0.15201575045E+03  0.19022989933E+03  0.00000000000E+00 0.  1.
         11    1    3    3    0    0  0.81744907543E+01  0.37539645656E+02 -0.20425984610E+03  0.20784160320E+03  0.00000000000E+00 0. -1.
</event>
<event>
 7    1  0.6584658E-006  0.9543486E+02  0.7561462E-02  0.1290200E+00
         -1   -1    0    0    0  501 -0.00000000000E+00  0.00000000000E+00  0.10533663629E+03  0.10533663629E+03  0.00000000000E+00 0.  1.
          1   -1    0    0  501    0  0.00000000000E+00 -0.00000000000E+00 -0.14677414633E+03  0.14677414633E+03  0.00000000000E+00 0. -1.
         23    2    1    2    0    0 -0.50752185303E+02  0.24044729005E+02 -0.40344812998E+02  0.11499385422E+03  0.91880080903E+02 0.  0.
          5    1    1    2  502    0  0.34017164262E+01 -0.38457057248E+02 -0.52717630926E+02  0.65476239486E+02  0.41800000000E+01 0.  1.
         -5    1    1    2    0  502  0.47350468877E+02  0.14412328243E+02  0.51624933889E+02  0.71640688908E+02  0.41800000000E+01 0.  1.
        -11    1    3    3    0    0  0.14977761712E+02 -0.18700301928E+02 -0.25873969818E+02  0.35263252151E+02  0.00000000000E+00 0. -1.
         11    1    3    3    0    0 -0.65729947015E+02  0.42745030933E+02 -0.14470843180E+02  0.79730602070E+02  0.00000000000E+00 0.  1.
</event>
<event>
 7    1  0.6584658E-006  0.9407716E+02  0.7561462E-02  0.1293268E+00
         -2   -1    0    0    0  501 -0.00000000000E+00  0.00000000000E+00  0.11070415244E+03  0.11070415244E+03  0.00000000000E+00 0.  1.
          2   -1    0    0  501    0  0.00000000000E+00 -0.00000000000E+00 -0.13795793673E+03  0.13795793673E+03  0.00000000000E+00 0. -1.
         23    2    1    2    0    0 -0.49093040657E+01 -0.12553873002E+02 -0.70259931753E+02  0.11570159449E+03  0.90932392271E+02 0.  0.
          5    1    1    2  502    0  0.37042307705E+02 -0.26864361804E+02  0.63152887314E+02  0.78099846808E+02  0.41800000000E+01 0. -1.
         -5    1    1    2    0  502 -0.32133003639E+02  0.39418234806E+02 -0.20146739848E+02  0.54860647869E+02  0.41800000000E+01 0. -1.
        -11    1    3    3    0    0  0.42083502336E+02  0.15570854845E+01 -0.25150144080E+02  0.49050743433E+02  0.00000000000E+00 0.  1.
         11    1    3    3    0    0 -0.46992806402E+02 -0.14110958486E+02 -0.45109787673E+02  0.66650851058E+02  0.00000000000E+00 0. -1.
</event>
<event>
 7    1  0.6584658E-006  0.1216102E+03  0.7561462E-02  0.1240464E+00
         -2   -1    0    0    0  501 -0.00000000000E+00  0.00000000000E+00  0.19346243292E+02  0.19346243292E+02  0.00000000000E+00 0. -1.
          2   -1    0    0  501    0  0.00000000000E+00 -0.00000000000E+00 -0.84502367100E+03  0.84502367100E+03  0.00000000000E+00 0.  1.
         23    2    1    2    0    0 -0.60073839345E+02  0.19021126488E+01 -0.46917373875E+03  0.48180630402E+03  0.91656059528E+02 0.  0.
          5    1    1    2  502    0  0.90846086620E+02 -0.25943544843E+02 -0.29312762738E+03  0.30800545012E+03  0.41800000000E+01 0. -1.
         -5    1    1    2    0  502 -0.30772247275E+02  0.24041432194E+02 -0.63376061575E+02  0.74558160151E+02  0.41800000000E+01 0. -1.
        -11    1    3    3    0    0  0.12068466096E+02  0.29704516896E+02 -0.12377541504E+03  0.12786070376E+03  0.00000000000E+00 0.  1.
         11    1    3    3    0    0 -0.72142305441E+02 -0.27802404247E+02 -0.34539832371E+03  0.35394560026E+03  0.00000000000E+00 0. -1.
</event>
<event>
 7    1  0.6584658E-006  0.1616158E+03  0.7561462E-02  0.1186885E+00
         -2   -1    0    0    0  501 -0.00000000000E+00  0.00000000000E+00  0.35279193907E+02  0.35279193907E+02  0.00000000000E+00 0. -1.
          2   -1    0    0  501    0  0.00000000000E+00 -0.00000000000E+00 -0.85384201340E+03  0.85384201340E+03  0.00000000000E+00 0.  1.
         23    2    1    2    0    0 -0.92954989262E+02  0.98589018771E+02 -0.40086752536E+03  0.43252878035E+03  0.89587657064E+02 0.  0.
          5    1    1    2  502    0 -0.20177311826E+02 -0.59368003178E+02 -0.11504058701E+03  0.13108582217E+03  0.41800000000E+01 0.  1.
         -5    1    1    2    0  502  0.11313230109E+03 -0.39221015593E+02 -0.30265470712E+03  0.32550660478E+03  0.41800000000E+01 0.  1.
        -11    1    3    3    0    0 -0.47941155002E+02  0.24380352153E+02 -0.27128152981E+03  0.27656179116E+03  0.00000000000E+00 0.  1.
         11    1    3    3    0    0 -0.45013834260E+02  0.74208666619E+02 -0.12958599554E+03  0.15596698919E+03  0.00000000000E+00 0. -1.
</event>
<event>
 7    1  0.6584658E-006  0.2108535E+03  0.7561462E-02  0.1140892E+00
          3   -1    0    0  501    0  0.00000000000E+00  0.00000000000E+00  0.59902229384E+03  0.59902229384E+03  0.00000000000E+00 0. -1.
         -3   -1    0    0    0  501 -0.00000000000E+00 -0.00000000000E+00 -0.90821268896E+02  0.90821268896E+02  0.00000000000E+00 0.  1.
         23    2    1    2    0    0  0.19785118500E+03 -0.56177798790E+02  0.26790762580E+03  0.34971172473E+03  0.90679424153E+02 0.  0.
          5    1    1    2  502    0 -0.78703126148E+02 -0.27770952466E+01  0.17503977660E+03  0.19198512993E+03  0.41800000000E+01 0. -1.
         -5    1    1    2    0  502 -0.11914805885E+03  0.58954894037E+02  0.65253622542E+02  0.14814670808E+03  0.41800000000E+01 0. -1.
        -11    1    3    3    0    0  0.73487903716E+02 -0.26509449241E+00  0.38810242627E+02  0.83107022569E+02  0.00000000000E+00 0.  1.
         11    1    3    3    0    0  0.12436328129E+03 -0.55912704298E+02  0.22909738318E+03  0.26660470216E+03  0.00000000000E+00 0. -1.
</event>
<event>
 7    1  0.6584658E-006  0.7377164E+02  0.7561462E-02  0.1347718E+00
          3   -1    0    0  501    0  0.00000000000E+00  0.00000000000E+00  0.49416621650E+02  0.49416621650E+02  0.00000000000E+00 0. -1.
         -3   -1    0    0    0  501 -0.00000000000E+00 -0.00000000000E+00 -0.33685126349E+03  0.33685126349E+03  0.00000000000E+00 0.  1.
         23    2    1    2    0    0 -0.43274520279E+02  0.15013256815E+02 -0.25880501302E+02  0.92744049869E+02  0.76377853157E+02 0.  0.
          5    1    1    2  502    0  0.68829891595E+02 -0.19777916397E+02 -0.25697342027E+03  0.26679867143E+03  0.41800000000E+01 0. -1.
         -5    1    1    2    0  502 -0.25555371315E+02  0.47646595823E+01 -0.45807202706E+01  0.26725163838E+02  0.41800000000E+01 0. -1.
        -11    1    3    3    0    0 -0.21056757973E+02  0.17148970818E+02  0.25170219647E+02  0.37027209097E+02  0.00000000000E+00 0. -1.
         11    1    3    3    0    0 -0.22217762307E+02 -0.21357140028E+01 -0.51050720949E+02  0.55716840772E+02  0.00000000000E+00 0.  1.
</event>
<event>
 7    1  0.6584658E-006  0.1732688E+03  0.7561462E-02  0.1174481E+00
          2   -1    0    0  501    0  0.00000000000E+00  0.00000000000E+00  0.30740999079E+02  0.30740999079E+02  0.00000000000E+00 0. -1.
         -2   -1    0    0    0  501 -0.00000000000E+00 -0.00000000000E+00 -0.10456231598E+04  0.10456231598E+04  0.00000000000E+00 0.  1.
         23    2    1    2    0    0 -0.27040369084E+02 -0.13670152532E+03 -0.38577516279E+03  0.41997879813E+03  0.90228743026E+02 0.  0.
          5    1    1    2  502    0  0.50364540512E+01  0.15455719493E+03 -0.57125943962E+03  0.59183453104E+03  0.41800000000E+01 0. -1.
         -5    1    1    2    0  502  0.22003915033E+02 -0.17855669610E+02 -0.57847558297E+02  0.64550829699E+02  0.41800000000E+01 0. -1.
        -11    1    3    3    0    0 -0.54388724686E+02 -0.56334231971E+02 -0.22382578774E+03  0.23712794505E+03  0.00000000000E+00 0. -1.
         11    1    3    3    0    0  0.27348355602E+02 -0.80367293346E+02 -0.16194937505E+03  0.18285085309E+03  0.00000000000E+00 0.  1.
</event>
<event>
 7    1  0.6584658E-006  0.9005896E+02  0.7561462E-02  0.1302709E+00
          1   -1    0    0  501    0  0.00000000000E+00  0.00000000000E+00  0.94493593762E+03  0.94493593762E+03  0.00000000000E+00 0. -1.
         -1   -1    0    0    0  501 -0.00000000000E+00 -0.00000000000E+00 -0.13813671327E+02  0.13813671327E+02  0.00000000000E+00 0.  1.
         23    2    1    2    0    0  0.90555394468E+01 -0.36037147707E+02  0.34202119113E+03  0.35536915709E+03  0.89039675544E+02 0.  0.
          5    1    1    2  502    0  0.32947661369E+02  0.19682917693E+02  0.54071107977E+02  0.66438864804E+02  0.41800000000E+01 0.  1.
         -5    1    1    2    0  502 -0.42003200816E+02  0.16354230014E+02  0.53502996719E+03  0.53694158706E+03  0.41800000000E+01 0.  1.
        -11    1    3    3    0    0 -0.40078804211E+02 -0.14970672433E+02  0.16453495756E+03  0.17000642293E+03  0.00000000000E+00 0. -1.
         11    1    3    3    0    0  0.49134343658E+02 -0.21066475275E+02  0.17748623357E+03  0.18536273416E+03  0.00000000000E+00 0.  1.
</event>
<event>
 7    1  0.6584658E-006  0.1097158E+03  0.7561462E-02  0.1261097E+00
          1   -1    0    0  501    0  0.00000000000E+00  0.00000000000E+00  0.88940482121E+02  0.88940482121E+02  0.00000000000E+00 0. -1.
         -1   -1    0    0    0  501 -0.00000000000E+00 -0.00000000000E+00 -0.26792317901E+03  0.26792317901E+03  0.00000000000E+00 0.  1.
         23    2    1    2    0    0  0.23589803275E+02 -0.56862551505E+02  0.21979989537E+02  0.11227548078E+03  0.91284363734E+02 0.  0.
          5    1    1    2  502    0  0.14513431024E+02 -0.19979093057E+02  0.10647756136E+01  0.25068106960E+02  0.41800000000E+01 0.  1.
         -5    1    1    2    0  502 -0.38103234299E+02  0.76841644562E+02 -0.20202746204E+03  0.21952007339E+03  0.41800000000E+01 0.  1.
        -11    1    3    3    0    0  0.49630046013E+02 -0.64493467920E+02  0.80575660331E+01  0.81776972565E+02  0.00000000000E+00 0.  1.
         11    1    3    3    0    0 -0.26040242738E+02  0.76309164145E+01  0.13922423504E+02  0.30498508216E+02  0.00000000000E+00 0. -1.
</event>
<event>
 7    1  0.6584658E-006  0.1323250E+03  0.7561462E-02  0.1224046E+00
         -3   -1    0    0    0  501 -0.00000000000E+00  0.00000000000E+00  0.30962600328E+03  0.30962600328E+03  0.00000000000E+00 0.  1.
          3   -1    0    0  501    0  0.00000000000E+00 -0.00000000000E+00 -0.10516231002E+03  0.10516231002E+03  0.00000000000E+00 0. -1.
         23    2    1    2    0    0  0.94656564285E+02 -0.91331267881E+00 -0.28626536567E+02  0.13383381963E+03  0.90173795412E+02 0.  0.
          5    1    1    2  502    0 -0.11501951786E+03 -0.21653559458E+02  0.13778876513E+03  0.18083578828E+03  0.41800000000E+01 0. -1.
         -5    1    1    2    0  502  0.20362953576E+02  0.22566872137E+02  0.95301464689E+02  0.10011870539E+03  0.41800000000E+01 0. -1.
        -11    1    3    3    0    0  0.51814638612E+02 -0.34641282207E+02 -0.45032203653E+02  0.76893917661E+02  0.00000000000E+00 0. -1.
         11    1    3    3    0    0  0.42841925673E+02  0.33727969528E+02  0.16405667086E+02  0.56939901970E+02  0.00000000000E+00 0.  1.
</event>
<event>
 7    1  0.6584658E-006  0.1134930E+03  0.7561462E-02  0.1254235E+00
          2   -1    0    0  501    0  0.00000000000E+00  0.00000000000E+00  0.42006061363E+03  0.42006061363E+03  0.00000000000E+00 0. -1.
         -2   -1    0    0    0  501 -0.00000000000E+00 -0.00000000000E+00 -0.56546521156E+02  0.56546521156E+02  0.00000000000E+00 0.  1.
         23    2    1    2    0    0 -0.16212811063E+02  0.72054768006E+02  0.29337867147E+03  0.31529226953E+03  0.88788656452E+02 0.  0.
          5    1    1    2  502    0 -0.35013662495E+02 -0.12715037230E+02  0.73748459472E+02  0.82728087175E+02  0.41800000000E+01 0.  1.
         -5    1    1    2    0  502  0.51226473558E+02 -0.59339730775E+02 -0.36130384750E+01  0.78586778078E+02  0.41800000000E+01 0.  1.
        -11    1    3    3    0    0  0.16740648548E+01 -0.18559482640E+02  0.23170376311E+02  0.29734209715E+02  0.00000000000E+00 0.  1.
         11    1    3    3    0    0 -0.17886875918E+02  0.90614250646E+02  0.27020829516E+03  0.28555805981E+03  0.00000000000E+00 0. -1.
</event>
<event>
 7    1  0.6584658E-006  0.1139432E+03  0.7561462E-02  0.1253437E+00
          2   -1    0    0  501    0  0.00000000000E+00  0.00000000000E+00  0.95753599203E+03  0.95753599203E+03  0.00000000000E+00 0. -1.
         -2   -1    0    0    0  501 -0.00000000000E+00 -0.00000000000E+00 -0.17642651560E+02  0.17642651560E+02  0.00000000000E+00 0.  1.
         23    2    1    2    0    0 -0.60776189670E+01  0.67410413572E+02  0.47922986607E+03  0.49305876411E+03  0.94151893352E+02 0.  0.
          5    1    1    2  502    0  0.54643168043E+02 -0.46423854090E+02  0.37132247907E+03  0.37820484649E+03  0.41800000000E+01 0. -1.
         -5    1    1    2    0  502 -0.48565549076E+02 -0.20986559482E+02  0.89340995332E+02  0.10391503300E+03  0.41800000000E+01 0. -1.
        -11    1    3    3    0    0  0.25822093434E+02 -0.27033596662E+01  0.44196164441E+02  0.51258068771E+02  0.00000000000E+00 0.  1.
         11    1    3    3    0    0 -0.31899712401E+02  0.70113773238E+02  0.43503370163E+03  0.44180069534E+03  0.00000000000E+00 0. -1.
</event>
<event>
 7    1  0.6584658E-006  0.1797304E+03  0.7561462E-02  0.1168064E+00
          2   -1    0    0  501    0  0.00000000000E+00  0.00000000000E+00  0.29508814093E+03  0.29508814093E+03  0.00000000000E+00 0. -1.
         -2   -1    0    0    0  501 -0.00000000000E+00 -0.00000000000E+00 -0.14855595401E+03  0.14855595401E+03  0.00000000000E+00 0.  1.
         23    2    1    2    0    0  0.14744266780E+03  0.25097236014E+02  0.16869567787E+03  0.24741134011E+03  0.10190646661E+03 0.  0.
          5    1    1    2  502    0 -0.16419777440E+03 -0.23548933431E+02 -0.40702505969E+02  0.17084972279E+03  0.41800000000E+01 0.  1.
         -5    1    1    2    0  502  0.16755106599E+02 -0.15483025824E+01  0.18539015014E+02  0.25383032043E+02  0.41800000000E+01 0.  1.
        -11    1    3    3    0    0  0.92945063735E+02 -0.31003155098E+02  0.12141619671E+03  0.15601882362E+03  0.00000000000E+00 0. -1.
         11    1    3    3    0    0  0.54497604066E+02  0.56100391111E+02  0.47279481161E+02  0.91392516491E+02  0.00000000000E+00 0.  1.
</event>
<event>
 7    1  0.6584658E-006  0.2750609E+03  0.7561462E-02  0.1098418E+00
         -1   -1    0    0    0  501 -0.00000000000E+00  0.00000000000E+00  0.26529267701E+03  0.26529267701E+03  0.00000000000E+00 0.  1.
          1   -1    0    0  501    0  0.00000000000E+00 -0.00000000000E+00 -0.34581756153E+03  0.34581756153E+03  0.00000000000E+00 0. -1.
         23    2    1    2    0    0 -0.12623359245E+03 -0.23726013353E+03 -0.12742612444E+03  0.31098775056E+03  0.90822205357E+02 0.  0.
          5    1    1    2  502    0  0.62057391033E+02  0.74623284722E+02  0.75337693820E+02  0.12293492146E+03  0.41800000000E+01 0. -1.
         -5    1    1    2    0  502  0.64176201418E+02  0.16263684881E+03 -0.28436453902E+02  0.17718756652E+03  0.41800000000E+01 0. -1.
        -11    1    3    3    0    0 -0.64260406111E+02 -0.51780404412E+02 -0.67018270747E+02  0.10631114094E+03  0.00000000000E+00 0. -1.
         11    1    3    3    0    0 -0.61973186340E+02 -0.18547972912E+03 -0.60407853693E+02  0.20467660962E+03  0.00000000000E+00 0.  1.
</event>
<event>
 7    1  0.6584658E-006  0.1317156E+03  0.7561462E-02  0.1224932E+00
         -1   -1    0    0    0  501 -0.00000000000E+00  0.00000000000E+00  0.52920221233E+02  0.52920221233E+02  0.00000000000E+00 0.  1.
          1   -1    0    0  501    0  0.00000000000E+00 -0.00000000000E+00 -0.44135734275E+03  0.44135734275E+03  0.00000000000E+00 0. -1.
         23    2    1    2    0    0 -0.55277697629E+01  0.10065619445E+03 -0.24006614083E+03  0.27559077111E+03  0.90312210844E+02 0.  0.
          5    1    1    2  502    0  0.39834322265E+02 -0.31236181246E+02  0.53760861868E+00  0.50796000553E+02  0.41800000000E+01 0.  1.
         -5    1    1    2    0  502 -0.34306552502E+02 -0.69420013200E+02 -0.14890858930E+03  0.16789079232E+03  0.41800000000E+01 0.  1.
        -11    1    3    3    0    0 -0.47626681439E+02  0.47269218788E+02 -0.11079290847E+03  0.12952894810E+03  0.00000000000E+00 0.  1.
         11    1    3    3    0    0  0.42098911676E+02  0.53386975659E+02 -0.12927323236E+03  0.14606182301E+03  0.00000000000E+00 0. -1.
</event>
<event>
 7    1  0.6584658E-006  0.9967935E+02  0.7561462E-02  0.1280972E+00
          1   -1    0    0  501    0  0.00000000000E+00  0.00000000000E+00  0.69436091205E+02  0.69436091205E+02  0.00000000000E+00 0. -1.
         -1   -1    0    0    0  501 -0.00000000000E+00 -0.00000000000E+00 -0.15639820821E+03  0.15639820821E+03  0.00000000000E+00 0.  1.
         23    2    1    2    0    0 -0.13716791242E+02 -0.68858281105E+01 -0.34070479433E+02  0.10062949258E+03  0.93434106286E+02 0.  0.
          5    1    1    2  502    0  0.37182687708E+02  0.50224037538E+02 -0.39194585134E+02  0.73882975818E+02  0.41800000000E+01 0. -1.
         -5    1    1    2    0  502 -0.23465896466E+02 -0.43338209427E+02 -0.13697052435E+02  0.51321831015E+02  0.41800000000E+01 0.  1.
        -11    1    3    3    0    0 -0.39941855596E+02  0.24119777382E+02 -0.37520514370E+02  0.59874071918E+02  0.00000000000E+00 0.  1.
         11    1    3    3    0    0  0.26225064354E+02 -0.31005605492E+02  0.34500349375E+01  0.40755420662E+02  0.00000000000E+00 0. -1.
</event>
<event>
 7    1  0.6584658E-006  0.1808774E+03  0.7561462E-02  0.1166957E+00
         -1   -1    0    0    0  501 -0.00000000000E+00  0.00000000000E+00  0.22608878699E+03  0.22608878699E+03  0.00000000000E+00 0.  1.
          1   -1    0    0  501    0  0.00000000000E+00 -0.00000000000E+00 -0.25900936410E+03  0.25900936410E+03  0.00000000000E+00 0. -1.
         23    2    1    2    0    0  0.11120282732E+03 -0.99475923877E+02 -0.17252139131E+03  0.24551209772E+03  0.90835188295E+02 0.  0.
          5    1    1    2  502    0 -0.82652335933E+02  0.12645513157E+03  0.88985331029E+02  0.17538007433E+03  0.41800000000E+01 0.  1.
         -5    1    1    2    0  502 -0.28550491388E+02 -0.26979207690E+02  0.50615483174E+02  0.64205979028E+02  0.41800000000E+01 0.  1.
        -11    1    3    3    0    0  0.81367200415E+02 -0.11227465519E+03 -0.11807140197E+03  0.18211830074E+03  0.00000000000E+00 0.  1.
         11    1    3    3    0    0  0.29835626906E+02  0.12798731316E+02 -0.54449989344E+02  0.63393796982E+02  0.00000000000E+00 0. -1.
</event>
<event>
 7    1  0.6584658E-006  0.9184614E+02  0.7561462E-02  0.1298442E+00
         -4   -1    0    0    0  501 -0.00000000000E+00  0.00000000000E+00  0.89290717089E+02  0.89290717089E+02  0.00000000000E+00 0.  1.
          4   -1    0    0  501    0  0.00000000000E+00 -0.00000000000E+00 -0.13822796910E+03  0.13822796910E+03  0.00000000000E+00 0. -1.
         23    2    1    2    0    0  0.18161093729E+02  0.15378007387E+02 -0.63553230120E+02  0.99349064557E+02  0.72559734929E+02 0.  0.
          5    1    1    2  502    0 -0.65821937064E+02 -0.23909444514E+02 -0.14331029771E+02  0.71603350132E+02  0.41800000000E+01 0.  1.
         -5    1    1    2    0  502  0.47660843335E+02  0.85314371265E+01  0.28947007877E+02  0.56566271504E+02  0.41800000000E+01 0.  1.
        -11    1    3    3    0    0  0.19038813734E+02  0.37893063365E+02 -0.13575714962E+02  0.44527078462E+02  0.00000000000E+00 0. -1.
         11    1    3    3    0    0 -0.87772000472E+00 -0.22515055978E+02 -0.49977515158E+02  0.54821986096E+02  0.00000000000E+00 0.  1.
</event>
<event>
 6    1  0.6584658E-006  0.9784478E+02  0.7561462E-02  0.1284894E+00
          1   -1    0    0  501    0  0.00000000000E+00  0.00000000000E+00  0.67942550121E+03  0.67942550121E+03  0.00000000000E+00 0. -1.
         -1   -1    0    0    0  501 -0.00000000000E+00 -0.00000000000E+00 -0.26816453725E+02  0.26816453725E+02  0.00000000000E+00 0.  1.
          5    1    1    2  502    0 -0.53350461628E+02  0.66663486024E+01  0.20720875602E+02  0.57771437972E+02  0.41800000000E+01 0.  1.
         -5    1    1    2    0  502 -0.27002889071E+02  0.28140840068E+02  0.24984223653E+03  0.25290250780E+03  0.41800000000E+01 0.  1.
        -11    1    1    2    0    0  0.48109190716E+02 -0.47759138272E+02  0.25079315422E+03  0.25979344820E+03  0.00000000000E+00 0. -1.
         11    1    1    2    0    0  0.32244159984E+02  0.12951949602E+02  0.13125278112E+03  0.13577456096E+03  0.00000000000E+00 0.  1.
</event>
<event>
 7    1  0.6584658E-006  0.6191089E+02  0.7561462E-02  0.1389983E+00
          4   -1    0    0  501    0  0.00000000000E+00  0.00000000000E+00  0.62299426405E+02  0.62299426405E+02  0.00000000000E+00 0. -1.
         -4   -1    0    0    0  501 -0.00000000000E+00 -0.00000000000E+00 -0.26596314734E+03  0.26596314734E+03  0.00000000000E+00 0.  1.
         23    2    1    2    0    0  0.37015537664E+02  0.63143662100E+01 -0.16412291262E+02  0.99964229194E+02  0.91178191278E+02 0.  0.
          5    1    1    2  502    0 -0.22454778413E+02 -0.50894507397E+01  0.13471158084E+02  0.27001186687E+02  0.41800000000E+01 0. -1.
         -5    1    1    2    0  502 -0.14560759251E+02 -0.12249154703E+01 -0.20072258776E+03  0.20129715787E+03  0.41800000000E+01 0. -1.
        -11    1    3    3    0    0  0.22423438926E+02 -0.34910484247E+02 -0.33181781629E+02  0.53127988440E+02  0.00000000000E+00 0.  1.
         11    1    3    3    0    0  0.14592098738E+02  0.41224850457E+02  0.16769490367E+02  0.46836240754E+02  0.00000000000E+00 0. -1.
</event>
<event>
 7    1  0.6584658E-006  0.1077918E+03  0.7561462E-02  0.1264715E+00
         -4   -1    0    0    0  501 -0.00000000000E+00  0.00000000000E+00  0.66181243878E+03  0.66181243878E+03  0.00000000000E+00 0.  1.
          4   -1    0    0  501    0  0.00000000000E+00 -0.00000000000E+00 -0.25049878358E+02  0.25049878358E+02  0.00000000000E+00 0. -1.
         23    2    1    2    0    0  0.24518497696E+01 -0.47251907448E+02  0.15167884092E+03  0.18371362522E+03  0.92225110371E+02 0.  0.
          5    1    1    2  502    0  0.53740070907E+02  0.20682283207E+01  0.12917607054E+03  0.13998643645E+03  0.41800000000E+01 0. -1.
         -5    1    1    2    0  502 -0.56191920677E+02  0.45183679128E+02  0.35590764896E+03  0.36316225547E+03  0.41800000000E+01 0.  1.
        -11    1    3    3    0    0  0.38134188261E+02 -0.34791471677E+02  0.13061376754E+03  0.14044436296E+03  0.00000000000E+00 0.  1.
         11    1    3    3    0    0 -0.35682338491E+02 -0.12460435772E+02  0.21065073377E+02  0.43269262256E+02  0.00000000000E+00 0. -1.
</event>
<event>
 7    1  0.6584658E-006  0.9635582E+02  0.7561462E-02  0.1288151E+00
          2   -1    0    0  501    0  0.00000000000E+00  0.00000000000E+00  0.67475880864E+03  0.67475880864E+03  0.00000000000E+00 0. -1.
         -2   -1    0    0    0  501 -0.00000000000E+00 -0.00000000000E+00 -0.20885088475E+02  0.20885088475E+02  0.00000000000E+00 0.  1.
         23    2    1    2    0    0 -0.12265488251E+02  0.45010682505E+02  0.32549242591E+03  0.34116106194E+03  0.90934850967E+02 0.  0.
          5    1    1    2  502    0 -0.29607021537E+02 -0.13268482770E+01  0.26525647418E+03  0.26693970432E+03  0.41800000000E+01 0. -1.
         -5    1    1    2    0  502  0.41872509788E+02 -0.43683834228E+02  0.63124820074E+02  0.87543130845E+02  0.41800000000E+01 0. -1.
        -11    1    3    3    0    0  0.21562316595E+02  0.61008223173E+02  0.19977877055E+03  0.20999641415E+03  0.00000000000E+00 0.  1.
         11    1    3    3    0    0 -0.33827804846E+02 -0.15997540667E+02  0.12571365535E+03  0.13116464779E+03  0.00000000000E+00 0. -1.
</event>
<event>
 7    1  0.6584658E-006  0.1358561E+03  0.7561462E-02  0.1219016E+00
         -1   -1    0    0    0  501 -0.00000000000E+00  0.00000000000E+00  0.10896161100E+03  0.10896161100E+03  0.00000000000E+00 0.  1.
          1   -1    0    0  501    0  0.00000000000E+00 -0.00000000000E+00 -0.27745012655E+03  0.27745012655E+03  0.00000000000E+00 0. -1.
         23    2    1    2    0    0 -0.15231350895E+02 -0.12429840423E+03 -0.13593452932E+03  0.20644277393E+03  0.91969208452E+02 0.  0.
          5    1    1    2  502    0 -0.58683514480E+01 -0.89597147557E+01  0.29310349493E+02  0.31484647443E+02  0.41800000000E+01 0. -1.
         -5    1    1    2    0  502  0.21099702343E+02  0.13325811899E+03 -0.61864335728E+02  0.14848431617E+03  0.41800000000E+01 0. -1.
        -11    1    3    3    0    0 -0.11816403003E+02 -0.92929498480E+02 -0.14587142856E+03  0.17336087430E+03  0.00000000000E+00 0. -1.
         11    1    3    3    0    0 -0.34149478922E+01 -0.31368905749E+02  0.99368992375E+01  0.33081899635E+02  0.00000000000E+00 0.  1.
</event>
<event>
 7    1  0.6584658E-006  0.1373028E+03  0.7561462E-02  0.1217005E+00
         -3   -1    0    0    0  501 -0.00000000000E+00  0.00000000000E+00  0.53750556742E+02  0.53750556742E+02  0.00000000000E+00 0.  1.
          3   -1    0    0  501    0  0.00000000000E+00 -0.00000000000E+00 -0.43124676470E+03  0.43124676470E+03  0.00000000000E+00 0. -1.
         23    2    1    2    0    0  0.53425365479E+02 -0.87931212516E+02 -0.21402017624E+03  0.25486568464E+03  0.92551140225E+02 0.  0.
          5    1    1    2  502    0 -0.73155298428E+02  0.22724223411E+02 -0.13681188043E+03  0.15685359748E+03  0.41800000000E+01 0. -1.
         -5    1    1    2    0  502  0.19729932949E+02  0.65206989105E+02 -0.26664151287E+02  0.73278039317E+02  0.41800000000E+01 0. -1.
        -11    1    3    3    0    0 -0.20867469485E+02 -0.21683908894E+02 -0.95296142478E+02  0.99934968649E+02  0.00000000000E+00 0. -1.
         11    1    3    3    0    0  0.74292834964E+02 -0.66247303622E+02 -0.11872403376E+03  0.15493071599E+03  0.00000000000E+00 0.  1.
</event>
<event>
 7    1  0.6584658E-006  0.1186924E+03  0.7561462E-02  0.1245270E+00
          1   -1    0    0  501    0  0.00000000000E+00  0.00000000000E+00  0.39818780005E+03  0.39818780005E+03  0.00000000000E+00 0. -1.
         -1   -1    0    0    0  501 -0.00000000000E+00 -0.00000000000E+00 -0.36822764192E+02  0.36822764192E+02  0.00000000000E+00 0.  1.
         23    2    1    2    0    0  0.53611580979E+02 -0.37834706088E+01  0.17723149314E+03  0.20600983697E+03  0.90224910643E+02 0.  0.
          5    1    1    2  502    0 -0.13114507893E+02 -0.58732939004E+02  0.67292626748E+02  0.90373217582E+02  0.41800000000E+01 0.  1.
         -5    1    1    2    0  502 -0.40497073086E+02  0.62516409613E+02  0.11684091596E+03  0.13862750969E+03  0.41800000000E+01 0.  1.
        -11    1    3    3    0    0  0.42063693982E+02 -0.43847333140E+02  0.12655319648E+03  0.14038395390E+03  0.00000000000E+00 0. -1.
         11    1    3    3    0    0  0.11547886997E+02  0.40063862531E+02  0.50678296668E+02  0.65625883066E+02  0.00000000000E+00 0.  1.
</event>
<event>
 7    1  0.6584658E-006  0.8721120E+02  0.7561462E-02  0.1309749E+00
         -1   -1    0    0    0  501 -0.00000000000E+00  0.00000000000E+00  0.58588098588E+02  0.58588098588E+02  0.00000000000E+00 0.  1.
          1   -1    0    0  501    0  0.00000000000E+00 -0.00000000000E+00 -0.26197910229E+03  0.26197910229E+03  0.00000000000E+00 0. -1.
         23    2    1    2    0    0  0.35225499851E+02  0.44757103984E+02 -0.10206150484E+03  0.14980467777E+03  0.93706224524E+02 0.  0.
          5    1    1    2  502    0  0.33000817037E+02 -0.63406166182E+01  0.93430642307E+01  0.35128657723E+02  0.41800000000E+01 0. -1.
         -5    1    1    2    0  502 -0.68226316889E+02 -0.38416487366E+02 -0.11067256309E+03  0.13563386538E+03  0.41800000000E+01 0. -1.
        -11    1    3    3    0    0  0.32531110591E+02  0.22089909563E+02  0.56275903035E+01  0.39722877960E+02  0.00000000000E+00 0.  1.
         11    1    3    3    0    0  0.26943892608E+01  0.22667194421E+02 -0.10768909515E+03  0.11008179981E+03  0.00000000000E+00 0. -1.
</event>
<event>
 7    1  0.6584658E-006  0.1210644E+03  0.7561462E-02  0.1241351E+00
         -2   -1    0    0    0  501 -0.00000000000E+00  0.00000000000E+00  0.14149547995E+03  0.14149547995E+03  0.00000000000E+00 0.  1.
          2   -1    0    0  501    0  0.00000000000E+00 -0.00000000000E+00 -0.10693491765E+03  0.10693491765E+03  0.00000000000E+00 0. -1.
         23    2    1    2    0    0 -0.58184976666E+02  0.15506396096E+02  0.19805211352E+02  0.10882235529E+03  0.88454048999E+02 0.  0.
          5    1    1    2  502    0  0.94332401189E+02 -0.25253384513E+02  0.24356744116E+02  0.10073261005E+03  0.41800000000E+01 0.  1.
         -5    1    1    2    0  502 -0.36147424523E+02  0.97469884171E+01 -0.96013931715E+01  0.38875432263E+02  0.41800000000E+01 0.  1.
        -11    1    3    3    0    0 -0.13467809332E+02 -0.36040072896E+02  0.33041168077E+01  0.38615876662E+02  0.00000000000E+00 0.  1.
         11    1    3    3    0    0 -0.44717167334E+02  0.51546468991E+02  0.16501094545E+02  0.70206478626E+02  0.00000000000E+00 0. -1.
</event>
<event>
 7    1  0.6584658E-006  0.1115037E+03  0.7561462E-02  0.1257810E+00
         -2   -1    0    0    0  501 -0.00000000000E+00  0.00000000000E+00  0.40328425237E+02  0.40328425237E+02  0.00000000000E+00 0.  1.
          2   -1    0    0  501    0  0.00000000000E+00 -0.00000000000E+00 -0.31950885712E+03  0.31950885712E+03  0.00000000000E+00 0. -1.
         23    2    1    2    0    0 -0.98352379359E+01 -0.28630097819E+02 -0.13264108851E+03  0.16480477207E+03  0.93008279909E+02 0.  0.
          5    1    1    2  502    0 -0.56908239653E+02  0.23210229976E+02 -0.71075166585E+02  0.94055378480E+02  0.41800000000E+01 0.  1.
         -5    1    1    2    0  502  0.66743477589E+02  0.54198678438E+01 -0.75464176788E+02  0.10097713180E+03  0.41800000000E+01 0.  1.
        -11    1    3    3    0    0  0.39459818981E+02 -0.54329469298E+01 -0.78338358031E+02  0.87883403242E+02  0.00000000000E+00 0. -1.
         11    1    3    3    0    0 -0.49295056917E+02 -0.23197150890E+02 -0.54302730475E+02  0.76921368832E+02  0.00000000000E+00 0.  1.
</event>
<event>
 7    1  0.6584658E-006  0.1107642E+03  0.7561462E-02  0.1259161E+00
         -1   -1    0    0    0  501 -0.00000000000E+00  0.00000000000E+00  0.13441739826E+02  0.13441739826E+02  0.00000000000E+00 0.  1.
          1   -1    0    0  501    0  0.00000000000E+00 -0.00000000000E+00 -0.12009448287E+04  0.12009448287E+04  0.00000000000E+00 0. -1.
         23    2    1    2    0    0 -0.65071128409E+02 -0.16756122999E+02 -0.56663047748E+03  0.57748414112E+03  0.88897783024E+02 0.  0.
          5    1    1    2  502    0  0.87083580639E+02  0.13760783177E+02 -0.59893093384E+03  0.60539957473E+03  0.41800000000E+01 0.  1.
         -5    1    1    2    0  502 -0.22012452230E+02  0.29953398211E+01 -0.21941677604E+02  0.31502852726E+02  0.41800000000E+01 0.  1.
        -11    1    3    3    0    0 -0.33268136078E+01 -0.43317523617E+02 -0.25651790321E+03  0.26017092499E+03  0.00000000000E+00 0. -1.
         11    1    3    3    0    0 -0.61744314801E+02  0.26561400619E+02 -0.31011257427E+03  0.31731321614E+03  0.00000000000E+00 0.  1.
</event>
<event>
 7    1  0.6584658E-006  0.1426852E+03  0.7561462E-02  0.1209761E+00
         -2   -1    0    0    0  501 -0.00000000000E+00  0.00000000000E+00  0.45505645299E+02  0.45505645299E+02  0.00000000000E+00 0.  1.
          2   -1    0    0  501    0  0.00000000000E+00 -0.00000000000E+00 -0.67654195711E+03  0.67654195711E+03  0.00000000000E+00 0. -1.
         23    2    1    2    0    0  0.12257760840E+03  0.15388659439E+02 -0.42200482171E+03  0.44891011615E+03  0.90388837334E+02 0.  0.
          5    1    1    2  502    0 -0.36225104444E+01  0.32801018741E+02 -0.97613775181E+02  0.10312589838E+03  0.41800000000E+01 0.  1.
         -5    1    1    2    0  502 -0.11895509796E+03 -0.48189678180E+02 -0.11141771492E+03  0.17001158788E+03  0.41800000000E+01 0.  1.
        -11    1    3    3    0    0  0.37001052235E+02  0.18068230077E+01 -0.30658403931E+02  0.48086174806E+02  0.00000000000E+00 0.  1.
         11    1    3    3    0    0  0.85576556170E+02  0.13581836431E+02 -0.39134641778E+03  0.40082394134E+03  0.00000000000E+00 0. -1.
</event>
<event>
 7    1  0.6584658E-006  0.6792311E+02  0.7561462E-02  0.1367301E+00
         -1   -1    0    0    0  501 -0.00000000000E+00  0.00000000000E+00  0.13509229429E+04  0.13509229429E+04  0.00000000000E+00 0.  1.
          1   -1    0    0  501    0  0.00000000000E+00 -0.00000000000E+00 -0.16079492821E+02  0.16079492821E+02  0.00000000000E+00 0. -1.
         23    2    1    2    0    0  0.21644372046E+02 -0.28370064469E+02  0.17322327886E+03  0.19812066222E+03  0.89286914264E+02 0.  0.
          5    1    1    2  502    0  0.39530316659E+01 -0.57557188442E-01  0.10630611301E+04  0.10630766993E+04  0.41800000000E+01 0. -1.
         -5    1    1    2    0  502 -0.25597403712E+02  0.28427621657E+02  0.98559041074E+02  0.10580507420E+03  0.41800000000E+01 0. -1.
        -11    1    3    3    0    0  0.52018599715E+02 -0.31918360569E+02  0.84205531790E+02  0.10399657707E+03  0.00000000000E+00 0.  1.
         11    1    3    3    0    0 -0.30374227669E+02  0.35482961000E+01  0.89017747072E+02  0.94124085151E+02  0.00000000000E+00 0. -1.
</event>
<event>
 7    1  0.6584658E-006  0.1047573E+03  0.7561462E-02  0.1270599E+00
         -1   -1    0    0    0  501 -0.00000000000E+00  0.00000000000E+00  0.14163061001E+03  0.14163061001E+03  0.00000000000E+00 0. -1.
          1   -1    0    0  501    0  0.00000000000E+00 -0.00000000000E+00 -0.10221180440E+03  0.10221180440E+03  0.00000000000E+00 0.  1.
         23    2    1    2    0    0  0.25622203197E+02 -0.41664387716E+02 -0.19966590589E+01  0.10329082483E+03  0.90953775881E+02 0.  0.
          5    1    1    2  502    0 -0.56058769832E+02 -0.22460141070E+02  0.52065232600E+01  0.60758735145E+02  0.41800000000E+01 0. -1.
         -5    1    1    2    0  502  0.30436566635E+02  0.64124528786E+02  0.36208941404E+02  0.79792854430E+02  0.41800000000E+01 0. -1.
        -11    1    3    3    0    0  0.26970736348E+00  0.15415711000E+02  0.29541314458E+02  0.33322757203E+02  0.00000000000E+00 0. -1.
         11    1    3    3    0    0  0.25352495833E+02 -0.57080098716E+02 -0.31537973517E+02  0.69968067631E+02  0.00000000000E+00 0.  1.
</event>
<event>
 7    1  0.6584658E-006  0.1165366E+03  0.7561462E-02  0.1248922E+00
         -1   -1    0    0    0  501 -0.00000000000E+00  0.00000000000E+00  0.67428611662E+02  0.67428611662E+02  0.00000000000E+00 0.  1.
          1   -1    0    0  501    0  0.00000000000E+00 -0.00000000000E+00 -0.22409135616E+03  0.22409135616E+03  0.00000000000E+00 0. -1.
         23    2    1    2    0    0  0.20087437937E+02 -0.41709658209E+02 -0.10903520076E+03  0.14988976425E+03  0.91842613592E+02 0.  0.
          5    1    1    2  502    0 -0.72889166963E+02  0.30710056883E+02 -0.30702683289E+02  0.84947427362E+02  0.41800000000E+01 0.  1.
         -5    1    1    2    0  502  0.52801729026E+02  0.10999601326E+02 -0.16924860447E+02  0.56682776208E+02  0.41800000000E+01 0.  1.
        -11    1    3    3    0    0  0.42071628596E+02  0.10293238599E+02 -0.29705679244E+02  0.52520472893E+02  0.00000000000E+00 0.  1.
         11    1    3    3    0    0 -0.21984190659E+02 -0.52002896808E+02 -0.79329521516E+02  0.97369291357E+02  0.00000000000E+00 0. -1.
</event>
<event>
 7    1  0.6584658E-006  0.3276977E+03  0.7561462E-02  0.1072160E+00
          2   -1    0    0  501    0  0.00000000000E+00  0.00000000000E+00  0.16012661140E+04  0.16012661140E+04  0.00000000000E+00 0. -1.
         -2   -1    0    0    0  501 -0.00000000000E+00 -0.00000000000E+00 -0.69719774618E+02  0.69719774618E+02  0.00000000000E+00 0.  1.
         23    2    1    2    0    0 -0.89850883236E+02 -0.30217507770E+03  0.78241206418E+03  0.84865085246E+03  0.93041240353E+02 0.  0.
          5    1    1    2  502    0 -0.18689869455E+02  0.95683033858E+02  0.14563551197E+03  0.17530467459E+03  0.41800000000E+01 0. -1.
         -5    1    1    2    0  502  0.10854075269E+03  0.20649204384E+03  0.60349876326E+03  0.64703036159E+03  0.41800000000E+01 0. -1.
        -11    1    3    3    0    0 -0.84760184514E+02 -0.15043110143E+03  0.34822746221E+03  0.38868518185E+03  0.00000000000E+00 0.  1.
         11    1    3    3    0    0 -0.50906987216E+01 -0.15174397627E+03  0.43418460198E+03  0.45996567061E+03  0.00000000000E+00 0. -1.
</event>
<event>
 7    1  0.6584658E-006  0.2167235E+03  0.7561462E-02  0.1136350E+00
          2   -1    0    0  501    0  0.00000000000E+00  0.00000000000E+00  0.19720353283E+03  0.19720353283E+03  0.00000000000E+00 0. -1.
         -2   -1    0    0    0  501 -0.00000000000E+00 -0.00000000000E+00 -0.34535652497E+03  0.34535652497E+03  0.00000000000E+00 0.  1.
         23    2    1    2    0    0 -0.18599259118E+03  0.73420561094E+02  0.61164269512E+02  0.22720879089E+03  0.88876003679E+02 0.  0.
          5    1    1    2  502    0  0.10774862736E+03  0.12224792980E+02 -0.53342971635E+02  0.12092211247E+03  0.41800000000E+01 0.  1.
         -5    1    1    2    0  502  0.78243963815E+02 -0.85645354074E+02 -0.15597429001E+03  0.19442915443E+03  0.41800000000E+01 0.  1.
        -11    1    3    3    0    0 -0.91427128313E+02  0.68336738106E+02 -0.60013058985E+00  0.11414547614E+03  0.00000000000E+00 0.  1.
         11    1    3    3    0    0 -0.94565462863E+02  0.50838229878E+01  0.61764400102E+02  0.11306331475E+03  0.00000000000E+00 0. -1.
</event>
<event>
 7    1  0.6584658E-006  0.1087076E+03  0.7561462E-02  0.1262982E+00
         -2   -1    0    0    0  501 -0.00000000000E+00  0.00000000000E+00  0.48893299215E+02  0.48893299215E+02  0.00000000000E+00 0.  1.
          2   -1    0    0  501    0  0.00000000000E+00 -0.00000000000E+00 -0.26483923760E+03  0.26483923760E+03  0.00000000000E+00 0. -1.
         23    2    1    2    0    0  0.28421098455E+02 -0.18689356669E+02 -0.10005255753E+03  0.13984753387E+03  0.91595674420E+02 0.  0.
          5    1    1    2  502    0 -0.11689802976E+02  0.72124206198E+02 -0.71397816531E+02  0.10224320622E+03  0.41800000000E+01 0. -1.
         -5    1    1    2    0  502 -0.16731295479E+02 -0.53434849529E+02 -0.44495564330E+02  0.71641796723E+02  0.41800000000E+01 0. -1.
        -11    1    3    3    0    0  0.57086853175E+02 -0.88191915612E+01 -0.91740552338E+02  0.10841132731E+03  0.00000000000E+00 0.  1.
         11    1    3    3    0    0 -0.28665754720E+02 -0.98701651073E+01 -0.83120051868E+01  0.31436206564E+02  0.00000000000E+00 0. -1.
</event>
<event>
 7    1  0.6584658E-006  0.2825880E+03  0.7561462E-02  0.1094284E+00
         -1   -1    0    0    0  501 -0.00000000000E+00  0.00000000000E+00  0.21411302485E+03  0.21411302485E+03  0.00000000000E+00 0.  1.
          1   -1    0    0  501    0  0.00000000000E+00 -0.00000000000E+00 -0.43511813034E+03  0.43511813034E+03  0.00000000000E+00 0. -1.
         23    2    1    2    0    0  0.26964726113E+03 -0.47084367514E+02 -0.18911901011E+03  0.34659252946E+03  0.97127742650E+02 0.  0.
          5    1    1    2  502    0 -0.12423947267E+03  0.41586729926E+02  0.44262683073E+02  0.13835302739E+03  0.41800000000E+01 0. -1.
         -5    1    1    2    0  502 -0.14540778846E+03  0.54976375890E+01 -0.76148778449E+02  0.16428559834E+03  0.41800000000E+01 0. -1.
        -11    1    3    3    0    0  0.22262450786E+03 -0.91968945768E+00 -0.16202072520E+03  0.27534202861E+03  0.00000000000E+00 0. -1.
         11    1    3    3    0    0  0.47022753274E+02 -0.46164678057E+02 -0.27098284911E+02  0.71250500845E+02  0.00000000000E+00 0.  1.
</event>
<event>
 7    1  0.6584658E-006  0.7706729E+02  0.7561462E-02  0.1337586E+00
          1   -1    0    0  501    0  0.00000000000E+00  0.00000000000E+00  0.52240135505E+02  0.52240135505E+02  0.00000000000E+00 0. -1.
         -1   -1    0    0    0  501 -0.00000000000E+00 -0.00000000000E+00 -0.28260197465E+03  0.28260197465E+03  0.00000000000E+00 0.  1.
         23    2    1    2    0    0 -0.50901521112E+02  0.23684311311E+02 -0.91706086447E+02  0.13983557480E+03  0.89398379374E+02 0.  0.
          5    1    1    2  502    0  0.58089445551E+02  0.69232133443E+01 -0.63965209899E+01  0.58997478321E+02  0.41800000000E+01 0. -1.
         -5    1    1    2    0  502 -0.71879244390E+01 -0.30607524655E+02 -0.13225923171E+03  0.13600905704E+03  0.41800000000E+01 0. -1.
        -11    1    3    3    0    0 -0.36473853812E+02  0.30746928491E+02 -0.99673996928E+00  0.47714873091E+02  0.00000000000E+00 0. -1.
         11    1    3    3    0    0 -0.14427667300E+02 -0.70626171800E+01 -0.90709346478E+02  0.92120701710E+02  0.00000000000E+00 0.  1.
</event>
<event>
 7    1  0.6584658E-006  0.1251408E+03  0.7561462E-02  0.1234849E+00
          2   -1    0    0  501    0  0.00000000000E+00  0.00000000000E+00  0.49258427521E+03  0.49258427521E+03  0.00000000000E+00 0. -1.
         -2   -1    0    0    0  501 -0.00000000000E+00 -0.00000000000E+00 -0.33214080122E+02  0.33214080122E+02  0.00000000000E+00 0.  1.
         23    2    1    2    0    0  0.78566790729E+02 -0.22496387486E+02  0.19814577003E+03  0.23081030076E+03  0.85631890666E+02 0.  0.
          5    1    1    2  502    0 -0.92155265377E+02 -0.16485575897E+02  0.20195176168E+03  0.22263502329E+03  0.41800000000E+01 0. -1.
         -5    1    1    2    0  502  0.13588474648E+02  0.38981963383E+02  0.59272663384E+02  0.72353031291E+02  0.41800000000E+01 0.  1.
        -11    1    3    3    0    0  0.88116852495E+02  0.26718491362E+01  0.12576357356E+03  0.15358448785E+03  0.00000000000E+00 0.  1.
         11    1    3    3    0    0 -0.95500617658E+01 -0.25168236622E+02  0.72382196465E+02  0.77225812910E+02  0.00000000000E+00 0. -1.
</event>
<event>
 7    1  0.6584658E-006  0.1451448E+03  0.7561462E-02  0.1206569E+00
         -1   -1    0    0    0  501 -0.00000000000E+00  0.00000000000E+00  0.53659763338E+02  0.53659763338E+02  0.00000000000E+00 0.  1.
          1   -1    0    0  501    0  0.00000000000E+00 -0.00000000000E+00 -0.49056025973E+03  0.49056025973E+03  0.00000000000E+00 0. -1.
         23    2    1    2    0    0 -0.55459664105E+02  0.10582473413E+03 -0.22854835924E+03  0.27341999055E+03  0.90826703248E+02 0.  0.
          5    1    1    2  502    0 -0.93835216988E+01  0.19827726880E+02 -0.46696897867E+01  0.22813759782E+02  0.41800000000E+01 0. -1.
         -5    1    1    2    0  502  0.64843185804E+02 -0.12565246101E+03 -0.20368244736E+03  0.24798627273E+03  0.41800000000E+01 0. -1.
        -11    1    3    3    0    0  0.33500978477E+01  0.31713198916E+02 -0.71893387978E+01  0.32690009688E+02  0.00000000000E+00 0.  1.
         11    1    3    3    0    0 -0.58809761953E+02  0.74111535212E+02 -0.22135902045E+03  0.24072998086E+03  0.00000000000E+00 0. -1.
</event>
<event>
 7    1  0.6584658E-006  0.1220189E+03  0.7561462E-02  0.1239803E+00
         -3   -1    0    0    0  501 -0.00000000000E+00  0.00000000000E+00  0.10623808444E+03  0.10623808444E+03  0.00000000000E+00 0.  1.
          3   -1    0    0  501    0  0.00000000000E+00 -0.00000000000E+00 -0.19050116436E+03  0.19050116436E+03  0.00000000000E+00 0. -1.
         23    2    1    2    0    0 -0.63693807152E+02  0.63859350653E+02 -0.54892924103E+02  0.13975343222E+03  0.91558019672E+02 0.  0.
          5    1    1    2  502    0  0.23645318647E+02 -0.79226857375E+02 -0.61582823891E+02  0.10317903189E+03  0.41800000000E+01 0.  1.
         -5    1    1    2    0  502  0.40048488505E+02  0.15367506722E+02  0.32212668072E+02  0.53806784690E+02  0.41800000000E+01 0.  1.
        -11    1    3    3    0    0 -0.56354729231E+02  0.25565316294E+01  0.10721022075E+01  0.56422874473E+02  0.00000000000E+00 0. -1.
         11    1    3    3    0    0 -0.73390779208E+01  0.61302819023E+02 -0.55965026310E+02  0.83330557749E+02  0.00000000000E+00 0.  1.
</event>
<event>
 7    1  0.6584658E-006  0.5369227E+02  0.7561462E-02  0.1426386E+00
          1   -1    0    0  501    0  0.00000000000E+00  0.00000000000E+00  0.60616988197E+02  0.60616988197E+02  0.00000000000E+00 0. -1.
         -1   -1    0    0    0  501 -0.00000000000E+00 -0.00000000000E+00 -0.28355790923E+03  0.28355790923E+03  0.00000000000E+00 0.  1.
         23    2    1    2    0    0  0.33116294616E+02 -0.34547736921E+02 -0.24988841089E+02  0.10517338872E+03  0.90259428428E+02 0.  0.
          5    1    1    2  502    0 -0.23005905507E+02  0.66811662829E+01 -0.20645332024E+03  0.20788062803E+03  0.41800000000E+01 0. -1.
         -5    1    1    2    0  502 -0.10110389109E+02  0.27866570638E+02  0.85012403047E+01  0.31120880671E+02  0.41800000000E+01 0. -1.
        -11    1    3    3    0    0  0.30459745706E+02 -0.16027465398E+02  0.30888483434E+02  0.46246882753E+02  0.00000000000E+00 0. -1.
         11    1    3    3    0    0  0.26565489101E+01 -0.18520271523E+02 -0.55877324523E+02  0.58926505965E+02  0.00000000000E+00 0.  1.
</event>
<event>
 7    1  0.6584658E-006  0.1428137E+03  0.7561462E-02  0.1209592E+00
          2   -1    0    0  501    0  0.00000000000E+00  0.00000000000E+00  0.68922752312E+03  0.68922752312E+03  0.00000000000E+00 0. -1.
         -2   -1    0    0    0  501 -0.00000000000E+00 -0.00000000000E+00 -0.34111546245E+02  0.34111546245E+02  0.00000000000E+00 0.  1.
         23    2    1    2    0    0 -0.88203473526E+02  0.56517690661E+02  0.36951434860E+03  0.39441607657E+03  0.89716695973E+02 0.  0.
          5    1    1    2  502    0 -0.22568420773E+02  0.88103784250E+00  0.76207306034E+01  0.24200367328E+02  0.41800000000E+01 0. -1.
         -5    1    1    2    0  502  0.11077189430E+03 -0.57398728503E+02  0.27798089767E+03  0.30472262547E+03  0.41800000000E+01 0. -1.
        -11    1    3    3    0    0 -0.60477209981E+02 -0.13982104378E+02  0.15911496588E+03  0.17079392418E+03  0.00000000000E+00 0. -1.
         11    1    3    3    0    0 -0.27726263545E+02  0.70499795039E+02  0.21039938271E+03  0.22362215239E+03  0.00000000000E+00 0.  1.
</event>
<event>
 7    1  0.6584658E-006  0.1647865E+03  0.7561462E-02  0.1183396E+00
          2   -1    0    0  501    0  0.00000000000E+00  0.00000000000E+00  0.21931853112E+03  0.21931853112E+03  0.00000000000E+00 0. -1.
         -2   -1    0    0    0  501 -0.00000000000E+00 -0.00000000000E+00 -0.17274115508E+03  0.17274115508E+03  0.00000000000E+00 0.  1.
         23    2    1    2    0    0 -0.15932420170E+03 -0.87899570155E+01  0.50839912795E+02  0.18926126854E+03  0.88168398202E+02 0.  0.
          5    1    1    2  502    0  0.77421387235E+02  0.32294786738E+02 -0.57911055334E+02  0.10202052334E+03  0.41800000000E+01 0.  1.
         -5    1    1    2    0  502  0.81902814469E+02 -0.23504829722E+02  0.53648518585E+02  0.10077789433E+03  0.41800000000E+01 0.  1.
        -11    1    3    3    0    0 -0.52570880867E+02  0.41575095255E+01  0.61715047408E+02  0.81177148737E+02  0.00000000000E+00 0. -1.
         11    1    3    3    0    0 -0.10675332084E+03 -0.12947466541E+02 -0.10875134613E+02  0.10808411980E+03  0.00000000000E+00 0.  1.
</event>
<event>
 7    1  0.6584658E-006  0.1331534E+03  0.7561462E-02  0.1222850E+00
         -2   -1    0    0    0  501 -0.00000000000E+00  0.00000000000E+00  0.21333139478E+02  0.21333139478E+02  0.00000000000E+00 0.  1.
          2   -1    0    0  501    0  0.00000000000E+00 -0.00000000000E+00 -0.10628229395E+04  0.10628229395E+04  0.00000000000E+00 0. -1.
         23    2    1    2    0    0  0.82986318640E+02 -0.55869418067E+02 -0.58122657074E+03  0.59681849556E+03  0.91432320010E+02 0.  0.
          5    1    1    2  502    0  0.10016442545E+02  0.34693428080E+02 -0.28885282449E+03  0.29113122418E+03  0.41800000000E+01 0.  1.
         -5    1    1    2    0  502 -0.93002761184E+02  0.21175989987E+02 -0.17141040479E+03  0.19620635925E+03  0.41800000000E+01 0.  1.
        -11    1    3    3    0    0 -0.16413368602E+02 -0.25897079637E+02 -0.16612798157E+03  0.16893360727E+03  0.00000000000E+00 0. -1.
         11    1    3    3    0    0  0.99399687241E+02 -0.29972338430E+02 -0.41509858917E+03  0.42788488829E+03  0.00000000000E+00 0.  1.
</event>
<event>
 7    1  0.6584658E-006  0.6977998E+02  0.7561462E-02  0.1360843E+00
          1   -1    0    0  501    0  0.00000000000E+00  0.00000000000E+00  0.15381680976E+03  0.15381680976E+03  0.00000000000E+00 0. -1.
         -1   -1    0    0    0  501 -0.00000000000E+00 -0.00000000000E+00 -0.88119794658E+02  0.88119794658E+02  0.00000000000E+00 0.  1.
         23    2    1    2    0    0  0.18313832667E+02 -0.31348388568E+02  0.45406470288E+02  0.11011128908E+03  0.93512729108E+02 0.  0.
          5    1    1    2  502    0 -0.76419937061E+01  0.39823146829E+01 -0.52423528349E+02  0.53291252778E+02  0.41800000000E+01 0. -1.
         -5    1    1    2    0  502 -0.10671838961E+02  0.27366073885E+02  0.72714073167E+02  0.78534062566E+02  0.41800000000E+01 0. -1.
        -11    1    3    3    0    0 -0.38486896655E+02 -0.12926307316E+02  0.18475284161E+02  0.44605680802E+02  0.00000000000E+00 0.  1.
         11    1    3    3    0    0  0.56800729322E+02 -0.18422081252E+02  0.26931186127E+02  0.65505608274E+02  0.00000000000E+00 0. -1.
</event>
<event>
 7    1  0.6584658E-006  0.1112995E+03  0.7561462E-02  0.1258182E+00
         -2   -1    0    0    0  501 -0.00000000000E+00  0.00000000000E+00  0.11338381287E+03  0.11338381287E+03  0.00000000000E+00 0.  1.
          2   -1    0    0  501    0  0.00000000000E+00 -0.00000000000E+00 -0.37593294091E+03  0.37593294091E+03  0.00000000000E+00 0. -1.
         23    2    1    2    0    0  0.39951588020E+02 -0.27677184781E+02 -0.32505424459E+03  0.34127499871E+03  0.91903247342E+02 0.  0.
          5    1    1    2  502    0  0.42771552238E+02  0.27953901943E+02  0.26730186005E+02  0.57816966009E+02  0.41800000000E+01 0. -1.
         -5    1    1    2    0  502 -0.82723140258E+02 -0.27671716226E+00  0.35774930544E+02  0.90224789065E+02  0.41800000000E+01 0. -1.
        -11    1    3    3    0    0  0.25923064695E+02  0.23773740682E+02 -0.50208557067E+02  0.61303305229E+02  0.00000000000E+00 0.  1.
         11    1    3    3    0    0  0.14028523324E+02 -0.51450925463E+02 -0.27484568753E+03  0.27997169348E+03  0.00000000000E+00 0. -1.
</event>
<event>
 7    1  0.6584658E-006  0.1773513E+03  0.7561462E-02  0.1170391E+00
          2   -1    0    0  501    0  0.00000000000E+00  0.00000000000E+00  0.22975544793E+03  0.22975544793E+03  0.00000000000E+00 0. -1.
         -2   -1    0    0    0  501 -0.00000000000E+00 -0.00000000000E+00 -0.18070185641E+03  0.18070185641E+03  0.00000000000E+00 0.  1.
         23    2    1    2    0    0 -0.14269430625E+03  0.34287359751E+02  0.11190372467E+03  0.20764073067E+03  0.95157455634E+02 0.  0.
          5    1    1    2  502    0  0.35787759097E+02 -0.69464468008E+02 -0.40059643884E+02  0.87910883769E+02  0.41800000000E+01 0. -1.
         -5    1    1    2    0  502  0.10690654716E+03  0.35177108257E+02 -0.22790489260E+02  0.11490568990E+03  0.41800000000E+01 0. -1.
        -11    1    3    3    0    0 -0.13984329448E+03  0.49502688196E+02  0.72113837985E+02  0.16494565402E+03  0.00000000000E+00 0.  1.
         11    1    3    3    0    0 -0.28510117686E+01 -0.15215328444E+02  0.39789886688E+02  0.42695076653E+02  0.00000000000E+00 0. -1.
</event>
<event>
 7    1  0.6584658E-006  0.1698170E+03  0.7561462E-02  0.1178039E+00
         -2   -1    0    0    0  501 -0.00000000000E+00  0.00000000000E+00  0.73243655190E+02  0.73243655190E+02  0.00000000000E+00 0.  1.
          2   -1    0    0  501    0  0.00000000000E+00 -0.00000000000E+00 -0.79259172668E+03  0.79259172668E+03  0.00000000000E+00 0. -1.
         23    2    1    2    0    0  0.20696485047E+02 -0.15982269145E+03 -0.60345938040E+03  0.63121017325E+03  0.91057244747E+02 0.  0.
          5    1    1    2  502    0  0.19719316504E+02  0.51264193179E+02  0.17605586336E+02  0.57829905896E+02  0.41800000000E+01 0. -1.
         -5    1    1    2    0  502 -0.40415801550E+02  0.10855849827E+03 -0.13349427743E+03  0.17679530273E+03  0.41800000000E+01 0. -1.
        -11    1    3    3    0    0  0.36775032092E+02 -0.12466608914E+03 -0.55053436247E+03  0.56566962180E+03  0.00000000000E+00 0. -1.
         11    1    3    3    0    0 -0.16078547045E+02 -0.35156602309E+02 -0.52925017932E+02  0.65540551448E+02  0.00000000000E+00 0.  1.
</event>
<event>
 7    1  0.6584658E-006  0.9664291E+02  0.7561462E-02  0.1287518E+00
         -1   -1    0    0    0  501 -0.00000000000E+00  0.00000000000E+00  0.22888477790E+03  0.22888477790E+03  0.00000000000E+00 0.  1.
          1   -1    0    0  501    0  0.00000000000E+00 -0.00000000000E+00 -0.60063869605E+02  0.60063869605E+02  0.00000000000E+00 0. -1.
         23    2    1    2    0    0 -0.17872562543E+02  0.38408739305E+02  0.79498826330E+02  0.12950858449E+03  0.93047032850E+02 0.  0.
          5    1    1    2  502    0 -0.31491875301E+02 -0.27182383122E+02 -0.14176145579E+02  0.44148110556E+02  0.41800000000E+01 0. -1.
         -5    1    1    2    0  502  0.49364437845E+02 -0.11226356183E+02  0.10349822755E+03  0.11529195246E+03  0.41800000000E+01 0. -1.
        -11    1    3    3    0    0 -0.33737500060E+02  0.62970315335E+02  0.66165491510E+02  0.97372233160E+02  0.00000000000E+00 0.  1.
         11    1    3    3    0    0  0.15864937516E+02 -0.24561576030E+02  0.13333334820E+02  0.32136351331E+02  0.00000000000E+00 0. -1.
</event>
<event>
 7    1  0.6584658E-006  0.1258596E+03  0.7561462E-02  0.1233732E+00
         -4   -1    0    0    0  501 -0.00000000000E+00  0.00000000000E+00  0.20553101393E+03  0.20553101393E+03  0.00000000000E+00 0.  1.
          4   -1    0    0  501    0  0.00000000000E+00 -0.00000000000E+00 -0.15780854322E+03  0.15780854322E+03  0.00000000000E+00 0. -1.
         23    2    1    2    0    0 -0.87265678030E+02 -0.30077527615E+02 -0.74278893441E+02  0.16572030314E+03  0.11587022324E+03 0.  0.
          5    1    1    2  502    0 -0.84711159771E+01 -0.11028092964E+02  0.86136028223E+02  0.87351396087E+02  0.41800000000E+01 0. -1.
         -5    1    1    2    0  502  0.95736794007E+02  0.41105620579E+02  0.35865335926E+02  0.11026785792E+03  0.41800000000E+01 0. -1.
        -11    1    3    3    0    0 -0.10314557508E+03 -0.43683661792E+02 -0.86476401294E+02  0.14151127145E+03  0.00000000000E+00 0. -1.
         11    1    3    3    0    0  0.15879897051E+02  0.13606134177E+02  0.12197507854E+02  0.24209031691E+02  0.00000000000E+00 0.  1.
</event>
<event>
 7    1  0.6584658E-006  0.8311580E+02  0.7561462E-02  0.1320435E+00
          1   -1    0    0  501    0  0.00000000000E+00  0.00000000000E+00  0.30914122519E+03  0.30914122519E+03  0.00000000000E+00 0. -1.
         -1   -1    0    0    0  501 -0.00000000000E+00 -0.00000000000E+00 -0.41798273516E+02  0.41798273516E+02  0.00000000000E+00 0.  1.
         23    2    1    2    0    0  0.30472517427E+02 -0.16017929929E+02  0.13009068392E+03  0.16207366385E+03  0.90327947351E+02 0.  0.
          5    1    1    2  502    0  0.28725342981E+02  0.16179821693E+02 -0.60341124731E+01  0.33775951100E+02  0.41800000000E+01 0. -1.
         -5    1    1    2    0  502 -0.59197860408E+02 -0.16189176383E+00  0.14328638023E+03  0.15508988376E+03  0.41800000000E+01 0. -1.
        -11    1    3    3    0    0  0.87665439669E+01 -0.40208032472E+02  0.17208359176E+02  0.44605669975E+02  0.00000000000E+00 0.  1.
         11    1    3    3    0    0  0.21705973460E+02  0.24190102543E+02  0.11288232474E+03  0.11746799387E+03  0.00000000000E+00 0. -1.
</event>
<event>
 7    1  0.6584658E-006  0.9060023E+02  0.7561462E-02  0.1301405E+00
         -1   -1    0    0    0  501 -0.00000000000E+00  0.00000000000E+00  0.20764931613E+03  0.20764931613E+03  0.00000000000E+00 0. -1.
          1   -1    0    0  501    0  0.00000000000E+00 -0.00000000000E+00 -0.62576639012E+02  0.62576639012E+02  0.00000000000E+00 0.  1.
         23    2    1    2    0    0 -0.19764068575E+02  0.27995131667E+02  0.44309885814E+02  0.10599467501E+03  0.89984217206E+02 0.  0.
          5    1    1    2  502    0  0.59220479682E+02  0.20670997208E+02  0.70727725453E+02  0.94626840205E+02  0.41800000000E+01 0.  1.
         -5    1    1    2    0  502 -0.39456411107E+02 -0.48666128875E+02  0.30035065853E+02  0.69604439929E+02  0.41800000000E+01 0.  1.
        -11    1    3    3    0    0  0.13072460420E+02  0.15826978777E+02  0.63028558532E+02  0.66287115409E+02  0.00000000000E+00 0. -1.
         11    1    3    3    0    0 -0.32836528995E+02  0.12168152890E+02 -0.18718672718E+02  0.39707559602E+02  0.00000000000E+00 0.  1.
</event>
<event>
 7    1  0.6584658E-006  0.1365072E+03  0.7561462E-02  0.1218108E+00
         -2   -1    0    0    0  501 -0.00000000000E+00  0.00000000000E+00  0.27810099130E+02  0.27810099130E+02  0.00000000000E+00 0. -1.
          2   -1    0    0  501    0  0.00000000000E+00 -0.00000000000E+00 -0.80411169418E+03  0.80411169418E+03  0.00000000000E+00 0.  1.
         23    2    1    2    0    0  0.98097424565E+02 -0.30854640108E+02 -0.34568249435E+03  0.37185924800E+03  0.90596908891E+02 0.  0.
          5    1    1    2  502    0 -0.56355233706E+00  0.59814306097E+02 -0.16924306838E+03  0.17955154525E+03  0.41800000000E+01 0.  1.
         -5    1    1    2    0  502 -0.97533872228E+02 -0.28959665989E+02 -0.26137603232E+03  0.28051100006E+03  0.41800000000E+01 0.  1.
        -11    1    3    3    0    0  0.49834080268E+02  0.64143922912E+01 -0.53553984308E+02  0.73434387176E+02  0.00000000000E+00 0.  1.
         11    1    3    3    0    0  0.48263344297E+02 -0.37269032399E+02 -0.29212851004E+03  0.29842486082E+03  0.00000000000E+00 0. -1.
</event>
<event>
 7    1  0.6584658E-006  0.9879756E+02  0.7561462E-02  0.1282845E+00
          4   -1    0    0  501    0  0.00000000000E+00  0.00000000000E+00  0.47879426841E+03  0.47879426841E+03  0.00000000000E+00 0. -1.
         -4   -1    0    0    0  501 -0.00000000000E+00 -0.00000000000E+00 -0.39100705503E+02  0.39100705503E+02  0.00000000000E+00 0.  1.
         23    2    1    2    0    0 -0.49585190873E+02  0.53307349478E+02  0.27150259786E+03  0.29600265301E+03  0.92755297854E+02 0.  0.
          5    1    1    2  502    0  0.35725525953E+02 -0.15444251558E+02  0.17626553381E+03  0.18055982090E+03  0.41800000000E+01 0.  1.
         -5    1    1    2    0  502  0.13859664920E+02 -0.37863097921E+02 -0.80745687725E+01  0.41332500005E+02  0.41800000000E+01 0.  1.
        -11    1    3    3    0    0 -0.47101485848E+02 -0.15099332894E+02  0.11434631267E+03  0.12458578990E+03  0.00000000000E+00 0. -1.
         11    1    3    3    0    0 -0.24837050254E+01  0.68406682373E+02  0.15715628519E+03  0.17141686311E+03  0.00000000000E+00 0.  1.
</event>
<event>
 7    1  0.6584658E-006  0.1971422E+03  0.7561462E-02  0.1152173E+00
         -2   -1    0    0    0  501 -0.00000000000E+00  0.00000000000E+00  0.92165841097E+02  0.92165841097E+02  0.00000000000E+00 0.  1.
          2   -1    0    0  501    0  0.00000000000E+00 -0.00000000000E+00 -0.14226709290E+04  0.14226709290E+04  0.00000000000E+00 0. -1.
         23    2    1    2    0    0  0.66103172119E+02  0.68178727963E+02 -0.29650702392E+03  0.32462595653E+03  0.91910979261E+02 0.  0.
          5    1    1    2  502    0  0.49824084331E+02 -0.12384104495E+03 -0.10518656728E+04  0.10603102894E+04  0.41800000000E+01 0. -1.
         -5    1    1    2    0  502 -0.11592725645E+03  0.55662316986E+02  0.17867608863E+02  0.12990052412E+03  0.41800000000E+01 0.  1.
        -11    1    3    3    0    0  0.55281818288E+02 -0.73471598595E+01 -0.13123363249E+03  0.14259146709E+03  0.00000000000E+00 0.  1.
         11    1    3    3    0    0  0.10821353831E+02  0.75525887822E+02 -0.16527339143E+03  0.18203448944E+03  0.00000000000E+00 0. -1.
</event>
<event>
 7    1  0.6584658E-006  0.1001018E+03  0.7561462E-02  0.1280082E+00
          3   -1    0    0  501    0  0.00000000000E+00  0.00000000000E+00  0.27018428246E+02  0.27018428246E+02  0.00000000000E+00 0. -1.
         -3   -1    0    0    0  501 -0.00000000000E+00 -0.00000000000E+00 -0.68963278297E+03  0.68963278297E+03  0.00000000000E+00 0.  1.
         23    2    1    2    0    0  0.75223895799E+02  0.17586555560E+02 -0.22012121067E+03  0.25037223980E+03  0.90911988427E+02 0.  0.
          5    1    1    2  502    0 -0.84308911714E+02 -0.12822764954E+02 -0.44643128649E+03  0.45452258673E+03  0.41800000000E+01 0. -1.
         -5    1    1    2    0  502  0.90850159146E+01 -0.47637906058E+01  0.39381424301E+01  0.11756384687E+02  0.41800000000E+01 0. -1.
        -11    1    3    3    0    0 -0.90600448540E+01 -0.11449384662E+02 -0.19990956147E+01  0.14736661941E+02  0.00000000000E+00 0. -1.
         11    1    3    3    0    0  0.84283940653E+02  0.29035940222E+02 -0.21812211505E+03  0.23563557785E+03  0.00000000000E+00 0.  1.
</event>
<event>
 7    1  0.6584658E-006  0.1523491E+03  0.7561462E-02  0.1197616E+00
          1   -1    0    0  501    0  0.00000000000E+00  0.00000000000E+00  0.23776919993E+03  0.23776919993E+03  0.00000000000E+00 0. -1.
         -1   -1    0    0    0  501 -0.00000000000E+00 -0.00000000000E+00 -0.13469445771E+03  0.13469445771E+03  0.00000000000E+00 0.  1.
         23    2    1    2    0    0 -0.14117204124E+03  0.53084366354E+00  0.57206485319E+02  0.17834841897E+03  0.92767179336E+02 0.  0.
          5    1    1    2  502    0  0.20383774769E+02 -0.31370444720E+02  0.57623042652E+02  0.68829430626E+02  0.41800000000E+01 0.  1.
         -5    1    1    2    0  502  0.12078826647E+03  0.30839601057E+02 -0.11754785752E+02  0.12528580805E+03  0.41800000000E+01 0.  1.
        -11    1    3    3    0    0 -0.57188645351E+02 -0.86429903541E+01  0.72237042712E+02  0.92538817688E+02  0.00000000000E+00 0. -1.
         11    1    3    3    0    0 -0.83983395892E+02  0.91738340177E+01 -0.15030557393E+02  0.85809601279E+02  0.00000000000E+00 0.  1.
</event>
<event>
 7    1  0.6584658E-006  0.1248306E+03  0.7561462E-02  0.1235334E+00
         -1   -1    0    0    0  501 -0.00000000000E+00  0.00000000000E+00  0.10613716335E+03  0.10613716335E+03  0.00000000000E+00 0.  1.
          1   -1    0    0  501    0  0.00000000000E+00 -0.00000000000E+00 -0.16932532088E+03  0.16932532088E+03  0.00000000000E+00 0. -1.
         23    2    1    2    0    0 -0.18890304014E+02  0.71201718736E+02 -0.42677272890E+02  0.13283839281E+03  0.10197137170E+03 0.  0.
          5    1    1    2  502    0  0.15867515414E+02 -0.10009664172E+03 -0.38161661323E+02  0.10837389226E+03  0.41800000000E+01 0. -1.
         -5    1    1    2    0  502  0.30227886007E+01  0.28894922981E+02  0.17650776688E+02  0.34250199162E+02  0.41800000000E+01 0.  1.
        -11    1    3    3    0    0 -0.56972543575E+02  0.39500628587E+02 -0.30540202129E+01  0.69393785166E+02  0.00000000000E+00 0.  1.
         11    1    3    3    0    0  0.38082239561E+02  0.31701090149E+02 -0.39623252677E+02  0.63444607645E+02  0.00000000000E+00 0. -1.
</event>
<event>
 7    1  0.6584658E-006  0.1380952E+03  0.7561462E-02  0.1215915E+00
          2   -1    0    0  501    0  0.00000000000E+00  0.00000000000E+00  0.30109616741E+03  0.30109616741E+03  0.00000000000E+00 0. -1.
         -2   -1    0    0    0  501 -0.00000000000E+00 -0.00000000000E+00 -0.14954536049E+03  0.14954536049E+03  0.00000000000E+00 0.  1.
         23    2    1    2    0    0  0.77437551883E+02  0.49004776082E+02  0.23978818827E+03  0.27222777035E+03  0.90617554572E+02 0.  0.
          5    1    1    2  502    0 -0.51349446038E+02 -0.87257964567E+02 -0.33787568831E+02  0.10681661948E+03  0.41800000000E+01 0.  1.
         -5    1    1    2    0  502 -0.26088105845E+02  0.38253188485E+02 -0.54449812518E+02  0.71597138065E+02  0.41800000000E+01 0.  1.
        -11    1    3    3    0    0  0.86425240990E+02  0.84595053129E+01  0.17320708828E+03  0.19375649909E+03  0.00000000000E+00 0. -1.
         11    1    3    3    0    0 -0.89876891063E+01  0.40545270769E+02  0.66581099994E+02  0.78471271263E+02  0.00000000000E+00 0.  1.
</event>
<event>
 7    1  0.6584658E-006  0.1361726E+03  0.7561462E-02  0.1218574E+00
         -1   -1    0    0    0  501 -0.00000000000E+00  0.00000000000E+00  0.51537918229E+02  0.51537918229E+02  0.00000000000E+00 0.  1.
          1   -1    0    0  501    0  0.00000000000E+00 -0.00000000000E+00 -0.48342470858E+03  0.48342470858E+03  0.00000000000E+00 0. -1.
         23    2    1    2    0    0  0.90941255317E+00  0.94735878017E+02 -0.30659912461E+03  0.33416401634E+03  0.93203288525E+02 0.  0.
          5    1    1    2  502    0  0.51336678551E+02 -0.58782818902E+01 -0.57172704686E+02  0.77176416888E+02  0.41800000000E+01 0.  1.
         -5    1    1    2    0  502 -0.52246091104E+02 -0.88857596126E+02 -0.68114961053E+02  0.12362219357E+03  0.41800000000E+01 0.  1.
        -11    1    3    3    0    0  0.33571848463E+02  0.65054390884E+02 -0.10635803948E+03  0.12911690573E+03  0.00000000000E+00 0.  1.
         11    1    3    3    0    0 -0.32662435910E+02  0.29681487132E+02 -0.20024108513E+03  0.20504711061E+03  0.00000000000E+00 0. -1.
</event>
<event>
 7    1  0.6584658E-006  0.1547445E+03  0.7561462E-02  0.1194761E+00
         -3   -1    0    0    0  501 -0.00000000000E+00  0.00000000000E+00  0.39808007370E+02  0.39808007370E+02  0.00000000000E+00 0.  1.
          3   -1    0    0  501    0  0.00000000000E+00 -0.00000000000E+00 -0.72668305201E+03  0.72668305201E+03  0.00000000000E+00 0. -1.
         23    2    1    2    0    0  0.10528864963E+03 -0.65144134328E+02 -0.23003114342E+03  0.27691666277E+03  0.91864319491E+02 0.  0.
          5    1    1    2  502    0  0.17403739485E+02  0.20818495936E+02 -0.19583662195E+03  0.19775175048E+03  0.41800000000E+01 0. -1.
         -5    1    1    2    0  502 -0.12269238911E+03  0.44325638392E+02 -0.26100727927E+03  0.29182264614E+03  0.41800000000E+01 0. -1.
        -11    1    3    3    0    0  0.47733303552E+02  0.17467643150E+02 -0.54243063578E+02  0.74336375830E+02  0.00000000000E+00 0.  1.
         11    1    3    3    0    0  0.57555346079E+02 -0.82611777478E+02 -0.17578807984E+03  0.20258028694E+03  0.00000000000E+00 0. -1.
</event>
<event>
 7    1  0.6584658E-006  0.1022691E+03  0.7561462E-02  0.1275596E+00
          2   -1    0    0  501    0  0.00000000000E+00  0.00000000000E+00  0.30107429937E+03  0.30107429937E+03  0.00000000000E+00 0. -1.
         -2   -1    0    0    0  501 -0.00000000000E+00 -0.00000000000E+00 -0.41488171547E+02  0.41488171547E+02  0.00000000000E+00 0.  1.
         23    2    1    2    0    0 -0.14786645482E+02  0.17094998973E+02  0.13781374164E+03  0.16652346064E+03  0.90700340040E+02 0.  0.
          5    1    1    2  502    0  0.23765602522E+02 -0.69303189338E+02  0.62079303772E+02  0.96119968126E+02  0.41800000000E+01 0. -1.
         -5    1    1    2    0  502 -0.89789570404E+01  0.52208190366E+02  0.59693082407E+02  0.79919042150E+02  0.41800000000E+01 0. -1.
        -11    1    3    3    0    0 -0.31151768293E+02  0.39477154765E+02  0.12729541925E+03  0.13686855803E+03  0.00000000000E+00 0. -1.
         11    1    3    3    0    0  0.16365122811E+02 -0.22382155793E+02  0.10518322390E+02  0.29654902604E+02  0.00000000000E+00 0.  1.
</event>
<event>
 7    1  0.6584658E-006  0.8770834E+02  0.7561462E-02  0.1308498E+00
          2   -1    0    0  501    0  0.00000000000E+00  0.00000000000E+00  0.61111690894E+03  0.61111690894E+03  0.00000000000E+00 0. -1.
         -2   -1    0    0    0  501 -0.00000000000E+00 -0.00000000000E+00 -0.22744256440E+02  0.22744256440E+02  0.00000000000E+00 0.  1.
         23    2    1    2    0    0  0.23439552558E+02 -0.21592479768E+02  0.32849947703E+03  0.34370134198E+03  0.95932571456E+02 0.  0.
          5    1    1    2  502    0  0.91390666450E+01 -0.27870177046E+02  0.70443451906E+01  0.30452660096E+02  0.41800000000E+01 0. -1.
         -5    1    1    2    0  502 -0.32578619203E+02  0.49462656814E+02  0.25282883028E+03  0.25970716330E+03  0.41800000000E+01 0. -1.
        -11    1    3    3    0    0  0.17419251100E+02  0.29882593127E+02  0.52445262493E+02  0.62824400028E+02  0.00000000000E+00 0.  1.
         11    1    3    3    0    0  0.60203014581E+01 -0.51475072895E+02  0.27605421454E+03  0.28087694196E+03  0.00000000000E+00 0. -1.
</event>
<event>
 7    1  0.6584658E-006  0.1165906E+03  0.7561462E-02  0.1248830E+00
         -4   -1    0    0    0  501 -0.00000000000E+00  0.00000000000E+00  0.32670229062E+02  0.32670229062E+02  0.00000000000E+00 0.  1.
          4   -1    0    0  501    0  0.00000000000E+00 -0.00000000000E+00 -0.67813258469E+03  0.67813258469E+03  0.00000000000E+00 0. -1.
         23    2    1    2    0    0 -0.19204368161E+02  0.67265426798E+02 -0.47637508168E+03  0.48914771828E+03  0.86248631646E+02 0.  0.
          5    1    1    2  502    0  0.45510518263E+02  0.66393368603E+01 -0.14758980349E+02  0.48482862616E+02  0.41800000000E+01 0.  1.
         -5    1    1    2    0  502 -0.26306150102E+02 -0.73904763658E+02 -0.15432829360E+03  0.17317223285E+03  0.41800000000E+01 0.  1.
        -11    1    3    3    0    0  0.22917401346E+02  0.61866479683E+02 -0.33893952724E+03  0.34530084234E+03  0.00000000000E+00 0. -1.
         11    1    3    3    0    0 -0.42121769507E+02  0.53989471143E+01 -0.13743555444E+03  0.14384687595E+03  0.00000000000E+00 0.  1.
</event>
<event>
 7    1  0.6584658E-006  0.9335892E+02  0.7561462E-02  0.1294916E+00
          3   -1    0    0  501    0  0.00000000000E+00  0.00000000000E+00  0.23607720392E+03  0.23607720392E+03  0.00000000000E+00 0. -1.
         -3   -1    0    0    0  501 -0.00000000000E+00 -0.00000000000E+00 -0.87739424711E+02  0.87739424711E+02  0.00000000000E+00 0.  1.
         23    2    1    2    0    0  0.47873482367E+01 -0.24987680126E+02  0.17014284050E+03  0.19425916632E+03  0.90226019880E+02 0.  0.
          5    1    1    2  502    0 -0.23825023178E+02 -0.43202277530E+02 -0.30426175195E+02  0.58114482276E+02  0.41800000000E+01 0.  1.
         -5    1    1    2    0  502  0.19037674941E+02  0.68189957656E+02  0.86211139068E+01  0.71442980042E+02  0.41800000000E+01 0.  1.
        -11    1    3    3    0    0  0.25905621410E+01  0.20540261739E+02  0.28865836766E+01  0.20903246873E+02  0.00000000000E+00 0.  1.
         11    1    3    3    0    0  0.21967860957E+01 -0.45527941865E+02  0.16725625682E+03  0.17335591944E+03  0.00000000000E+00 0. -1.
</event>
<event>
 7    1  0.6584658E-006  0.1193178E+03  0.7561462E-02  0.1244227E+00
         -1   -1    0    0    0  501 -0.00000000000E+00  0.00000000000E+00  0.47688732324E+03  0.47688732324E+03  0.00000000000E+00 0.  1.
          1   -1    0    0  501    0  0.00000000000E+00 -0.00000000000E+00 -0.51373219494E+02  0.51373219494E+02  0.00000000000E+00 0. -1.
         23    2    1    2    0    0 -0.60756193346E+02 -0.88576245781E+02  0.14195585144E+03  0.20025134357E+03  0.91717340219E+02 0.  0.
          5    1    1    2  502    0  0.67585399226E+02  0.89823905677E+02  0.12085617083E+03  0.16510544100E+03  0.41800000000E+01 0.  1.
         -5    1    1    2    0  502 -0.68292058802E+01 -0.12476598959E+01  0.16270208147E+03  0.16290375816E+03  0.41800000000E+01 0.  1.
        -11    1    3    3    0    0 -0.35488291033E+02 -0.12088755038E+02  0.53102494610E+00  0.37494516750E+02  0.00000000000E+00 0. -1.
         11    1    3    3    0    0 -0.25267902312E+02 -0.76487490743E+02  0.14142482649E+03  0.16275682682E+03  0.00000000000E+00 0.  1.
</event>
<event>
 7    1  0.6584658E-006  0.2486163E+03  0.7561462E-02  0.1114182E+00
          2   -1    0    0  501    0  0.00000000000E+00  0.00000000000E+00  0.80131859169E+03  0.80131859169E+03  0.00000000000E+00 0. -1.
         -2   -1    0    0    0  501 -0.00000000000E+00 -0.00000000000E+00 -0.89228259843E+02  0.89228259843E+02  0.00000000000E+00 0.  1.
         23    2    1    2    0    0 -0.22705992694E+03 -0.89435711924E+02  0.33883424070E+03  0.42735812586E+03  0.90947061949E+02 0.  0.
          5    1    1    2  502    0  0.10594633032E+03  0.61082198021E+02  0.84365685398E+02  0.14862940858E+03  0.41800000000E+01 0.  1.
         -5    1    1    2    0  502  0.12111359662E+03  0.28353513903E+02  0.28889040575E+03  0.31455931710E+03  0.41800000000E+01 0.  1.
        -11    1    3    3    0    0 -0.45216315426E+02  0.50254484230E+01  0.23273517033E+02  0.51102122340E+02  0.00000000000E+00 0.  1.
         11    1    3    3    0    0 -0.18184361151E+03 -0.94461160347E+02  0.31556072367E+03  0.37625600352E+03  0.00000000000E+00 0. -1.
</event>
<event>
 7    1  0.6584658E-006  0.1031172E+03  0.7561462E-02  0.1273874E+00
          1   -1    0    0  501    0  0.00000000000E+00  0.00000000000E+00  0.26556080612E+03  0.26556080612E+03  0.00000000000E+00 0. -1.
         -1   -1    0    0    0  501 -0.00000000000E+00 -0.00000000000E+00 -0.63200758265E+02  0.63200758265E+02  0.00000000000E+00 0.  1.
         23    2    1    2    0    0 -0.69992217072E+02  0.17941187164E+02  0.12077130205E+03  0.16285602022E+03  0.81948638038E+02 0.  0.
          5    1    1    2  502    0  0.91175217849E+02 -0.19154647072E+02  0.10055271678E+03  0.13714278000E+03  0.41800000000E+01 0. -1.
         -5    1    1    2    0  502 -0.21183000777E+02  0.12134599080E+01 -0.18963970977E+02  0.28762764159E+02  0.41800000000E+01 0. -1.
        -11    1    3    3    0    0 -0.13624570692E+02  0.30672208179E+02  0.56354824051E+01  0.34031925350E+02  0.00000000000E+00 0.  1.
         11    1    3    3    0    0 -0.56367646380E+02 -0.12731021015E+02  0.11513581964E+03  0.12882409487E+03  0.00000000000E+00 0. -1.
</event>
<event>
 7    1  0.6584658E-006  0.8737863E+02  0.7561462E-02  0.1309327E+00
          2   -1    0    0  501    0  0.00000000000E+00  0.00000000000E+00  0.18979092234E+03  0.18979092234E+03  0.00000000000E+00 0. -1.
         -2   -1    0    0    0  501 -0.00000000000E+00 -0.00000000000E+00 -0.74679781296E+02  0.74679781296E+02  0.00000000000E+00 0.  1.
         23    2    1    2    0    0  0.23164428150E+02 -0.43819040091E+02  0.49581420873E+02  0.11481198399E+03  0.90921809075E+02 0.  0.
          5    1    1    2  502    0 -0.35336915173E+02  0.68011383855E+02  0.86135146470E+02  0.11537322811E+03  0.41800000000E+01 0.  1.
         -5    1    1    2    0  502  0.12172487022E+02 -0.24192343764E+02 -0.20605426296E+02  0.34285491537E+02  0.41800000000E+01 0.  1.
        -11    1    3    3    0    0  0.10123983906E+02 -0.53440643064E+02  0.70061177630E+02  0.88695918690E+02  0.00000000000E+00 0. -1.
         11    1    3    3    0    0  0.13040444244E+02  0.96216029729E+01 -0.20479756757E+02  0.26116065299E+02  0.00000000000E+00 0.  1.
</event>
<event>
 7    1  0.6584658E-006  0.1177469E+03  0.7561462E-02  0.1246861E+00
          1   -1    0    0  501    0  0.00000000000E+00  0.00000000000E+00  0.18717569245E+03  0.18717569245E+03  0.00000000000E+00 0. -1.
         -1   -1    0    0    0  501 -0.00000000000E+00 -0.00000000000E+00 -0.90890594385E+02  0.90890594385E+02  0.00000000000E+00 0.  1.
         23    2    1    2    0    0  0.60689383431E+02  0.11081984177E+02  0.65254053145E+02  0.12801787731E+03  0.91238554491E+02 0.  0.
          5    1    1    2  502    0 -0.42934641169E+02 -0.67152395397E+02 -0.66226635691E+01  0.80088449184E+02  0.41800000000E+01 0. -1.
         -5    1    1    2    0  502 -0.17754742262E+02  0.56070411221E+02  0.37653708485E+02  0.69959960334E+02  0.41800000000E+01 0.  1.
        -11    1    3    3    0    0  0.50396934290E+02 -0.27065928993E+02  0.67454032334E+02  0.88444683143E+02  0.00000000000E+00 0. -1.
         11    1    3    3    0    0  0.10292449141E+02  0.38147913169E+02 -0.21999791887E+01  0.39573194171E+02  0.00000000000E+00 0.  1.
</event>
<event>
 7    1  0.6584658E-006  0.8874581E+02  0.7561462E-02  0.1305918E+00
         -1   -1    0    0    0  501 -0.00000000000E+00  0.00000000000E+00  0.25656584967E+03  0.25656584967E+03  0.00000000000E+00 0.  1.
          1   -1    0    0  501    0  0.00000000000E+00 -0.00000000000E+00 -0.10852238930E+03  0.10852238930E+03  0.00000000000E+00 0. -1.
         23    2    1    2    0    0  0.60905278364E+01  0.83266341752E+02 -0.34684164084E+02  0.12842926153E+03  0.91217902744E+02 0.  0.
          5    1    1    2  502    0  0.19744788142E+01 -0.27101426701E+02 -0.14714502098E+02  0.31182925901E+02  0.41800000000E+01 0. -1.
         -5    1    1    2    0  502 -0.80650066506E+01 -0.56164915051E+02  0.19744212655E+03  0.20547605153E+03  0.41800000000E+01 0. -1.
        -11    1    3    3    0    0  0.21303821372E+02  0.69124621266E+02  0.15624578762E+02  0.74001307635E+02  0.00000000000E+00 0.  1.
         11    1    3    3    0    0 -0.15213293535E+02  0.14141720485E+02 -0.50308742846E+02  0.54427953895E+02  0.00000000000E+00 0. -1.
</event>
<event>
 7    1  0.6584658E-006  0.1957962E+03  0.7561462E-02  0.1153335E+00
          1   -1    0    0  501    0  0.00000000000E+00  0.00000000000E+00  0.32685100621E+03  0.32685100621E+03  0.00000000000E+00 0. -1.
         -1   -1    0    0    0  501 -0.00000000000E+00 -0.00000000000E+00 -0.17544811327E+03  0.17544811327E+03  0.00000000000E+00 0.  1.
         23    2    1    2    0    0 -0.68601095668E+02  0.15313525409E+03  0.21120108768E+03  0.28462775258E+03  0.90832492681E+02 0.  0.
          5    1    1    2  502    0  0.60602520238E+01  0.18091946030E+02 -0.25521840549E+02  0.32138480218E+02  0.41800000000E+01 0. -1.
         -5    1    1    2    0  502  0.62540843644E+02 -0.17122720012E+03 -0.34276354196E+02  0.18553288669E+03  0.41800000000E+01 0. -1.
        -11    1    3    3    0    0  0.11788912357E+01  0.10486649316E+03  0.13169608209E+03  0.16835150493E+03  0.00000000000E+00 0.  1.
         11    1    3    3    0    0 -0.69779986904E+02  0.48268760935E+02  0.79505005584E+02  0.11627624765E+03  0.00000000000E+00 0. -1.
</event>
<event>
 7    1  0.6584658E-006  0.1204554E+03  0.7561462E-02  0.1242348E+00
         -3   -1    0    0    0  501 -0.00000000000E+00  0.00000000000E+00  0.33072956018E+03  0.33072956018E+03  0.00000000000E+00 0.  1.
          3   -1    0    0  501    0  0.00000000000E+00 -0.00000000000E+00 -0.46701830767E+02  0.46701830767E+02  0.00000000000E+00 0. -1.
         23    2    1    2    0    0  0.48213966795E+02 -0.23579963842E+02  0.81500179613E+02  0.13341282605E+03  0.90973081674E+02 0.  0.
          5    1    1    2  502    0 -0.87018680403E+00  0.69369124898E+02  0.92236936734E+02  0.11549007582E+03  0.41800000000E+01 0.  1.
         -5    1    1    2    0  502 -0.47343779991E+02 -0.45789161056E+02  0.11029061307E+03  0.12852848908E+03  0.41800000000E+01 0.  1.
        -11    1    3    3    0    0  0.27508520380E+02  0.34284608054E+02  0.29850397645E+02  0.53133786638E+02  0.00000000000E+00 0.  1.
         11    1    3    3    0    0  0.20705446414E+02 -0.57864571896E+02  0.51649781968E+02  0.80279039414E+02  0.00000000000E+00 0. -1.
</event>
<event>
 7    1  0.6584658E-006  0.1476450E+03  0.7561462E-02  0.1203397E+00
         -1   -1    0    0    0  501 -0.00000000000E+00  0.00000000000E+00  0.19160965018E+03  0.19160965018E+03  0.00000000000E+00 0.  1.
          1   -1    0    0  501    0  0.00000000000E+00 -0.00000000000E+00 -0.14005702803E+03  0.14005702803E+03  0.00000000000E+00 0. -1.
         23    2    1    2    0    0 -0.17099072318E+02 -0.11773089633E+03 -0.91059331756E+01  0.14868554429E+03  0.88721648082E+02 0.  0.
          5    1    1    2  502    0  0.45722399897E+02  0.13201339230E+03  0.55133756687E+02  0.15025071423E+03  0.41800000000E+01 0. -1.
         -5    1    1    2    0  502 -0.28623327578E+02 -0.14282495971E+02  0.55247986334E+01  0.32730419685E+02  0.41800000000E+01 0. -1.
        -11    1    3    3    0    0  0.87497280059E+01 -0.50080725800E+02  0.36961062828E+02  0.62855047548E+02  0.00000000000E+00 0.  1.
         11    1    3    3    0    0 -0.25848800324E+02 -0.67650170529E+02 -0.46066996004E+02  0.85830496746E+02  0.00000000000E+00 0. -1.
</event>
<event>
 7    1  0.6584658E-006  0.8122680E+02  0.7561462E-02  0.1325606E+00
         -2   -1    0    0    0  501 -0.00000000000E+00  0.00000000000E+00  0.49068695793E+02  0.49068695793E+02  0.00000000000E+00 0. -1.
          2   -1    0    0  501    0  0.00000000000E+00 -0.00000000000E+00 -0.28537232378E+03  0.28537232378E+03  0.00000000000E+00 0.  1.
         23    2    1    2    0    0 -0.59108098772E+02  0.18154011094E+02 -0.87463044909E+02  0.13042086867E+03  0.74407548687E+02 0.  0.
          5    1    1    2  502    0  0.93888110684E+01 -0.11663304007E+02 -0.15276345035E+03  0.15355235784E+03  0.41800000000E+01 0.  1.
         -5    1    1    2    0  502  0.49719287703E+02 -0.64907070870E+01  0.39228672812E+01  0.50467793056E+02  0.41800000000E+01 0.  1.
        -11    1    3    3    0    0 -0.52413130798E+01  0.38616682352E+02 -0.31717652208E+02  0.50246681286E+02  0.00000000000E+00 0.  1.
         11    1    3    3    0    0 -0.53866785692E+02 -0.20462671258E+02 -0.55745392702E+02  0.80174187388E+02  0.00000000000E+00 0. -1.
</event>
<event>
 7    1  0.6584658E-006  0.7849550E+02  0.7561462E-02  0.1333376E+00
          1   -1    0    0  501    0  0.00000000000E+00  0.00000000000E+00  0.16109651429E+02  0.16109651429E+02  0.00000000000E+00 0. -1.
         -1   -1    0    0    0  501 -0.00000000000E+00 -0.00000000000E+00 -0.82373415597E+03  0.82373415597E+03  0.00000000000E+00 0.  1.
         23    2    1    2    0    0 -0.31736054688E+02  0.27388673041E+02 -0.31418312895E+03  0.32907095962E+03  0.88427039821E+02 0.  0.
          5    1    1    2  502    0 -0.17789662297E+00  0.16835650830E+02 -0.41376620564E+03  0.41412970929E+03  0.41800000000E+01 0.  1.
         -5    1    1    2    0  502  0.31913951311E+02 -0.44224323871E+02 -0.79675169950E+02  0.96643138487E+02  0.41800000000E+01 0.  1.
        -11    1    3    3    0    0  0.21572948579E+02  0.22880586304E+02 -0.46772269834E+02  0.56360966683E+02  0.00000000000E+00 0.  1.
         11    1    3    3    0    0 -0.53309003268E+02  0.45080867365E+01 -0.26741085912E+03  0.27270999294E+03  0.00000000000E+00 0. -1.
</event>
<event>
 7    1  0.6584658E-006  0.1145357E+03  0.7561462E-02  0.1252394E+00
         -1   -1    0    0    0  501 -0.00000000000E+00  0.00000000000E+00  0.87853490664E+02  0.87853490664E+02  0.00000000000E+00 0.  1.
          1   -1    0    0  501    0  0.00000000000E+00 -0.00000000000E+00 -0.25051630992E+03  0.25051630992E+03  0.00000000000E+00 0. -1.
         23    2    1    2    0    0  0.51887604159E+02  0.15959401301E+02 -0.17188431300E+03  0.20169714795E+03  0.90501361760E+02 0.  0.
          5    1    1    2  502    0  0.35795384401E+02 -0.13286414519E+01  0.28076388738E+02  0.45703728919E+02  0.41800000000E+01 0.  1.
         -5    1    1    2    0  502 -0.87682988561E+02 -0.14630759849E+02 -0.18854894995E+02  0.90968923716E+02  0.41800000000E+01 0.  1.
        -11    1    3    3    0    0  0.77113903158E+02  0.78269900053E+01 -0.14180883262E+03  0.16160928451E+03  0.00000000000E+00 0. -1.
         11    1    3    3    0    0 -0.25226298999E+02  0.81324112960E+01 -0.30075480387E+02  0.40087863440E+02  0.00000000000E+00 0.  1.
</event>
<event>
 7    1  0.6584658E-006  0.1166674E+03  0.7561462E-02  0.1248698E+00
         -2   -1    0    0    0  501 -0.00000000000E+00  0.00000000000E+00  0.29118698175E+02  0.29118698175E+02  0.00000000000E+00 0.  1.
          2   -1    0    0  501    0  0.00000000000E+00 -0.00000000000E+00 -0.67693732987E+03  0.67693732987E+03  0.00000000000E+00 0. -1.
         23    2    1    2    0    0 -0.20277222400E+02  0.55701766732E+02 -0.45958209051E+03  0.47239831477E+03  0.91818393090E+02 0.  0.
          5    1    1    2  502    0  0.65104643217E+02 -0.43988808195E+02 -0.16236792262E+03  0.18042850249E+03  0.41800000000E+01 0.  1.
         -5    1    1    2    0  502 -0.44827420817E+02 -0.11712958537E+02 -0.25868618561E+02  0.53229210788E+02  0.41800000000E+01 0.  1.
        -11    1    3    3    0    0  0.19306955648E+02 -0.16756784690E+02 -0.14049998127E+03  0.14280683845E+03  0.00000000000E+00 0.  1.
         11    1    3    3    0    0 -0.39584178048E+02  0.72458551423E+02 -0.31908210924E+03  0.32959147632E+03  0.00000000000E+00 0. -1.
</event>
<event>
 7    1  0.6584658E-006  0.1364496E+03  0.7561462E-02  0.1218188E+00
         -2   -1    0    0    0  501 -0.00000000000E+00  0.00000000000E+00  0.17484111109E+02  0.17484111109E+02  0.00000000000E+00 0.  1.
          2   -1    0    0  501    0  0.00000000000E+00 -0.00000000000E+00 -0.11817383861E+04  0.11817383861E+04  0.00000000000E+00 0. -1.
         23    2    1    2    0    0 -0.38563848145E+02 -0.84462432284E+02 -0.58826397342E+03  0.60253709309E+03  0.91517065531E+02 0.  0.
          5    1    1    2  502    0 -0.29260857202E+02  0.81166134863E+02 -0.36082083063E+03  0.37101655412E+03  0.41800000000E+01 0. -1.
         -5    1    1    2    0  502  0.67824705347E+02  0.32962974209E+01 -0.21516947093E+03  0.22566884998E+03  0.41800000000E+01 0. -1.
        -11    1    3    3    0    0 -0.73770017673E+01 -0.86891413234E+02 -0.52232456915E+03  0.52955405143E+03  0.00000000000E+00 0. -1.
         11    1    3    3    0    0 -0.31186846378E+02  0.24289809502E+01 -0.65939404267E+02  0.72983041664E+02  0.00000000000E+00 0.  1.
</event>
<event>
 7    1  0.6584658E-006  0.1062660E+03  0.7561462E-02  0.1267645E+00
         -2   -1    0    0    0  501 -0.00000000000E+00  0.00000000000E+00  0.13753831962E+02  0.13753831962E+02  0.00000000000E+00 0.  1.
          2   -1    0    0  501    0  0.00000000000E+00 -0.00000000000E+00 -0.88415529856E+03  0.88415529856E+03  0.00000000000E+00 0. -1.
         23    2    1    2    0    0  0.20613238324E+02 -0.12135833432E+02 -0.39875605976E+03  0.40937272738E+03  0.89484359958E+02 0.  0.
          5    1    1    2  502    0 -0.38116655343E+02 -0.46709149275E+02 -0.30413758350E+03  0.31008348253E+03  0.41800000000E+01 0. -1.
         -5    1    1    2    0  502  0.17503417018E+02  0.58844982707E+02 -0.16750782333E+03  0.17845292061E+03  0.41800000000E+01 0. -1.
        -11    1    3    3    0    0 -0.29655787817E+02 -0.24874176766E+02 -0.12918650002E+03  0.13486045457E+03  0.00000000000E+00 0. -1.
         11    1    3    3    0    0  0.50269026141E+02  0.12738343334E+02 -0.26956955975E+03  0.27451227281E+03  0.00000000000E+00 0.  1.
</event>
<event>
 7    1  0.6584658E-006  0.1062351E+03  0.7561462E-02  0.1267705E+00
          2   -1    0    0  501    0  0.00000000000E+00  0.00000000000E+00  0.56182733315E+03  0.56182733315E+03  0.00000000000E+00 0.  1.
         -2   -1    0    0    0  501 -0.00000000000E+00 -0.00000000000E+00 -0.26952531583E+02  0.26952531583E+02  0.00000000000E+00 0. -1.
         23    2    1    2    0    0 -0.50159348562E+02  0.41546761923E+01  0.30427717518E+03  0.32165396783E+03  0.91342509835E+02 0.  0.
          5    1    1    2  502    0 -0.68464272101E+01 -0.45114037620E+02  0.30531785193E+02  0.55061894837E+02  0.41800000000E+01 0. -1.
         -5    1    1    2    0  502  0.57005775772E+02  0.40959361428E+02  0.20006584120E+03  0.21206400207E+03  0.41800000000E+01 0. -1.
        -11    1    3    3    0    0 -0.46433175411E+02  0.39394462085E+02  0.12667122257E+03  0.14054736586E+03  0.00000000000E+00 0. -1.
         11    1    3    3    0    0 -0.37261731510E+01 -0.35239785893E+02  0.17760595261E+03  0.18110660197E+03  0.00000000000E+00 0.  1.
</event>
<event>
 7    1  0.6584658E-006  0.1075555E+03  0.7561462E-02  0.1265165E+00
         -2   -1    0    0    0  501 -0.00000000000E+00  0.00000000000E+00  0.21112268175E+03  0.21112268175E+03  0.00000000000E+00 0.  1.
          2   -1    0    0  501    0  0.00000000000E+00 -0.00000000000E+00 -0.70844923197E+02  0.70844923197E+02  0.00000000000E+00 0. -1.
         23    2    1    2    0    0 -0.56350976324E+02 -0.13743461202E+02  0.59170048657E+02  0.12199390178E+03  0.89538272011E+02 0.  0.
          5    1    1    2  502    0  0.72913405287E+02 -0.21178578522E+02  0.92232427262E+02  0.11953739958E+03  0.41800000000E+01 0. -1.
         -5    1    1    2    0  502 -0.16562428962E+02  0.34922039724E+02 -0.11124717367E+02  0.40436303591E+02  0.41800000000E+01 0. -1.
        -11    1    3    3    0    0  0.21444077026E+02 -0.24819158239E+01  0.32442559265E+02  0.38968294770E+02  0.00000000000E+00 0. -1.
         11    1    3    3    0    0 -0.77795053350E+02 -0.11261545378E+02  0.26727489392E+02  0.83025607009E+02  0.00000000000E+00 0.  1.
</event>
<event>
 7    1  0.6584658E-006  0.3049321E+03  0.7561462E-02  0.1082801E+00
          2   -1    0    0  501    0  0.00000000000E+00  0.00000000000E+00  0.12107533867E+04  0.12107533867E+04  0.00000000000E+00 0. -1.
         -2   -1    0    0    0  501 -0.00000000000E+00 -0.00000000000E+00 -0.15678088064E+03  0.15678088064E+03  0.00000000000E+00 0.  1.
         23    2    1    2    0    0 -0.48569023774E+02 -0.27084804448E+01  0.29891889920E+03  0.31633558688E+03  0.91375102148E+02 0.  0.
          5    1    1    2  502    0  0.15358375716E+03  0.21906530081E+03  0.76501660027E+03  0.81046002219E+03  0.41800000000E+01 0. -1.
         -5    1    1    2    0  502 -0.10501473338E+03 -0.21635682036E+03 -0.99629934078E+01  0.24073865826E+03  0.41800000000E+01 0.  1.
        -11    1    3    3    0    0  0.10928701502E+02  0.31351912837E+02  0.72004128979E+02  0.79290437917E+02  0.00000000000E+00 0.  1.
         11    1    3    3    0    0 -0.59497725277E+02 -0.34060393281E+02  0.22691477022E+03  0.23704514896E+03  0.00000000000E+00 0. -1.
</event>
<event>
 7    1  0.6584658E-006  0.2072968E+03  0.7561462E-02  0.1143725E+00
         -2   -1    0    0    0  501 -0.00000000000E+00  0.00000000000E+00  0.47388356243E+02  0.47388356243E+02  0.00000000000E+00 0. -1.
          2   -1    0    0  501    0  0.00000000000E+00 -0.00000000000E+00 -0.11350557465E+04  0.11350557465E+04  0.00000000000E+00 0.  1.
         23    2    1    2    0    0 -0.18476724188E+03  0.28784045973E+02 -0.73639316940E+03  0.76530161112E+03  0.91892334124E+02 0.  0.
          5    1    1    2  502    0  0.16924368744E+03 -0.64690351929E+02 -0.25238592335E+03  0.31071593792E+03  0.41800000000E+01 0. -1.
         -5    1    1    2    0  502  0.15523554441E+02  0.35906305956E+02 -0.98888297554E+02  0.10642655375E+03  0.41800000000E+01 0. -1.
        -11    1    3    3    0    0 -0.15331321194E+03  0.29927009427E+01 -0.67093047304E+03  0.68823077297E+03  0.00000000000E+00 0.  1.
         11    1    3    3    0    0 -0.31454029945E+02  0.25791345030E+02 -0.65462696365E+02  0.77070838153E+02  0.00000000000E+00 0. -1.
</event>
<event>
 7    1  0.6584658E-006  0.1464077E+03  0.7561462E-02  0.1204958E+00
         -1   -1    0    0    0  501 -0.00000000000E+00  0.00000000000E+00  0.13485479916E+03  0.13485479916E+03  0.00000000000E+00 0.  1.
          1   -1    0    0  501    0  0.00000000000E+00 -0.00000000000E+00 -0.21239411916E+03  0.21239411916E+03  0.00000000000E+00 0. -1.
         23    2    1    2    0    0 -0.15253635496E+02  0.11221811509E+03 -0.10007214414E+03  0.17701422840E+03  0.92163030953E+02 0.  0.
          5    1    1    2  502    0  0.55502169937E+02 -0.11532159692E+03  0.19634633400E+02  0.12954749250E+03  0.41800000000E+01 0.  1.
         -5    1    1    2    0  502 -0.40248534441E+02  0.31034818265E+01  0.28981907421E+01  0.40687197418E+02  0.41800000000E+01 0.  1.
        -11    1    3    3    0    0 -0.28978563796E+02  0.10448092807E+03 -0.41067177237E+02  0.11594194468E+03  0.00000000000E+00 0.  1.
         11    1    3    3    0    0  0.13724928300E+02  0.77371870190E+01 -0.59004966904E+02  0.61072283723E+02  0.00000000000E+00 0. -1.
</event>
<event>
 7    1  0.6584658E-006  0.1163529E+03  0.7561462E-02  0.1249238E+00
          4   -1    0    0  501    0  0.00000000000E+00  0.00000000000E+00  0.14713735811E+02  0.14713735811E+02  0.00000000000E+00 0. -1.
         -4   -1    0    0    0  501 -0.00000000000E+00 -0.00000000000E+00 -0.10973976950E+04  0.10973976950E+04  0.00000000000E+00 0.  1.
         23    2    1    2    0    0 -0.40765069435E+02  0.34579637491E+01 -0.27257239278E+03  0.28986567863E+03  0.89736580871E+02 0.  0.
          5    1    1    2  502    0 -0.46254722581E+02 -0.22218874611E+02 -0.31431153934E+03  0.31850022592E+03  0.41800000000E+01 0. -1.
         -5    1    1    2    0  502  0.87019792016E+02  0.18760910862E+02 -0.49580002710E+03  0.50374552629E+03  0.41800000000E+01 0.  1.
        -11    1    3    3    0    0 -0.53764827197E+01 -0.37552643102E+02 -0.64226684169E+02  0.74593394679E+02  0.00000000000E+00 0.  1.
         11    1    3    3    0    0 -0.35388586715E+02  0.41010606851E+02 -0.20834570861E+03  0.21527228395E+03  0.00000000000E+00 0. -1.
</event>
<event>
 7    1  0.6584658E-006  0.9918227E+02  0.7561462E-02  0.1282025E+00
          1   -1    0    0  501    0  0.00000000000E+00  0.00000000000E+00  0.16758538537E+02  0.16758538537E+02  0.00000000000E+00 0. -1.
         -1   -1    0    0    0  501 -0.00000000000E+00 -0.00000000000E+00 -0.86710850972E+03  0.86710850972E+03  0.00000000000E+00 0.  1.
         23    2    1    2    0    0  0.38968845812E+02  0.16316288366E+02 -0.25542007089E+03  0.27446311644E+03  0.91136147951E+02 0.  0.
          5    1    1    2  502    0 -0.12200980607E+02  0.36552442013E+02 -0.46412897630E+03  0.46574469829E+03  0.41800000000E+01 0. -1.
         -5    1    1    2    0  502 -0.26767865205E+02 -0.52868730378E+02 -0.13080092399E+03  0.14365923352E+03  0.41800000000E+01 0. -1.
        -11    1    3    3    0    0 -0.25253186266E+02 -0.14332371867E+02 -0.83156096632E+02  0.88079944976E+02  0.00000000000E+00 0.  1.
         11    1    3    3    0    0  0.64222032078E+02  0.30648660233E+02 -0.17226397426E+03  0.18638317147E+03  0.00000000000E+00 0. -1.
</event>
<event>
 7    1  0.6584658E-006  0.9231397E+02  0.7561462E-02  0.1297343E+00
         -1   -1    0    0    0  501 -0.00000000000E+00  0.00000000000E+00  0.10041312986E+04  0.10041312986E+04  0.00000000000E+00 0.  1.
          1   -1    0    0  501    0  0.00000000000E+00 -0.00000000000E+00 -0.14354261724E+02  0.14354261724E+02  0.00000000000E+00 0. -1.
         23    2    1    2    0    0 -0.23778805379E+02 -0.40048545006E+00  0.23637177003E+03  0.25439600727E+03  0.90995180513E+02 0.  0.
          5    1    1    2  502    0 -0.19297761543E+02 -0.49478575464E+02  0.47409735438E+03  0.47708102757E+03  0.41800000000E+01 0.  1.
         -5    1    1    2    0  502  0.43076566922E+02  0.49879060915E+02  0.27930791245E+03  0.28700852547E+03  0.41800000000E+01 0.  1.
        -11    1    3    3    0    0 -0.20237079038E+02 -0.29625894537E+02  0.21511039396E+03  0.21808189880E+03  0.00000000000E+00 0.  1.
         11    1    3    3    0    0 -0.35417263409E+01  0.29225409087E+02  0.21261376067E+02  0.36314108471E+02  0.00000000000E+00 0. -1.
</event>
<event>
 7    1  0.6584658E-006  0.1385471E+03  0.7561462E-02  0.1215297E+00
         -2   -1    0    0    0  501 -0.00000000000E+00  0.00000000000E+00  0.10022649672E+03  0.10022649672E+03  0.00000000000E+00 0.  1.
          2   -1    0    0  501    0  0.00000000000E+00 -0.00000000000E+00 -0.32181832328E+03  0.32181832328E+03  0.00000000000E+00 0. -1.
         23    2    1    2    0    0  0.70309169299E+02  0.11894714178E+03 -0.14942370890E+03  0.22217706572E+03  0.89125764652E+02 0.  0.
          5    1    1    2  502    0 -0.11551750560E+02 -0.17984599024E+02  0.35040748061E+02  0.41257910365E+02  0.41800000000E+01 0.  1.
         -5    1    1    2    0  502 -0.58757418739E+02 -0.10096254276E+03 -0.10720886572E+03  0.15860984391E+03  0.41800000000E+01 0.  1.
        -11    1    3    3    0    0  0.40775715160E+02  0.76894226871E+02 -0.29823354462E+02  0.92004421330E+02  0.00000000000E+00 0.  1.
         11    1    3    3    0    0  0.29533454139E+02  0.42052914910E+02 -0.11960035443E+03  0.13017264439E+03  0.00000000000E+00 0. -1.
</event>
<event>
 7    1  0.6584658E-006  0.7822968E+02  0.7561462E-02  0.1334152E+00
          1   -1    0    0  501    0  0.00000000000E+00  0.00000000000E+00  0.40726490509E+03  0.40726490509E+03  0.00000000000E+00 0. -1.
         -1   -1    0    0    0  501 -0.00000000000E+00 -0.00000000000E+00 -0.30437516931E+02  0.30437516931E+02  0.00000000000E+00 0.  1.
         23    2    1    2    0    0 -0.26043406733E+02 -0.99737261681E+01  0.19139808646E+03  0.21229601061E+03  0.87513623908E+02 0.  0.
          5    1    1    2  502    0 -0.28354970144E+02  0.70095181940E+01  0.16413232123E+03  0.16676339211E+03  0.41800000000E+01 0.  1.
         -5    1    1    2    0  502  0.54398376878E+02  0.29642079741E+01  0.21296980468E+02  0.58643019302E+02  0.41800000000E+01 0.  1.
        -11    1    3    3    0    0  0.22031074025E+02 -0.10108379071E+02  0.13935135768E+03  0.14144379957E+03  0.00000000000E+00 0. -1.
         11    1    3    3    0    0 -0.48074480758E+02  0.13465290310E+00  0.52046728789E+02  0.70852211040E+02  0.00000000000E+00 0.  1.
</event>
<event>
 7    1  0.7141092E-006  0.1449680E+03  0.7561462E-02  0.1206796E+00
         -2   -1    0    0    0  501 -0.00000000000E+00  0.00000000000E+00  0.60262380058E+02  0.60262380058E+02  0.00000000000E+00 0.  1.
          2   -1    0    0  501    0  0.00000000000E+00 -0.00000000000E+00 -0.46436672858E+03  0.46436672858E+03  0.00000000000E+00 0. -1.
         23    2    1    2    0    0  0.99879332508E+02  0.67966086642E+02 -0.25061910751E+03  0.29267981727E+03  0.90864010444E+02 0.  0.
          5    1    1    2  502    0 -0.52131103500E+02  0.26759035904E+02 -0.92325212192E+02  0.10943086932E+03  0.41800000000E+01 0.  1.
         -5    1    1    2    0  502 -0.47748229008E+02 -0.94725122546E+02 -0.61160028825E+02  0.12251842205E+03  0.41800000000E+01 0.  1.
        -11    1    3    3    0    0  0.43691339301E+02  0.11087108301E+02 -0.21362973922E+02  0.49882198780E+02  0.00000000000E+00 0.  1.
         11    1    3    3    0    0  0.56187993207E+02  0.56878978341E+02 -0.22925613359E+03  0.24279761849E+03  0.00000000000E+00 0. -1.
</event>
<event>
 7    1  0.6584658E-006  0.1063053E+03  0.7561462E-02  0.1267569E+00
          2   -1    0    0  501    0  0.00000000000E+00  0.00000000000E+00  0.22048574404E+02  0.22048574404E+02  0.00000000000E+00 0. -1.
         -2   -1    0    0    0  501 -0.00000000000E+00 -0.00000000000E+00 -0.88276665427E+03  0.88276665427E+03  0.00000000000E+00 0.  1.
         23    2    1    2    0    0  0.60993590127E+02  0.18511258283E+02 -0.22817436085E+03  0.25687807258E+03  0.99297132407E+02 0.  0.
          5    1    1    2  502    0 -0.49373998735E+02 -0.47642428086E+02 -0.59447631962E+03  0.59843726463E+03  0.41800000000E+01 0. -1.
         -5    1    1    2    0  502 -0.11619591392E+02  0.29131169802E+02 -0.38067399392E+02  0.49499891461E+02  0.41800000000E+01 0. -1.
        -11    1    3    3    0    0 -0.17006683819E+02  0.28909395578E+02 -0.10920005966E+03  0.11423499235E+03  0.00000000000E+00 0.  1.
         11    1    3    3    0    0  0.78000273946E+02 -0.10398137295E+02 -0.11897430120E+03  0.14264308024E+03  0.00000000000E+00 0. -1.
</event>
<event>
 7    1  0.6584658E-006  0.1248431E+03  0.7561462E-02  0.1235315E+00
          2   -1    0    0  501    0  0.00000000000E+00  0.00000000000E+00  0.42842086958E+03  0.42842086958E+03  0.00000000000E+00 0. -1.
         -2   -1    0    0    0  501 -0.00000000000E+00 -0.00000000000E+00 -0.42705965821E+02  0.42705965821E+02  0.00000000000E+00 0.  1.
         23    2    1    2    0    0  0.26234184319E+02 -0.75125273816E+02  0.19519917178E+03  0.22972373506E+03  0.91313956176E+02 0.  0.
          5    1    1    2  502    0  0.37222429237E+01  0.10529842803E+03  0.13186678674E+03  0.16884293258E+03  0.41800000000E+01 0. -1.
         -5    1    1    2    0  502 -0.29956427243E+02 -0.30173154211E+02  0.58648945238E+02  0.72560167762E+02  0.41800000000E+01 0. -1.
        -11    1    3    3    0    0  0.44546894922E+02 -0.69143150082E+02  0.86623668905E+02  0.11945233805E+03  0.00000000000E+00 0.  1.
         11    1    3    3    0    0 -0.18312710603E+02 -0.59821237343E+01  0.10857550288E+03  0.11027139701E+03  0.00000000000E+00 0. -1.
</event>
<event>
 7    1  0.6584658E-006  0.1306131E+03  0.7561462E-02  0.1226549E+00
          2   -1    0    0  501    0  0.00000000000E+00  0.00000000000E+00  0.11014094216E+04  0.11014094216E+04  0.00000000000E+00 0. -1.
         -2   -1    0    0    0  501 -0.00000000000E+00 -0.00000000000E+00 -0.20898855790E+02  0.20898855790E+02  0.00000000000E+00 0.  1.
         23    2    1    2    0    0 -0.58765358343E+02  0.63540208272E+02  0.71299620768E+03  0.72455734014E+03  0.95545913444E+02 0.  0.
          5    1    1    2  502    0 -0.26996969297E+02 -0.29039513445E+02  0.22022723147E+03  0.22380713923E+03  0.41800000000E+01 0. -1.
         -5    1    1    2    0  502  0.85762327640E+02 -0.34500694827E+02  0.14728712663E+03  0.17394379798E+03  0.41800000000E+01 0. -1.
        -11    1    3    3    0    0 -0.77452575349E+01  0.75924487846E+02  0.40846880793E+03  0.41553734360E+03  0.00000000000E+00 0.  1.
         11    1    3    3    0    0 -0.51020100808E+02 -0.12384279574E+02  0.30452739975E+03  0.30901999654E+03  0.00000000000E+00 0. -1.
</event>
<event>
 7    1  0.7356977E-006  0.2075916E+03  0.7561462E-02  0.1143487E+00
          2   -1    0    0  501    0  0.00000000000E+00  0.00000000000E+00  0.81031235262E+02  0.81031235262E+02  0.00000000000E+00 0. -1.
         -2   -1    0    0    0  501 -0.00000000000E+00 -0.00000000000E+00 -0.60368422125E+03  0.60368422125E+03  0.00000000000E+00 0.  1.
         23    2    1    2    0    0  0.16533522065E+03 -0.78743947709E+02 -0.16018763853E+03  0.25978655593E+03  0.91063882044E+02 0.  0.
          5    1    1    2  502    0 -0.57159804752E+02 -0.30579806074E+02 -0.77867204477E+02  0.10140582701E+03  0.41800000000E+01 0.  1.
         -5    1    1    2    0  502 -0.10817541590E+03  0.10932375378E+03 -0.28459814298E+03  0.32352307357E+03  0.41800000000E+01 0.  1.
        -11    1    3    3    0    0  0.92501895684E+02 -0.48722658292E+01 -0.11217166656E+03  0.14547447357E+03  0.00000000000E+00 0. -1.
         11    1    3    3    0    0  0.72833324970E+02 -0.73871681880E+02 -0.48015971969E+02  0.11431208236E+03  0.00000000000E+00 0.  1.
</event>
<event>
 7    1  0.6584658E-006  0.1340731E+03  0.7561462E-02  0.1221534E+00
         -2   -1    0    0    0  501 -0.00000000000E+00  0.00000000000E+00  0.71874249546E+03  0.71874249546E+03  0.00000000000E+00 0.  1.
          2   -1    0    0  501    0  0.00000000000E+00 -0.00000000000E+00 -0.32938409987E+02  0.32938409987E+02  0.00000000000E+00 0. -1.
         23    2    1    2    0    0  0.10862512632E+03  0.48765185262E+01  0.32395884746E+03  0.35365969093E+03  0.91118843513E+02 0.  0.
          5    1    1    2  502    0 -0.35865173024E+02  0.37561608595E+02  0.41064962692E+02  0.66339947522E+02  0.41800000000E+01 0.  1.
         -5    1    1    2    0  502 -0.72759953299E+02 -0.42438127121E+02  0.32078027533E+03  0.33168126700E+03  0.41800000000E+01 0.  1.
        -11    1    3    3    0    0  0.93958182631E+02  0.33331977309E+02  0.29147078461E+03  0.30804931274E+03  0.00000000000E+00 0. -1.
         11    1    3    3    0    0  0.14666943692E+02 -0.28455458783E+02  0.32488062844E+02  0.45610378196E+02  0.00000000000E+00 0.  1.
</event>
<event>
 7    1  0.6584658E-006  0.2716077E+03  0.7561462E-02  0.1100363E+00
         -2   -1    0    0    0  501 -0.00000000000E+00  0.00000000000E+00  0.16211570670E+03  0.16211570670E+03  0.00000000000E+00 0. -1.
          2   -1    0    0  501    0  0.00000000000E+00 -0.00000000000E+00 -0.48212376619E+03  0.48212376619E+03  0.00000000000E+00 0.  1.
         23    2    1    2    0    0 -0.23272307074E+03  0.96162485247E+02 -0.21679613207E+03  0.34472837649E+03  0.91814157143E+02 0.  0.
          5    1    1    2  502    0  0.12034760624E+03  0.17017812433E+02 -0.44196887307E+02  0.12939856845E+03  0.41800000000E+01 0.  1.
         -5    1    1    2    0  502  0.11237546450E+03 -0.11318029768E+03 -0.59015040115E+02  0.17011252795E+03  0.41800000000E+01 0.  1.
        -11    1    3    3    0    0 -0.16818726803E+03  0.32304862291E+02 -0.17473652599E+03  0.24467001200E+03  0.00000000000E+00 0.  1.
         11    1    3    3    0    0 -0.64535802714E+02  0.63857622957E+02 -0.42059606076E+02  0.10005836449E+03  0.00000000000E+00 0. -1.
</event>
<event>
 7    1  0.6584658E-006  0.1537696E+03  0.7561462E-02  0.1195916E+00
          2   -1    0    0  501    0  0.00000000000E+00  0.00000000000E+00  0.17197725870E+03  0.17197725870E+03  0.00000000000E+00 0. -1.
         -2   -1    0    0    0  501 -0.00000000000E+00 -0.00000000000E+00 -0.19161339909E+03  0.19161339909E+03  0.00000000000E+00 0.  1.
         23    2    1    2    0    0 -0.10415581403E+03 -0.10117618888E+03  0.36574407084E+01  0.17052467175E+03  0.89332144327E+02 0.  0.
          5    1    1    2  502    0  0.23387933593E+02  0.11664465924E+02  0.46638306070E+02  0.53625173157E+02  0.41800000000E+01 0.  1.
         -5    1    1    2    0  502  0.80767880439E+02  0.89511722952E+02 -0.69931887166E+02  0.13944081289E+03  0.41800000000E+01 0.  1.
        -11    1    3    3    0    0 -0.84175622480E+02 -0.34745946689E+02  0.30655418534E+02  0.96086268097E+02  0.00000000000E+00 0. -1.
         11    1    3    3    0    0 -0.19980191552E+02 -0.66430242187E+02 -0.26997977826E+02  0.74438403651E+02  0.00000000000E+00 0.  1.
</event>
<event>
 7    1  0.6584658E-006  0.2245223E+03  0.7561462E-02  0.1130556E+00
          1   -1    0    0  501    0  0.00000000000E+00  0.00000000000E+00  0.14432612683E+04  0.14432612683E+04  0.00000000000E+00 0. -1.
         -1   -1    0    0    0  501 -0.00000000000E+00 -0.00000000000E+00 -0.38425059577E+02  0.38425059577E+02  0.00000000000E+00 0.  1.
         23    2    1    2    0    0  0.10039805887E+03  0.17887111492E+03  0.80023127051E+03  0.83109509274E+03  0.90963294227E+02 0.  0.
          5    1    1    2  502    0  0.52553069237E+00  0.12706616561E+02  0.10784764404E+03  0.10867530084E+03  0.41800000000E+01 0. -1.
         -5    1    1    2    0  502 -0.10092358956E+03 -0.19157773148E+03  0.49675729414E+03  0.54191593426E+03  0.41800000000E+01 0. -1.
        -11    1    3    3    0    0  0.17499679888E+02  0.10978202978E+03  0.31597622465E+03  0.33496165064E+03  0.00000000000E+00 0.  1.
         11    1    3    3    0    0  0.82898378983E+02  0.69089085139E+02  0.48425504586E+03  0.49613344210E+03  0.00000000000E+00 0. -1.
</event>
<event>
 7    1  0.6584658E-006  0.1352903E+03  0.7561462E-02  0.1219810E+00
          3   -1    0    0  501    0  0.00000000000E+00  0.00000000000E+00  0.12087988581E+03  0.12087988581E+03  0.00000000000E+00 0. -1.
         -3   -1    0    0    0  501 -0.00000000000E+00 -0.00000000000E+00 -0.15976078518E+03  0.15976078518E+03  0.00000000000E+00 0.  1.
         23    2    1    2    0    0  0.86448333025E+02  0.12181174195E+01 -0.15949797738E+02  0.12685027712E+03  0.91442871045E+02 0.  0.
          5    1    1    2  502    0 -0.12774537801E+02  0.55311867752E+02 -0.21429035368E+02  0.60821603786E+02  0.41800000000E+01 0.  1.
         -5    1    1    2    0  502 -0.73673795225E+02 -0.56529985172E+02 -0.15020662666E+01  0.92968790082E+02  0.41800000000E+01 0.  1.
        -11    1    3    3    0    0  0.82109222073E+01 -0.33946689682E+02 -0.21297473935E+02  0.40906960041E+02  0.00000000000E+00 0.  1.
         11    1    3    3    0    0  0.78237410818E+02  0.35164807101E+02  0.53476761969E+01  0.85943317080E+02  0.00000000000E+00 0. -1.
</event>
<event>
 7    1  0.6584658E-006  0.9677579E+02  0.7561462E-02  0.1287226E+00
          1   -1    0    0  501    0  0.00000000000E+00  0.00000000000E+00  0.16541204552E+03  0.16541204552E+03  0.00000000000E+00 0. -1.
         -1   -1    0    0    0  501 -0.00000000000E+00 -0.00000000000E+00 -0.16912461184E+03  0.16912461184E+03  0.00000000000E+00 0.  1.
         23    2    1    2    0    0 -0.62653474763E+01  0.51734258272E+02  0.11402577835E+03  0.15500525263E+03  0.91154057274E+02 0.  0.
          5    1    1    2  502    0 -0.32744106159E+02 -0.12802082776E+02  0.12899666605E+02  0.37682139139E+02  0.41800000000E+01 0.  1.
         -5    1    1    2    0  502  0.39009453636E+02 -0.38932175496E+02 -0.13063801127E+03  0.14184926560E+03  0.41800000000E+01 0.  1.
        -11    1    3    3    0    0  0.26183191833E+02 -0.13909909812E+02  0.47940637901E+02  0.56367986374E+02  0.00000000000E+00 0. -1.
         11    1    3    3    0    0 -0.32448539310E+02  0.65644168084E+02  0.66085140446E+02  0.98637266256E+02  0.00000000000E+00 0.  1.
</event>
<event>
 7    1  0.6584658E-006  0.1467812E+03  0.7561462E-02  0.1204485E+00
          2   -1    0    0  501    0  0.00000000000E+00  0.00000000000E+00  0.23591828323E+03  0.23591828323E+03  0.00000000000E+00 0. -1.
         -2   -1    0    0    0  501 -0.00000000000E+00 -0.00000000000E+00 -0.10694571567E+03  0.10694571567E+03  0.00000000000E+00 0.  1.
         23    2    1    2    0    0  0.10553808014E+03 -0.47291395003E+02  0.74445020172E+02  0.16399067600E+03  0.89309117038E+02 0.  0.
          5    1    1    2  502    0 -0.12141286682E+03  0.13009464277E+01  0.40540788527E+02  0.12807733845E+03  0.41800000000E+01 0. -1.
         -5    1    1    2    0  502  0.15874786680E+02  0.45990448576E+02  0.13986758866E+02  0.50795984447E+02  0.41800000000E+01 0. -1.
        -11    1    3    3    0    0  0.28225360741E+02  0.66119280095E+01  0.62617806442E+02  0.69002740993E+02  0.00000000000E+00 0. -1.
         11    1    3    3    0    0  0.77312719395E+02 -0.53903323013E+02  0.11827213730E+02  0.94987935006E+02  0.00000000000E+00 0.  1.
</event>
<event>
 7    1  0.6584658E-006  0.9303174E+02  0.7561462E-02  0.1295672E+00
          2   -1    0    0  501    0  0.00000000000E+00  0.00000000000E+00  0.18720782877E+03  0.18720782877E+03  0.00000000000E+00 0. -1.
         -2   -1    0    0    0  501 -0.00000000000E+00 -0.00000000000E+00 -0.36648632633E+03  0.36648632633E+03  0.00000000000E+00 0.  1.
         23    2    1    2    0    0  0.28737355342E+02 -0.66272194539E+01  0.16369003341E+03  0.18967062099E+03  0.91163379721E+02 0.  0.
          5    1    1    2  502    0  0.14498802986E+02 -0.48861430377E+02 -0.12986180042E+03  0.13956795576E+03  0.41800000000E+01 0. -1.
         -5    1    1    2    0  502 -0.43236158328E+02  0.55488649831E+02 -0.21310673055E+03  0.22445557835E+03  0.41800000000E+01 0.  1.
        -11    1    3    3    0    0 -0.13077164939E+02  0.12844916974E+02 -0.12784223405E+01  0.18374942138E+02  0.00000000000E+00 0.  1.
         11    1    3    3    0    0  0.41814520281E+02 -0.19472136428E+02  0.16496845575E+03  0.17129567886E+03  0.00000000000E+00 0. -1.
</event>
<event>
 7    1  0.6584658E-006  0.9047063E+02  0.7561462E-02  0.1301716E+00
         -2   -1    0    0    0  501 -0.00000000000E+00  0.00000000000E+00  0.35473517202E+02  0.35473517202E+02  0.00000000000E+00 0.  1.
          2   -1    0    0  501    0  0.00000000000E+00 -0.00000000000E+00 -0.41004046277E+03  0.41004046277E+03  0.00000000000E+00 0. -1.
         23    2    1    2    0    0  0.46140455168E+02  0.23209519101E+02 -0.14089168500E+03  0.17547849920E+03  0.90964902018E+02 0.  0.
          5    1    1    2  502    0 -0.96075590671E+01 -0.48198352171E+02 -0.22468974963E+02  0.54200678770E+02  0.41800000000E+01 0.  1.
         -5    1    1    2    0  502 -0.36532896101E+02  0.24988833071E+02 -0.21120628561E+03  0.21583480201E+03  0.41800000000E+01 0.  1.
        -11    1    3    3    0    0  0.91965197086E+01 -0.24874992426E+02 -0.54393980944E+01  0.27072648089E+02  0.00000000000E+00 0.  1.
         11    1    3    3    0    0  0.36943935460E+02  0.48084511526E+02 -0.13545228690E+03  0.14840585111E+03  0.00000000000E+00 0. -1.
</event>
<event>
 7    1  0.6584658E-006  0.1599483E+03  0.7561462E-02  0.1188755E+00
         -1   -1    0    0    0  501 -0.00000000000E+00  0.00000000000E+00  0.54485984998E+02  0.54485984998E+02  0.00000000000E+00 0.  1.
          1   -1    0    0  501    0  0.00000000000E+00 -0.00000000000E+00 -0.58202697111E+03  0.58202697111E+03  0.00000000000E+00 0. -1.
         23    2    1    2    0    0 -0.89398525733E+02 -0.99385959402E+02 -0.32696832716E+03  0.36494904149E+03  0.91705237536E+02 0.  0.
          5    1    1    2  502    0  0.12286823647E+01 -0.26348973015E+02 -0.48691905725E+02  0.55535143130E+02  0.41800000000E+01 0.  1.
         -5    1    1    2    0  502  0.88169843368E+02  0.12573493242E+03 -0.15188075323E+03  0.21602877149E+03  0.41800000000E+01 0.  1.
        -11    1    3    3    0    0 -0.63831385673E+02 -0.41102661977E+02 -0.26670540967E+03  0.27730064941E+03  0.00000000000E+00 0. -1.
         11    1    3    3    0    0 -0.25567140060E+02 -0.58283297425E+02 -0.60262917489E+02  0.87648392078E+02  0.00000000000E+00 0.  1.
</event>
<event>
 7    1  0.6584658E-006  0.7868154E+02  0.7561462E-02  0.1332835E+00
         -1   -1    0    0    0  501 -0.00000000000E+00  0.00000000000E+00  0.44147309881E+02  0.44147309881E+02  0.00000000000E+00 0.  1.
          1   -1    0    0  501    0  0.00000000000E+00 -0.00000000000E+00 -0.36486994686E+03  0.36486994686E+03  0.00000000000E+00 0. -1.
         23    2    1    2    0    0 -0.29097599269E+02  0.22607847480E+01 -0.22922237076E+03  0.25131096200E+03  0.98805480261E+02 0.  0.
          5    1    1    2  502    0 -0.24413457533E+02  0.51173087946E+01 -0.99746923264E+02  0.10290347350E+03  0.41800000000E+01 0.  1.
         -5    1    1    2    0  502  0.53511056801E+02 -0.73780935426E+01  0.82466570452E+01  0.54802821248E+02  0.41800000000E+01 0.  1.
        -11    1    3    3    0    0  0.78071880322E+00  0.34169752322E+02 -0.24701028735E+02  0.42170159072E+02  0.00000000000E+00 0.  1.
         11    1    3    3    0    0 -0.29878318072E+02 -0.31908967574E+02 -0.20452134203E+03  0.20914080292E+03  0.00000000000E+00 0. -1.
</event>
<event>
 7    1  0.1451533E-005  0.1494103E+03  0.7561462E-02  0.1201199E+00
         -1   -1    0    0    0  501 -0.00000000000E+00  0.00000000000E+00  0.69769829198E+02  0.69769829198E+02  0.00000000000E+00 0.  1.
          1   -1    0    0  501    0  0.00000000000E+00 -0.00000000000E+00 -0.33125445160E+03  0.33125445160E+03  0.00000000000E+00 0. -1.
         23    2    1    2    0    0  0.38345767150E+02 -0.96148649819E+02 -0.13956700064E+03  0.19798158057E+03  0.94883074662E+02 0.  0.
          5    1    1    2  502    0 -0.78781841633E+02  0.31015170223E+02 -0.74100487961E+02  0.11259162523E+03  0.41800000000E+01 0. -1.
         -5    1    1    2    0  502  0.40436074483E+02  0.65133479596E+02 -0.47817133800E+02  0.90451075001E+02  0.41800000000E+01 0. -1.
        -11    1    3    3    0    0  0.47835729268E+01 -0.10292210216E+03 -0.12137536903E+03  0.15920999306E+03  0.00000000000E+00 0.  1.
         11    1    3    3    0    0  0.33562194223E+02  0.67734523361E+01 -0.18191631606E+02  0.38771587511E+02  0.00000000000E+00 0. -1.
</event>
<event>
 7    1  0.6584658E-006  0.2107725E+03  0.7561462E-02  0.1140956E+00
          2   -1    0    0  501    0  0.00000000000E+00  0.00000000000E+00  0.11044768241E+03  0.11044768241E+03  0.00000000000E+00 0. -1.
         -2   -1    0    0    0  501 -0.00000000000E+00 -0.00000000000E+00 -0.44102059746E+03  0.44102059746E+03  0.00000000000E+00 0.  1.
         23    2    1    2    0    0  0.29784979976E+02  0.18495552550E+03 -0.11414342909E+03  0.23908244644E+03  0.95057889440E+02 0.  0.
          5    1    1    2  502    0  0.47460333766E+02 -0.47650831791E+02 -0.72084730649E+02  0.98675051783E+02  0.41800000000E+01 0. -1.
         -5    1    1    2    0  502 -0.77245313742E+02 -0.13730469371E+03 -0.14434475530E+03  0.21371078165E+03  0.41800000000E+01 0. -1.
        -11    1    3    3    0    0 -0.18229799352E+02  0.42869117124E+02 -0.67505102065E+02  0.82018446658E+02  0.00000000000E+00 0.  1.
         11    1    3    3    0    0  0.48014779328E+02  0.14208640837E+03 -0.46638327028E+02  0.15706399978E+03  0.00000000000E+00 0. -1.
</event>
<event>
 7    1  0.6584658E-006  0.9830897E+02  0.7561462E-02  0.1283893E+00
          1   -1    0    0  501    0  0.00000000000E+00  0.00000000000E+00  0.17849389086E+03  0.17849389086E+03  0.00000000000E+00 0. -1.
         -1   -1    0    0    0  501 -0.00000000000E+00 -0.00000000000E+00 -0.80588250978E+02  0.80588250978E+02  0.00000000000E+00 0.  1.
         23    2    1    2    0    0  0.21661571897E+02 -0.73969962787E+01  0.96904721605E+02  0.13191672171E+03  0.86530671709E+02 0.  0.
          5    1    1    2  502    0 -0.46851414439E+01 -0.56549057290E+02 -0.15259485836E+02  0.58907306327E+02  0.41800000000E+01 0.  1.
         -5    1    1    2    0  502 -0.16976430453E+02  0.63946053569E+02  0.16260404115E+02  0.68258113803E+02  0.41800000000E+01 0.  1.
        -11    1    3    3    0    0  0.13539279849E+02  0.31186758797E+02  0.83925376376E+01  0.35019433334E+02  0.00000000000E+00 0.  1.
         11    1    3    3    0    0  0.81222920482E+01 -0.38583755075E+02  0.88512183967E+02  0.96897288375E+02  0.00000000000E+00 0. -1.
</event>
<event>
 7    1  0.6584658E-006  0.1546328E+03  0.7561462E-02  0.1194893E+00
         -1   -1    0    0    0  501 -0.00000000000E+00  0.00000000000E+00  0.21663130570E+02  0.21663130570E+02  0.00000000000E+00 0. -1.
          1   -1    0    0  501    0  0.00000000000E+00 -0.00000000000E+00 -0.12350335567E+04  0.12350335567E+04  0.00000000000E+00 0.  1.
         23    2    1    2    0    0 -0.69494344428E+02  0.85022827256E+02 -0.75081454023E+03  0.76510239439E+03  0.97983952892E+02 0.  0.
          5    1    1    2  502    0 -0.30890799974E+02 -0.43198540399E+02 -0.20874453190E+03  0.21543469408E+03  0.41800000000E+01 0. -1.
         -5    1    1    2    0  502  0.10038514440E+03 -0.41824286857E+02 -0.25381135402E+03  0.27615959881E+03  0.41800000000E+01 0. -1.
        -11    1    3    3    0    0 -0.64700867505E+02  0.27574727381E+01 -0.33387334487E+03  0.34009589284E+03  0.00000000000E+00 0. -1.
         11    1    3    3    0    0 -0.47934769228E+01  0.82265354518E+02 -0.41694119535E+03  0.42500650155E+03  0.00000000000E+00 0.  1.
</event>
<event>
 7    1  0.6584658E-006  0.2148266E+03  0.7561462E-02  0.1137800E+00
          2   -1    0    0  501    0  0.00000000000E+00  0.00000000000E+00  0.13852096901E+04  0.13852096901E+04  0.00000000000E+00 0. -1.
         -2   -1    0    0    0  501 -0.00000000000E+00 -0.00000000000E+00 -0.40288146493E+02  0.40288146493E+02  0.00000000000E+00 0.  1.
         23    2    1    2    0    0  0.19363751578E+03 -0.75597395169E+02  0.57288885855E+03  0.61624382502E+03  0.91347435430E+02 0.  0.
          5    1    1    2  502    0 -0.46664154023E+02  0.56215847047E+02  0.43390022218E+03  0.44002799904E+03  0.41800000000E+01 0.  1.
         -5    1    1    2    0  502 -0.14697336176E+03  0.19381548122E+02  0.33813246285E+03  0.36922601250E+03  0.41800000000E+01 0.  1.
        -11    1    3    3    0    0  0.15259675288E+03 -0.64388920416E+02  0.32540960610E+03  0.36513437773E+03  0.00000000000E+00 0. -1.
         11    1    3    3    0    0  0.41040762897E+02 -0.11208474754E+02  0.24747925245E+03  0.25110944729E+03  0.00000000000E+00 0.  1.
</event>
<event>
 7    1  0.6584658E-006  0.1058698E+03  0.7561462E-02  0.1268415E+00
          1   -1    0    0  501    0  0.00000000000E+00  0.00000000000E+00  0.69694277658E+03  0.69694277658E+03  0.00000000000E+00 0. -1.
         -1   -1    0    0    0  501 -0.00000000000E+00 -0.00000000000E+00 -0.31197025214E+02  0.31197025214E+02  0.00000000000E+00 0.  1.
         23    2    1    2    0    0 -0.44475777901E+01  0.88563962403E+02  0.19860918454E+03  0.23648191033E+03  0.92815566281E+02 0.  0.
          5    1    1    2  502    0  0.16691449237E+02 -0.10256629576E+03  0.21531817235E+03  0.23911887681E+03  0.41800000000E+01 0. -1.
         -5    1    1    2    0  502 -0.12243871447E+02  0.14002333353E+02  0.25181839448E+03  0.25253901466E+03  0.41800000000E+01 0. -1.
        -11    1    3    3    0    0 -0.28766817792E+01  0.56109713635E+02  0.19599039114E+03  0.20388430219E+03  0.00000000000E+00 0. -1.
         11    1    3    3    0    0 -0.15708960109E+01  0.32454248768E+02  0.26187934048E+01  0.32597608137E+02  0.00000000000E+00 0.  1.
</event>
<event>
 7    1  0.6584658E-006  0.8742064E+02  0.7561462E-02  0.1309221E+00
         -2   -1    0    0    0  501 -0.00000000000E+00  0.00000000000E+00  0.55233266992E+02  0.55233266992E+02  0.00000000000E+00 0.  1.
          2   -1    0    0  501    0  0.00000000000E+00 -0.00000000000E+00 -0.23822967034E+03  0.23822967034E+03  0.00000000000E+00 0. -1.
         23    2    1    2    0    0 -0.19870557537E+01 -0.24849286001E+02 -0.11587321335E+03  0.14932885561E+03  0.90835401348E+02 0.  0.
          5    1    1    2  502    0 -0.24175332775E+02  0.51496194802E+02  0.10401605353E+02  0.57982502428E+02  0.41800000000E+01 0.  1.
         -5    1    1    2    0  502  0.26162388529E+02 -0.26646908801E+02 -0.77524795348E+02  0.86151579300E+02  0.41800000000E+01 0.  1.
        -11    1    3    3    0    0 -0.37008788968E+02  0.46234406114E+00 -0.93733445647E+02  0.10077610359E+03  0.00000000000E+00 0. -1.
         11    1    3    3    0    0  0.35021733214E+02 -0.25311630063E+02 -0.22139767708E+02  0.48552752011E+02  0.00000000000E+00 0.  1.
</event>
<event>
 7    1  0.6584658E-006  0.9713966E+02  0.7561462E-02  0.1286428E+00
         -2   -1    0    0    0  501 -0.00000000000E+00  0.00000000000E+00  0.99468659083E+02  0.99468659083E+02  0.00000000000E+00 0.  1.
          2   -1    0    0  501    0  0.00000000000E+00 -0.00000000000E+00 -0.14897024582E+03  0.14897024582E+03  0.00000000000E+00 0. -1.
         23    2    1    2    0    0 -0.37507702388E+02  0.21367831050E+02 -0.58070041821E+02  0.11582270781E+03  0.90439802887E+02 0.  0.
          5    1    1    2  502    0 -0.54903290402E+01 -0.47031613651E+02  0.48890157201E+02  0.68189707924E+02  0.41800000000E+01 0. -1.
         -5    1    1    2    0  502  0.42998031429E+02  0.25663782601E+02 -0.40321702113E+02  0.64426489159E+02  0.41800000000E+01 0. -1.
        -11    1    3    3    0    0  0.19511877145E+02  0.32966659769E+02 -0.38806847083E+02  0.54529674367E+02  0.00000000000E+00 0.  1.
         11    1    3    3    0    0 -0.57019579533E+02 -0.11598828718E+02 -0.19263194738E+02  0.61293033448E+02  0.00000000000E+00 0. -1.
</event>
<event>
 7    1  0.6584658E-006  0.9395625E+02  0.7561462E-02  0.1293544E+00
         -1   -1    0    0    0  501 -0.00000000000E+00  0.00000000000E+00  0.89983689093E+02  0.89983689093E+02  0.00000000000E+00 0.  1.
          1   -1    0    0  501    0  0.00000000000E+00 -0.00000000000E+00 -0.16037201227E+03  0.16037201227E+03  0.00000000000E+00 0. -1.
         23    2    1    2    0    0 -0.19157373908E+02 -0.37497026606E+02 -0.62808749057E+02  0.11814898810E+03  0.90781123872E+02 0.  0.
          5    1    1    2  502    0 -0.42041761449E+02  0.52417962731E+02 -0.13953053562E+02  0.68755455247E+02  0.41800000000E+01 0.  1.
         -5    1    1    2    0  502  0.61199135357E+02 -0.14920936125E+02  0.63734794454E+01  0.63451258013E+02  0.41800000000E+01 0.  1.
        -11    1    3    3    0    0 -0.29674241930E+02 -0.16449366833E+02 -0.81382969339E+02  0.88172161149E+02  0.00000000000E+00 0. -1.
         11    1    3    3    0    0  0.10516868022E+02 -0.21047659773E+02  0.18574220282E+02  0.29976826950E+02  0.00000000000E+00 0.  1.
</event>
<event>
 7    1  0.6584658E-006  0.1640124E+03  0.7561462E-02  0.1184240E+00
         -3   -1    0    0    0  501 -0.00000000000E+00  0.00000000000E+00  0.12098707289E+03  0.12098707289E+03  0.00000000000E+00 0.  1.
          3   -1    0    0  501    0  0.00000000000E+00 -0.00000000000E+00 -0.23878474758E+03  0.23878474758E+03  0.00000000000E+00 0. -1.
         23    2    1    2    0    0  0.52662750284E+02 -0.10993338984E+03 -0.99057098940E+02  0.18411131358E+03  0.96051816580E+02 0.  0.
          5    1    1    2  502    0  0.25243950117E+01 -0.26221577714E+02  0.38905399861E+01  0.26954636139E+02  0.41800000000E+01 0.  1.
         -5    1    1    2    0  502 -0.55187145296E+02  0.13615496755E+03 -0.22631115737E+02  0.14870587075E+03  0.41800000000E+01 0.  1.
        -11    1    3    3    0    0  0.60492296697E+02 -0.19428453251E+02 -0.31591787563E+02  0.70956492281E+02  0.00000000000E+00 0. -1.
         11    1    3    3    0    0 -0.78295464123E+01 -0.90504936588E+02 -0.67465311376E+02  0.11315482130E+03  0.00000000000E+00 0.  1.
</event>
<event>
 7    1  0.6584658E-006  0.1046837E+03  0.7561462E-02  0.1270744E+00
         -2   -1    0    0    0  501 -0.00000000000E+00  0.00000000000E+00  0.21291198637E+03  0.21291198637E+03  0.00000000000E+00 0.  1.
          2   -1    0    0  501    0  0.00000000000E+00 -0.00000000000E+00 -0.79679337040E+02  0.79679337040E+02  0.00000000000E+00 0. -1.
         23    2    1    2    0    0  0.21233760714E+02  0.65348931066E+02  0.30914757712E+02  0.11698897381E+03  0.89494929265E+02 0.  0.
          5    1    1    2  502    0 -0.53146017935E+02 -0.65731761637E+02  0.11345411913E+03  0.14154318514E+03  0.41800000000E+01 0. -1.
         -5    1    1    2    0  502  0.31912257221E+02  0.38283057149E+00 -0.11136227518E+02  0.34059164458E+02  0.41800000000E+01 0. -1.
        -11    1    3    3    0    0  0.42912876941E+02  0.50503209182E+02  0.51239020870E+02  0.83770677476E+02  0.00000000000E+00 0.  1.
         11    1    3    3    0    0 -0.21679116228E+02  0.14845721884E+02 -0.20324263158E+02  0.33218296338E+02  0.00000000000E+00 0. -1.
</event>
<event>
 7    1  0.6584658E-006  0.9246067E+02  0.7561462E-02  0.1297000E+00
         -2   -1    0    0    0  501 -0.00000000000E+00  0.00000000000E+00  0.37703292333E+02  0.37703292333E+02  0.00000000000E+00 0.  1.
          2   -1    0    0  501    0  0.00000000000E+00 -0.00000000000E+00 -0.46907086533E+03  0.46907086533E+03  0.00000000000E+00 0. -1.
         23    2    1    2    0    0  0.23460127082E+02 -0.14239904762E+02 -0.33164184725E+03  0.34446010148E+03  0.88956698547E+02 0.  0.
          5    1    1    2  502    0 -0.34480204094E+02 -0.32685675601E+02 -0.10332075358E+03  0.11379757635E+03  0.41800000000E+01 0.  1.
         -5    1    1    2    0  502  0.11020077011E+02  0.46925580362E+02  0.35950278304E+01  0.48516479827E+02  0.41800000000E+01 0.  1.
        -11    1    3    3    0    0 -0.23557336371E+02 -0.30994514345E+02 -0.96068753780E+02  0.10365719208E+03  0.00000000000E+00 0. -1.
         11    1    3    3    0    0  0.47017463453E+02  0.16754609583E+02 -0.23557309347E+03  0.24080290941E+03  0.00000000000E+00 0.  1.
</event>
<event>
 7    1  0.6584658E-006  0.8664913E+02  0.7561462E-02  0.1311175E+00
          2   -1    0    0  501    0  0.00000000000E+00  0.00000000000E+00  0.36645104765E+03  0.36645104765E+03  0.00000000000E+00 0.  1.
         -2   -1    0    0    0  501 -0.00000000000E+00 -0.00000000000E+00 -0.37177223915E+02  0.37177223915E+02  0.00000000000E+00 0. -1.
         23    2    1    2    0    0 -0.23468734503E+02  0.50644173130E+02  0.15808594396E+03  0.19025915941E+03  0.89954256662E+02 0.  0.
          5    1    1    2  502    0 -0.17105913558E+02  0.18896689631E+02  0.19424944022E+01  0.25902564393E+02  0.41800000000E+01 0.  1.
         -5    1    1    2    0  502  0.40574648061E+02 -0.69540862760E+02  0.16924538538E+03  0.18746654777E+03  0.41800000000E+01 0. -1.
        -11    1    3    3    0    0  0.49798593420E+01  0.32996308804E+02  0.15275749722E+03  0.15635986810E+03  0.00000000000E+00 0.  1.
         11    1    3    3    0    0 -0.28448593845E+02  0.17647864326E+02  0.53284467364E+01  0.33899291315E+02  0.00000000000E+00 0. -1.
</event>
<event>
 7    1  0.6584658E-006  0.1059267E+03  0.7561462E-02  0.1268304E+00
         -2   -1    0    0    0  501 -0.00000000000E+00  0.00000000000E+00  0.16127741676E+02  0.16127741676E+02  0.00000000000E+00 0.  1.
          2   -1    0    0  501    0  0.00000000000E+00 -0.00000000000E+00 -0.91255759173E+03  0.91255759173E+03  0.00000000000E+00 0. -1.
         23    2    1    2    0    0 -0.22763546561E+02  0.20441776494E+02 -0.56255179920E+03  0.57083294953E+03  0.91922163834E+02 0.  0.
          5    1    1    2  502    0  0.65184577251E+02  0.47088617996E+01 -0.26540382646E+03  0.27336398078E+03  0.41800000000E+01 0. -1.
         -5    1    1    2    0  502 -0.42421030690E+02 -0.25150638293E+02 -0.68474224398E+02  0.84488403099E+02  0.41800000000E+01 0. -1.
        -11    1    3    3    0    0 -0.27838004740E+02 -0.33009468700E+02 -0.24720384147E+03  0.25094684451E+03  0.00000000000E+00 0.  1.
         11    1    3    3    0    0  0.50744581793E+01  0.53451245194E+02 -0.31534795772E+03  0.31988610501E+03  0.00000000000E+00 0. -1.
</event>
<event>
 7    1  0.6584658E-006  0.8578002E+02  0.7561462E-02  0.1313405E+00
          1   -1    0    0  501    0  0.00000000000E+00  0.00000000000E+00  0.56512290726E+03  0.56512290726E+03  0.00000000000E+00 0. -1.
         -1   -1    0    0    0  501 -0.00000000000E+00 -0.00000000000E+00 -0.31024168070E+02  0.31024168070E+02  0.00000000000E+00 0.  1.
         23    2    1    2    0    0 -0.65377096315E+02 -0.25659934407E+01  0.32780527674E+03  0.34617852606E+03  0.90014017785E+02 0.  0.
          5    1    1    2  502    0  0.41813964322E+02  0.38655616330E+02  0.19775347947E+03  0.20583142455E+03  0.41800000000E+01 0.  1.
         -5    1    1    2    0  502  0.23563131992E+02 -0.36089622890E+02  0.85399829674E+01  0.44137124722E+02  0.41800000000E+01 0.  1.
        -11    1    3    3    0    0 -0.52549974267E+02 -0.13553555909E+02  0.32445169235E+03  0.32895911500E+03  0.00000000000E+00 0. -1.
         11    1    3    3    0    0 -0.12827122048E+02  0.10987562468E+02  0.33535843988E+01  0.17219411062E+02  0.00000000000E+00 0.  1.
</event>
<event>
 7    1  0.6584658E-006  0.1307747E+03  0.7561462E-02  0.1226311E+00
         -2   -1    0    0    0  501 -0.00000000000E+00  0.00000000000E+00  0.23726660707E+03  0.23726660707E+03  0.00000000000E+00 0. -1.
          2   -1    0    0  501    0  0.00000000000E+00 -0.00000000000E+00 -0.94210148547E+02  0.94210148547E+02  0.00000000000E+00 0.  1.
         23    2    1    2    0    0 -0.74622970367E+01 -0.10114322118E+03  0.49344322238E+02  0.14515502524E+03  0.91375500812E+02 0.  0.
          5    1    1    2  502    0 -0.38696328838E+02  0.58653666861E+02 -0.35763351831E+01  0.70483480867E+02  0.41800000000E+01 0.  1.
         -5    1    1    2    0  502  0.46158625874E+02  0.42489554317E+02  0.97288471469E+02  0.11583824951E+03  0.41800000000E+01 0.  1.
        -11    1    3    3    0    0  0.29059353468E+02 -0.11091022395E+02  0.35169259788E+02  0.46950331583E+02  0.00000000000E+00 0. -1.
         11    1    3    3    0    0 -0.36521650504E+02 -0.90052198783E+02  0.14175062450E+02  0.98204693659E+02  0.00000000000E+00 0.  1.
</event>
<event>
 7    1  0.6584658E-006  0.1579239E+03  0.7561462E-02  0.1191061E+00
         -2   -1    0    0    0  501 -0.00000000000E+00  0.00000000000E+00  0.36083763698E+03  0.36083763698E+03  0.00000000000E+00 0.  1.
          2   -1    0    0  501    0  0.00000000000E+00 -0.00000000000E+00 -0.84327297193E+02  0.84327297193E+02  0.00000000000E+00 0. -1.
         23    2    1    2    0    0  0.12645025280E+03  0.48959034656E+02  0.12129049824E+03  0.20406100263E+03  0.92427562569E+02 0.  0.
          5    1    1    2  502    0 -0.26597519391E+02 -0.44837877668E+02 -0.46655940209E+01  0.52508127743E+02  0.41800000000E+01 0. -1.
         -5    1    1    2    0  502 -0.99852733410E+02 -0.41211569877E+01  0.15988543557E+03  0.18859580380E+03  0.41800000000E+01 0. -1.
        -11    1    3    3    0    0  0.11529449897E+02  0.47200172619E+02  0.28374330911E+02  0.56266216905E+02  0.00000000000E+00 0. -1.
         11    1    3    3    0    0  0.11492080290E+03  0.17588620370E+01  0.92916167326E+02  0.14779478572E+03  0.00000000000E+00 0.  1.
</event>
<event>
 7    1  0.6584658E-006  0.8880152E+02  0.7561462E-02  0.1305780E+00
         -2   -1    0    0    0  501 -0.00000000000E+00  0.00000000000E+00  0.29697368720E+02  0.29697368720E+02  0.00000000000E+00 0.  1.
          2   -1    0    0  501    0  0.00000000000E+00 -0.00000000000E+00 -0.54449054796E+03  0.54449054796E+03  0.00000000000E+00 0. -1.
         23    2    1    2    0    0  0.40286346882E+02 -0.28787946204E+02 -0.31958062673E+03  0.33710797578E+03  0.95174969204E+02 0.  0.
          5    1    1    2  502    0 -0.36825866238E+02 -0.64788412525E+01 -0.19776002840E+03  0.20130728015E+03  0.41800000000E+01 0. -1.
         -5    1    1    2    0  502 -0.34604806439E+01  0.35266787456E+02  0.25474758886E+01  0.35772660751E+02  0.41800000000E+01 0. -1.
        -11    1    3    3    0    0 -0.14957074758E+02 -0.44431275734E+02 -0.18384870596E+03  0.18973191359E+03  0.00000000000E+00 0. -1.
         11    1    3    3    0    0  0.55243421640E+02  0.15643329530E+02 -0.13573192076E+03  0.14737606219E+03  0.00000000000E+00 0.  1.
</event>
<event>
 7    1  0.6584658E-006  0.1368583E+03  0.7561462E-02  0.1217620E+00
         -1   -1    0    0    0  501 -0.00000000000E+00  0.00000000000E+00  0.25286569793E+03  0.25286569793E+03  0.00000000000E+00 0.  1.
          1   -1    0    0  501    0  0.00000000000E+00 -0.00000000000E+00 -0.97238869371E+02  0.97238869371E+02  0.00000000000E+00 0. -1.
         23    2    1    2    0    0 -0.11159067883E+03  0.27003270774E+02  0.73473635477E+02  0.16148238446E+03  0.86582499080E+02 0.  0.
          5    1    1    2  502    0  0.24874720844E+02 -0.42924272804E+02 -0.19969209394E+02  0.53642209654E+02  0.41800000000E+01 0. -1.
         -5    1    1    2    0  502  0.86715957982E+02  0.15921002029E+02  0.10212240248E+03  0.13497997319E+03  0.41800000000E+01 0. -1.
        -11    1    3    3    0    0 -0.42823646968E+02  0.47455968631E+02  0.61581569682E+02  0.88759356819E+02  0.00000000000E+00 0.  1.
         11    1    3    3    0    0 -0.68767031858E+02 -0.20452697857E+02  0.11892065794E+02  0.72723027639E+02  0.00000000000E+00 0. -1.
</event>
<event>
 7    1  0.6584658E-006  0.1144629E+03  0.7561462E-02  0.1252521E+00
         -1   -1    0    0    0  501 -0.00000000000E+00  0.00000000000E+00  0.39043696048E+02  0.39043696048E+02  0.00000000000E+00 0.  1.
          1   -1    0    0  501    0  0.00000000000E+00 -0.00000000000E+00 -0.38966531370E+03  0.38966531370E+03  0.00000000000E+00 0. -1.
         23    2    1    2    0    0 -0.57063842769E+02 -0.18349516403E+02 -0.14924722031E+03  0.18418934229E+03  0.89766330778E+02 0.  0.
          5    1    1    2  502    0  0.91830907284E+02  0.10362614583E+01 -0.99781696639E+02  0.13567552747E+03  0.41800000000E+01 0. -1.
         -5    1    1    2    0  502 -0.34767064516E+02  0.17313254945E+02 -0.10159270070E+03  0.10884413998E+03  0.41800000000E+01 0. -1.
        -11    1    3    3    0    0 -0.28144512472E+02  0.30287328944E+02 -0.26722247952E+02  0.49229202842E+02  0.00000000000E+00 0.  1.
         11    1    3    3    0    0 -0.28919330296E+02 -0.48636845347E+02 -0.12252497236E+03  0.13496013945E+03  0.00000000000E+00 0. -1.
</event>
<event>
 7    1  0.6584658E-006  0.1095732E+03  0.7561462E-02  0.1261362E+00
         -1   -1    0    0    0  501 -0.00000000000E+00  0.00000000000E+00  0.28148585022E+03  0.28148585022E+03  0.00000000000E+00 0.  1.
          1   -1    0    0  501    0  0.00000000000E+00 -0.00000000000E+00 -0.61953960335E+02  0.61953960335E+02  0.00000000000E+00 0. -1.
         23    2    1    2    0    0  0.36527352732E+02  0.64161669501E+02  0.88724707331E+02  0.14797459140E+03  0.92592865152E+02 0.  0.
          5    1    1    2  502    0  0.14031847155E+02 -0.82458709708E+02  0.47661861657E+02  0.96361076156E+02  0.41800000000E+01 0.  1.
         -5    1    1    2    0  502 -0.50559199887E+02  0.18297040207E+02  0.83145320900E+02  0.99104143007E+02  0.41800000000E+01 0.  1.
        -11    1    3    3    0    0  0.36740445370E+02  0.30348880391E+02 -0.54013697915E+01  0.47959250021E+02  0.00000000000E+00 0. -1.
         11    1    3    3    0    0 -0.21309263745E+00  0.33812789110E+02  0.94126077123E+02  0.10001534137E+03  0.00000000000E+00 0.  1.
</event>
<event>
 7    1  0.6584658E-006  0.1495427E+03  0.7561462E-02  0.1201036E+00
         -1   -1    0    0    0  501 -0.00000000000E+00  0.00000000000E+00  0.12210028034E+03  0.12210028034E+03  0.00000000000E+00 0.  1.
          1   -1    0    0  501    0  0.00000000000E+00 -0.00000000000E+00 -0.23431285429E+03  0.23431285429E+03  0.00000000000E+00 0. -1.
         23    2    1    2    0    0 -0.77515926772E+02 -0.98889168333E+02 -0.70754406792E+02  0.17434138296E+03  0.97984413118E+02 0.  0.
          5    1    1    2  502    0  0.68475526429E+02  0.19361598458E+01 -0.48984315702E+02  0.84318337386E+02  0.41800000000E+01 0. -1.
         -5    1    1    2    0  502  0.90404003425E+01  0.96953008487E+02  0.75261485380E+01  0.97753414287E+02  0.41800000000E+01 0. -1.
        -11    1    3    3    0    0 -0.20092053014E+02 -0.60926146102E+02 -0.82500305457E+02  0.10450830720E+03  0.00000000000E+00 0.  1.
         11    1    3    3    0    0 -0.57423873758E+02 -0.37963022231E+02  0.11745898666E+02  0.69833075757E+02  0.00000000000E+00 0. -1.
</event>
<event>
 7    1  0.6584658E-006  0.2920042E+03  0.7561462E-02  0.1089307E+00
          1   -1    0    0  501    0  0.00000000000E+00  0.00000000000E+00  0.35452147774E+03  0.35452147774E+03  0.00000000000E+00 0. -1.
         -1   -1    0    0    0  501 -0.00000000000E+00 -0.00000000000E+00 -0.34169490410E+03  0.34169490410E+03  0.00000000000E+00 0.  1.
         23    2    1    2    0    0  0.17971714212E+02 -0.19866272947E+03  0.18525454669E+03  0.28700162989E+03  0.90889085681E+02 0.  0.
          5    1    1    2  502    0  0.13199742875E+02  0.28064807587E+03 -0.11133542345E+03  0.30224265850E+03  0.41800000000E+01 0. -1.
         -5    1    1    2    0  502 -0.31171457087E+02 -0.81985346398E+02 -0.61092549599E+02  0.10697209345E+03  0.41800000000E+01 0.  1.
        -11    1    3    3    0    0 -0.12805504604E+02  0.13179085751E+01  0.27746529403E+02  0.30587378526E+02  0.00000000000E+00 0.  1.
         11    1    3    3    0    0  0.30777218816E+02 -0.19998063805E+03  0.15750801729E+03  0.25641425136E+03  0.00000000000E+00 0. -1.
</event>
<event>
 7    1  0.6584658E-006  0.1167409E+03  0.7561462E-02  0.1248573E+00
         -1   -1    0    0    0  501 -0.00000000000E+00  0.00000000000E+00  0.30372762575E+03  0.30372762575E+03  0.00000000000E+00 0.  1.
          1   -1    0    0  501    0  0.00000000000E+00 -0.00000000000E+00 -0.48115853369E+02  0.48115853369E+02  0.00000000000E+00 0. -1.
         23    2    1    2    0    0  0.24813630794E+02  0.45716044215E+02  0.12435690827E+03  0.16321392501E+03  0.92024299564E+02 0.  0.
          5    1    1    2  502    0  0.44145886269E+02 -0.42497600749E+02  0.87091771066E+02  0.10657088876E+03  0.41800000000E+01 0. -1.
         -5    1    1    2    0  502 -0.68959517063E+02 -0.32184434661E+01  0.44163093047E+02  0.82058665352E+02  0.41800000000E+01 0. -1.
        -11    1    3    3    0    0 -0.61627958203E+01 -0.24973337844E+02  0.49033098432E+02  0.55370501147E+02  0.00000000000E+00 0.  1.
         11    1    3    3    0    0  0.30976426614E+02  0.70689382059E+02  0.75323809836E+02  0.10784342386E+03  0.00000000000E+00 0. -1.
</event>
<event>
 7    1  0.6584658E-006  0.1088388E+03  0.7561462E-02  0.1262736E+00
          2   -1    0    0  501    0  0.00000000000E+00  0.00000000000E+00  0.19349602380E+03  0.19349602380E+03  0.00000000000E+00 0. -1.
         -2   -1    0    0    0  501 -0.00000000000E+00 -0.00000000000E+00 -0.95840571690E+02  0.95840571690E+02  0.00000000000E+00 0.  1.
         23    2    1    2    0    0 -0.35487490766E+02  0.18111773983E+02  0.10066717215E+03  0.15802058333E+03  0.11510528593E+03 0.  0.
          5    1    1    2  502    0  0.72622959907E+02 -0.68245127955E+01 -0.34843369365E+02  0.80945667390E+02  0.41800000000E+01 0.  1.
         -5    1    1    2    0  502 -0.37135469141E+02 -0.11287261187E+02  0.31831649325E+02  0.50370344769E+02  0.41800000000E+01 0.  1.
        -11    1    3    3    0    0  0.33898565962E+02  0.11847603882E+02  0.38257280491E+00  0.35911347148E+02  0.00000000000E+00 0.  1.
         11    1    3    3    0    0 -0.69386056727E+02  0.62641701006E+01  0.10028459934E+03  0.12210923618E+03  0.00000000000E+00 0. -1.
</event>
<event>
 7    1  0.6584658E-006  0.8006193E+02  0.7561462E-02  0.1328876E+00
         -2   -1    0    0    0  501 -0.00000000000E+00  0.00000000000E+00  0.11139553703E+03  0.11139553703E+03  0.00000000000E+00 0.  1.
          2   -1    0    0  501    0  0.00000000000E+00 -0.00000000000E+00 -0.14167448188E+03  0.14167448188E+03  0.00000000000E+00 0. -1.
         23    2    1    2    0    0  0.37955930336E+02  0.47379482999E+02 -0.37699647107E+02  0.11383548676E+03  0.88610307514E+02 0.  0.
          5    1    1    2  502    0 -0.44620508701E+02 -0.21449242773E+02  0.61311100314E+02  0.78915038072E+02  0.41800000000E+01 0. -1.
         -5    1    1    2    0  502  0.66645783650E+01 -0.25930240227E+02 -0.53890398059E+02  0.60319494080E+02  0.41800000000E+01 0. -1.
        -11    1    3    3    0    0  0.47770846820E+02  0.15867659323E+02  0.14225467889E+02  0.52308702479E+02  0.00000000000E+00 0.  1.
         11    1    3    3    0    0 -0.98149164845E+01  0.31511823676E+02 -0.51925114996E+02  0.61526784284E+02  0.00000000000E+00 0. -1.
</event>
<event>
 7    1  0.6584658E-006  0.1427830E+03  0.7561462E-02  0.1209633E+00
         -1   -1    0    0    0  501 -0.00000000000E+00  0.00000000000E+00  0.42211510233E+02  0.42211510233E+02  0.00000000000E+00 0.  1.
          1   -1    0    0  501    0  0.00000000000E+00 -0.00000000000E+00 -0.61815398982E+03  0.61815398982E+03  0.00000000000E+00 0. -1.
         23    2    1    2    0    0  0.10832215479E+03  0.45930945274E+02 -0.33350406142E+03  0.36326687760E+03  0.83033273016E+02 0.  0.
          5    1    1    2  502    0  0.11947550211E+02 -0.10880158918E+02 -0.12244850853E+03  0.12358087010E+03  0.41800000000E+01 0. -1.
         -5    1    1    2    0  502 -0.12026970500E+03 -0.35050786356E+02 -0.11998990964E+03  0.17351775235E+03  0.41800000000E+01 0. -1.
        -11    1    3    3    0    0  0.81362450298E+02  0.70046113061E+02 -0.23610758970E+03  0.25937058466E+03  0.00000000000E+00 0. -1.
         11    1    3    3    0    0  0.26959704493E+02 -0.24115167786E+02 -0.97396471722E+02  0.10389629294E+03  0.00000000000E+00 0.  1.
</event>
<event>
 7    1  0.6584658E-006  0.1231175E+03  0.7561462E-02  0.1238041E+00
          1   -1    0    0  501    0  0.00000000000E+00  0.00000000000E+00  0.48193154211E+03  0.48193154211E+03  0.00000000000E+00 0. -1.
         -1   -1    0    0    0  501 -0.00000000000E+00 -0.00000000000E+00 -0.38301025071E+02  0.38301025071E+02  0.00000000000E+00 0.  1.
         23    2    1    2    0    0 -0.18633626180E+02  0.78610349631E+02  0.22945409481E+03  0.25937530652E+03  0.89997605052E+02 0.  0.
          5    1    1    2  502    0 -0.75500574310E+01 -0.94191051341E+02  0.20935148314E+03  0.22972695404E+03  0.41800000000E+01 0. -1.
         -5    1    1    2    0  502  0.26183683611E+02  0.15580701710E+02  0.48249390965E+01  0.31130306624E+02  0.41800000000E+01 0. -1.
        -11    1    3    3    0    0  0.33595427091E+02  0.52936676763E+02  0.11548847409E+03  0.13140978699E+03  0.00000000000E+00 0.  1.
         11    1    3    3    0    0 -0.52229053272E+02  0.25673672868E+02  0.11396562071E+03  0.12796551953E+03  0.00000000000E+00 0. -1.
</event>
<event>
 7    1  0.6584658E-006  0.1456473E+03  0.7561462E-02  0.1205926E+00
         -3   -1    0    0    0  501 -0.00000000000E+00  0.00000000000E+00  0.28657958679E+03  0.28657958679E+03  0.00000000000E+00 0.  1.
          3   -1    0    0  501    0  0.00000000000E+00 -0.00000000000E+00 -0.12852771699E+03  0.12852771699E+03  0.00000000000E+00 0. -1.
         23    2    1    2    0    0 -0.11718418695E+03 -0.67757583889E+02 -0.12939637552E+02  0.16368453422E+03  0.91115139668E+02 0.  0.
          5    1    1    2  502    0  0.10784046348E+03  0.49944004364E+02  0.50506889393E+02  0.12919902249E+03  0.41800000000E+01 0.  1.
         -5    1    1    2    0  502  0.93437234615E+01  0.17813579525E+02  0.12048461796E+03  0.12222374707E+03  0.41800000000E+01 0.  1.
        -11    1    3    3    0    0 -0.45586653746E+02  0.94287531399E+01 -0.32272182220E+02  0.56643959349E+02  0.00000000000E+00 0. -1.
         11    1    3    3    0    0 -0.71597533201E+02 -0.77186337029E+02  0.19332544668E+02  0.10704057487E+03  0.00000000000E+00 0.  1.
</event>
<event>
 7    1  0.6584658E-006  0.1201781E+03  0.7561462E-02  0.1242804E+00
          1   -1    0    0  501    0  0.00000000000E+00  0.00000000000E+00  0.32459339386E+03  0.32459339386E+03  0.00000000000E+00 0. -1.
         -1   -1    0    0    0  501 -0.00000000000E+00 -0.00000000000E+00 -0.63285120657E+02  0.63285120657E+02  0.00000000000E+00 0.  1.
         23    2    1    2    0    0  0.18560197652E+02 -0.52017943046E+02  0.21983694154E+03  0.24498888453E+03  0.92956577729E+02 0.  0.
          5    1    1    2  502    0  0.48560452616E+02  0.49273601086E+02  0.24096235315E+02  0.73376469516E+02  0.41800000000E+01 0.  1.
         -5    1    1    2    0  502 -0.67120650268E+02  0.27443419595E+01  0.17375096348E+02  0.69513160468E+02  0.41800000000E+01 0.  1.
        -11    1    3    3    0    0  0.42482919967E+02  0.41569129902E+01  0.12602399448E+03  0.13305685100E+03  0.00000000000E+00 0. -1.
         11    1    3    3    0    0 -0.23922722315E+02 -0.56174856036E+02  0.93812947060E+02  0.11193203353E+03  0.00000000000E+00 0.  1.
</event>
<event>
 7    1  0.6584658E-006  0.1280694E+03  0.7561462E-02  0.1230349E+00
         -3   -1    0    0    0  501 -0.00000000000E+00  0.00000000000E+00  0.57790070555E+03  0.57790070555E+03  0.00000000000E+00 0.  1.
          3   -1    0    0  501    0  0.00000000000E+00 -0.00000000000E+00 -0.42932241130E+02  0.42932241130E+02  0.00000000000E+00 0. -1.
         23    2    1    2    0    0 -0.11284239155E+03 -0.41083735327E+01  0.21891435958E+03  0.26266503706E+03  0.91209324076E+02 0.  0.
          5    1    1    2  502    0  0.72877656440E+02 -0.31255826976E+02  0.68431169662E+02  0.10482545926E+03  0.41800000000E+01 0.  1.
         -5    1    1    2    0  502  0.39964735105E+02  0.35364200509E+02  0.24762293517E+03  0.25334245036E+03  0.41800000000E+01 0.  1.
        -11    1    3    3    0    0 -0.92198805175E+02 -0.23212596016E+02  0.21392198706E+03  0.23409839991E+03  0.00000000000E+00 0.  1.
         11    1    3    3    0    0 -0.20643586370E+02  0.19104222483E+02  0.49923725219E+01  0.28566637154E+02  0.00000000000E+00 0. -1.
</event>
<event>
 7    1  0.6584658E-006  0.1053597E+03  0.7561462E-02  0.1269413E+00
          2   -1    0    0  501    0  0.00000000000E+00  0.00000000000E+00  0.30289351037E+03  0.30289351037E+03  0.00000000000E+00 0. -1.
         -2   -1    0    0    0  501 -0.00000000000E+00 -0.00000000000E+00 -0.66751627379E+02  0.66751627379E+02  0.00000000000E+00 0.  1.
         23    2    1    2    0    0 -0.40889070593E+02  0.25874125428E+01  0.21339565905E+03  0.23604133537E+03  0.92191072791E+02 0.  0.
          5    1    1    2  502    0 -0.39908828623E+02  0.22250490149E+02  0.16428264476E+02  0.48735604928E+02  0.41800000000E+01 0. -1.
         -5    1    1    2    0  502  0.80797899217E+02 -0.24837902692E+02  0.63179594689E+01  0.84868197458E+02  0.41800000000E+01 0. -1.
        -11    1    3    3    0    0  0.11764602713E+02  0.21292137784E+02  0.12167997078E+02  0.27199653698E+02  0.00000000000E+00 0.  1.
         11    1    3    3    0    0 -0.52653673306E+02 -0.18704725241E+02  0.20122766197E+03  0.20884168167E+03  0.00000000000E+00 0. -1.
</event>
<event>
 7    1  0.6584658E-006  0.9657690E+02  0.7561462E-02  0.1287663E+00
         -1   -1    0    0    0  501 -0.00000000000E+00  0.00000000000E+00  0.68222975492E+02  0.68222975492E+02  0.00000000000E+00 0.  1.
          1   -1    0    0  501    0  0.00000000000E+00 -0.00000000000E+00 -0.27250363149E+03  0.27250363149E+03  0.00000000000E+00 0. -1.
         23    2    1    2    0    0 -0.36793680630E+02 -0.18463461204E+02 -0.17952512730E+03  0.20673147049E+03  0.93882667325E+02 0.  0.
          5    1    1    2  502    0 -0.18850973876E+02 -0.35747240903E+02 -0.37344980281E+02  0.55184639171E+02  0.41800000000E+01 0.  1.
         -5    1    1    2    0  502  0.55644654506E+02  0.54210702107E+02  0.12589451578E+02  0.78810497327E+02  0.41800000000E+01 0.  1.
        -11    1    3    3    0    0 -0.39172163458E+01  0.22138902648E+02 -0.30537933773E+01  0.22689231992E+02  0.00000000000E+00 0.  1.
         11    1    3    3    0    0 -0.32876464284E+02 -0.40602363852E+02 -0.17647133392E+03  0.18404223850E+03  0.00000000000E+00 0. -1.
</event>
<event>
 7    1  0.6584658E-006  0.1240983E+03  0.7561462E-02  0.1236485E+00
         -1   -1    0    0    0  501 -0.00000000000E+00  0.00000000000E+00  0.11110236195E+03  0.11110236195E+03  0.00000000000E+00 0.  1.
          1   -1    0    0  501    0  0.00000000000E+00 -0.00000000000E+00 -0.18672006116E+03  0.18672006116E+03  0.00000000000E+00 0. -1.
         23    2    1    2    0    0  0.24773635323E+02  0.50623931654E+02 -0.10327718634E+03  0.15785974915E+03  0.10524736443E+03 0.  0.
          5    1    1    2  502    0  0.39642491995E+02  0.11018152687E+02 -0.10845214075E+02  0.42755326318E+02  0.41800000000E+01 0. -1.
         -5    1    1    2    0  502 -0.64416127318E+02 -0.61642084341E+02  0.38504701209E+02  0.97207347643E+02  0.41800000000E+01 0. -1.
        -11    1    3    3    0    0  0.50429294366E+02  0.69402695419E+02 -0.86833644239E+02  0.12206526792E+03  0.00000000000E+00 0. -1.
         11    1    3    3    0    0 -0.25655659043E+02 -0.18778763765E+02 -0.16443542103E+02  0.35794481228E+02  0.00000000000E+00 0.  1.
</event>
<event>
 7    1  0.6584658E-006  0.1095306E+03  0.7561462E-02  0.1261442E+00
          2   -1    0    0  501    0  0.00000000000E+00  0.00000000000E+00  0.32414008212E+03  0.32414008212E+03  0.00000000000E+00 0.  1.
         -2   -1    0    0    0  501 -0.00000000000E+00 -0.00000000000E+00 -0.50028464276E+02  0.50028464276E+02  0.00000000000E+00 0. -1.
         23    2    1    2    0    0 -0.12737471367E+02  0.65518878428E+02  0.12318017571E+03  0.16708663739E+03  0.91047361839E+02 0.  0.
          5    1    1    2  502    0  0.39379855961E+02  0.24816826957E+02  0.60477503713E+02  0.76430679776E+02  0.41800000000E+01 0. -1.
         -5    1    1    2    0  502 -0.26642384594E+02 -0.90335705385E+02  0.90453938417E+02  0.13065122923E+03  0.41800000000E+01 0. -1.
        -11    1    3    3    0    0 -0.24100918916E+02  0.20561487933E+02  0.11589459565E+03  0.12014652046E+03  0.00000000000E+00 0.  1.
         11    1    3    3    0    0  0.11363447549E+02  0.44957390495E+02  0.72855800664E+01  0.46940116928E+02  0.00000000000E+00 0. -1.
</event>
<event>
 7    1  0.6584658E-006  0.1049863E+03  0.7561462E-02  0.1270147E+00
          1   -1    0    0  501    0  0.00000000000E+00  0.00000000000E+00  0.41347710256E+02  0.41347710256E+02  0.00000000000E+00 0. -1.
         -1   -1    0    0    0  501 -0.00000000000E+00 -0.00000000000E+00 -0.48708073302E+03  0.48708073302E+03  0.00000000000E+00 0.  1.
         23    2    1    2    0    0  0.45059176825E+02  0.10523587553E+02 -0.55057335353E+02  0.11561307473E+03  0.90520702386E+02 0.  0.
          5    1    1    2  502    0 -0.41425717285E+02  0.45065358072E+02 -0.10401852345E+03  0.12076548419E+03  0.41800000000E+01 0. -1.
         -5    1    1    2    0  502 -0.36334595394E+01 -0.55588945625E+02 -0.28665716397E+03  0.29204988436E+03  0.41800000000E+01 0. -1.
        -11    1    3    3    0    0 -0.15698041536E+02  0.25713047011E+02 -0.41920685818E+02  0.51622990945E+02  0.00000000000E+00 0.  1.
         11    1    3    3    0    0  0.60757218360E+02 -0.15189459457E+02 -0.13136649535E+02  0.63990083782E+02  0.00000000000E+00 0. -1.
</event>
<event>
 7    1  0.6584658E-006  0.1863422E+03  0.7561462E-02  0.1161802E+00
          1   -1    0    0  501    0  0.00000000000E+00  0.00000000000E+00  0.16621270250E+04  0.16621270250E+04  0.00000000000E+00 0. -1.
         -1   -1    0    0    0  501 -0.00000000000E+00 -0.00000000000E+00 -0.25410764953E+02  0.25410764953E+02  0.00000000000E+00 0.  1.
         23    2    1    2    0    0 -0.65155334417E+02  0.15423600308E+03  0.59331124152E+03  0.62340693752E+03  0.92649976687E+02 0.  0.
          5    1    1    2  502    0  0.55774739473E+02 -0.16203818507E+02  0.16695520578E+03  0.17681882941E+03  0.41800000000E+01 0. -1.
         -5    1    1    2    0  502  0.93805949440E+01 -0.13803218458E+03  0.87644981279E+03  0.88731202306E+03  0.41800000000E+01 0. -1.
        -11    1    3    3    0    0 -0.40904118946E+02  0.33440798993E+02  0.82656985423E+02  0.98100006235E+02  0.00000000000E+00 0.  1.
         11    1    3    3    0    0 -0.24251215471E+02  0.12079520409E+03  0.51065425610E+03  0.52530693128E+03  0.00000000000E+00 0. -1.
</event>
<event>
 7    1  0.6584658E-006  0.1484376E+03  0.7561462E-02  0.1202406E+00
          1   -1    0    0  501    0  0.00000000000E+00  0.00000000000E+00  0.77649406471E+02  0.77649406471E+02  0.00000000000E+00 0. -1.
         -1   -1    0    0    0  501 -0.00000000000E+00 -0.00000000000E+00 -0.69509811998E+03  0.69509811998E+03  0.00000000000E+00 0.  1.
         23    2    1    2    0    0  0.60319080122E+02 -0.11944924936E+03 -0.38802008656E+02  0.16580037043E+03  0.89875760692E+02 0.  0.
          5    1    1    2  502    0 -0.61361621969E+02  0.63678834210E+02 -0.51352315977E+03  0.52109859969E+03  0.41800000000E+01 0.  1.
         -5    1    1    2    0  502  0.10425418478E+01  0.55770415152E+02 -0.65123545086E+02  0.85848556333E+02  0.41800000000E+01 0.  1.
        -11    1    3    3    0    0 -0.15857601462E+02 -0.36449665687E+02 -0.35183845832E+02  0.53084316520E+02  0.00000000000E+00 0.  1.
         11    1    3    3    0    0  0.76176681584E+02 -0.82999583675E+02 -0.36181628234E+01  0.11271605391E+03  0.00000000000E+00 0. -1.
</event>
<event>
 7    1  0.6584658E-006  0.1588483E+03  0.7561462E-02  0.1190003E+00
         -1   -1    0    0    0  501 -0.00000000000E+00  0.00000000000E+00  0.34606439776E+02  0.34606439776E+02  0.00000000000E+00 0.  1.
          1   -1    0    0  501    0  0.00000000000E+00 -0.00000000000E+00 -0.74771232726E+03  0.74771232726E+03  0.00000000000E+00 0. -1.
         23    2    1    2    0    0  0.31304898604E+02  0.11212227817E+03 -0.28990250222E+03  0.32591870565E+03  0.92887781555E+02 0.  0.
          5    1    1    2  502    0 -0.79727612736E+02 -0.71228418897E+02 -0.27981644432E+03  0.29957418914E+03  0.41800000000E+01 0. -1.
         -5    1    1    2    0  502  0.48422714132E+02 -0.40893859270E+02 -0.14338694095E+03  0.15682587224E+03  0.41800000000E+01 0. -1.
        -11    1    3    3    0    0  0.60245093102E+02  0.48680042307E+02 -0.12756162301E+03  0.14923533572E+03  0.00000000000E+00 0. -1.
         11    1    3    3    0    0 -0.28940194498E+02  0.63442235859E+02 -0.16234087921E+03  0.17668336993E+03  0.00000000000E+00 0.  1.
</event>
<event>
 7    1  0.6584658E-006  0.9578357E+02  0.7561462E-02  0.1289421E+00
          2   -1    0    0  501    0  0.00000000000E+00  0.00000000000E+00  0.16682022768E+03  0.16682022768E+03  0.00000000000E+00 0. -1.
         -2   -1    0    0    0  501 -0.00000000000E+00 -0.00000000000E+00 -0.84903581258E+02  0.84903581258E+02  0.00000000000E+00 0.  1.
         23    2    1    2    0    0  0.43454515500E+02  0.21566111042E+02  0.45035589548E+02  0.11258010685E+03  0.91064175558E+02 0.  0.
          5    1    1    2  502    0 -0.25145204568E+02  0.46116702779E+02  0.43859662319E+02  0.68557814775E+02  0.41800000000E+01 0.  1.
         -5    1    1    2    0  502 -0.18309310932E+02 -0.67682813820E+02 -0.69786054460E+01  0.70585887311E+02  0.41800000000E+01 0.  1.
        -11    1    3    3    0    0 -0.77310945163E+01  0.15201841462E+02  0.57113186661E+02  0.59605217027E+02  0.00000000000E+00 0. -1.
         11    1    3    3    0    0  0.51185610016E+02  0.63642695795E+01 -0.12077597113E+02  0.52974889825E+02  0.00000000000E+00 0.  1.
</event>
<event>
 7    1  0.6584658E-006  0.1954319E+03  0.7561462E-02  0.1153651E+00
         -2   -1    0    0    0  501 -0.00000000000E+00  0.00000000000E+00  0.25074667089E+03  0.25074667089E+03  0.00000000000E+00 0.  1.
          2   -1    0    0  501    0  0.00000000000E+00 -0.00000000000E+00 -0.35340684688E+03  0.35340684688E+03  0.00000000000E+00 0. -1.
         23    2    1    2    0    0  0.33194426601E+02  0.80371973941E+02 -0.21345561185E+03  0.24871187856E+03  0.93449323974E+02 0.  0.
          5    1    1    2  502    0  0.10988813434E+03 -0.13548735207E+02 -0.57322534571E+02  0.12474901067E+03  0.41800000000E+01 0. -1.
         -5    1    1    2    0  502 -0.14308256094E+03 -0.66823238734E+02  0.16811797044E+03  0.23069262854E+03  0.41800000000E+01 0.  1.
        -11    1    3    3    0    0  0.62503543199E+02  0.52115878983E+02 -0.10484894145E+03  0.13272549973E+03  0.00000000000E+00 0.  1.
         11    1    3    3    0    0 -0.29309116598E+02  0.28256094958E+02 -0.10860667040E+03  0.11598637883E+03  0.00000000000E+00 0. -1.
</event>
<event>
 7    1  0.6584658E-006  0.8283443E+02  0.7561462E-02  0.1321195E+00
         -3   -1    0    0    0  501 -0.00000000000E+00  0.00000000000E+00  0.38737034874E+03  0.38737034874E+03  0.00000000000E+00 0.  1.
          3   -1    0    0  501    0  0.00000000000E+00 -0.00000000000E+00 -0.49975562118E+02  0.49975562118E+02  0.00000000000E+00 0. -1.
         23    2    1    2    0    0 -0.15096488356E+02  0.16783554058E+02  0.18829154853E+02  0.94356810158E+02  0.89660910676E+02 0.  0.
          5    1    1    2  502    0  0.10360350029E+02  0.51693948876E+02  0.18955393008E+03  0.19679371436E+03  0.41800000000E+01 0. -1.
         -5    1    1    2    0  502  0.47361383270E+01 -0.68477502934E+02  0.12901170168E+03  0.14619538633E+03  0.41800000000E+01 0. -1.
        -11    1    3    3    0    0  0.97900845912E+00 -0.11467241258E+02  0.48803113611E+02  0.50141798709E+02  0.00000000000E+00 0.  1.
         11    1    3    3    0    0 -0.16075496815E+02  0.28250795316E+02 -0.29973958758E+02  0.44215011449E+02  0.00000000000E+00 0. -1.
</event>
<event>
 7    1  0.6584658E-006  0.1455716E+03  0.7561462E-02  0.1206023E+00
          2   -1    0    0  501    0  0.00000000000E+00  0.00000000000E+00  0.17851010693E+03  0.17851010693E+03  0.00000000000E+00 0. -1.
         -2   -1    0    0    0  501 -0.00000000000E+00 -0.00000000000E+00 -0.12460429635E+03  0.12460429635E+03  0.00000000000E+00 0.  1.
         23    2    1    2    0    0 -0.93537573517E+02  0.36439770354E+02  0.32914993766E+02  0.13915475140E+03  0.90573249361E+02 0.  0.
          5    1    1    2  502    0  0.12340807756E+03 -0.44279967921E+02  0.13228595111E+02  0.13184360923E+03  0.41800000000E+01 0. -1.
         -5    1    1    2    0  502 -0.29870504043E+02  0.78401975671E+01  0.77622217043E+01  0.32116042649E+02  0.41800000000E+01 0.  1.
        -11    1    3    3    0    0  0.88788481523E+01  0.24051582111E+02 -0.98688828676E+01  0.27471938330E+02  0.00000000000E+00 0.  1.
         11    1    3    3    0    0 -0.10241642167E+03  0.12388188243E+02  0.42783876634E+02  0.11168281307E+03  0.00000000000E+00 0. -1.
</event>
<event>
 7    1  0.6584658E-006  0.1440554E+03  0.7561462E-02  0.1207974E+00
         -1   -1    0    0    0  501 -0.00000000000E+00  0.00000000000E+00  0.58233911433E+02  0.58233911433E+02  0.00000000000E+00 0.  1.
          1   -1    0    0  501    0  0.00000000000E+00 -0.00000000000E+00 -0.50489463319E+03  0.50489463319E+03  0.00000000000E+00 0. -1.
         23    2    1    2    0    0 -0.13856243643E+02 -0.12887165822E+03 -0.25769498278E+03  0.30205867504E+03  0.89626108017E+02 0.  0.
          5    1    1    2  502    0 -0.13159849173E+02  0.96062727057E+02 -0.19511992799E+03  0.21792312373E+03  0.41800000000E+01 0. -1.
         -5    1    1    2    0  502  0.27016092816E+02  0.32808931159E+02  0.61541890121E+01  0.43146745847E+02  0.41800000000E+01 0. -1.
        -11    1    3    3    0    0  0.23440558980E+02 -0.95412286352E+02 -0.11741526882E+03  0.15309901876E+03  0.00000000000E+00 0.  1.
         11    1    3    3    0    0 -0.37296802624E+02 -0.33459371864E+02 -0.14027971396E+03  0.14895965629E+03  0.00000000000E+00 0. -1.
</event>
<event>
 7    1  0.6584658E-006  0.9254725E+02  0.7561462E-02  0.1296798E+00
          1   -1    0    0  501    0  0.00000000000E+00  0.00000000000E+00  0.26603116575E+03  0.26603116575E+03  0.00000000000E+00 0. -1.
         -1   -1    0    0    0  501 -0.00000000000E+00 -0.00000000000E+00 -0.47174195125E+02  0.47174195125E+02  0.00000000000E+00 0.  1.
         23    2    1    2    0    0  0.18520688842E+02 -0.75705969232E-01  0.12802693114E+03  0.15751264855E+03  0.89868335398E+02 0.  0.
          5    1    1    2  502    0 -0.45630176795E+01  0.59566452290E+02  0.67279426993E+02  0.90072065954E+02  0.41800000000E+01 0. -1.
         -5    1    1    2    0  502 -0.13957671162E+02 -0.59490746321E+02  0.23550612488E+02  0.65620646375E+02  0.41800000000E+01 0. -1.
        -11    1    3    3    0    0 -0.22690056548E+02 -0.13261536874E+01 -0.29411026707E+00  0.22730680821E+02  0.00000000000E+00 0.  1.
         11    1    3    3    0    0  0.41210745389E+02  0.12504477181E+01  0.12832104141E+03  0.13478196772E+03  0.00000000000E+00 0. -1.
</event>
<event>
 7    1  0.6584658E-006  0.7994039E+02  0.7561462E-02  0.1329221E+00
         -2   -1    0    0    0  501 -0.00000000000E+00  0.00000000000E+00  0.52277928310E+02  0.52277928310E+02  0.00000000000E+00 0.  1.
          2   -1    0    0  501    0  0.00000000000E+00 -0.00000000000E+00 -0.30189839554E+03  0.30189839554E+03  0.00000000000E+00 0. -1.
         23    2    1    2    0    0 -0.51402235561E+02  0.22922945708E+02 -0.14791741536E+03  0.18340615619E+03  0.92685517200E+02 0.  0.
          5    1    1    2  502    0  0.65428812792E+02 -0.15225247850E+02 -0.12513646890E+03  0.14208921832E+03  0.41800000000E+01 0.  1.
         -5    1    1    2    0  502 -0.14026577232E+02 -0.76976978579E+01  0.23433417033E+02  0.28680949339E+02  0.41800000000E+01 0.  1.
        -11    1    3    3    0    0 -0.34217401476E+02 -0.12689853929E+02 -0.71475852381E+01  0.37188048231E+02  0.00000000000E+00 0.  1.
         11    1    3    3    0    0 -0.17184834085E+02  0.35612799637E+02 -0.14076983013E+03  0.14621810795E+03  0.00000000000E+00 0. -1.
</event>
<event>
 7    1  0.6584658E-006  0.1077145E+03  0.7561462E-02  0.1264862E+00
         -1   -1    0    0    0  501 -0.00000000000E+00  0.00000000000E+00  0.93354416834E+02  0.93354416834E+02  0.00000000000E+00 0.  1.
          1   -1    0    0  501    0  0.00000000000E+00 -0.00000000000E+00 -0.17901620127E+03  0.17901620127E+03  0.00000000000E+00 0. -1.
         23    2    1    2    0    0 -0.43239796076E+02  0.41873474497E+02 -0.75736685449E+02  0.13319849260E+03  0.91557222971E+02 0.  0.
          5    1    1    2  502    0 -0.15756939244E+02 -0.67722781922E+02  0.12640090231E+02  0.70794778103E+02  0.41800000000E+01 0.  1.
         -5    1    1    2    0  502  0.58996735320E+02  0.25849307425E+02 -0.22565189222E+02  0.68377347400E+02  0.41800000000E+01 0.  1.
        -11    1    3    3    0    0 -0.14120289796E+02  0.49209936523E+02  0.56648296838E+00  0.51198841193E+02  0.00000000000E+00 0.  1.
         11    1    3    3    0    0 -0.29119506281E+02 -0.73364620269E+01 -0.76303168417E+02  0.81999651411E+02  0.00000000000E+00 0. -1.
</event>
<event>
 7    1  0.6584658E-006  0.1565535E+03  0.7561462E-02  0.1192644E+00
          1   -1    0    0  501    0  0.00000000000E+00  0.00000000000E+00  0.15509606400E+03  0.15509606400E+03  0.00000000000E+00 0. -1.
         -1   -1    0    0    0  501 -0.00000000000E+00 -0.00000000000E+00 -0.65757111084E+03  0.65757111084E+03  0.00000000000E+00 0.  1.
         23    2    1    2    0    0 -0.13983483603E+01 -0.90640669285E+02  0.10716877199E+03  0.16654369475E+03  0.89632417484E+02 0.  0.
          5    1    1    2  502    0  0.47881949264E+02  0.13876479695E+03 -0.40752750710E+03  0.43317951404E+03  0.41800000000E+01 0. -1.
         -5    1    1    2    0  502 -0.46483600903E+02 -0.48124127660E+02 -0.20211631173E+03  0.21294396606E+03  0.41800000000E+01 0.  1.
        -11    1    3    3    0    0 -0.16590294481E+02 -0.16013984706E+02 -0.11322905087E+02  0.25688397317E+02  0.00000000000E+00 0.  1.
         11    1    3    3    0    0  0.15191946120E+02 -0.74626684579E+02  0.11849167707E+03  0.14085529743E+03  0.00000000000E+00 0. -1.
</event>
<event>
 7    1  0.6584658E-006  0.9395900E+02  0.7561462E-02  0.1293538E+00
         -2   -1    0    0    0  501 -0.00000000000E+00  0.00000000000E+00  0.21085700087E+03  0.21085700087E+03  0.00000000000E+00 0.  1.
          2   -1    0    0  501    0  0.00000000000E+00 -0.00000000000E+00 -0.63662973900E+02  0.63662973900E+02  0.00000000000E+00 0. -1.
         23    2    1    2    0    0 -0.61943505650E+01  0.43498350222E+00  0.19906759458E+02  0.95944524306E+02  0.93651019656E+02 0.  0.
          5    1    1    2  502    0 -0.95641484774E+01 -0.52953128327E+02  0.10721978951E+03  0.12003775405E+03  0.41800000000E+01 0.  1.
         -5    1    1    2    0  502  0.15758499042E+02  0.52518144825E+02  0.20067478006E+02  0.58537696413E+02  0.41800000000E+01 0.  1.
        -11    1    3    3    0    0  0.25678267569E+02  0.27148397295E+02 -0.16333924766E+02  0.40782422676E+02  0.00000000000E+00 0. -1.
         11    1    3    3    0    0 -0.31872618134E+02 -0.26713413793E+02  0.36240684224E+02  0.55162101630E+02  0.00000000000E+00 0.  1.
</event>
<event>
 7    1  0.6584658E-006  0.1418565E+03  0.7561462E-02  0.1210852E+00
          1   -1    0    0  501    0  0.00000000000E+00  0.00000000000E+00  0.43812011601E+03  0.43812011601E+03  0.00000000000E+00 0. -1.
         -1   -1    0    0    0  501 -0.00000000000E+00 -0.00000000000E+00 -0.74215005062E+02  0.74215005062E+02  0.00000000000E+00 0.  1.
         23    2    1    2    0    0  0.74464734493E+02  0.61356573474E+02  0.32262765791E+03  0.34905066846E+03  0.91859336566E+02 0.  0.
          5    1    1    2  502    0 -0.10520892606E+03 -0.58714019051E+02  0.50652115497E+02  0.13076453403E+03  0.41800000000E+01 0. -1.
         -5    1    1    2    0  502  0.30744191563E+02 -0.26425544229E+01 -0.93746624538E+01  0.32519918586E+02  0.41800000000E+01 0. -1.
        -11    1    3    3    0    0 -0.19287573858E+02  0.24736509517E+02  0.58190680288E+02  0.66106434489E+02  0.00000000000E+00 0.  1.
         11    1    3    3    0    0  0.93752308351E+02  0.36620063957E+02  0.26443697762E+03  0.28294423397E+03  0.00000000000E+00 0. -1.
</event>
<event>
 7    1  0.6584658E-006  0.8870342E+02  0.7561462E-02  0.1306022E+00
         -3   -1    0    0    0  501 -0.00000000000E+00  0.00000000000E+00  0.15476139033E+03  0.15476139033E+03  0.00000000000E+00 0.  1.
          3   -1    0    0  501    0  0.00000000000E+00 -0.00000000000E+00 -0.94341091941E+02  0.94341091941E+02  0.00000000000E+00 0. -1.
         23    2    1    2    0    0  0.44036860798E+02  0.54450652541E+02  0.22131382480E+02  0.10071960678E+03  0.68924033747E+02 0.  0.
          5    1    1    2  502    0  0.21392013603E+02 -0.25780174064E+02 -0.33118214395E+02  0.47291903593E+02  0.41800000000E+01 0. -1.
         -5    1    1    2    0  502 -0.65428874401E+02 -0.28670478477E+02  0.71407130309E+02  0.10109097190E+03  0.41800000000E+01 0. -1.
        -11    1    3    3    0    0  0.28580607517E+02  0.21731729200E+02 -0.23176509628E+02  0.42734877777E+02  0.00000000000E+00 0. -1.
         11    1    3    3    0    0  0.15456253281E+02  0.32718923341E+02  0.45307892108E+02  0.57984729002E+02  0.00000000000E+00 0.  1.
</event>
<event>
 7    1  0.6584658E-006  0.1146352E+03  0.7561462E-02  0.1252219E+00
         -1   -1    0    0    0  501 -0.00000000000E+00  0.00000000000E+00  0.85373002253E+02  0.85373002253E+02  0.00000000000E+00 0.  1.
          1   -1    0    0  501    0  0.00000000000E+00 -0.00000000000E+00 -0.21161066939E+03  0.21161066939E+03  0.00000000000E+00 0. -1.
         23    2    1    2    0    0 -0.31300001417E+02 -0.71097276617E+02 -0.76399025501E+02  0.14153193001E+03  0.90332515090E+02 0.  0.
          5    1    1    2  502    0  0.61098102377E+02  0.89200016022E+02 -0.52444735445E+02  0.12023952615E+03  0.41800000000E+01 0.  1.
         -5    1    1    2    0  502 -0.29798100959E+02 -0.18102739406E+02  0.26060938095E+01  0.35212215490E+02  0.41800000000E+01 0.  1.
        -11    1    3    3    0    0  0.75245087648E+01 -0.22673109421E+02  0.17049824534E+02  0.29349355012E+02  0.00000000000E+00 0.  1.
         11    1    3    3    0    0 -0.38824510182E+02 -0.48424167195E+02 -0.93448850035E+02  0.11218257499E+03  0.00000000000E+00 0. -1.
</event>
<event>
 7    1  0.6584658E-006  0.1239926E+03  0.7561462E-02  0.1236652E+00
          2   -1    0    0  501    0  0.00000000000E+00  0.00000000000E+00  0.65938742322E+02  0.65938742322E+02  0.00000000000E+00 0. -1.
         -2   -1    0    0    0  501 -0.00000000000E+00 -0.00000000000E+00 -0.25046010856E+03  0.25046010856E+03  0.00000000000E+00 0.  1.
         23    2    1    2    0    0 -0.26837293510E+02 -0.59367520280E+02 -0.63642749489E+02  0.13065416555E+03  0.93676937538E+02 0.  0.
          5    1    1    2  502    0 -0.61321166813E+01 -0.35842518868E+02 -0.15088200469E+02  0.39590594934E+02  0.41800000000E+01 0. -1.
         -5    1    1    2    0  502  0.32969410191E+02  0.95210039149E+02 -0.10579041628E+03  0.14615409040E+03  0.41800000000E+01 0. -1.
        -11    1    3    3    0    0  0.32106990313E+02 -0.99310964465E+01 -0.35109651121E+02  0.48602192393E+02  0.00000000000E+00 0.  1.
         11    1    3    3    0    0 -0.58944283822E+02 -0.49436423834E+02 -0.28533098368E+02  0.82051973159E+02  0.00000000000E+00 0. -1.
</event>
<event>
 7    1  0.6584658E-006  0.1017717E+03  0.7561462E-02  0.1276614E+00
          2   -1    0    0  501    0  0.00000000000E+00  0.00000000000E+00  0.38380212196E+03  0.38380212196E+03  0.00000000000E+00 0. -1.
         -2   -1    0    0    0  501 -0.00000000000E+00 -0.00000000000E+00 -0.32417146550E+02  0.32417146550E+02  0.00000000000E+00 0.  1.
         23    2    1    2    0    0  0.11658389910E+02 -0.23474682039E+02  0.15689516054E+03  0.18349300928E+03  0.91469198655E+02 0.  0.
          5    1    1    2  502    0 -0.61470283327E+02  0.70158733698E+01  0.52337272746E+02  0.81144813328E+02  0.41800000000E+01 0. -1.
         -5    1    1    2    0  502  0.49811893417E+02  0.16458808670E+02  0.14215254213E+03  0.15158144591E+03  0.41800000000E+01 0. -1.
        -11    1    3    3    0    0 -0.29343279329E+02  0.14757420327E+02  0.28862852841E+02  0.43724978795E+02  0.00000000000E+00 0.  1.
         11    1    3    3    0    0  0.41001669240E+02 -0.38232102366E+02  0.12803230770E+03  0.13976803049E+03  0.00000000000E+00 0. -1.
</event>
<event>
 7    1  0.6584658E-006  0.1211814E+03  0.7561462E-02  0.1241161E+00
         -1   -1    0    0    0  501 -0.00000000000E+00  0.00000000000E+00  0.10202579388E+04  0.10202579388E+04  0.00000000000E+00 0.  1.
          1   -1    0    0  501    0  0.00000000000E+00 -0.00000000000E+00 -0.20959643745E+02  0.20959643745E+02  0.00000000000E+00 0. -1.
         23    2    1    2    0    0 -0.55475779713E+02 -0.16999805372E+02  0.17955603219E+03  0.20920841596E+03  0.90339565521E+02 0.  0.
          5    1    1    2  502    0  0.92349419778E+02 -0.54291783788E+01  0.42976227905E+03  0.43962595488E+03  0.41800000000E+01 0. -1.
         -5    1    1    2    0  502 -0.36873640064E+02  0.22428983751E+02  0.38997998379E+03  0.39238321167E+03  0.41800000000E+01 0.  1.
        -11    1    3    3    0    0  0.16277275043E+02 -0.29377391254E+02  0.70327913690E+02  0.77935846975E+02  0.00000000000E+00 0. -1.
         11    1    3    3    0    0 -0.71753054756E+02  0.12377585881E+02  0.10922811850E+03  0.13127256899E+03  0.00000000000E+00 0.  1.
</event>
<event>
 7    1  0.6584658E-006  0.6126441E+02  0.7561462E-02  0.1392601E+00
          1   -1    0    0  501    0  0.00000000000E+00  0.00000000000E+00  0.16699881358E+03  0.16699881358E+03  0.00000000000E+00 0. -1.
         -1   -1    0    0    0  501 -0.00000000000E+00 -0.00000000000E+00 -0.87460173734E+02  0.87460173734E+02  0.00000000000E+00 0.  1.
         23    2    1    2    0    0  0.32731487661E+02  0.28468032254E+02  0.67081790426E+02  0.12147342865E+03  0.91509825248E+02 0.  0.
          5    1    1    2  502    0 -0.19043163753E+02 -0.68245524536E+01 -0.56046892281E+02  0.59732262106E+02  0.41800000000E+01 0. -1.
         -5    1    1    2    0  502 -0.13688323908E+02 -0.21643479800E+02  0.68503741696E+02  0.73253296551E+02  0.41800000000E+01 0. -1.
        -11    1    3    3    0    0 -0.10879446679E+02  0.30382602078E+02  0.70653263099E+02  0.77674631995E+02  0.00000000000E+00 0. -1.
         11    1    3    3    0    0  0.43610934340E+02 -0.19145698247E+01 -0.35714726723E+01  0.43798796658E+02  0.00000000000E+00 0.  1.
</event>
<event>
 7    1  0.6584658E-006  0.1651167E+03  0.7561462E-02  0.1183038E+00
         -1   -1    0    0    0  501 -0.00000000000E+00  0.00000000000E+00  0.17664652731E+03  0.17664652731E+03  0.00000000000E+00 0.  1.
          1   -1    0    0  501    0  0.00000000000E+00 -0.00000000000E+00 -0.18113271748E+03  0.18113271748E+03  0.00000000000E+00 0. -1.
         23    2    1    2    0    0  0.99573818991E+02 -0.10252154890E+03  0.12887807559E+02  0.16705587750E+03  0.85533368964E+02 0.  0.
          5    1    1    2  502    0  0.17598370471E+02  0.27119092726E+02  0.29185083389E+02  0.43753734994E+02  0.41800000000E+01 0.  1.
         -5    1    1    2    0  502 -0.11717218946E+03  0.75402456176E+02 -0.46559081118E+02  0.14696963229E+03  0.41800000000E+01 0.  1.
        -11    1    3    3    0    0  0.33169237349E+02 -0.82437598222E+02 -0.18734056053E+02  0.90813659563E+02  0.00000000000E+00 0. -1.
         11    1    3    3    0    0  0.66404581642E+02 -0.20083950680E+02  0.31621863611E+02  0.76242217939E+02  0.00000000000E+00 0.  1.
</event>
<event>
 7    1  0.6584658E-006  0.1263050E+03  0.7561462E-02  0.1233044E+00
         -1   -1    0    0    0  501 -0.00000000000E+00  0.00000000000E+00  0.15033240222E+02  0.15033240222E+02  0.00000000000E+00 0.  1.
          1   -1    0    0  501    0  0.00000000000E+00 -0.00000000000E+00 -0.11069358277E+04  0.11069358277E+04  0.00000000000E+00 0. -1.
         23    2    1    2    0    0 -0.56925094477E+02 -0.36617930150E+02 -0.59149454616E+03  0.60174269970E+03  0.87447923387E+02 0.  0.
          5    1    1    2  502    0  0.72417989998E+02 -0.26368533271E+02 -0.26535987312E+03  0.27635665269E+03  0.41800000000E+01 0. -1.
         -5    1    1    2    0  502 -0.15492895521E+02  0.62986463421E+02 -0.23504816817E+03  0.24386971552E+03  0.41800000000E+01 0. -1.
        -11    1    3    3    0    0 -0.14055966646E+02 -0.59981742919E+02 -0.31415640130E+03  0.32014000712E+03  0.00000000000E+00 0. -1.
         11    1    3    3    0    0 -0.42869127831E+02  0.23363812769E+02 -0.27733814487E+03  0.28160269258E+03  0.00000000000E+00 0.  1.
</event>
<event>
 7    1  0.6584658E-006  0.1204401E+03  0.7561462E-02  0.1242373E+00
          2   -1    0    0  501    0  0.00000000000E+00  0.00000000000E+00  0.89558964709E+02  0.89558964709E+02  0.00000000000E+00 0. -1.
         -2   -1    0    0    0  501 -0.00000000000E+00 -0.00000000000E+00 -0.20419169368E+03  0.20419169368E+03  0.00000000000E+00 0.  1.
         23    2    1    2    0    0  0.39646285564E+01 -0.73785458847E+02 -0.17845181327E+02  0.11918506760E+03  0.91796610092E+02 0.  0.
          5    1    1    2  502    0  0.57250911725E+02  0.13094551485E+02 -0.36151323640E+02  0.69090699611E+02  0.41800000000E+01 0. -1.
         -5    1    1    2    0  502 -0.61215540281E+02  0.60690907362E+02 -0.60636224003E+02  0.10547489118E+03  0.41800000000E+01 0. -1.
        -11    1    3    3    0    0  0.32408998969E+02 -0.41879911233E+02 -0.44192879100E+02  0.68973043591E+02  0.00000000000E+00 0.  1.
         11    1    3    3    0    0 -0.28444370413E+02 -0.31905547614E+02  0.26347697773E+02  0.50212024005E+02  0.00000000000E+00 0. -1.
</event>
<event>
 7    1  0.6584658E-006  0.1275769E+03  0.7561462E-02  0.1231096E+00
         -1   -1    0    0    0  501 -0.00000000000E+00  0.00000000000E+00  0.13603050970E+03  0.13603050970E+03  0.00000000000E+00 0.  1.
          1   -1    0    0  501    0  0.00000000000E+00 -0.00000000000E+00 -0.12303216589E+03  0.12303216589E+03  0.00000000000E+00 0. -1.
         23    2    1    2    0    0  0.54798991906E+02  0.36949270575E+02 -0.15147462419E+02  0.11481302154E+03  0.92652070610E+02 0.  0.
          5    1    1    2  502    0  0.32512683497E+02 -0.42601766084E+02  0.13702090805E+02  0.55472558568E+02  0.41800000000E+01 0.  1.
         -5    1    1    2    0  502 -0.87311675403E+02  0.56524955087E+01  0.14443715427E+02  0.88777095483E+02  0.41800000000E+01 0.  1.
        -11    1    3    3    0    0  0.42516929570E+02 -0.25888830228E+02 -0.70755438143E+01  0.50279062749E+02  0.00000000000E+00 0. -1.
         11    1    3    3    0    0  0.12282062335E+02  0.62838100803E+02 -0.80719186045E+01  0.64533958795E+02  0.00000000000E+00 0.  1.
</event>
<event>
 7    1  0.6584658E-006  0.9564906E+02  0.7561462E-02  0.1289721E+00
         -3   -1    0    0    0  501 -0.00000000000E+00  0.00000000000E+00  0.44709771289E+03  0.44709771289E+03  0.00000000000E+00 0.  1.
          3   -1    0    0  501    0  0.00000000000E+00 -0.00000000000E+00 -0.39498232285E+02  0.39498232285E+02  0.00000000000E+00 0. -1.
         23    2    1    2    0    0 -0.73153526794E+01 -0.14110130265E+02  0.74591841969E+02  0.13181681991E+03  0.10751335248E+03 0.  0.
          5    1    1    2  502    0 -0.19965686346E+02 -0.37233887488E+02  0.24860183364E+03  0.25220098155E+03  0.41800000000E+01 0. -1.
         -5    1    1    2    0  502  0.27281039025E+02  0.51344017753E+02  0.84405804995E+02  0.10257814371E+03  0.41800000000E+01 0.  1.
        -11    1    3    3    0    0  0.80801834896E+01 -0.50445472148E+02  0.76858915878E+02  0.92289370869E+02  0.00000000000E+00 0.  1.
         11    1    3    3    0    0 -0.15395536169E+02  0.36335341883E+02 -0.22670739090E+01  0.39527449042E+02  0.00000000000E+00 0. -1.
</event>
<event>
 7    1  0.6584658E-006  0.6556429E+02  0.7561462E-02  0.1375861E+00
          1   -1    0    0  501    0  0.00000000000E+00  0.00000000000E+00  0.19301874902E+03  0.19301874902E+03  0.00000000000E+00 0. -1.
         -1   -1    0    0    0  501 -0.00000000000E+00 -0.00000000000E+00 -0.82692303582E+02  0.82692303582E+02  0.00000000000E+00 0.  1.
         23    2    1    2    0    0  0.12133025514E+02  0.52074541009E+02  0.85386787751E+02  0.13739954363E+03  0.93427848840E+02 0.  0.
          5    1    1    2  502    0 -0.25853378192E+02 -0.91329290655E+01 -0.46259506373E+02  0.53937203183E+02  0.41800000000E+01 0.  1.
         -5    1    1    2    0  502  0.13720352678E+02 -0.42941611944E+02  0.71199164059E+02  0.84374305784E+02  0.41800000000E+01 0.  1.
        -11    1    3    3    0    0  0.18861500372E+02  0.34846019528E+02  0.10391903250E+03  0.11121675498E+03  0.00000000000E+00 0. -1.
         11    1    3    3    0    0 -0.67284748574E+01  0.17228521482E+02 -0.18532244746E+02  0.26182788654E+02  0.00000000000E+00 0.  1.
</event>
<event>
 7    1  0.6584658E-006  0.8810782E+02  0.7561462E-02  0.1307500E+00
          1   -1    0    0  501    0  0.00000000000E+00  0.00000000000E+00  0.32777762321E+03  0.32777762321E+03  0.00000000000E+00 0. -1.
         -1   -1    0    0    0  501 -0.00000000000E+00 -0.00000000000E+00 -0.44091759469E+02  0.44091759469E+02  0.00000000000E+00 0.  1.
         23    2    1    2    0    0  0.86110498268E+01 -0.10974261018E+02  0.20276307585E+03  0.22223415941E+03  0.89892002413E+02 0.  0.
          5    1    1    2  502    0 -0.42181746178E+02 -0.38930586029E+02  0.65914300104E+02  0.87504614720E+02  0.41800000000E+01 0. -1.
         -5    1    1    2    0  502  0.33570696351E+02  0.49904847047E+02  0.15008487784E+02  0.62130608542E+02  0.41800000000E+01 0. -1.
        -11    1    3    3    0    0  0.32957402601E+02 -0.72004349155E+01  0.19268444718E+03  0.19561526739E+03  0.00000000000E+00 0. -1.
         11    1    3    3    0    0 -0.24346352774E+02 -0.37738261025E+01  0.10078628667E+02  0.26618892025E+02  0.00000000000E+00 0.  1.
</event>
<event>
 7    1  0.1303090E-005  0.1676681E+03  0.7561462E-02  0.1180302E+00
         -2   -1    0    0    0  501 -0.00000000000E+00  0.00000000000E+00  0.19616745504E+03  0.19616745504E+03  0.00000000000E+00 0.  1.
          2   -1    0    0  501    0  0.00000000000E+00 -0.00000000000E+00 -0.21395674922E+03  0.21395674922E+03  0.00000000000E+00 0. -1.
         23    2    1    2    0    0 -0.81587576909E+02 -0.11061457740E+03 -0.11142779098E+03  0.20201887726E+03  0.97485161571E+02 0.  0.
          5    1    1    2  502    0  0.42983732753E+02  0.13377764446E+03  0.73091527448E+02  0.15844211316E+03  0.41800000000E+01 0. -1.
         -5    1    1    2    0  502  0.38603844156E+02 -0.23163067059E+02  0.20546969353E+02  0.49663213839E+02  0.41800000000E+01 0. -1.
        -11    1    3    3    0    0 -0.16647916373E+02 -0.72203353601E+02 -0.87668192995E+01  0.74614573050E+02  0.00000000000E+00 0.  1.
         11    1    3    3    0    0 -0.64939660535E+02 -0.38411223798E+02 -0.10266097168E+03  0.12740430421E+03  0.00000000000E+00 0. -1.
</event>
<event>
 7    1  0.6584658E-006  0.1661048E+03  0.7561462E-02  0.1181972E+00
         -2   -1    0    0    0  501 -0.00000000000E+00  0.00000000000E+00  0.43197049770E+02  0.43197049770E+02  0.00000000000E+00 0. -1.
          2   -1    0    0  501    0  0.00000000000E+00 -0.00000000000E+00 -0.89203746850E+03  0.89203746850E+03  0.00000000000E+00 0.  1.
         23    2    1    2    0    0  0.95797785825E+02  0.12823481595E+03 -0.48604052661E+03  0.51943111642E+03  0.89173468070E+02 0.  0.
          5    1    1    2  502    0 -0.51052684699E+02 -0.49663030919E+02 -0.29283119201E+03  0.30139736673E+03  0.41800000000E+01 0. -1.
         -5    1    1    2    0  502 -0.44745101126E+02 -0.78571785029E+02 -0.69968700103E+02  0.11440603512E+03  0.41800000000E+01 0. -1.
        -11    1    3    3    0    0  0.95200133746E+02  0.86561396492E+02 -0.26609286567E+03  0.29556954171E+03  0.00000000000E+00 0.  1.
         11    1    3    3    0    0  0.59765207913E+00  0.41673419456E+02 -0.21994766095E+03  0.22386157471E+03  0.00000000000E+00 0. -1.
</event>
<event>
 7    1  0.6584658E-006  0.1021702E+03  0.7561462E-02  0.1275797E+00
          1   -1    0    0  501    0  0.00000000000E+00  0.00000000000E+00  0.58996456868E+03  0.58996456868E+03  0.00000000000E+00 0. -1.
         -1   -1    0    0    0  501 -0.00000000000E+00 -0.00000000000E+00 -0.21706729178E+02  0.21706729178E+02  0.00000000000E+00 0.  1.
         23    2    1    2    0    0 -0.10390110341E+02  0.12913460373E+02  0.32126529778E+03  0.33431347222E+03  0.90991177049E+02 0.  0.
          5    1    1    2  502    0  0.36135497697E+02  0.40237921879E+02  0.17979101455E+03  0.18779548947E+03  0.41800000000E+01 0.  1.
         -5    1    1    2    0  502 -0.25745387356E+02 -0.53151382251E+02  0.67201527165E+02  0.89562336162E+02  0.41800000000E+01 0.  1.
        -11    1    3    3    0    0  0.38813637810E+02 -0.36239138441E+01  0.16920024866E+03  0.17363281769E+03  0.00000000000E+00 0.  1.
         11    1    3    3    0    0 -0.49203748151E+02  0.16537374217E+02  0.15206504912E+03  0.16068065453E+03  0.00000000000E+00 0. -1.
</event>
<event>
 7    1  0.6584658E-006  0.1944412E+03  0.7561462E-02  0.1154516E+00
         -1   -1    0    0    0  501 -0.00000000000E+00  0.00000000000E+00  0.26206540457E+03  0.26206540457E+03  0.00000000000E+00 0.  1.
          1   -1    0    0  501    0  0.00000000000E+00 -0.00000000000E+00 -0.17256312848E+03  0.17256312848E+03  0.00000000000E+00 0. -1.
         23    2    1    2    0    0  0.11051426279E+03 -0.13318006930E+03 -0.16298635164E+02  0.19624613877E+03  0.91085500137E+02 0.  0.
          5    1    1    2  502    0 -0.11899464022E+03  0.90374572631E+02  0.32500999575E+02  0.15297409962E+03  0.41800000000E+01 0.  1.
         -5    1    1    2    0  502  0.84803774309E+01  0.42805496669E+02  0.73299911678E+02  0.85408294670E+02  0.41800000000E+01 0.  1.
        -11    1    3    3    0    0  0.12214349747E+02  0.13997424937E+02 -0.19462150107E+01  0.18679025603E+02  0.00000000000E+00 0.  1.
         11    1    3    3    0    0  0.98299913045E+02 -0.14717749424E+03 -0.14352420154E+02  0.17756711317E+03  0.00000000000E+00 0. -1.
</event>
<event>
 7    1  0.6584658E-006  0.1189909E+03  0.7561462E-02  0.1244771E+00
         -1   -1    0    0    0  501 -0.00000000000E+00  0.00000000000E+00  0.13060258185E+02  0.13060258185E+02  0.00000000000E+00 0.  1.
          1   -1    0    0  501    0  0.00000000000E+00 -0.00000000000E+00 -0.12785279603E+04  0.12785279603E+04  0.00000000000E+00 0. -1.
         23    2    1    2    0    0  0.42995203495E+02  0.57683326902E+02 -0.50896570670E+03  0.52144581952E+03  0.87656707556E+02 0.  0.
          5    1    1    2  502    0 -0.31317087374E+02 -0.87222735789E+02 -0.69127509633E+03  0.69747207600E+03  0.41800000000E+01 0.  1.
         -5    1    1    2    0  502 -0.11678116121E+02  0.29539408887E+02 -0.65226899066E+02  0.72670322934E+02  0.41800000000E+01 0.  1.
        -11    1    3    3    0    0  0.69872474703E+02  0.47225122108E+02 -0.39309459955E+03  0.40203947452E+03  0.00000000000E+00 0. -1.
         11    1    3    3    0    0 -0.26877271208E+02  0.10458204794E+02 -0.11587110715E+03  0.11940634500E+03  0.00000000000E+00 0.  1.
</event>
<event>
 6    1  0.6584658E-006  0.1777646E+03  0.7561462E-02  0.1169984E+00
          1   -1    0    0  501    0  0.00000000000E+00  0.00000000000E+00  0.98760831678E+02  0.98760831678E+02  0.00000000000E+00 0. -1.
         -1   -1    0    0    0  501 -0.00000000000E+00 -0.00000000000E+00 -0.37194328782E+03  0.37194328782E+03  0.00000000000E+00 0.  1.
          5    1    1    2  502    0  0.16263486561E+03  0.22412174143E+02 -0.13192287060E+03  0.21065023439E+03  0.41800000000E+01 0. -1.
         -5    1    1    2    0  502 -0.74514771291E+02  0.30451189151E+02 -0.12416985603E+03  0.14803834506E+03  0.41800000000E+01 0.  1.
        -11    1    1    2    0    0 -0.41809952519E+02 -0.48724806792E+02 -0.93699002706E+01  0.64884312107E+02  0.00000000000E+00 0.  1.
         11    1    1    2    0    0 -0.46310141802E+02 -0.41385565024E+01 -0.77198292436E+01  0.47131227941E+02  0.00000000000E+00 0. -1.
</event>
<event>
 7    1  0.6584658E-006  0.1008068E+03  0.7561462E-02  0.1278609E+00
         -2   -1    0    0    0  501 -0.00000000000E+00  0.00000000000E+00  0.25359200507E+02  0.25359200507E+02  0.00000000000E+00 0.  1.
          2   -1    0    0  501    0  0.00000000000E+00 -0.00000000000E+00 -0.69981294389E+03  0.69981294389E+03  0.00000000000E+00 0. -1.
         23    2    1    2    0    0  0.16552060332E+01  0.83140189199E+02 -0.37935576003E+03  0.39837377595E+03  0.88745940333E+02 0.  0.
          5    1    1    2  502    0  0.91475324637E+01 -0.10182658729E+02  0.69058974972E+01  0.15891120452E+02  0.41800000000E+01 0. -1.
         -5    1    1    2    0  502 -0.10802738497E+02 -0.72957530470E+02 -0.30200388085E+03  0.31090724800E+03  0.41800000000E+01 0.  1.
        -11    1    3    3    0    0  0.37904970462E+02  0.58104550367E+02 -0.29678428091E+03  0.30478489949E+03  0.00000000000E+00 0. -1.
         11    1    3    3    0    0 -0.36249764429E+02  0.25035638832E+02 -0.82571479118E+02  0.93588876458E+02  0.00000000000E+00 0.  1.
</event>
<event>
 7    1  0.6584658E-006  0.2058865E+03  0.7561462E-02  0.1144865E+00
         -1   -1    0    0    0  501 -0.00000000000E+00  0.00000000000E+00  0.24210620615E+03  0.24210620615E+03  0.00000000000E+00 0.  1.
          1   -1    0    0  501    0  0.00000000000E+00 -0.00000000000E+00 -0.63828772947E+03  0.63828772947E+03  0.00000000000E+00 0. -1.
         23    2    1    2    0    0 -0.85005297199E+01 -0.15648554341E+03 -0.55839356236E+03  0.58717774405E+03  0.91729757004E+02 0.  0.
          5    1    1    2  502    0  0.40789814618E+02 -0.28437085380E+02  0.64492918095E+02  0.81543152293E+02  0.41800000000E+01 0. -1.
         -5    1    1    2    0  502 -0.32289284898E+02  0.18492262879E+03  0.97719120947E+02  0.21167303928E+03  0.41800000000E+01 0.  1.
        -11    1    3    3    0    0  0.20477104223E+02 -0.13849050010E+03 -0.50304862052E+03  0.52216553412E+03  0.00000000000E+00 0. -1.
         11    1    3    3    0    0 -0.28977633943E+02 -0.17995043317E+02 -0.55344941840E+02  0.65012209932E+02  0.00000000000E+00 0.  1.
</event>
<event>
 7    1  0.6584658E-006  0.1243107E+03  0.7561462E-02  0.1236150E+00
          2   -1    0    0  501    0  0.00000000000E+00  0.00000000000E+00  0.12082117220E+04  0.12082117220E+04  0.00000000000E+00 0. -1.
         -2   -1    0    0    0  501 -0.00000000000E+00 -0.00000000000E+00 -0.15111515719E+02  0.15111515719E+02  0.00000000000E+00 0.  1.
         23    2    1    2    0    0 -0.78651633907E+02  0.95211320448E+01  0.47997178875E+03  0.49492679221E+03  0.91120141468E+02 0.  0.
          5    1    1    2  502    0  0.90471897430E+02  0.23163632631E+02  0.64560332190E+03  0.65233644674E+03  0.41800000000E+01 0. -1.
         -5    1    1    2    0  502 -0.11820263524E+02 -0.32684764676E+02  0.67525095611E+02  0.76059998744E+02  0.41800000000E+01 0. -1.
        -11    1    3    3    0    0 -0.71853551322E+01 -0.35133440423E+02  0.16711717937E+03  0.17092144279E+03  0.00000000000E+00 0. -1.
         11    1    3    3    0    0 -0.71466278775E+02  0.44654572468E+02  0.31285460938E+03  0.32400534942E+03  0.00000000000E+00 0.  1.
</event>
<event>
 7    1  0.6584658E-006  0.9196794E+02  0.7561462E-02  0.1298155E+00
          1   -1    0    0  501    0  0.00000000000E+00  0.00000000000E+00  0.54100908625E+03  0.54100908625E+03  0.00000000000E+00 0. -1.
         -1   -1    0    0    0  501 -0.00000000000E+00 -0.00000000000E+00 -0.25546610729E+02  0.25546610729E+02  0.00000000000E+00 0.  1.
         23    2    1    2    0    0 -0.19416278514E+02 -0.40057512285E+02  0.20508253339E+03  0.22896863819E+03  0.91576173801E+02 0.  0.
          5    1    1    2  502    0  0.45176962573E+02  0.10096281495E+02  0.32105122260E+02  0.56489858582E+02  0.41800000000E+01 0. -1.
         -5    1    1    2    0  502 -0.25760684058E+02  0.29961230791E+02  0.27827481987E+03  0.28109720021E+03  0.41800000000E+01 0. -1.
        -11    1    3    3    0    0  0.34650642944E+02 -0.20297476541E+02  0.11740318960E+03  0.12408127795E+03  0.00000000000E+00 0.  1.
         11    1    3    3    0    0 -0.54066921458E+02 -0.19760035744E+02  0.87679343796E+02  0.10488736023E+03  0.00000000000E+00 0. -1.
</event>
<event>
 7    1  0.6584658E-006  0.1102128E+03  0.7561462E-02  0.1260176E+00
         -1   -1    0    0    0  501 -0.00000000000E+00  0.00000000000E+00  0.44671790273E+02  0.44671790273E+02  0.00000000000E+00 0.  1.
          1   -1    0    0  501    0  0.00000000000E+00 -0.00000000000E+00 -0.37087692031E+03  0.37087692031E+03  0.00000000000E+00 0. -1.
         23    2    1    2    0    0 -0.67680051702E+02  0.56065544999E+01 -0.14489954260E+03  0.18503669228E+03  0.92901438043E+02 0.  0.
          5    1    1    2  502    0 -0.11543334138E+02 -0.26862870687E+02 -0.13080154081E+03  0.13409466008E+03  0.41800000000E+01 0. -1.
         -5    1    1    2    0  502  0.79223385841E+02  0.21256316187E+02 -0.50504046632E+02  0.96417358230E+02  0.41800000000E+01 0. -1.
        -11    1    3    3    0    0 -0.10396329837E+02 -0.36314838273E+02 -0.23740257111E+02  0.44614470305E+02  0.00000000000E+00 0.  1.
         11    1    3    3    0    0 -0.57283721865E+02  0.41921392773E+02 -0.12115928549E+03  0.14042222197E+03  0.00000000000E+00 0. -1.
</event>
<event>
 7    1  0.6584658E-006  0.1180506E+03  0.7561462E-02  0.1246348E+00
          1   -1    0    0  501    0  0.00000000000E+00  0.00000000000E+00  0.13082811259E+03  0.13082811259E+03  0.00000000000E+00 0. -1.
         -1   -1    0    0    0  501 -0.00000000000E+00 -0.00000000000E+00 -0.12405612948E+03  0.12405612948E+03  0.00000000000E+00 0.  1.
         23    2    1    2    0    0 -0.13817040737E+02 -0.59755597581E+02  0.27445243751E+02  0.11404051494E+03  0.92143125554E+02 0.  0.
          5    1    1    2  502    0  0.59058712660E+02  0.10203532918E+02 -0.38418370819E+02  0.71312602262E+02  0.41800000000E+01 0. -1.
         -5    1    1    2    0  502 -0.45241671923E+02  0.49552064663E+02  0.17745110178E+02  0.69531124872E+02  0.41800000000E+01 0. -1.
        -11    1    3    3    0    0 -0.43507182446E+02 -0.16461254954E+01  0.21379197877E+02  0.48504172557E+02  0.00000000000E+00 0. -1.
         11    1    3    3    0    0  0.29690141709E+02 -0.58109472086E+02  0.60660458737E+01  0.65536342386E+02  0.00000000000E+00 0.  1.
</event>
<event>
 7    1  0.6584658E-006  0.7424578E+02  0.7561462E-02  0.1346223E+00
         -2   -1    0    0    0  501 -0.00000000000E+00  0.00000000000E+00  0.73123171037E+02  0.73123171037E+02  0.00000000000E+00 0. -1.
          2   -1    0    0  501    0  0.00000000000E+00 -0.00000000000E+00 -0.17610979254E+03  0.17610979254E+03  0.00000000000E+00 0.  1.
         23    2    1    2    0    0 -0.25660636639E+02  0.21029044936E+02 -0.44617984222E+02  0.10726564750E+03  0.91730396347E+02 0.  0.
          5    1    1    2  502    0 -0.18923079765E+02 -0.50964186379E+02 -0.68093112991E+02  0.87232881861E+02  0.41800000000E+01 0. -1.
         -5    1    1    2    0  502  0.44583716404E+02  0.29935141443E+02  0.97244757064E+01  0.54734434220E+02  0.41800000000E+01 0. -1.
        -11    1    3    3    0    0 -0.21413390413E+01  0.15884518514E+02 -0.70276225888E+02  0.72080865605E+02  0.00000000000E+00 0.  1.
         11    1    3    3    0    0 -0.23519297597E+02  0.51445264222E+01  0.25658241666E+02  0.35184781895E+02  0.00000000000E+00 0. -1.
</event>
<event>
 7    1  0.6584658E-006  0.1136018E+03  0.7561462E-02  0.1254042E+00
         -3   -1    0    0    0  501 -0.00000000000E+00  0.00000000000E+00  0.16290425289E+02  0.16290425289E+02  0.00000000000E+00 0.  1.
          3   -1    0    0  501    0  0.00000000000E+00 -0.00000000000E+00 -0.88392961062E+03  0.88392961062E+03  0.00000000000E+00 0. -1.
         23    2    1    2    0    0  0.50316424948E+02 -0.10943330858E+02 -0.35441270793E+03  0.36946698410E+03  0.90807409862E+02 0.  0.
          5    1    1    2  502    0 -0.40513770987E+02 -0.51439012585E+02 -0.18034576646E+03  0.19190988911E+03  0.41800000000E+01 0.  1.
         -5    1    1    2    0  502 -0.98026539603E+01  0.62382343444E+02 -0.33288071094E+03  0.33884316271E+03  0.41800000000E+01 0.  1.
        -11    1    3    3    0    0  0.62754206578E+02  0.19259362509E+02 -0.28889097583E+03  0.29625497364E+03  0.00000000000E+00 0.  1.
         11    1    3    3    0    0 -0.12437781630E+02 -0.30202693367E+02 -0.65521732099E+02  0.73212010461E+02  0.00000000000E+00 0. -1.
</event>
<event>
 7    1  0.6584658E-006  0.1651715E+03  0.7561462E-02  0.1182979E+00
         -2   -1    0    0    0  501 -0.00000000000E+00  0.00000000000E+00  0.48164575316E+02  0.48164575316E+02  0.00000000000E+00 0. -1.
          2   -1    0    0  501    0  0.00000000000E+00 -0.00000000000E+00 -0.58545869878E+03  0.58545869878E+03  0.00000000000E+00 0.  1.
         23    2    1    2    0    0 -0.11678851901E+03  0.13756494879E+02 -0.31090826315E+03  0.34949113273E+03  0.10794120824E+03 0.  0.
          5    1    1    2  502    0 -0.23748963241E+02 -0.18070173114E+02 -0.29590790558E+02  0.42233064029E+02  0.41800000000E+01 0. -1.
         -5    1    1    2    0  502  0.14053748225E+03  0.43136782353E+01 -0.19679506976E+03  0.24189907734E+03  0.41800000000E+01 0. -1.
        -11    1    3    3    0    0 -0.11364687079E+03  0.49287365852E+02 -0.23667045494E+03  0.26712873285E+03  0.00000000000E+00 0. -1.
         11    1    3    3    0    0 -0.31416482220E+01 -0.35530870973E+02 -0.74237808212E+02  0.82362399879E+02  0.00000000000E+00 0.  1.
</event>
<event>
 7    1  0.6584658E-006  0.2608801E+03  0.7561462E-02  0.1106616E+00
         -1   -1    0    0    0  501 -0.00000000000E+00  0.00000000000E+00  0.11948141663E+03  0.11948141663E+03  0.00000000000E+00 0.  1.
          1   -1    0    0  501    0  0.00000000000E+00 -0.00000000000E+00 -0.12607000959E+04  0.12607000959E+04  0.00000000000E+00 0. -1.
         23    2    1    2    0    0  0.16353315787E+03 -0.19451915125E+03 -0.10474516789E+04  0.10818174307E+04  0.92699189968E+02 0.  0.
          5    1    1    2  502    0 -0.92869811742E+00 -0.34692741282E+01 -0.35057308349E+02  0.35487823431E+02  0.41800000000E+01 0.  1.
         -5    1    1    2    0  502 -0.16260445975E+03  0.19798842538E+03 -0.58709692077E+02  0.26287625845E+03  0.41800000000E+01 0.  1.
        -11    1    3    3    0    0  0.12155606194E+03 -0.17655380193E+03 -0.95429417152E+03  0.97807182096E+03  0.00000000000E+00 0. -1.
         11    1    3    3    0    0  0.41977095927E+02 -0.17965349316E+02 -0.93157507368E+02  0.10374560973E+03  0.00000000000E+00 0.  1.
</event>
<event>
 7    1  0.6584658E-006  0.1156121E+03  0.7561462E-02  0.1250516E+00
          1   -1    0    0  501    0  0.00000000000E+00  0.00000000000E+00  0.56143622845E+03  0.56143622845E+03  0.00000000000E+00 0. -1.
         -1   -1    0    0    0  501 -0.00000000000E+00 -0.00000000000E+00 -0.26202710026E+02  0.26202710026E+02  0.00000000000E+00 0.  1.
         23    2    1    2    0    0  0.81065489231E+01  0.20946939880E+02  0.32582968364E+03  0.34269268931E+03  0.10377285840E+03 0.  0.
          5    1    1    2  502    0 -0.26384093928E+02 -0.69507611806E+02  0.13437799889E+03  0.15363055522E+03  0.41800000000E+01 0.  1.
         -5    1    1    2    0  502  0.18277545005E+02  0.48560671926E+02  0.75025835895E+02  0.91315693947E+02  0.41800000000E+01 0.  1.
        -11    1    3    3    0    0 -0.26945097845E+01  0.62100156194E+02  0.22051620176E+03  0.22910932984E+03  0.00000000000E+00 0. -1.
         11    1    3    3    0    0  0.10801058708E+02 -0.41153216314E+02  0.10531348188E+03  0.11358335947E+03  0.00000000000E+00 0.  1.
</event>
<event>
 7    1  0.6584658E-006  0.1016346E+03  0.7561462E-02  0.1276896E+00
          1   -1    0    0  501    0  0.00000000000E+00  0.00000000000E+00  0.26519220929E+02  0.26519220929E+02  0.00000000000E+00 0. -1.
         -1   -1    0    0    0  501 -0.00000000000E+00 -0.00000000000E+00 -0.77592179032E+03  0.77592179032E+03  0.00000000000E+00 0.  1.
         23    2    1    2    0    0  0.59315474499E+02  0.24091634170E+02 -0.14782415922E+03  0.18466846761E+03  0.90286923350E+02 0.  0.
          5    1    1    2  502    0 -0.85628530855E+02 -0.69394971127E+01 -0.24255336759E+03  0.25735191945E+03  0.41800000000E+01 0.  1.
         -5    1    1    2    0  502  0.26313056356E+02 -0.17152137057E+02 -0.35902504258E+03  0.36042062419E+03  0.41800000000E+01 0.  1.
        -11    1    3    3    0    0  0.67745441479E+02  0.31162345707E+02 -0.15467191403E+03  0.17170887461E+03  0.00000000000E+00 0.  1.
         11    1    3    3    0    0 -0.84299669804E+01 -0.70707115364E+01  0.68477548036E+01  0.12959593002E+02  0.00000000000E+00 0. -1.
</event>
<event>
 7    1  0.6584658E-006  0.1078249E+03  0.7561462E-02  0.1264652E+00
          4   -1    0    0  501    0  0.00000000000E+00  0.00000000000E+00  0.24856408024E+02  0.24856408024E+02  0.00000000000E+00 0. -1.
         -4   -1    0    0    0  501 -0.00000000000E+00 -0.00000000000E+00 -0.11630730227E+04  0.11630730227E+04  0.00000000000E+00 0.  1.
         23    2    1    2    0    0  0.73078289002E+01 -0.17124001484E+02 -0.82155706688E+02  0.12432303219E+03  0.91433147172E+02 0.  0.
          5    1    1    2  502    0 -0.68460610569E+01  0.71404650305E+02 -0.57332164045E+03  0.57780677432E+03  0.41800000000E+01 0.  1.
         -5    1    1    2    0  502 -0.46176784330E+00 -0.54280648821E+02 -0.48273926758E+03  0.48579962425E+03  0.41800000000E+01 0.  1.
        -11    1    3    3    0    0 -0.22507655830E+02  0.27592178052E+02 -0.51000264663E+02  0.62200883083E+02  0.00000000000E+00 0.  1.
         11    1    3    3    0    0  0.29815484730E+02 -0.44716179536E+02 -0.31155442025E+02  0.62122149108E+02  0.00000000000E+00 0. -1.
</event>
<event>
 7    1  0.6584658E-006  0.6837730E+02  0.7561462E-02  0.1365700E+00
         -1   -1    0    0    0  501 -0.00000000000E+00  0.00000000000E+00  0.40605614575E+03  0.40605614575E+03  0.00000000000E+00 0.  1.
          1   -1    0    0  501    0  0.00000000000E+00 -0.00000000000E+00 -0.37300427797E+02  0.37300427797E+02  0.00000000000E+00 0. -1.
         23    2    1    2    0    0 -0.19248550114E+02 -0.27112357288E+02  0.61165221160E+02  0.11375152406E+03  0.89959092635E+02 0.  0.
          5    1    1    2  502    0 -0.97615550619E+01  0.24304261216E+02  0.68049876345E+01  0.27381843021E+02  0.41800000000E+01 0. -1.
         -5    1    1    2    0  502  0.29010105176E+02  0.28080960714E+01  0.30078550916E+03  0.30222320646E+03  0.41800000000E+01 0.  1.
        -11    1    3    3    0    0 -0.26452856860E+02 -0.50123393765E+02  0.10498272702E+02  0.57639586816E+02  0.00000000000E+00 0. -1.
         11    1    3    3    0    0  0.72043067458E+01  0.23011036477E+02  0.50666948458E+02  0.56111937246E+02  0.00000000000E+00 0.  1.
</event>
<event>
 7    1  0.6584658E-006  0.9757071E+02  0.7561462E-02  0.1285489E+00
          2   -1    0    0  501    0  0.00000000000E+00  0.00000000000E+00  0.14135365686E+03  0.14135365686E+03  0.00000000000E+00 0. -1.
         -2   -1    0    0    0  501 -0.00000000000E+00 -0.00000000000E+00 -0.14175936479E+03  0.14175936479E+03  0.00000000000E+00 0.  1.
         23    2    1    2    0    0  0.61245589405E+02 -0.29509841366E+02  0.23441928143E+02  0.11692301594E+03  0.92193354986E+02 0.  0.
          5    1    1    2  502    0 -0.73077761712E+02  0.26621502374E+02  0.49127696562E+02  0.92087277162E+02  0.41800000000E+01 0. -1.
         -5    1    1    2    0  502  0.11832172307E+02  0.28883389922E+01 -0.72975332634E+02  0.74102728537E+02  0.41800000000E+01 0.  1.
        -11    1    3    3    0    0 -0.18128057947E+02  0.34117022784E+01 -0.14032303341E+02  0.23176965600E+02  0.00000000000E+00 0. -1.
         11    1    3    3    0    0  0.79373647352E+02 -0.32921543644E+02  0.37474231484E+02  0.93746050345E+02  0.00000000000E+00 0.  1.
</event>
<event>
 7    1  0.6584658E-006  0.9418222E+02  0.7561462E-02  0.1293029E+00
         -1   -1    0    0    0  501 -0.00000000000E+00  0.00000000000E+00  0.79501775331E+02  0.79501775331E+02  0.00000000000E+00 0.  1.
          1   -1    0    0  501    0  0.00000000000E+00 -0.00000000000E+00 -0.30145745829E+03  0.30145745829E+03  0.00000000000E+00 0. -1.
         23    2    1    2    0    0 -0.10150062807E+02  0.54818088566E+02 -0.16974025218E+03  0.20147931006E+03  0.93134915927E+02 0.  0.
          5    1    1    2  502    0  0.38827238157E+01  0.17997717438E+02 -0.93533459412E+02  0.95419986411E+02  0.41800000000E+01 0. -1.
         -5    1    1    2    0  502  0.62673389912E+01 -0.72815806003E+02  0.41318028637E+02  0.84059937143E+02  0.41800000000E+01 0.  1.
        -11    1    3    3    0    0  0.34117940409E+02  0.17309625213E+02 -0.11690456600E+03  0.12300542481E+03  0.00000000000E+00 0.  1.
         11    1    3    3    0    0 -0.44268003216E+02  0.37508463353E+02 -0.52835686183E+02  0.78473885250E+02  0.00000000000E+00 0. -1.
</event>
<event>
 7    1  0.6584658E-006  0.3330615E+03  0.7561462E-02  0.1069790E+00
         -1   -1    0    0    0  501 -0.00000000000E+00  0.00000000000E+00  0.91762338980E+02  0.91762338980E+02  0.00000000000E+00 0.  1.
          1   -1    0    0  501    0  0.00000000000E+00 -0.00000000000E+00 -0.14255765427E+04  0.14255765427E+04  0.00000000000E+00 0. -1.
         23    2    1    2    0    0 -0.25638368261E+03  0.19367544297E+03 -0.39130333907E+03  0.51373860141E+03  0.86984352026E+02 0.  0.
          5    1    1    2  502    0  0.53155314439E+02 -0.97469148477E+02 -0.21330778668E+03  0.24050656252E+03  0.41800000000E+01 0. -1.
         -5    1    1    2    0  502  0.20322836818E+03 -0.96206294495E+02 -0.72920307795E+03  0.76309371772E+03  0.41800000000E+01 0. -1.
        -11    1    3    3    0    0 -0.69826593385E+02  0.98396719875E+02 -0.17560429504E+03  0.21305993538E+03  0.00000000000E+00 0. -1.
         11    1    3    3    0    0 -0.18655708923E+03  0.95278723097E+02 -0.21569904403E+03  0.30067866604E+03  0.00000000000E+00 0.  1.
</event>
<event>
 7    1  0.6584658E-006  0.1822422E+03  0.7561462E-02  0.1165651E+00
          1   -1    0    0  501    0  0.00000000000E+00  0.00000000000E+00  0.33046558588E+03  0.33046558588E+03  0.00000000000E+00 0. -1.
         -1   -1    0    0    0  501 -0.00000000000E+00 -0.00000000000E+00 -0.12345854172E+03  0.12345854172E+03  0.00000000000E+00 0.  1.
         23    2    1    2    0    0  0.13484651336E+03  0.83180071275E+02  0.16849516347E+03  0.24841903528E+03  0.90658097015E+02 0.  0.
          5    1    1    2  502    0 -0.83585219978E+02  0.19288414994E+02  0.28181040211E+02  0.90389022448E+02  0.41800000000E+01 0.  1.
         -5    1    1    2    0  502 -0.51261293380E+02 -0.10246848627E+03  0.10330840469E+02  0.11511606987E+03  0.41800000000E+01 0.  1.
        -11    1    3    3    0    0  0.11066640255E+02 -0.48252399422E+01  0.61413245099E+02  0.62588658242E+02  0.00000000000E+00 0. -1.
         11    1    3    3    0    0  0.12377987310E+03  0.88005311217E+02  0.10708191837E+03  0.18583037704E+03  0.00000000000E+00 0.  1.
</event>
<event>
 7    1  0.6584658E-006  0.1037856E+03  0.7561462E-02  0.1272531E+00
          2   -1    0    0  501    0  0.00000000000E+00  0.00000000000E+00  0.51824818142E+03  0.51824818142E+03  0.00000000000E+00 0. -1.
         -2   -1    0    0    0  501 -0.00000000000E+00 -0.00000000000E+00 -0.26266154420E+02  0.26266154420E+02  0.00000000000E+00 0.  1.
         23    2    1    2    0    0 -0.35296000452E+01 -0.22767645411E+02  0.30162217837E+03  0.31557036755E+03  0.89877108538E+02 0.  0.
          5    1    1    2  502    0  0.21209811154E+02  0.66443135134E+02  0.66910782446E+02  0.96742294283E+02  0.41800000000E+01 0.  1.
         -5    1    1    2    0  502 -0.17680211109E+02 -0.43675489723E+02  0.12344906618E+03  0.13220167400E+03  0.41800000000E+01 0.  1.
        -11    1    3    3    0    0 -0.41209213799E+02 -0.31317432293E+02  0.20679176432E+03  0.21317085790E+03  0.00000000000E+00 0.  1.
         11    1    3    3    0    0  0.37679613753E+02  0.85497868821E+01  0.94830414048E+02  0.10239950965E+03  0.00000000000E+00 0. -1.
</event>
<event>
 7    1  0.6584658E-006  0.1060465E+03  0.7561462E-02  0.1268071E+00
         -2   -1    0    0    0  501 -0.00000000000E+00  0.00000000000E+00  0.32564620966E+02  0.32564620966E+02  0.00000000000E+00 0. -1.
          2   -1    0    0  501    0  0.00000000000E+00 -0.00000000000E+00 -0.44452743387E+03  0.44452743387E+03  0.00000000000E+00 0.  1.
         23    2    1    2    0    0  0.40855106753E+02  0.17198109585E+02 -0.20478854026E+03  0.23105752887E+03  0.97387477144E+02 0.  0.
          5    1    1    2  502    0 -0.62670877864E+02 -0.54257886274E+02 -0.16941108425E+03  0.18865085481E+03  0.41800000000E+01 0. -1.
         -5    1    1    2    0  502  0.21815771110E+02  0.37059776689E+02 -0.37763188398E+02  0.57383671156E+02  0.41800000000E+01 0. -1.
        -11    1    3    3    0    0  0.40996597671E+01 -0.27620665289E+02 -0.14545440862E+03  0.14811040932E+03  0.00000000000E+00 0.  1.
         11    1    3    3    0    0  0.36755446986E+02  0.44818774874E+02 -0.59334131635E+02  0.82947119548E+02  0.00000000000E+00 0. -1.
</event>
<event>
 7    1  0.6584658E-006  0.1421064E+03  0.7561462E-02  0.1210522E+00
         -1   -1    0    0    0  501 -0.00000000000E+00  0.00000000000E+00  0.60868552750E+03  0.60868552750E+03  0.00000000000E+00 0.  1.
          1   -1    0    0  501    0  0.00000000000E+00 -0.00000000000E+00 -0.35334814605E+02  0.35334814605E+02  0.00000000000E+00 0. -1.
         23    2    1    2    0    0 -0.36339992285E+02  0.89604321939E+02  0.23566391408E+03  0.27115413295E+03  0.92938441267E+02 0.  0.
          5    1    1    2  502    0 -0.46299572055E+02 -0.32579096533E+02  0.14089220076E+03  0.15189842836E+03  0.41800000000E+01 0. -1.
         -5    1    1    2    0  502  0.82639564340E+02 -0.57025225406E+02  0.19679459806E+03  0.22096778080E+03  0.41800000000E+01 0. -1.
        -11    1    3    3    0    0 -0.10651170191E+01 -0.15783244856E+02  0.78094738481E+01  0.17641801899E+02  0.00000000000E+00 0. -1.
         11    1    3    3    0    0 -0.35274875266E+02  0.10538756680E+03  0.22785444023E+03  0.25351233105E+03  0.00000000000E+00 0.  1.
</event>
<event>
 7    1  0.6584658E-006  0.1705708E+03  0.7561462E-02  0.1177254E+00
          1   -1    0    0  501    0  0.00000000000E+00  0.00000000000E+00  0.17027374599E+04  0.17027374599E+04  0.00000000000E+00 0. -1.
         -1   -1    0    0    0  501 -0.00000000000E+00 -0.00000000000E+00 -0.22131849620E+02  0.22131849620E+02  0.00000000000E+00 0.  1.
         23    2    1    2    0    0 -0.14213171351E+03 -0.62893965109E+02  0.98086743079E+03  0.99724324273E+03  0.90752925954E+02 0.  0.
          5    1    1    2  502    0  0.88119756296E+02  0.16236643068E+02  0.58914823400E+03  0.59593777700E+03  0.41800000000E+01 0. -1.
         -5    1    1    2    0  502  0.54011957216E+02  0.46657322041E+02  0.11058994548E+03  0.13168828977E+03  0.41800000000E+01 0. -1.
        -11    1    3    3    0    0 -0.11798409597E+03 -0.86406979855E+02  0.78925038325E+03  0.80268460838E+03  0.00000000000E+00 0. -1.
         11    1    3    3    0    0 -0.24147617538E+02  0.23513014746E+02  0.19161704754E+03  0.19455863436E+03  0.00000000000E+00 0.  1.
</event>
<event>
 7    1  0.6584658E-006  0.1196592E+03  0.7561462E-02  0.1243660E+00
         -2   -1    0    0    0  501 -0.00000000000E+00  0.00000000000E+00  0.39917894500E+02  0.39917894500E+02  0.00000000000E+00 0.  1.
          2   -1    0    0  501    0  0.00000000000E+00 -0.00000000000E+00 -0.47272038872E+03  0.47272038872E+03  0.00000000000E+00 0. -1.
         23    2    1    2    0    0  0.14237519585E+02 -0.81489777636E+02 -0.21603182350E+03  0.24904318733E+03  0.92246786198E+02 0.  0.
          5    1    1    2  502    0 -0.47636044797E+02  0.14598746661E+02 -0.21436543467E+02  0.54399576871E+02  0.41800000000E+01 0. -1.
         -5    1    1    2    0  502  0.33398525212E+02  0.66891030975E+02 -0.19533412725E+03  0.20919551902E+03  0.41800000000E+01 0. -1.
        -11    1    3    3    0    0  0.28465188973E+02  0.31246140675E+01 -0.10434425229E+03  0.10820237143E+03  0.00000000000E+00 0. -1.
         11    1    3    3    0    0 -0.14227669388E+02 -0.84614391703E+02 -0.11168757121E+03  0.14084081590E+03  0.00000000000E+00 0.  1.
</event>
<event>
 7    1  0.6584658E-006  0.1022162E+03  0.7561462E-02  0.1275703E+00
         -4   -1    0    0    0  501 -0.00000000000E+00  0.00000000000E+00  0.35095895556E+02  0.35095895556E+02  0.00000000000E+00 0.  1.
          4   -1    0    0  501    0  0.00000000000E+00 -0.00000000000E+00 -0.39756735376E+03  0.39756735376E+03  0.00000000000E+00 0. -1.
         23    2    1    2    0    0  0.42558929710E+02 -0.26045244936E+02 -0.18803741688E+03  0.21228977124E+03  0.84966225901E+02 0.  0.
          5    1    1    2  502    0  0.25090807258E+02  0.52952691859E+02 -0.55221891516E+02  0.80625466737E+02  0.41800000000E+01 0.  1.
         -5    1    1    2    0  502 -0.67649736968E+02 -0.26907446923E+02 -0.11921214980E+03  0.13974801133E+03  0.41800000000E+01 0.  1.
        -11    1    3    3    0    0 -0.12378563234E+02 -0.11009958581E+01  0.22822639388E+01  0.12635258142E+02  0.00000000000E+00 0.  1.
         11    1    3    3    0    0  0.54937492944E+02 -0.24944249078E+02 -0.19031968082E+03  0.19965451310E+03  0.00000000000E+00 0. -1.
</event>
<event>
 7    1  0.6584658E-006  0.1369947E+03  0.7561462E-02  0.1217431E+00
          1   -1    0    0  501    0  0.00000000000E+00  0.00000000000E+00  0.26183529025E+03  0.26183529025E+03  0.00000000000E+00 0. -1.
         -1   -1    0    0    0  501 -0.00000000000E+00 -0.00000000000E+00 -0.10505514539E+03  0.10505514539E+03  0.00000000000E+00 0.  1.
         23    2    1    2    0    0 -0.97135986594E+02 -0.47766875752E+02  0.14272138202E+03  0.20087194137E+03  0.90901428119E+02 0.  0.
          5    1    1    2  502    0  0.11177439213E+03 -0.32323773550E+01  0.14190474891E+02  0.11279541204E+03  0.41800000000E+01 0. -1.
         -5    1    1    2    0  502 -0.14638405539E+02  0.50999253107E+02 -0.13171205445E+00  0.53223082232E+02  0.41800000000E+01 0. -1.
        -11    1    3    3    0    0 -0.17379677671E+02 -0.13742981779E+02 -0.10728613442E+02  0.24617593110E+02  0.00000000000E+00 0.  1.
         11    1    3    3    0    0 -0.79756308923E+02 -0.34023893973E+02  0.15344999546E+03  0.17625434826E+03  0.00000000000E+00 0. -1.
</event>
<event>
 7    1  0.6584658E-006  0.1016269E+03  0.7561462E-02  0.1276911E+00
          2   -1    0    0  501    0  0.00000000000E+00  0.00000000000E+00  0.48492699726E+03  0.48492699726E+03  0.00000000000E+00 0. -1.
         -2   -1    0    0    0  501 -0.00000000000E+00 -0.00000000000E+00 -0.33930008926E+02  0.33930008926E+02  0.00000000000E+00 0.  1.
         23    2    1    2    0    0  0.41852425898E+02 -0.30648131573E+02  0.28959777323E+03  0.30819569712E+03  0.91797515990E+02 0.  0.
          5    1    1    2  502    0 -0.18909380146E+01 -0.28599881532E+02  0.12877197420E+03  0.13198947916E+03  0.41800000000E+01 0. -1.
         -5    1    1    2    0  502 -0.39961487884E+02  0.59248013106E+02  0.32627240901E+02  0.78671829899E+02  0.41800000000E+01 0. -1.
        -11    1    3    3    0    0 -0.25657276823E+02 -0.23537225283E+02  0.67433959510E+02  0.75892263922E+02  0.00000000000E+00 0.  1.
         11    1    3    3    0    0  0.67509702721E+02 -0.71109062907E+01  0.22216381372E+03  0.23230343320E+03  0.00000000000E+00 0. -1.
</event>
<event>
 7    1  0.6584658E-006  0.9950857E+02  0.7561462E-02  0.1281333E+00
         -3   -1    0    0    0  501 -0.00000000000E+00  0.00000000000E+00  0.23312780424E+03  0.23312780424E+03  0.00000000000E+00 0.  1.
          3   -1    0    0  501    0  0.00000000000E+00 -0.00000000000E+00 -0.75990036664E+02  0.75990036664E+02  0.00000000000E+00 0. -1.
         23    2    1    2    0    0 -0.77923743992E+02  0.11818926675E+02  0.42408545315E+02  0.12197694689E+03  0.82873964256E+02 0.  0.
          5    1    1    2  502    0  0.57179460827E+02  0.12170483188E+02  0.13642958117E+03  0.14848607483E+03  0.41800000000E+01 0. -1.
         -5    1    1    2    0  502  0.20744283165E+02 -0.23989409863E+02 -0.21700358904E+02  0.38654819184E+02  0.41800000000E+01 0. -1.
        -11    1    3    3    0    0 -0.13785161352E+02  0.37022637190E+02 -0.27249801494E+01  0.39599644630E+02  0.00000000000E+00 0. -1.
         11    1    3    3    0    0 -0.64138582640E+02 -0.25203710515E+02  0.45133525465E+02  0.82377302260E+02  0.00000000000E+00 0.  1.
</event>
<event>
 7    1  0.6584658E-006  0.1109254E+03  0.7561462E-02  0.1258866E+00
          2   -1    0    0  501    0  0.00000000000E+00  0.00000000000E+00  0.60724900906E+03  0.60724900906E+03  0.00000000000E+00 0. -1.
         -2   -1    0    0    0  501 -0.00000000000E+00 -0.00000000000E+00 -0.40276631197E+02  0.40276631197E+02  0.00000000000E+00 0.  1.
         23    2    1    2    0    0 -0.33232130611E+02 -0.55586592401E+02  0.45157824297E+03  0.46543342507E+03  0.92255730889E+02 0.  0.
          5    1    1    2  502    0 -0.25353604115E+02 -0.11646507312E+02 -0.84265130578E+01  0.29443588377E+02  0.41800000000E+01 0.  1.
         -5    1    1    2    0  502  0.58585734726E+02  0.67233099712E+02  0.12382064795E+03  0.15264862682E+03  0.41800000000E+01 0.  1.
        -11    1    3    3    0    0 -0.14489725257E+02  0.21001825873E+02  0.49415497816E+02  0.55614029277E+02  0.00000000000E+00 0.  1.
         11    1    3    3    0    0 -0.18742405354E+02 -0.76588418273E+02  0.40216274516E+03  0.40981939579E+03  0.00000000000E+00 0. -1.
</event>
<event>
 7    1  0.6584658E-006  0.8019154E+02  0.7561462E-02  0.1328509E+00
         -2   -1    0    0    0  501 -0.00000000000E+00  0.00000000000E+00  0.39208244352E+02  0.39208244352E+02  0.00000000000E+00 0.  1.
          2   -1    0    0  501    0  0.00000000000E+00 -0.00000000000E+00 -0.31828867169E+03  0.31828867169E+03  0.00000000000E+00 0. -1.
         23    2    1    2    0    0 -0.10307187038E+02 -0.23402461775E+02 -0.13482245321E+03  0.16485863704E+03  0.91363904215E+02 0.  0.
          5    1    1    2  502    0 -0.16014411724E+02  0.33316586227E+02 -0.15709471080E+03  0.16143939067E+03  0.41800000000E+01 0.  1.
         -5    1    1    2    0  502  0.26321598762E+02 -0.99141244521E+01  0.12836736669E+02  0.31198888335E+02  0.41800000000E+01 0.  1.
        -11    1    3    3    0    0 -0.12775153622E+02 -0.58339609919E+02 -0.80789020139E+02  0.10046681248E+03  0.00000000000E+00 0. -1.
         11    1    3    3    0    0  0.24679665840E+01  0.34937148144E+02 -0.54033433074E+02  0.64391824554E+02  0.00000000000E+00 0.  1.
</event>
<event>
 7    1  0.6584658E-006  0.1700095E+03  0.7561462E-02  0.1177838E+00
          1   -1    0    0  501    0  0.00000000000E+00  0.00000000000E+00  0.49722326071E+03  0.49722326071E+03  0.00000000000E+00 0. -1.
         -1   -1    0    0    0  501 -0.00000000000E+00 -0.00000000000E+00 -0.61062737036E+02  0.61062737036E+02  0.00000000000E+00 0.  1.
         23    2    1    2    0    0  0.10764321456E+03 -0.74714393135E+02  0.14492316504E+03  0.21530683168E+03  0.90471022004E+02 0.  0.
          5    1    1    2  502    0  0.19418857158E+02 -0.15332258383E+02  0.47162077245E+02  0.53421943904E+02  0.41800000000E+01 0.  1.
         -5    1    1    2    0  502 -0.12706207172E+03  0.90046651518E+02  0.24407528139E+03  0.28955722216E+03  0.41800000000E+01 0.  1.
        -11    1    3    3    0    0  0.58063508301E+02  0.11960628877E+02  0.50427117951E+02  0.77828798424E+02  0.00000000000E+00 0. -1.
         11    1    3    3    0    0  0.49579706257E+02 -0.86675022012E+02  0.94496047085E+02  0.13747803326E+03  0.00000000000E+00 0.  1.
</event>
<event>
 7    1  0.6584658E-006  0.2832411E+03  0.7561462E-02  0.1093932E+00
         -1   -1    0    0    0  501 -0.00000000000E+00  0.00000000000E+00  0.48815291685E+03  0.48815291685E+03  0.00000000000E+00 0.  1.
          1   -1    0    0  501    0  0.00000000000E+00 -0.00000000000E+00 -0.18273995240E+03  0.18273995240E+03  0.00000000000E+00 0. -1.
         23    2    1    2    0    0  0.24091645729E+03  0.11598195140E+03  0.61855249190E+02  0.28819099717E+03  0.87951273771E+02 0.  0.
          5    1    1    2  502    0 -0.18380933224E+02 -0.61666899959E+02  0.70779113976E+02  0.95748736973E+02  0.41800000000E+01 0.  1.
         -5    1    1    2    0  502 -0.22253552406E+03 -0.54315051440E+02  0.17277860128E+03  0.28695313510E+03  0.41800000000E+01 0.  1.
        -11    1    3    3    0    0  0.15014912095E+03  0.42329114342E+02  0.12549616329E+00  0.15600169291E+03  0.00000000000E+00 0. -1.
         11    1    3    3    0    0  0.90767336342E+02  0.73652837057E+02  0.61729753026E+02  0.13218930426E+03  0.00000000000E+00 0.  1.
</event>
<event>
 7    1  0.6584658E-006  0.1612685E+03  0.7561462E-02  0.1187272E+00
          2   -1    0    0  501    0  0.00000000000E+00  0.00000000000E+00  0.27045289446E+03  0.27045289446E+03  0.00000000000E+00 0. -1.
         -2   -1    0    0    0  501 -0.00000000000E+00 -0.00000000000E+00 -0.11367157071E+03  0.11367157071E+03  0.00000000000E+00 0.  1.
         23    2    1    2    0    0 -0.66179273715E+02  0.96642310459E+02  0.14141889872E+03  0.21204892463E+03  0.10604720214E+03 0.  0.
          5    1    1    2  502    0  0.85388054617E+02 -0.23191280001E+02  0.32103545439E+02  0.94218179611E+02  0.41800000000E+01 0. -1.
         -5    1    1    2    0  502 -0.19208780903E+02 -0.73451030458E+02 -0.16741120407E+02  0.77857360934E+02  0.41800000000E+01 0. -1.
        -11    1    3    3    0    0 -0.62144836830E+02  0.11950888370E+03  0.11812536603E+03  0.17915902469E+03  0.00000000000E+00 0.  1.
         11    1    3    3    0    0 -0.40344368845E+01 -0.22866573242E+02  0.23293532687E+02  0.32889899937E+02  0.00000000000E+00 0. -1.
</event>
<event>
 7    1  0.6584658E-006  0.8050505E+02  0.7561462E-02  0.1327624E+00
         -1   -1    0    0    0  501 -0.00000000000E+00  0.00000000000E+00  0.19520571332E+03  0.19520571332E+03  0.00000000000E+00 0.  1.
          1   -1    0    0  501    0  0.00000000000E+00 -0.00000000000E+00 -0.77984744984E+02  0.77984744984E+02  0.00000000000E+00 0. -1.
         23    2    1    2    0    0 -0.97378104739E+01 -0.54985325161E+02  0.31192911844E+02  0.11142978102E+03  0.91243560943E+02 0.  0.
          5    1    1    2  502    0  0.57655534312E+01 -0.20108266439E+02 -0.21626175532E+02  0.30376765030E+02  0.41800000000E+01 0. -1.
         -5    1    1    2    0  502  0.39722570427E+01  0.75093591600E+02  0.10765423202E+03  0.13138391225E+03  0.41800000000E+01 0. -1.
        -11    1    3    3    0    0 -0.20569443782E+02 -0.45625982325E+02 -0.23214872717E+02  0.55170305382E+02  0.00000000000E+00 0. -1.
         11    1    3    3    0    0  0.10831633308E+02 -0.93593428353E+01  0.54407784561E+02  0.56259475640E+02  0.00000000000E+00 0.  1.
</event>
<event>
 7    1  0.6584658E-006  0.5010392E+02  0.7561462E-02  0.1444782E+00
         -2   -1    0    0    0  501 -0.00000000000E+00  0.00000000000E+00  0.25805332934E+03  0.25805332934E+03  0.00000000000E+00 0. -1.
          2   -1    0    0  501    0  0.00000000000E+00 -0.00000000000E+00 -0.39574095148E+02  0.39574095148E+02  0.00000000000E+00 0.  1.
         23    2    1    2    0    0 -0.26771001616E+01  0.18951537766E+01  0.61942976230E+02  0.97234819305E+02  0.74879365034E+02 0.  0.
          5    1    1    2  502    0  0.11499588091E+02 -0.10730555086E+02  0.17607816478E+03  0.17682866807E+03  0.41800000000E+01 0.  1.
         -5    1    1    2    0  502 -0.88224879293E+01  0.88354013097E+01 -0.19541906825E+02  0.23563937106E+02  0.41800000000E+01 0.  1.
        -11    1    3    3    0    0  0.30113715637E+02  0.17090867274E+02  0.14365563551E+02  0.37487371604E+02  0.00000000000E+00 0.  1.
         11    1    3    3    0    0 -0.32790815799E+02 -0.15195713498E+02  0.47577412680E+02  0.59747447701E+02  0.00000000000E+00 0. -1.
</event>
<event>
 7    1  0.6584658E-006  0.1034064E+03  0.7561462E-02  0.1273292E+00
          3   -1    0    0  501    0  0.00000000000E+00  0.00000000000E+00  0.17959197140E+02  0.17959197140E+02  0.00000000000E+00 0. -1.
         -3   -1    0    0    0  501 -0.00000000000E+00 -0.00000000000E+00 -0.15397530447E+04  0.15397530447E+04  0.00000000000E+00 0.  1.
         23    2    1    2    0    0 -0.34434892806E+02  0.23711970307E+02 -0.15769808491E+03  0.18725509133E+03  0.91911717788E+02 0.  0.
          5    1    1    2  502    0 -0.16539795144E+01 -0.68342643235E+02 -0.53494018112E+03  0.53930689066E+03  0.41800000000E+01 0.  1.
         -5    1    1    2    0  502  0.36088872320E+02  0.44630672928E+02 -0.82915558151E+03  0.83115025984E+03  0.41800000000E+01 0.  1.
        -11    1    3    3    0    0 -0.14805019748E+02  0.47603730245E+02 -0.35488473412E+02  0.61194243913E+02  0.00000000000E+00 0. -1.
         11    1    3    3    0    0 -0.19629873058E+02 -0.23891759938E+02 -0.12220961150E+03  0.12606084742E+03  0.00000000000E+00 0.  1.
</event>
<event>
 7    1  0.6584658E-006  0.1319446E+03  0.7561462E-02  0.1224598E+00
          2   -1    0    0  501    0  0.00000000000E+00  0.00000000000E+00  0.10541196912E+03  0.10541196912E+03  0.00000000000E+00 0. -1.
         -2   -1    0    0    0  501 -0.00000000000E+00 -0.00000000000E+00 -0.35265019627E+03  0.35265019627E+03  0.00000000000E+00 0.  1.
         23    2    1    2    0    0  0.91245661337E+02 -0.72207465079E+02  0.12866131832E+02  0.14686847924E+03  0.88685535004E+02 0.  0.
          5    1    1    2  502    0 -0.45114371117E+02  0.70869170870E+02 -0.24999195983E+03  0.26376352712E+03  0.41800000000E+01 0. -1.
         -5    1    1    2    0  502 -0.46131290220E+02  0.13382942094E+01 -0.10112399161E+02  0.47430159029E+02  0.41800000000E+01 0. -1.
        -11    1    3    3    0    0  0.67847522816E+02 -0.12078453342E+02 -0.23492203649E+02  0.72808371906E+02  0.00000000000E+00 0.  1.
         11    1    3    3    0    0  0.23398138521E+02 -0.60129011738E+02  0.36358335481E+02  0.74060107330E+02  0.00000000000E+00 0. -1.
</event>
<event>
 7    1  0.6584658E-006  0.9646251E+02  0.7561462E-02  0.1287916E+00
         -4   -1    0    0    0  501 -0.00000000000E+00  0.00000000000E+00  0.50560033577E+02  0.50560033577E+02  0.00000000000E+00 0.  1.
          4   -1    0    0  501    0  0.00000000000E+00 -0.00000000000E+00 -0.40401527295E+03  0.40401527295E+03  0.00000000000E+00 0. -1.
         23    2    1    2    0    0  0.10524663545E+02 -0.65757436791E+02 -0.28139469277E+03  0.30411852679E+03  0.94182249840E+02 0.  0.
          5    1    1    2  502    0 -0.14798826655E+02  0.69353074821E+02 -0.99437274275E+02  0.12220514790E+03  0.41800000000E+01 0. -1.
         -5    1    1    2    0  502  0.42741631100E+01 -0.35956380302E+01  0.27376727673E+02  0.28251631833E+02  0.41800000000E+01 0.  1.
        -11    1    3    3    0    0  0.41355806733E+02  0.10109175163E+01 -0.88907091308E+02  0.98060163112E+02  0.00000000000E+00 0.  1.
         11    1    3    3    0    0 -0.30831143188E+02 -0.66768354307E+02 -0.19248760146E+03  0.20605836368E+03  0.00000000000E+00 0. -1.
</event>
<event>
 7    1  0.6584658E-006  0.1663353E+03  0.7561462E-02  0.1181724E+00
          1   -1    0    0  501    0  0.00000000000E+00  0.00000000000E+00  0.23402590435E+03  0.23402590435E+03  0.00000000000E+00 0. -1.
         -1   -1    0    0    0  501 -0.00000000000E+00 -0.00000000000E+00 -0.15901137647E+03  0.15901137647E+03  0.00000000000E+00 0.  1.
         23    2    1    2    0    0 -0.47339772295E+02  0.12664958493E+03  0.12115674696E+03  0.20314960902E+03  0.91157198883E+02 0.  0.
          5    1    1    2  502    0 -0.41482249073E+02 -0.23791583351E+02 -0.16214037935E+02  0.50667384506E+02  0.41800000000E+01 0.  1.
         -5    1    1    2    0  502  0.88822021368E+02 -0.10285800158E+03 -0.29928181147E+02  0.13922028730E+03  0.41800000000E+01 0.  1.
        -11    1    3    3    0    0 -0.62566682624E+02  0.10515414854E+03  0.59413616925E+02  0.13602191958E+03  0.00000000000E+00 0.  1.
         11    1    3    3    0    0  0.15226910329E+02  0.21495436394E+02  0.61743130035E+02  0.67127689447E+02  0.00000000000E+00 0. -1.
</event>
<event>
 7    1  0.6584658E-006  0.1214806E+03  0.7561462E-02  0.1240674E+00
          2   -1    0    0  501    0  0.00000000000E+00  0.00000000000E+00  0.15312961661E+03  0.15312961661E+03  0.00000000000E+00 0. -1.
         -2   -1    0    0    0  501 -0.00000000000E+00 -0.00000000000E+00 -0.11960010585E+03  0.11960010585E+03  0.00000000000E+00 0.  1.
         23    2    1    2    0    0 -0.29398553629E+02 -0.74325815046E+02  0.21668121585E+02  0.12380890201E+03  0.92035509378E+02 0.  0.
          5    1    1    2  502    0 -0.30651550477E+02  0.51364386039E+02 -0.34840767886E+02  0.69348173780E+02  0.41800000000E+01 0.  1.
         -5    1    1    2    0  502  0.60050104106E+02  0.22961429006E+02  0.46702157060E+02  0.79572646677E+02  0.41800000000E+01 0.  1.
        -11    1    3    3    0    0 -0.60537450073E+02 -0.41934317719E+02 -0.63694741665E+00  0.73645607920E+02  0.00000000000E+00 0.  1.
         11    1    3    3    0    0  0.31138896444E+02 -0.32391497327E+02  0.22305069002E+02  0.50163294090E+02  0.00000000000E+00 0. -1.
</event>
<event>
 7    1  0.6584658E-006  0.1300353E+03  0.7561462E-02  0.1227403E+00
         -2   -1    0    0    0  501 -0.00000000000E+00  0.00000000000E+00  0.81235772591E+02  0.81235772591E+02  0.00000000000E+00 0.  1.
          2   -1    0    0  501    0  0.00000000000E+00 -0.00000000000E+00 -0.41055466414E+03  0.41055466414E+03  0.00000000000E+00 0. -1.
         23    2    1    2    0    0  0.85588456994E+02  0.10151109186E+02 -0.31524451048E+03  0.33923308881E+03  0.90948106999E+02 0.  0.
          5    1    1    2  502    0 -0.35360159209E+02 -0.63581429545E+02  0.13477241490E+02  0.74108349600E+02  0.41800000000E+01 0. -1.
         -5    1    1    2    0  502 -0.50228297785E+02  0.53430320359E+02 -0.27551622558E+02  0.78448998321E+02  0.41800000000E+01 0. -1.
        -11    1    3    3    0    0  0.34966714437E+02 -0.32359467923E+02 -0.20690337592E+03  0.21231771770E+03  0.00000000000E+00 0. -1.
         11    1    3    3    0    0  0.50621742557E+02  0.42510577109E+02 -0.10834113456E+03  0.12691537111E+03  0.00000000000E+00 0.  1.
</event>
<event>
 7    1  0.6584658E-006  0.8466720E+02  0.7561462E-02  0.1316305E+00
          2   -1    0    0  501    0  0.00000000000E+00  0.00000000000E+00  0.68734400521E+02  0.68734400521E+02  0.00000000000E+00 0.  1.
         -2   -1    0    0    0  501 -0.00000000000E+00 -0.00000000000E+00 -0.22644967169E+03  0.22644967169E+03  0.00000000000E+00 0. -1.
         23    2    1    2    0    0  0.11744361993E+02  0.55350654988E+02 -0.40019726776E+02  0.11435114201E+03  0.90955923944E+02 0.  0.
          5    1    1    2  502    0 -0.21062404195E+02 -0.34005831976E+02  0.17298704729E+02  0.43780578618E+02  0.41800000000E+01 0.  1.
         -5    1    1    2    0  502  0.93180422020E+01 -0.21344823012E+02 -0.13499424912E+03  0.13705235159E+03  0.41800000000E+01 0.  1.
        -11    1    3    3    0    0  0.37424110594E+02  0.67396190152E+02 -0.20026268362E+02  0.79648364235E+02  0.00000000000E+00 0.  1.
         11    1    3    3    0    0 -0.25679748601E+02 -0.12045535164E+02 -0.19993458414E+02  0.34702777770E+02  0.00000000000E+00 0. -1.
</event>
<event>
 6    1  0.6584658E-006  0.7045462E+02  0.7561462E-02  0.1358554E+00
         -1   -1    0    0    0  501 -0.00000000000E+00  0.00000000000E+00  0.60739230181E+02  0.60739230181E+02  0.00000000000E+00 0.  1.
          1   -1    0    0  501    0  0.00000000000E+00 -0.00000000000E+00 -0.20221900807E+03  0.20221900807E+03  0.00000000000E+00 0. -1.
          5    1    1    2  502    0 -0.23112985910E+01  0.48375998064E+02  0.34316221655E+02  0.59503401235E+02  0.41800000000E+01 0. -1.
         -5    1    1    2    0  502 -0.36637206420E+02 -0.28897384383E+02 -0.46061876367E+02  0.65700171788E+02  0.41800000000E+01 0.  1.
        -11    1    1    2    0    0  0.23358196665E+02 -0.18555766024E+02 -0.71758223086E+02  0.77712060741E+02  0.00000000000E+00 0.  1.
         11    1    1    2    0    0  0.15590308346E+02 -0.92284765632E+00 -0.57975900089E+02  0.60042604484E+02  0.00000000000E+00 0. -1.
</event>
<event>
 7    1  0.6584658E-006  0.2073164E+03  0.7561462E-02  0.1143709E+00
         -2   -1    0    0    0  501 -0.00000000000E+00  0.00000000000E+00  0.24729695608E+03  0.24729695608E+03  0.00000000000E+00 0.  1.
          2   -1    0    0  501    0  0.00000000000E+00 -0.00000000000E+00 -0.17736671413E+03  0.17736671413E+03  0.00000000000E+00 0. -1.
         23    2    1    2    0    0 -0.56136609741E+02  0.16962586430E+03  0.36871630392E+02  0.20406390659E+03  0.91423782748E+02 0.  0.
          5    1    1    2  502    0  0.14171361075E+01  0.19471068932E+02  0.10076355881E+02  0.22363723929E+02  0.41800000000E+01 0. -1.
         -5    1    1    2    0  502  0.54719473633E+02 -0.18909693323E+03  0.22982255678E+02  0.19823603968E+03  0.41800000000E+01 0. -1.
        -11    1    3    3    0    0  0.19841269682E+02  0.68284453355E+02  0.30118545204E+02  0.77224149835E+02  0.00000000000E+00 0.  1.
         11    1    3    3    0    0 -0.75977879423E+02  0.10134141095E+03  0.67530851885E+01  0.12683975676E+03  0.00000000000E+00 0. -1.
</event>
<event>
 7    1  0.6584658E-006  0.1346981E+03  0.7561462E-02  0.1220646E+00
         -1   -1    0    0    0  501 -0.00000000000E+00  0.00000000000E+00  0.36330254787E+02  0.36330254787E+02  0.00000000000E+00 0.  1.
          1   -1    0    0  501    0  0.00000000000E+00 -0.00000000000E+00 -0.69906565575E+03  0.69906565575E+03  0.00000000000E+00 0. -1.
         23    2    1    2    0    0 -0.63370259130E+01 -0.10771278739E+03 -0.40035778813E+03  0.42536849141E+03  0.94919926789E+02 0.  0.
          5    1    1    2  502    0  0.31035634400E+02  0.21881203699E+02 -0.19330138999E+03  0.19704034472E+03  0.41800000000E+01 0. -1.
         -5    1    1    2    0  502 -0.24698608487E+02  0.85831583689E+02 -0.69076222844E+02  0.11298707440E+03  0.41800000000E+01 0. -1.
        -11    1    3    3    0    0 -0.38645376204E+02 -0.10186287174E+03 -0.33422462381E+03  0.35153322589E+03  0.00000000000E+00 0.  1.
         11    1    3    3    0    0  0.32308350291E+02 -0.58499156491E+01 -0.66133164316E+02  0.73835265518E+02  0.00000000000E+00 0. -1.
</event>
<event>
 7    1  0.6584658E-006  0.1192589E+03  0.7561462E-02  0.1244325E+00
          4   -1    0    0  501    0  0.00000000000E+00  0.00000000000E+00  0.52013186740E+03  0.52013186740E+03  0.00000000000E+00 0. -1.
         -4   -1    0    0    0  501 -0.00000000000E+00 -0.00000000000E+00 -0.42875140492E+02  0.42875140492E+02  0.00000000000E+00 0.  1.
         23    2    1    2    0    0  0.99976253105E+02  0.61622372564E+01  0.24438773137E+03  0.28032402834E+03  0.93930683323E+02 0.  0.
          5    1    1    2  502    0 -0.33491499658E+01  0.22413911922E+02  0.15110302234E+03  0.15285024047E+03  0.41800000000E+01 0. -1.
         -5    1    1    2    0  502 -0.96627103139E+02 -0.28576149178E+02  0.81765973203E+02  0.12983273908E+03  0.41800000000E+01 0. -1.
        -11    1    3    3    0    0  0.53657736858E+02 -0.24590454061E+02  0.20189826462E+03  0.21034912030E+03  0.00000000000E+00 0.  1.
         11    1    3    3    0    0  0.46318516247E+02  0.30752691317E+02  0.42489466750E+02  0.69974908040E+02  0.00000000000E+00 0. -1.
</event>
<event>
 7    1  0.6584658E-006  0.1214141E+03  0.7561462E-02  0.1240782E+00
          3   -1    0    0  501    0  0.00000000000E+00  0.00000000000E+00  0.52518095340E+03  0.52518095340E+03  0.00000000000E+00 0. -1.
         -3   -1    0    0    0  501 -0.00000000000E+00 -0.00000000000E+00 -0.36121952081E+02  0.36121952081E+02  0.00000000000E+00 0.  1.
         23    2    1    2    0    0  0.75103513684E+02  0.28825789704E+02  0.26303104113E+03  0.29073221497E+03  0.94172333017E+02 0.  0.
          5    1    1    2  502    0 -0.65374211889E+01 -0.47228737188E+02  0.18700463340E+02  0.51385515676E+02  0.41800000000E+01 0.  1.
         -5    1    1    2    0  502 -0.68566092495E+02  0.18402947484E+02  0.20732749685E+03  0.21918517483E+03  0.41800000000E+01 0.  1.
        -11    1    3    3    0    0  0.90392455774E+02  0.45525143534E+02  0.21405616626E+03  0.23677706196E+03  0.00000000000E+00 0.  1.
         11    1    3    3    0    0 -0.15288942090E+02 -0.16699353831E+02  0.48974874864E+02  0.53955153012E+02  0.00000000000E+00 0. -1.
</event>
<event>
 7    1  0.6584658E-006  0.1666654E+03  0.7561462E-02  0.1181371E+00
          2   -1    0    0  501    0  0.00000000000E+00  0.00000000000E+00  0.15844210347E+04  0.15844210347E+04  0.00000000000E+00 0. -1.
         -2   -1    0    0    0  501 -0.00000000000E+00 -0.00000000000E+00 -0.19655569812E+02  0.19655569812E+02  0.00000000000E+00 0.  1.
         23    2    1    2    0    0  0.72922138738E+02 -0.11666116198E+03  0.82137157892E+03  0.83778095805E+03  0.91094445399E+02 0.  0.
          5    1    1    2  502    0 -0.82770950853E+02  0.41941118079E+02  0.24130520225E+03  0.25856480952E+03  0.41800000000E+01 0. -1.
         -5    1    1    2    0  502  0.98488121151E+01  0.74720043900E+02  0.50208868375E+03  0.50773083697E+03  0.41800000000E+01 0. -1.
        -11    1    3    3    0    0  0.92466232175E+01  0.15621857872E+02  0.96166826251E+02  0.97865218313E+02  0.00000000000E+00 0.  1.
         11    1    3    3    0    0  0.63675515521E+02 -0.13228301985E+03  0.72520475266E+03  0.73991573973E+03  0.00000000000E+00 0. -1.
</event>
<event>
 7    1  0.6584658E-006  0.1911877E+03  0.7561462E-02  0.1157394E+00
          2   -1    0    0  501    0  0.00000000000E+00  0.00000000000E+00  0.17553667190E+04  0.17553667190E+04  0.00000000000E+00 0. -1.
         -2   -1    0    0    0  501 -0.00000000000E+00 -0.00000000000E+00 -0.27966765858E+02  0.27966765858E+02  0.00000000000E+00 0.  1.
         23    2    1    2    0    0 -0.12405175197E+03 -0.27843976636E+02  0.67625388633E+03  0.69374154699E+03  0.88283016732E+02 0.  0.
          5    1    1    2  502    0 -0.19721017554E+02  0.73877123711E+02  0.73767349646E+03  0.74163765258E+03  0.41800000000E+01 0. -1.
         -5    1    1    2    0  502  0.14377276952E+03 -0.46033147076E+02  0.31347257032E+03  0.34795428525E+03  0.41800000000E+01 0.  1.
        -11    1    3    3    0    0 -0.12410459782E+03 -0.49141211790E+02  0.58093209386E+03  0.59606954928E+03  0.00000000000E+00 0. -1.
         11    1    3    3    0    0  0.52845856861E-01  0.21297235154E+02  0.95321792470E+02  0.97671997715E+02  0.00000000000E+00 0.  1.
</event>
<event>
 7    1  0.6584658E-006  0.1283029E+03  0.7561462E-02  0.1229996E+00
          2   -1    0    0  501    0  0.00000000000E+00  0.00000000000E+00  0.85027960911E+03  0.85027960911E+03  0.00000000000E+00 0. -1.
         -2   -1    0    0    0  501 -0.00000000000E+00 -0.00000000000E+00 -0.20577482229E+02  0.20577482229E+02  0.00000000000E+00 0.  1.
         23    2    1    2    0    0 -0.62183781691E+02  0.36487696528E+02  0.46852779761E+03  0.48189840048E+03  0.86657928361E+02 0.  0.
          5    1    1    2  502    0  0.59233999408E+02 -0.80242495757E+02  0.23535162042E+03  0.25564698794E+03  0.41800000000E+01 0.  1.
         -5    1    1    2    0  502  0.29497822822E+01  0.43754799229E+02  0.12582270885E+03  0.13331170291E+03  0.41800000000E+01 0.  1.
        -11    1    3    3    0    0 -0.75158386628E+02  0.52824970263E+02  0.38248952023E+03  0.39336686903E+03  0.00000000000E+00 0.  1.
         11    1    3    3    0    0  0.12974604938E+02 -0.16337273735E+02  0.86038277381E+02  0.88531531451E+02  0.00000000000E+00 0. -1.
</event>
<event>
 7    1  0.6584658E-006  0.9118305E+02  0.7561462E-02  0.1300012E+00
         -2   -1    0    0    0  501 -0.00000000000E+00  0.00000000000E+00  0.42448275799E+02  0.42448275799E+02  0.00000000000E+00 0.  1.
          2   -1    0    0  501    0  0.00000000000E+00 -0.00000000000E+00 -0.30010638659E+03  0.30010638659E+03  0.00000000000E+00 0. -1.
         23    2    1    2    0    0 -0.13038632996E+01  0.39934347441E+01 -0.15657708944E+03  0.18184176817E+03  0.92370970183E+02 0.  0.
          5    1    1    2  502    0  0.61715556383E+02 -0.85153247950E+01 -0.37710337878E+02  0.72944243357E+02  0.41800000000E+01 0.  1.
         -5    1    1    2    0  502 -0.60411693084E+02  0.45218900510E+01 -0.63370683475E+02  0.87768650866E+02  0.41800000000E+01 0.  1.
        -11    1    3    3    0    0 -0.18441618112E+02 -0.21598748799E+02 -0.14680708549E+03  0.14952899243E+03  0.00000000000E+00 0. -1.
         11    1    3    3    0    0  0.17137754812E+02  0.25592183543E+02 -0.97700039516E+01  0.32312775736E+02  0.00000000000E+00 0.  1.
</event>
<event>
 7    1  0.6584658E-006  0.1006678E+03  0.7561462E-02  0.1278898E+00
         -1   -1    0    0    0  501 -0.00000000000E+00  0.00000000000E+00  0.22084036428E+04  0.22084036428E+04  0.00000000000E+00 0.  1.
          1   -1    0    0  501    0  0.00000000000E+00 -0.00000000000E+00 -0.91381895024E+01  0.91381895024E+01  0.00000000000E+00 0. -1.
         23    2    1    2    0    0  0.17705622090E+02 -0.35557813935E+01  0.28814541260E+03  0.30282043721E+03  0.91358118167E+02 0.  0.
          5    1    1    2  502    0  0.16814041675E+02 -0.49394052791E+02  0.70614635878E+03  0.70808377814E+03  0.41800000000E+01 0. -1.
         -5    1    1    2    0  502 -0.34519663765E+02  0.52949834184E+02  0.12049736819E+04  0.12066376170E+04  0.41800000000E+01 0.  1.
        -11    1    3    3    0    0  0.10148933837E+01  0.39476127095E+02  0.19389496382E+03  0.19787534362E+03  0.00000000000E+00 0. -1.
         11    1    3    3    0    0  0.16690728706E+02 -0.43031908489E+02  0.94250448780E+02  0.10494509359E+03  0.00000000000E+00 0.  1.
</event>
<event>
 7    1  0.6584658E-006  0.9971678E+02  0.7561462E-02  0.1280893E+00
          2   -1    0    0  501    0  0.00000000000E+00  0.00000000000E+00  0.33477791324E+03  0.33477791324E+03  0.00000000000E+00 0. -1.
         -2   -1    0    0    0  501 -0.00000000000E+00 -0.00000000000E+00 -0.48219622979E+02  0.48219622979E+02  0.00000000000E+00 0.  1.
         23    2    1    2    0    0 -0.10024670268E+02  0.20567467034E+02  0.22070956587E+03  0.23980486151E+03  0.90940334417E+02 0.  0.
          5    1    1    2  502    0 -0.36041319993E+02  0.22520490823E+02  0.67594187235E+02  0.79953710368E+02  0.41800000000E+01 0. -1.
         -5    1    1    2    0  502  0.46065990260E+02 -0.43087957858E+02 -0.17454628373E+01  0.63238964346E+02  0.41800000000E+01 0. -1.
        -11    1    3    3    0    0 -0.18457664503E+02 -0.33792402423E+02  0.82206460457E+02  0.90777276790E+02  0.00000000000E+00 0.  1.
         11    1    3    3    0    0  0.84329942352E+01  0.54359869457E+02  0.13850310541E+03  0.14902758472E+03  0.00000000000E+00 0. -1.
</event>
<event>
 7    1  0.6584658E-006  0.1098030E+03  0.7561462E-02  0.1260935E+00
          1   -1    0    0  501    0  0.00000000000E+00  0.00000000000E+00  0.16107529096E+03  0.16107529096E+03  0.00000000000E+00 0. -1.
         -1   -1    0    0    0  501 -0.00000000000E+00 -0.00000000000E+00 -0.26149920230E+03  0.26149920230E+03  0.00000000000E+00 0.  1.
         23    2    1    2    0    0 -0.24178738831E+02  0.10403045512E+02  0.10945439413E+03  0.14434063892E+03  0.90338922299E+02 0.  0.
          5    1    1    2  502    0 -0.66375685034E+02 -0.33586926522E+02 -0.40685978947E+02  0.84891898788E+02  0.41800000000E+01 0. -1.
         -5    1    1    2    0  502  0.90554423866E+02  0.23183881010E+02 -0.16919232653E+03  0.19334195555E+03  0.41800000000E+01 0.  1.
        -11    1    3    3    0    0  0.12003987540E+02 -0.39026283885E+01 -0.11627036204E+02  0.17161415911E+02  0.00000000000E+00 0.  1.
         11    1    3    3    0    0 -0.36182726371E+02  0.14305673900E+02  0.12108143033E+03  0.12717922301E+03  0.00000000000E+00 0. -1.
</event>
<event>
 7    1  0.6584658E-006  0.1073665E+03  0.7561462E-02  0.1265526E+00
         -1   -1    0    0    0  501 -0.00000000000E+00  0.00000000000E+00  0.10669470443E+03  0.10669470443E+03  0.00000000000E+00 0.  1.
          1   -1    0    0  501    0  0.00000000000E+00 -0.00000000000E+00 -0.18102345916E+03  0.18102345916E+03  0.00000000000E+00 0. -1.
         23    2    1    2    0    0  0.27978562365E+02 -0.25178383786E+02 -0.11075184236E+03  0.15210525119E+03  0.97228009806E+02 0.  0.
          5    1    1    2  502    0 -0.29983445264E+02 -0.43715019886E+02 -0.76137749991E+01  0.53716402739E+02  0.41800000000E+01 0. -1.
         -5    1    1    2    0  502  0.20048828987E+01  0.68893403672E+02  0.44036862623E+02  0.81896509661E+02  0.41800000000E+01 0. -1.
        -11    1    3    3    0    0 -0.17833264920E+02 -0.40460349975E+02 -0.18406529310E+02  0.47894316772E+02  0.00000000000E+00 0.  1.
         11    1    3    3    0    0  0.45811827286E+02  0.15281966188E+02 -0.92345313046E+02  0.10421093441E+03  0.00000000000E+00 0. -1.
</event>
<event>
 7    1  0.6584658E-006  0.1252304E+03  0.7561462E-02  0.1234710E+00
         -2   -1    0    0    0  501 -0.00000000000E+00  0.00000000000E+00  0.17094740882E+02  0.17094740882E+02  0.00000000000E+00 0.  1.
          2   -1    0    0  501    0  0.00000000000E+00 -0.00000000000E+00 -0.95688595323E+03  0.95688595323E+03  0.00000000000E+00 0. -1.
         23    2    1    2    0    0  0.39239575045E+02  0.55537181921E+02 -0.39763350017E+03  0.41343919154E+03  0.90528679504E+02 0.  0.
          5    1    1    2  502    0  0.31958010808E+02 -0.58463354388E+02 -0.19469010148E+03  0.20581784732E+03  0.41800000000E+01 0. -1.
         -5    1    1    2    0  502 -0.71197585853E+02  0.29261724666E+01 -0.34746761070E+03  0.35472365526E+03  0.41800000000E+01 0. -1.
        -11    1    3    3    0    0  0.32041244077E+02 -0.19123894121E+02 -0.15771023994E+03  0.16206444530E+03  0.00000000000E+00 0.  1.
         11    1    3    3    0    0  0.71983309678E+01  0.74661076042E+02 -0.23992326023E+03  0.25137474623E+03  0.00000000000E+00 0. -1.
</event>
<event>
 7    1  0.6584658E-006  0.1079099E+03  0.7561462E-02  0.1264490E+00
          1   -1    0    0  501    0  0.00000000000E+00  0.00000000000E+00  0.23278209028E+03  0.23278209028E+03  0.00000000000E+00 0. -1.
         -1   -1    0    0    0  501 -0.00000000000E+00 -0.00000000000E+00 -0.77023113481E+02  0.77023113481E+02  0.00000000000E+00 0.  1.
         23    2    1    2    0    0 -0.16285328608E+02  0.60520146796E+02  0.12492349127E+03  0.16654375883E+03  0.90570662132E+02 0.  0.
          5    1    1    2  502    0 -0.56141258078E+00 -0.81464165508E+02  0.61582666425E+02  0.10220872101E+03  0.41800000000E+01 0.  1.
         -5    1    1    2    0  502  0.16846741189E+02  0.20944018712E+02 -0.30747180894E+02  0.41052723922E+02  0.41800000000E+01 0.  1.
        -11    1    3    3    0    0  0.31172139585E+02  0.49219694037E+02  0.48153090356E+02  0.75584394409E+02  0.00000000000E+00 0.  1.
         11    1    3    3    0    0 -0.47457468193E+02  0.11300452759E+02  0.76770400912E+02  0.90959364422E+02  0.00000000000E+00 0. -1.
</event>
<event>
 7    1  0.6584658E-006  0.1108304E+03  0.7561462E-02  0.1259040E+00
          1   -1    0    0  501    0  0.00000000000E+00  0.00000000000E+00  0.15940341814E+03  0.15940341814E+03  0.00000000000E+00 0. -1.
         -1   -1    0    0    0  501 -0.00000000000E+00 -0.00000000000E+00 -0.10506859525E+03  0.10506859525E+03  0.00000000000E+00 0.  1.
         23    2    1    2    0    0  0.27431778722E+02  0.58455872583E+01  0.89689265804E+02  0.13149139412E+03  0.91973631837E+02 0.  0.
          5    1    1    2  502    0  0.32819127628E+02  0.38456926499E+02 -0.14193400522E+01  0.50749554286E+02  0.41800000000E+01 0. -1.
         -5    1    1    2    0  502 -0.60250906350E+02 -0.44302513757E+02 -0.33935102862E+02  0.82231064979E+02  0.41800000000E+01 0. -1.
        -11    1    3    3    0    0  0.32488456977E+02  0.45580154473E+02  0.55583831444E+02  0.78883538438E+02  0.00000000000E+00 0. -1.
         11    1    3    3    0    0 -0.50566782546E+01 -0.39734567215E+02  0.34105434360E+02  0.52607855684E+02  0.00000000000E+00 0.  1.
</event>
<event>
 7    1  0.6584658E-006  0.1292464E+03  0.7561462E-02  0.1228578E+00
         -2   -1    0    0    0  501 -0.00000000000E+00  0.00000000000E+00  0.13524167069E+03  0.13524167069E+03  0.00000000000E+00 0.  1.
          2   -1    0    0  501    0  0.00000000000E+00 -0.00000000000E+00 -0.14668415282E+03  0.14668415282E+03  0.00000000000E+00 0. -1.
         23    2    1    2    0    0 -0.46530311551E+02 -0.60517832746E+02 -0.51718712270E+02  0.12994755374E+03  0.91564532166E+02 0.  0.
          5    1    1    2  502    0 -0.91768859272E+01  0.80565063682E+02  0.17383849815E+01  0.81212308819E+02  0.41800000000E+01 0. -1.
         -5    1    1    2    0  502  0.55707197478E+02 -0.20047230936E+02  0.38537845167E+02  0.70765960950E+02  0.41800000000E+01 0. -1.
        -11    1    3    3    0    0 -0.30885827965E+02  0.19425890933E+02 -0.74643711562E+01  0.37242669673E+02  0.00000000000E+00 0.  1.
         11    1    3    3    0    0 -0.15644483586E+02 -0.79943723679E+02 -0.44254341114E+02  0.92704884066E+02  0.00000000000E+00 0. -1.
</event>
<event>
 7    1  0.6584658E-006  0.1121510E+03  0.7561462E-02  0.1256638E+00
         -3   -1    0    0    0  501 -0.00000000000E+00  0.00000000000E+00  0.49405469569E+03  0.49405469569E+03  0.00000000000E+00 0.  1.
          3   -1    0    0  501    0  0.00000000000E+00 -0.00000000000E+00 -0.35466507607E+02  0.35466507607E+02  0.00000000000E+00 0. -1.
         23    2    1    2    0    0 -0.58197625026E+02 -0.42836857004E+02  0.15573945216E+03  0.19398176748E+03  0.90289474893E+02 0.  0.
          5    1    1    2  502    0 -0.19426169429E+02 -0.17879144449E+02  0.13714750751E+02  0.30043412807E+02  0.41800000000E+01 0. -1.
         -5    1    1    2    0  502  0.77623794454E+02  0.60716001453E+02  0.28913398517E+03  0.30549602301E+03  0.41800000000E+01 0. -1.
        -11    1    3    3    0    0 -0.14583217807E+02 -0.52308308694E+02  0.33392803045E+02  0.63748793677E+02  0.00000000000E+00 0. -1.
         11    1    3    3    0    0 -0.43614407219E+02  0.94714516900E+01  0.12234664912E+03  0.13023297380E+03  0.00000000000E+00 0.  1.
</event>
<event>
 7    1  0.6584658E-006  0.1287407E+03  0.7561462E-02  0.1229336E+00
          4   -1    0    0  501    0  0.00000000000E+00  0.00000000000E+00  0.58199223405E+03  0.58199223405E+03  0.00000000000E+00 0. -1.
         -4   -1    0    0    0  501 -0.00000000000E+00 -0.00000000000E+00 -0.40049639281E+02  0.40049639281E+02  0.00000000000E+00 0.  1.
         23    2    1    2    0    0 -0.76328656698E+02 -0.40686832023E+02  0.37779213237E+03  0.39827026427E+03  0.91710555498E+02 0.  0.
          5    1    1    2  502    0 -0.27951011316E+02 -0.12783131668E+02  0.16225716896E+02  0.35005910610E+02  0.41800000000E+01 0. -1.
         -5    1    1    2    0  502  0.10427966801E+03  0.53469963691E+02  0.14792474550E+03  0.18876569845E+03  0.41800000000E+01 0. -1.
        -11    1    3    3    0    0 -0.66367405222E+02  0.96358043539E+00  0.12171202749E+03  0.13863397347E+03  0.00000000000E+00 0.  1.
         11    1    3    3    0    0 -0.99612514766E+01 -0.41650412458E+02  0.25608010487E+03  0.25963629080E+03  0.00000000000E+00 0. -1.
</event>
<event>
 7    1  0.6584658E-006  0.9716775E+02  0.7561462E-02  0.1286367E+00
         -4   -1    0    0    0  501 -0.00000000000E+00  0.00000000000E+00  0.34531715693E+02  0.34531715693E+02  0.00000000000E+00 0.  1.
          4   -1    0    0  501    0  0.00000000000E+00 -0.00000000000E+00 -0.55829406679E+03  0.55829406679E+03  0.00000000000E+00 0. -1.
         23    2    1    2    0    0  0.46889515065E+02  0.91635412264E+00 -0.39234086465E+03  0.40542597721E+03  0.90771155048E+02 0.  0.
          5    1    1    2  502    0 -0.39514896192E+02  0.43161219798E+02 -0.12081365443E+02  0.59897827227E+02  0.41800000000E+01 0. -1.
         -5    1    1    2    0  502 -0.73746188728E+01 -0.44077573921E+02 -0.11934012100E+03  0.12750197805E+03  0.41800000000E+01 0. -1.
        -11    1    3    3    0    0  0.58328834180E+02  0.25507145105E+02 -0.34536103208E+03  0.35117959768E+03  0.00000000000E+00 0. -1.
         11    1    3    3    0    0 -0.11439319115E+02 -0.24590790983E+02 -0.46979832576E+02  0.54246379527E+02  0.00000000000E+00 0.  1.
</event>
<event>
 7    1  0.6584658E-006  0.8710735E+02  0.7561462E-02  0.1310012E+00
          1   -1    0    0  501    0  0.00000000000E+00  0.00000000000E+00  0.95887204297E+02  0.95887204297E+02  0.00000000000E+00 0. -1.
         -1   -1    0    0    0  501 -0.00000000000E+00 -0.00000000000E+00 -0.15177121628E+03  0.15177121628E+03  0.00000000000E+00 0.  1.
         23    2    1    2    0    0  0.21148192159E+02  0.11427671480E+02  0.24134955664E+02  0.97231353200E+02  0.91069216825E+02 0.  0.
          5    1    1    2  502    0  0.28983915769E+02  0.26354437539E+02  0.99584584856E+01  0.40635785297E+02  0.41800000000E+01 0.  1.
         -5    1    1    2    0  502 -0.50132107928E+02 -0.37782109019E+02 -0.89977426135E+02  0.10979128208E+03  0.41800000000E+01 0.  1.
        -11    1    3    3    0    0  0.39152692792E+02  0.27438556847E+02 -0.16002908609E+02  0.50417267267E+02  0.00000000000E+00 0.  1.
         11    1    3    3    0    0 -0.18004500633E+02 -0.16010885367E+02  0.40137864273E+02  0.46814085933E+02  0.00000000000E+00 0. -1.
</event>
<event>
 7    1  0.6584658E-006  0.9284665E+02  0.7561462E-02  0.1296101E+00
         -1   -1    0    0    0  501 -0.00000000000E+00  0.00000000000E+00  0.16839333025E+03  0.16839333025E+03  0.00000000000E+00 0.  1.
          1   -1    0    0  501    0  0.00000000000E+00 -0.00000000000E+00 -0.18704596307E+03  0.18704596307E+03  0.00000000000E+00 0. -1.
         23    2    1    2    0    0 -0.51218612422E+01 -0.72739977995E+02 -0.12999787856E+03  0.17278185644E+03  0.87388692775E+02 0.  0.
          5    1    1    2  502    0  0.18524323557E+00  0.55984571459E+02 -0.12500931718E+02  0.57515669607E+02  0.41800000000E+01 0.  1.
         -5    1    1    2    0  502  0.49366180066E+01  0.16755406536E+02  0.12384617746E+03  0.12514176728E+03  0.41800000000E+01 0.  1.
        -11    1    3    3    0    0 -0.13827110107E+02  0.16727174593E+02 -0.13210904058E+02  0.25406993719E+02  0.00000000000E+00 0.  1.
         11    1    3    3    0    0  0.87052488649E+01 -0.89467152588E+02 -0.11678697450E+03  0.14737486272E+03  0.00000000000E+00 0. -1.
</event>
<event>
 7    1  0.6584658E-006  0.1268099E+03  0.7561462E-02  0.1232267E+00
          1   -1    0    0  501    0  0.00000000000E+00  0.00000000000E+00  0.11998848770E+04  0.11998848770E+04  0.00000000000E+00 0. -1.
         -1   -1    0    0    0  501 -0.00000000000E+00 -0.00000000000E+00 -0.14358708136E+02  0.14358708136E+02  0.00000000000E+00 0.  1.
         23    2    1    2    0    0 -0.50771352233E+02  0.48906387642E+02  0.49917445808E+03  0.51303325213E+03  0.95175696652E+02 0.  0.
          5    1    1    2  502    0  0.78715407985E+02  0.54960728022E+01  0.31075463681E+03  0.32064347642E+03  0.41800000000E+01 0. -1.
         -5    1    1    2    0  502 -0.27944055752E+02 -0.54402460444E+02  0.37559707396E+03  0.38056685658E+03  0.41800000000E+01 0. -1.
        -11    1    3    3    0    0  0.17003055114E+02  0.41834177675E+02  0.12992746923E+03  0.13755126159E+03  0.00000000000E+00 0.  1.
         11    1    3    3    0    0 -0.67774407346E+02  0.70722099676E+01  0.36924698885E+03  0.37548199054E+03  0.00000000000E+00 0. -1.
</event>
<event>
 7    1  0.6584658E-006  0.1031750E+03  0.7561462E-02  0.1273758E+00
         -2   -1    0    0    0  501 -0.00000000000E+00  0.00000000000E+00  0.41382718798E+02  0.41382718798E+02  0.00000000000E+00 0.  1.
          2   -1    0    0  501    0  0.00000000000E+00 -0.00000000000E+00 -0.39978050689E+03  0.39978050689E+03  0.00000000000E+00 0. -1.
         23    2    1    2    0    0 -0.30035696343E+02  0.28080281996E+02 -0.24150591574E+03  0.26148116371E+03  0.91414694364E+02 0.  0.
          5    1    1    2  502    0  0.72851539021E+02 -0.38630000856E+02 -0.10546061281E+03  0.13393669011E+03  0.41800000000E+01 0. -1.
         -5    1    1    2    0  502 -0.42815842678E+02  0.10549718860E+02 -0.11431259539E+02  0.45745371864E+02  0.41800000000E+01 0.  1.
        -11    1    3    3    0    0 -0.19903641565E+02 -0.21258531667E+02 -0.22619776997E+02  0.36874576982E+02  0.00000000000E+00 0. -1.
         11    1    3    3    0    0 -0.10132054778E+02  0.49338813663E+02 -0.21888613875E+03  0.22460658673E+03  0.00000000000E+00 0.  1.
</event>
<event>
 7    1  0.6584658E-006  0.1081513E+03  0.7561462E-02  0.1264032E+00
          2   -1    0    0  501    0  0.00000000000E+00  0.00000000000E+00  0.69345333170E+03  0.69345333170E+03  0.00000000000E+00 0. -1.
         -2   -1    0    0    0  501 -0.00000000000E+00 -0.00000000000E+00 -0.19658857353E+02  0.19658857353E+02  0.00000000000E+00 0.  1.
         23    2    1    2    0    0  0.27476257020E+01 -0.29925025424E+02  0.40084389744E+03  0.41136464992E+03  0.87418467699E+02 0.  0.
          5    1    1    2  502    0  0.45554366469E+02 -0.24530889174E+02  0.78823990708E+02  0.94380393829E+02  0.41800000000E+01 0. -1.
         -5    1    1    2    0  502 -0.48301992171E+02  0.54455914599E+02  0.19412658620E+03  0.20736714531E+03  0.41800000000E+01 0. -1.
        -11    1    3    3    0    0 -0.26289970018E+02 -0.49787802960E+02  0.27446148147E+03  0.28017689530E+03  0.00000000000E+00 0.  1.
         11    1    3    3    0    0  0.29037595720E+02  0.19862777536E+02  0.12638241597E+03  0.13118775462E+03  0.00000000000E+00 0. -1.
</event>
<event>
 7    1  0.6584658E-006  0.9707266E+02  0.7561462E-02  0.1286575E+00
          2   -1    0    0  501    0  0.00000000000E+00  0.00000000000E+00  0.16663933659E+02  0.16663933659E+02  0.00000000000E+00 0. -1.
         -2   -1    0    0    0  501 -0.00000000000E+00 -0.00000000000E+00 -0.12908307386E+04  0.12908307386E+04  0.00000000000E+00 0.  1.
         23    2    1    2    0    0  0.70875926790E+02 -0.40299120109E+01 -0.29443883620E+03  0.31726565423E+03  0.94464966530E+02 0.  0.
          5    1    1    2  502    0 -0.35983886242E+02 -0.21504246692E+02 -0.89258640018E+02  0.98700810092E+02  0.41800000000E+01 0.  1.
         -5    1    1    2    0  502 -0.34892040548E+02  0.25534158703E+02 -0.89046932869E+03  0.89152820791E+03  0.41800000000E+01 0.  1.
        -11    1    3    3    0    0  0.35203315258E+02  0.39097081378E+02 -0.20594175021E+03  0.21255554488E+03  0.00000000000E+00 0.  1.
         11    1    3    3    0    0  0.35672611532E+02 -0.43126993389E+02 -0.88497085987E+02  0.10471010935E+03  0.00000000000E+00 0. -1.
</event>
<event>
 7    1  0.6584658E-006  0.1019026E+03  0.7561462E-02  0.1276345E+00
          1   -1    0    0  501    0  0.00000000000E+00  0.00000000000E+00  0.16353971151E+03  0.16353971151E+03  0.00000000000E+00 0. -1.
         -1   -1    0    0    0  501 -0.00000000000E+00 -0.00000000000E+00 -0.84502319983E+02  0.84502319983E+02  0.00000000000E+00 0.  1.
         23    2    1    2    0    0  0.20163381639E+01 -0.83869512862E+01  0.81229464001E+02  0.12263487184E+03  0.91469554483E+02 0.  0.
          5    1    1    2  502    0 -0.49501936258E+02  0.36796381138E+02  0.20960642380E+02  0.65278145555E+02  0.41800000000E+01 0. -1.
         -5    1    1    2    0  502  0.47485598094E+02 -0.28409429852E+02 -0.23152714857E+02  0.60129014096E+02  0.41800000000E+01 0. -1.
        -11    1    3    3    0    0 -0.39218918624E+02 -0.19479092128E+02  0.20386549220E+02  0.48302898436E+02  0.00000000000E+00 0.  1.
         11    1    3    3    0    0  0.41235256788E+02  0.11092140842E+02  0.60842914781E+02  0.74331973402E+02  0.00000000000E+00 0. -1.
</event>
<event>
 7    1  0.6584658E-006  0.8828783E+02  0.7561462E-02  0.1307052E+00
          1   -1    0    0  501    0  0.00000000000E+00  0.00000000000E+00  0.19532744449E+03  0.19532744449E+03  0.00000000000E+00 0. -1.
         -1   -1    0    0    0  501 -0.00000000000E+00 -0.00000000000E+00 -0.73900940224E+02  0.73900940224E+02  0.00000000000E+00 0.  1.
         23    2    1    2    0    0 -0.20803419820E+02  0.26107252968E+02  0.97363039779E+02  0.13758209237E+03  0.91295671810E+02 0.  0.
          5    1    1    2  502    0  0.26661688957E+02  0.24856928837E+02 -0.36780856417E+02  0.51952058362E+02  0.41800000000E+01 0. -1.
         -5    1    1    2    0  502 -0.58582691369E+01 -0.50964181805E+02  0.60844320903E+02  0.79694233985E+02  0.41800000000E+01 0. -1.
        -11    1    3    3    0    0 -0.48165796930E+02 -0.32606572668E+01  0.23899735570E+02  0.53868109676E+02  0.00000000000E+00 0.  1.
         11    1    3    3    0    0  0.27362377110E+02  0.29367910235E+02  0.73463304209E+02  0.83713982691E+02  0.00000000000E+00 0. -1.
</event>
<event>
 6    1  0.6584658E-006  0.1512027E+03  0.7561462E-02  0.1199003E+00
         -2   -1    0    0    0  501 -0.00000000000E+00  0.00000000000E+00  0.24888865321E+03  0.24888865321E+03  0.00000000000E+00 0.  1.
          2   -1    0    0  501    0  0.00000000000E+00 -0.00000000000E+00 -0.15717632761E+03  0.15717632761E+03  0.00000000000E+00 0. -1.
          5    1    1    2  502    0 -0.11501839738E+03 -0.81866158835E+02 -0.53937278861E+02  0.15118863102E+03  0.41800000000E+01 0. -1.
         -5    1    1    2    0  502  0.10423888895E+03  0.75580185080E+02  0.17024337565E+03  0.21349095929E+03  0.41800000000E+01 0.  1.
        -11    1    1    2    0    0  0.17956074396E+02 -0.52919767542E+01 -0.18961512888E+02  0.26645160849E+02  0.00000000000E+00 0.  1.
         11    1    1    2    0    0 -0.71765659582E+01  0.11577950509E+02 -0.56322582956E+01  0.14740229661E+02  0.00000000000E+00 0. -1.
</event>
<event>
 7    1  0.6584658E-006  0.2533894E+03  0.7561462E-02  0.1111181E+00
          1   -1    0    0  501    0  0.00000000000E+00  0.00000000000E+00  0.11986493689E+04  0.11986493689E+04  0.00000000000E+00 0. -1.
         -1   -1    0    0    0  501 -0.00000000000E+00 -0.00000000000E+00 -0.64317934790E+02  0.64317934790E+02  0.00000000000E+00 0.  1.
         23    2    1    2    0    0 -0.82771060452E+02 -0.23300888897E+03  0.69335890759E+03  0.74215304681E+03  0.94341821908E+02 0.  0.
          5    1    1    2  502    0  0.27319545012E+02  0.77162608140E+02  0.27295739900E+03  0.28499761350E+03  0.41800000000E+01 0. -1.
         -5    1    1    2    0  502  0.55451515441E+02  0.15584628083E+03  0.16801512748E+03  0.23581664334E+03  0.41800000000E+01 0. -1.
        -11    1    3    3    0    0  0.94316280921E+01 -0.81086842278E+02  0.29228854835E+03  0.30347426101E+03  0.00000000000E+00 0. -1.
         11    1    3    3    0    0 -0.92202688544E+02 -0.15192204669E+03  0.40107035924E+03  0.43867878580E+03  0.00000000000E+00 0.  1.
</event>
<event>
 7    1  0.6584658E-006  0.5997331E+02  0.7561462E-02  0.1397944E+00
          2   -1    0    0  501    0  0.00000000000E+00  0.00000000000E+00  0.55630180385E+02  0.55630180385E+02  0.00000000000E+00 0. -1.
         -2   -1    0    0    0  501 -0.00000000000E+00 -0.00000000000E+00 -0.23219939178E+03  0.23219939178E+03  0.00000000000E+00 0.  1.
         23    2    1    2    0    0 -0.66884763300E+00 -0.34364278166E+02 -0.55430257614E+02  0.11033075639E+03  0.88988827245E+02 0.  0.
          5    1    1    2  502    0  0.78127477302E+01  0.11091834205E+02  0.25289472471E+02  0.29001683244E+02  0.41800000000E+01 0.  1.
         -5    1    1    2    0  502 -0.71439000972E+01  0.23272443961E+02 -0.14642842625E+03  0.14849713253E+03  0.41800000000E+01 0.  1.
        -11    1    3    3    0    0  0.22856137412E+01 -0.57590715237E+02 -0.63320339783E+02  0.85623477749E+02  0.00000000000E+00 0.  1.
         11    1    3    3    0    0 -0.29544613742E+01  0.23226437070E+02  0.78900821688E+01  0.24707278637E+02  0.00000000000E+00 0. -1.
</event>
<event>
 7    1  0.6584658E-006  0.2395389E+03  0.7561462E-02  0.1120100E+00
         -1   -1    0    0    0  501 -0.00000000000E+00  0.00000000000E+00  0.18552870392E+03  0.18552870392E+03  0.00000000000E+00 0.  1.
          1   -1    0    0  501    0  0.00000000000E+00 -0.00000000000E+00 -0.40654727335E+03  0.40654727335E+03  0.00000000000E+00 0. -1.
         23    2    1    2    0    0 -0.11656864921E+03  0.17957734350E+03 -0.25102410481E+03  0.34231402076E+03  0.91266178522E+02 0.  0.
          5    1    1    2  502    0  0.68916401323E+02 -0.18595832389E+03  0.13746354956E+02  0.19883763042E+03  0.41800000000E+01 0. -1.
         -5    1    1    2    0  502  0.47652247886E+02  0.63809803951E+01  0.16259180417E+02  0.50924326085E+02  0.41800000000E+01 0. -1.
        -11    1    3    3    0    0 -0.17445960473E+02  0.10994578050E+03 -0.12858744207E+03  0.17007988254E+03  0.00000000000E+00 0.  1.
         11    1    3    3    0    0 -0.99122688735E+02  0.69631562992E+02 -0.12243666274E+03  0.17223413822E+03  0.00000000000E+00 0. -1.
</event>
<event>
 7    1  0.6584658E-006  0.3093651E+03  0.7561462E-02  0.1080651E+00
          1   -1    0    0  501    0  0.00000000000E+00  0.00000000000E+00  0.66156691627E+03  0.66156691627E+03  0.00000000000E+00 0. -1.
         -1   -1    0    0    0  501 -0.00000000000E+00 -0.00000000000E+00 -0.16292318116E+03  0.16292318116E+03  0.00000000000E+00 0.  1.
         23    2    1    2    0    0  0.25009326714E+03 -0.16705683933E+03  0.33739446543E+03  0.46103116318E+03  0.90884972793E+02 0.  0.
          5    1    1    2  502    0 -0.18552138271E+03  0.15702906957E+03  0.73478837493E+02  0.25395457092E+03  0.41800000000E+01 0. -1.
         -5    1    1    2    0  502 -0.64571884426E+02  0.10027769763E+02  0.87770432186E+02  0.10950436334E+03  0.41800000000E+01 0. -1.
        -11    1    3    3    0    0  0.18703341959E+03 -0.16104337381E+03  0.23606453898E+03  0.34153028395E+03  0.00000000000E+00 0. -1.
         11    1    3    3    0    0  0.63059847548E+02 -0.60134655169E+01  0.10132992645E+03  0.11950087922E+03  0.00000000000E+00 0.  1.
</event>
<event>
 7    1  0.6584658E-006  0.2164915E+03  0.7561462E-02  0.1136526E+00
          1   -1    0    0  501    0  0.00000000000E+00  0.00000000000E+00  0.17953326503E+03  0.17953326503E+03  0.00000000000E+00 0. -1.
         -1   -1    0    0    0  501 -0.00000000000E+00 -0.00000000000E+00 -0.29236418679E+03  0.29236418679E+03  0.00000000000E+00 0.  1.
         23    2    1    2    0    0 -0.19183996420E+03 -0.52456836795E+02 -0.20960955440E+02  0.21962575518E+03  0.90784465061E+02 0.  0.
          5    1    1    2  502    0  0.21775094572E+02 -0.35537790250E+02 -0.27965044709E+02  0.50364723815E+02  0.41800000000E+01 0. -1.
         -5    1    1    2    0  502  0.17006486962E+03  0.87994627044E+02 -0.63904921616E+02  0.20190697282E+03  0.41800000000E+01 0. -1.
        -11    1    3    3    0    0 -0.32188234504E+02 -0.25087097218E+01 -0.39841688263E+02  0.51280953468E+02  0.00000000000E+00 0.  1.
         11    1    3    3    0    0 -0.15965172969E+03 -0.49948127073E+02  0.18880732823E+02  0.16834480171E+03  0.00000000000E+00 0. -1.
</event>
<event>
 7    1  0.6584658E-006  0.1137831E+03  0.7561462E-02  0.1253720E+00
          1   -1    0    0  501    0  0.00000000000E+00  0.00000000000E+00  0.44793290466E+03  0.44793290466E+03  0.00000000000E+00 0. -1.
         -1   -1    0    0    0  501 -0.00000000000E+00 -0.00000000000E+00 -0.46030425862E+02  0.46030425862E+02  0.00000000000E+00 0.  1.
         23    2    1    2    0    0  0.77548569626E+01  0.94736888815E+02  0.16726442368E+03  0.21158531164E+03  0.88066683622E+02 0.  0.
          5    1    1    2  502    0 -0.17714129563E+02 -0.72970325001E+02  0.24476119521E+03  0.25605463049E+03  0.41800000000E+01 0.  1.
         -5    1    1    2    0  502  0.99592726007E+01 -0.21766563814E+02 -0.10123140089E+02  0.26323388389E+02  0.41800000000E+01 0.  1.
        -11    1    3    3    0    0  0.39588186601E+02  0.86576881480E+02  0.10923470528E+03  0.14489652088E+03  0.00000000000E+00 0.  1.
         11    1    3    3    0    0 -0.31833329639E+02  0.81600073353E+01  0.58029718405E+02  0.66688790766E+02  0.00000000000E+00 0. -1.
</event>
<event>
 7    1  0.6584658E-006  0.1225181E+03  0.7561462E-02  0.1239000E+00
         -2   -1    0    0    0  501 -0.00000000000E+00  0.00000000000E+00  0.44456500059E+02  0.44456500059E+02  0.00000000000E+00 0.  1.
          2   -1    0    0  501    0  0.00000000000E+00 -0.00000000000E+00 -0.43865361039E+03  0.43865361039E+03  0.00000000000E+00 0. -1.
         23    2    1    2    0    0 -0.55835026179E+02 -0.49200391222E+02 -0.29175694143E+03  0.31514150295E+03  0.93025939219E+02 0.  0.
          5    1    1    2  502    0 -0.34349250341E+01 -0.29178195586E+02 -0.45496710203E+02  0.54319322960E+02  0.41800000000E+01 0. -1.
         -5    1    1    2    0  502  0.59269951213E+02  0.78378586808E+02 -0.56943458702E+02  0.11364928454E+03  0.41800000000E+01 0.  1.
        -11    1    3    3    0    0  0.24922172437E+02 -0.16445744220E+02 -0.10295193732E+03  0.10719458279E+03  0.00000000000E+00 0.  1.
         11    1    3    3    0    0 -0.80757198616E+02 -0.32754647002E+02 -0.18880500411E+03  0.20794692016E+03  0.00000000000E+00 0. -1.
</event>
<event>
 7    1  0.6584658E-006  0.8337383E+02  0.7561462E-02  0.1319741E+00
          2   -1    0    0  501    0  0.00000000000E+00  0.00000000000E+00  0.40532850798E+03  0.40532850798E+03  0.00000000000E+00 0.  1.
         -2   -1    0    0    0  501 -0.00000000000E+00 -0.00000000000E+00 -0.27193761181E+02  0.27193761181E+02  0.00000000000E+00 0. -1.
         23    2    1    2    0    0  0.20447630008E+02  0.10559308566E+02  0.17090785779E+03  0.19492470409E+03  0.90865504128E+02 0.  0.
          5    1    1    2  502    0  0.21049368116E+02 -0.21630008487E+02  0.50726087377E+01  0.30889106893E+02  0.41800000000E+01 0. -1.
         -5    1    1    2    0  502 -0.41496998124E+02  0.11070699921E+02  0.20215428027E+03  0.20670845818E+03  0.41800000000E+01 0.  1.
        -11    1    3    3    0    0  0.54175810532E+02 -0.77854387010E+01  0.89340759321E+02  0.10477310141E+03  0.00000000000E+00 0.  1.
         11    1    3    3    0    0 -0.33728180524E+02  0.18344747267E+02  0.81567098466E+02  0.90151602681E+02  0.00000000000E+00 0. -1.
</event>
<event>
 7    1  0.6584658E-006  0.1095810E+03  0.7561462E-02  0.1261348E+00
         -2   -1    0    0    0  501 -0.00000000000E+00  0.00000000000E+00  0.11975969403E+03  0.11975969403E+03  0.00000000000E+00 0. -1.
          2   -1    0    0  501    0  0.00000000000E+00 -0.00000000000E+00 -0.15402900344E+03  0.15402900344E+03  0.00000000000E+00 0.  1.
         23    2    1    2    0    0 -0.40077838480E+02 -0.15270165827E+01 -0.88632009672E+02  0.13162217489E+03  0.88657762596E+02 0.  0.
          5    1    1    2  502    0 -0.75718527824E+01 -0.50472820196E+02  0.49696911526E+02  0.71358909383E+02  0.41800000000E+01 0.  1.
         -5    1    1    2    0  502  0.47649691263E+02  0.51999836779E+02  0.46657887394E+01  0.70807613199E+02  0.41800000000E+01 0.  1.
        -11    1    3    3    0    0 -0.68364870136E+02  0.39840173079E+01 -0.61614697356E+02  0.92119481072E+02  0.00000000000E+00 0.  1.
         11    1    3    3    0    0  0.28287031656E+02 -0.55110338906E+01 -0.27017312316E+02  0.39502693822E+02  0.00000000000E+00 0. -1.
</event>
<event>
 7    1  0.6584658E-006  0.3145619E+03  0.7561462E-02  0.1078180E+00
          2   -1    0    0  501    0  0.00000000000E+00  0.00000000000E+00  0.48081774139E+03  0.48081774139E+03  0.00000000000E+00 0. -1.
         -2   -1    0    0    0  501 -0.00000000000E+00 -0.00000000000E+00 -0.27474436210E+03  0.27474436210E+03  0.00000000000E+00 0.  1.
         23    2    1    2    0    0 -0.25872948558E+03 -0.15504564856E+03  0.27903600844E+03  0.42095456418E+03  0.91441518238E+02 0.  0.
          5    1    1    2  502    0  0.18346453836E+03  0.56929430102E+02 -0.23662169717E+01  0.19215428236E+03  0.41800000000E+01 0.  1.
         -5    1    1    2    0  502  0.75264947217E+02  0.98116218454E+02 -0.70596412171E+02  0.14245325695E+03  0.41800000000E+01 0.  1.
        -11    1    3    3    0    0 -0.60080074165E+02 -0.81883505791E+02  0.11286099025E+03  0.15182926909E+03  0.00000000000E+00 0.  1.
         11    1    3    3    0    0 -0.19864941141E+03 -0.73162142765E+02  0.16617501819E+03  0.26912529509E+03  0.00000000000E+00 0. -1.
</event>
<event>
 7    1  0.9037245E-006  0.1558331E+03  0.7561462E-02  0.1193483E+00
          1   -1    0    0  501    0  0.00000000000E+00  0.00000000000E+00  0.14345529518E+03  0.14345529518E+03  0.00000000000E+00 0. -1.
         -1   -1    0    0    0  501 -0.00000000000E+00 -0.00000000000E+00 -0.24771184881E+03  0.24771184881E+03  0.00000000000E+00 0.  1.
         23    2    1    2    0    0  0.14346257483E+03  0.28131572850E+01  0.68329136587E+01  0.17076327624E+03  0.92325422133E+02 0.  0.
          5    1    1    2  502    0 -0.13030558021E+03 -0.83274902706E+01 -0.24960544240E+02  0.13300147555E+03  0.41800000000E+01 0.  1.
         -5    1    1    2    0  502 -0.13156994619E+02  0.55143329856E+01 -0.86128923057E+02  0.87402392202E+02  0.41800000000E+01 0.  1.
        -11    1    3    3    0    0  0.46630431210E+02  0.40981128618E+02  0.21403289111E+02  0.65665446031E+02  0.00000000000E+00 0. -1.
         11    1    3    3    0    0  0.96832143622E+02 -0.38167971333E+02 -0.14570375452E+02  0.10509783021E+03  0.00000000000E+00 0.  1.
</event>
<event>
 7    1  0.6584658E-006  0.9257447E+02  0.7561462E-02  0.1296734E+00
          1   -1    0    0  501    0  0.00000000000E+00  0.00000000000E+00  0.23119142812E+03  0.23119142812E+03  0.00000000000E+00 0. -1.
         -1   -1    0    0    0  501 -0.00000000000E+00 -0.00000000000E+00 -0.14940740516E+03  0.14940740516E+03  0.00000000000E+00 0.  1.
         23    2    1    2    0    0  0.48978738731E+01 -0.34385902536E+02  0.18988862989E+03  0.21166441279E+03  0.86820230476E+02 0.  0.
          5    1    1    2  502    0 -0.38754178256E+02 -0.19690138264E+02 -0.38818472144E+00  0.43671626538E+02  0.41800000000E+01 0. -1.
         -5    1    1    2    0  502  0.33856304383E+02  0.54076040799E+02 -0.10771642221E+03  0.12526279395E+03  0.41800000000E+01 0. -1.
        -11    1    3    3    0    0  0.30536395169E+02  0.46002735579E+01  0.23357191761E+02  0.38719405390E+02  0.00000000000E+00 0.  1.
         11    1    3    3    0    0 -0.25638521296E+02 -0.38986176094E+02  0.16653143812E+03  0.17294500740E+03  0.00000000000E+00 0. -1.
</event>
<event>
 7    1  0.6584658E-006  0.1553699E+03  0.7561462E-02  0.1194026E+00
         -1   -1    0    0    0  501 -0.00000000000E+00  0.00000000000E+00  0.45561151234E+02  0.45561151234E+02  0.00000000000E+00 0.  1.
          1   -1    0    0  501    0  0.00000000000E+00 -0.00000000000E+00 -0.65490076026E+03  0.65490076026E+03  0.00000000000E+00 0. -1.
         23    2    1    2    0    0 -0.15495642270E+02 -0.12581341710E+03 -0.27962659678E+03  0.32974044749E+03  0.12028548638E+03 0.  0.
          5    1    1    2  502    0 -0.72639189628E+01  0.10425959401E+03 -0.12236878983E+03  0.16097956574E+03  0.41800000000E+01 0. -1.
         -5    1    1    2    0  502  0.22759561233E+02  0.21553823100E+02 -0.20734422242E+03  0.20974189827E+03  0.41800000000E+01 0.  1.
        -11    1    3    3    0    0  0.52675282572E+02 -0.58402332437E+02 -0.11763665640E+03  0.14150583294E+03  0.00000000000E+00 0. -1.
         11    1    3    3    0    0 -0.68170924843E+02 -0.67411084668E+02 -0.16198994038E+03  0.18823461455E+03  0.00000000000E+00 0.  1.
</event>
<event>
 7    1  0.6584658E-006  0.1112240E+03  0.7561462E-02  0.1258320E+00
          1   -1    0    0  501    0  0.00000000000E+00  0.00000000000E+00  0.57477820211E+03  0.57477820211E+03  0.00000000000E+00 0. -1.
         -1   -1    0    0    0  501 -0.00000000000E+00 -0.00000000000E+00 -0.29502578861E+02  0.29502578861E+02  0.00000000000E+00 0.  1.
         23    2    1    2    0    0 -0.17687914815E+02  0.17429714879E+02  0.30635510932E+03  0.32044988883E+03  0.90653300851E+02 0.  0.
          5    1    1    2  502    0 -0.90077529662E+01  0.54041426263E+02  0.17745918445E+03  0.18577096089E+03  0.41800000000E+01 0. -1.
         -5    1    1    2    0  502  0.26695667781E+02 -0.71471141142E+02  0.61461329481E+02  0.98059931246E+02  0.41800000000E+01 0.  1.
        -11    1    3    3    0    0 -0.45981274863E+02 -0.14707458953E+02  0.20122324502E+03  0.20693327746E+03  0.00000000000E+00 0.  1.
         11    1    3    3    0    0  0.28293360048E+02  0.32137173832E+02  0.10513186430E+03  0.11351661137E+03  0.00000000000E+00 0. -1.
</event>
<event>
 7    1  0.6584658E-006  0.1249170E+03  0.7561462E-02  0.1235199E+00
         -3   -1    0    0    0  501 -0.00000000000E+00  0.00000000000E+00  0.54899280325E+02  0.54899280325E+02  0.00000000000E+00 0.  1.
          3   -1    0    0  501    0  0.00000000000E+00 -0.00000000000E+00 -0.56852048618E+03  0.56852048618E+03  0.00000000000E+00 0. -1.
         23    2    1    2    0    0 -0.99821082081E+02  0.41342255382E+02 -0.39546413985E+03  0.42024011727E+03  0.92392855525E+02 0.  0.
          5    1    1    2  502    0  0.14593593482E+02 -0.13360202431E+02 -0.11129470152E+03  0.11311697912E+03  0.41800000000E+01 0.  1.
         -5    1    1    2    0  502  0.85227488598E+02 -0.27982052951E+02 -0.68623644837E+01  0.90062670105E+02  0.41800000000E+01 0.  1.
        -11    1    3    3    0    0 -0.46643438791E+02  0.66303340800E+02 -0.26584627644E+03  0.27793162123E+03  0.00000000000E+00 0.  1.
         11    1    3    3    0    0 -0.53177643290E+02 -0.24961085417E+02 -0.12961786341E+03  0.14230849604E+03  0.00000000000E+00 0. -1.
</event>
<event>
 7    1  0.6584658E-006  0.1572123E+03  0.7561462E-02  0.1191881E+00
         -2   -1    0    0    0  501 -0.00000000000E+00  0.00000000000E+00  0.20319401471E+03  0.20319401471E+03  0.00000000000E+00 0. -1.
          2   -1    0    0  501    0  0.00000000000E+00 -0.00000000000E+00 -0.13992647237E+03  0.13992647237E+03  0.00000000000E+00 0.  1.
         23    2    1    2    0    0 -0.55283832854E+02 -0.11730743885E+03  0.19193666755E+02  0.15762854693E+03  0.87527279051E+02 0.  0.
          5    1    1    2  502    0 -0.20433840683E+02  0.10016194254E+03  0.21654976337E+02  0.10457708630E+03  0.41800000000E+01 0.  1.
         -5    1    1    2    0  502  0.75717673538E+02  0.17145496307E+02  0.22418899246E+02  0.80914853846E+02  0.41800000000E+01 0.  1.
        -11    1    3    3    0    0 -0.50954368762E+02 -0.68527756719E+02  0.50781194312E+02  0.99353564770E+02  0.00000000000E+00 0. -1.
         11    1    3    3    0    0 -0.43294640925E+01 -0.48779682133E+02 -0.31587527557E+02  0.58274982158E+02  0.00000000000E+00 0.  1.
</event>
<event>
 7    1  0.6584658E-006  0.2180451E+03  0.7561462E-02  0.1135349E+00
         -1   -1    0    0    0  501 -0.00000000000E+00  0.00000000000E+00  0.28133078643E+03  0.28133078643E+03  0.00000000000E+00 0.  1.
          1   -1    0    0  501    0  0.00000000000E+00 -0.00000000000E+00 -0.71189875685E+03  0.71189875685E+03  0.00000000000E+00 0. -1.
         23    2    1    2    0    0  0.15011992374E+03  0.13181889069E+03 -0.63878135640E+03  0.67890477509E+03  0.11383260036E+03 0.  0.
          5    1    1    2  502    0 -0.78146628681E+02  0.34123657059E+01  0.44557647750E+02  0.90118789312E+02  0.41800000000E+01 0. -1.
         -5    1    1    2    0  502 -0.71973295060E+02 -0.13523125639E+03  0.16365573823E+03  0.22420597887E+03  0.41800000000E+01 0.  1.
        -11    1    3    3    0    0  0.86372809677E+02  0.46773586029E+02 -0.15436809392E+03  0.18296868317E+03  0.00000000000E+00 0.  1.
         11    1    3    3    0    0  0.63747114064E+02  0.85045304658E+02 -0.48441326249E+03  0.49593609192E+03  0.00000000000E+00 0. -1.
</event>
<event>
 7    1  0.6584658E-006  0.1837912E+03  0.7561462E-02  0.1164184E+00
         -1   -1    0    0    0  501 -0.00000000000E+00  0.00000000000E+00  0.37481231675E+02  0.37481231675E+02  0.00000000000E+00 0.  1.
          1   -1    0    0  501    0  0.00000000000E+00 -0.00000000000E+00 -0.13770118527E+04  0.13770118527E+04  0.00000000000E+00 0. -1.
         23    2    1    2    0    0  0.88954624599E+02 -0.12505492506E+03 -0.98220763743E+03  0.99836920637E+03  0.91965045934E+02 0.  0.
          5    1    1    2  502    0 -0.91223056893E+02  0.27266401042E+02 -0.26476073297E+03  0.28139086847E+03  0.41800000000E+01 0. -1.
         -5    1    1    2    0  502  0.22684322937E+01  0.97788524018E+02 -0.92562250573E+02  0.13473300949E+03  0.41800000000E+01 0.  1.
        -11    1    3    3    0    0 -0.10456134744E+02  0.42387467356E+01 -0.25854719706E+02  0.28209293836E+02  0.00000000000E+00 0.  1.
         11    1    3    3    0    0  0.99410759343E+02 -0.12929367180E+03 -0.95635291773E+03  0.97015991253E+03  0.00000000000E+00 0. -1.
</event>
<event>
 7    1  0.6584658E-006  0.1904483E+03  0.7561462E-02  0.1158058E+00
         -4   -1    0    0    0  501 -0.00000000000E+00  0.00000000000E+00  0.10499109992E+03  0.10499109992E+03  0.00000000000E+00 0.  1.
          4   -1    0    0  501    0  0.00000000000E+00 -0.00000000000E+00 -0.51968398543E+03  0.51968398543E+03  0.00000000000E+00 0. -1.
         23    2    1    2    0    0  0.26421684390E+02  0.15005501905E+02 -0.24875345436E+03  0.26743310283E+03  0.93375119507E+02 0.  0.
          5    1    1    2  502    0  0.11192776041E+03 -0.85298249851E+02 -0.14236718484E+03  0.20022363172E+03  0.41800000000E+01 0. -1.
         -5    1    1    2    0  502 -0.13834944480E+03  0.70292747946E+02 -0.23572246306E+02  0.15701835079E+03  0.41800000000E+01 0.  1.
        -11    1    3    3    0    0  0.40634845388E+02 -0.21302012696E+02 -0.64830154571E+02  0.79422385675E+02  0.00000000000E+00 0.  1.
         11    1    3    3    0    0 -0.14213160998E+02  0.36307514600E+02 -0.18392329979E+03  0.18801071716E+03  0.00000000000E+00 0. -1.
</event>
<event>
 7    1  0.7574530E-006  0.1589832E+03  0.7561462E-02  0.1189850E+00
         -2   -1    0    0    0  501 -0.00000000000E+00  0.00000000000E+00  0.53950741467E+02  0.53950741467E+02  0.00000000000E+00 0.  1.
          2   -1    0    0  501    0  0.00000000000E+00 -0.00000000000E+00 -0.57284254915E+03  0.57284254915E+03  0.00000000000E+00 0. -1.
         23    2    1    2    0    0  0.12573799626E+03 -0.15944463620E+02 -0.33797375150E+03  0.37293711685E+03  0.93763355308E+02 0.  0.
          5    1    1    2  502    0 -0.16115800587E+02  0.50976922813E+02 -0.22861960566E+02  0.58296717995E+02  0.41800000000E+01 0. -1.
         -5    1    1    2    0  502 -0.10962219567E+03 -0.35032459193E+02 -0.15805609561E+03  0.19555945577E+03  0.41800000000E+01 0. -1.
        -11    1    3    3    0    0  0.23549631605E+02  0.29158296627E+02 -0.40492002624E+02  0.55176024571E+02  0.00000000000E+00 0.  1.
         11    1    3    3    0    0  0.10218836465E+03 -0.45102760247E+02 -0.29748174888E+03  0.31776109228E+03  0.00000000000E+00 0. -1.
</event>
<event>
 7    1  0.6584658E-006  0.1152230E+03  0.7561462E-02  0.1251192E+00
          1   -1    0    0  501    0  0.00000000000E+00  0.00000000000E+00  0.23843522576E+02  0.23843522576E+02  0.00000000000E+00 0. -1.
         -1   -1    0    0    0  501 -0.00000000000E+00 -0.00000000000E+00 -0.16240125392E+04  0.16240125392E+04  0.00000000000E+00 0.  1.
         23    2    1    2    0    0  0.97261165748E+02  0.21905157941E+02 -0.19844726891E+03  0.23703680328E+03  0.82858658352E+02 0.  0.
          5    1    1    2  502    0 -0.32262962098E+02  0.24348116650E+02 -0.10209293593E+04  0.10217377151E+04  0.41800000000E+01 0. -1.
         -5    1    1    2    0  502 -0.64998203650E+02 -0.46253274591E+02 -0.38079238841E+03  0.38908154333E+03  0.41800000000E+01 0. -1.
        -11    1    3    3    0    0  0.60327466159E+02 -0.99623908943E+01 -0.44713816071E+02  0.75749440613E+02  0.00000000000E+00 0. -1.
         11    1    3    3    0    0  0.36933699589E+02  0.31867548835E+02 -0.15373345284E+03  0.16128736267E+03  0.00000000000E+00 0.  1.
</event>
<event>
 7    1  0.6584658E-006  0.1253579E+03  0.7561462E-02  0.1234511E+00
          4   -1    0    0  501    0  0.00000000000E+00  0.00000000000E+00  0.62323740272E+02  0.62323740272E+02  0.00000000000E+00 0. -1.
         -4   -1    0    0    0  501 -0.00000000000E+00 -0.00000000000E+00 -0.36860762057E+03  0.36860762057E+03  0.00000000000E+00 0.  1.
         23    2    1    2    0    0 -0.36490381514E+02 -0.81822013781E+02 -0.62589436641E+02  0.14272914550E+03  0.91802949374E+02 0.  0.
          5    1    1    2  502    0  0.79998362723E+02  0.39979554514E+02 -0.11290339094E+03  0.14409285514E+03  0.41800000000E+01 0.  1.
         -5    1    1    2    0  502 -0.43507981209E+02  0.41842459267E+02 -0.13079105272E+03  0.14410936020E+03  0.41800000000E+01 0.  1.
        -11    1    3    3    0    0 -0.16775241084E+02 -0.79000709029E+02 -0.81875975904E+02  0.11500520063E+03  0.00000000000E+00 0.  1.
         11    1    3    3    0    0 -0.19715140430E+02 -0.28213047517E+01  0.19286539263E+02  0.27723944875E+02  0.00000000000E+00 0. -1.
</event>
<event>
 7    1  0.6584658E-006  0.1241221E+03  0.7561462E-02  0.1236448E+00
          2   -1    0    0  501    0  0.00000000000E+00  0.00000000000E+00  0.30151277865E+03  0.30151277865E+03  0.00000000000E+00 0. -1.
         -2   -1    0    0    0  501 -0.00000000000E+00 -0.00000000000E+00 -0.70683501890E+02  0.70683501890E+02  0.00000000000E+00 0.  1.
         23    2    1    2    0    0 -0.79429527484E+02 -0.15217077629E+02  0.17856444414E+03  0.21433940940E+03  0.86692055147E+02 0.  0.
          5    1    1    2  502    0  0.77412281709E+02 -0.31125013716E+02  0.69017113888E+02  0.10836171948E+03  0.41800000000E+01 0.  1.
         -5    1    1    2    0  502  0.20172457749E+01  0.46342091345E+02 -0.16752281262E+02  0.49495151664E+02  0.41800000000E+01 0.  1.
        -11    1    3    3    0    0  0.63133726733E+01 -0.30404319133E+02  0.55263515098E+02  0.63390357290E+02  0.00000000000E+00 0.  1.
         11    1    3    3    0    0 -0.85742900157E+02  0.15187241504E+02  0.12330092904E+03  0.15094905211E+03  0.00000000000E+00 0. -1.
</event>
<event>
 7    1  0.6584658E-006  0.2674062E+03  0.7561462E-02  0.1102773E+00
         -1   -1    0    0    0  501 -0.00000000000E+00  0.00000000000E+00  0.24961580483E+03  0.24961580483E+03  0.00000000000E+00 0.  1.
          1   -1    0    0  501    0  0.00000000000E+00 -0.00000000000E+00 -0.32167112057E+03  0.32167112057E+03  0.00000000000E+00 0. -1.
         23    2    1    2    0    0  0.21159258638E+03  0.14214298015E+03 -0.10621384943E+03  0.29085929497E+03  0.91332897907E+02 0.  0.
          5    1    1    2  502    0 -0.32773011920E+02 -0.83336245796E+02  0.39590274188E+01  0.89733753247E+02  0.41800000000E+01 0. -1.
         -5    1    1    2    0  502 -0.17881957446E+03 -0.58806734355E+02  0.30199506275E+02  0.19069387718E+03  0.41800000000E+01 0.  1.
        -11    1    3    3    0    0  0.79196659146E+02  0.35113949611E+02  0.61904413623E+01  0.86852874687E+02  0.00000000000E+00 0.  1.
         11    1    3    3    0    0  0.13239592724E+03  0.10702903054E+03 -0.11240429079E+03  0.20400642028E+03  0.00000000000E+00 0. -1.
</event>
<event>
 7    1  0.6584658E-006  0.9975389E+02  0.7561462E-02  0.1280814E+00
          2   -1    0    0  501    0  0.00000000000E+00  0.00000000000E+00  0.36456368670E+03  0.36456368670E+03  0.00000000000E+00 0. -1.
         -2   -1    0    0    0  501 -0.00000000000E+00 -0.00000000000E+00 -0.38913132807E+02  0.38913132807E+02  0.00000000000E+00 0.  1.
         23    2    1    2    0    0 -0.44401794357E+02 -0.47387127488E+01  0.17029072284E+03  0.19908118820E+03  0.92953829768E+02 0.  0.
          5    1    1    2  502    0 -0.16405005191E+02  0.35252748587E+02  0.51507449507E+01  0.39444683442E+02  0.41800000000E+01 0. -1.
         -5    1    1    2    0  502  0.60806799548E+02 -0.30514035838E+02  0.15020908611E+03  0.16495094787E+03  0.41800000000E+01 0. -1.
        -11    1    3    3    0    0 -0.29942747281E+02  0.37271937661E+02  0.13212852441E+03  0.14051232122E+03  0.00000000000E+00 0. -1.
         11    1    3    3    0    0 -0.14459047076E+02 -0.42010650410E+02  0.38162198431E+02  0.58568866980E+02  0.00000000000E+00 0.  1.
</event>
<event>
 7    1  0.6584658E-006  0.1107590E+03  0.7561462E-02  0.1259171E+00
          2   -1    0    0  501    0  0.00000000000E+00  0.00000000000E+00  0.90633931437E+02  0.90633931437E+02  0.00000000000E+00 0. -1.
         -2   -1    0    0    0  501 -0.00000000000E+00 -0.00000000000E+00 -0.18268951388E+03  0.18268951388E+03  0.00000000000E+00 0.  1.
         23    2    1    2    0    0 -0.46157801082E+02 -0.44928265225E+02 -0.10151826884E+02  0.11053485601E+03  0.89251348380E+02 0.  0.
          5    1    1    2  502    0  0.48780129603E+02 -0.27239069260E+02 -0.35330023685E+01  0.56137531509E+02  0.41800000000E+01 0. -1.
         -5    1    1    2    0  502 -0.26223285210E+01  0.72167334484E+02 -0.78370753195E+02  0.10665105780E+03  0.41800000000E+01 0. -1.
        -11    1    3    3    0    0 -0.21887454498E+02  0.16301740541E+02 -0.31140330438E+02  0.41406854371E+02  0.00000000000E+00 0.  1.
         11    1    3    3    0    0 -0.24270346584E+02 -0.61230005766E+02  0.20988503554E+02  0.69128001641E+02  0.00000000000E+00 0. -1.
</event>
<event>
 7    1  0.6584658E-006  0.1216566E+03  0.7561462E-02  0.1240389E+00
          2   -1    0    0  501    0  0.00000000000E+00  0.00000000000E+00  0.88489537259E+03  0.88489537259E+03  0.00000000000E+00 0. -1.
         -2   -1    0    0    0  501 -0.00000000000E+00 -0.00000000000E+00 -0.20659932213E+02  0.20659932213E+02  0.00000000000E+00 0.  1.
         23    2    1    2    0    0 -0.77920128675E+02  0.19996131965E+02  0.41448269840E+03  0.43185103790E+03  0.90708433526E+02 0.  0.
          5    1    1    2  502    0  0.39811578062E+02 -0.70106953483E+02  0.19080908334E+03  0.20718476141E+03  0.41800000000E+01 0.  1.
         -5    1    1    2    0  502  0.38108550613E+02  0.50110821518E+02  0.25894365863E+03  0.26651950549E+03  0.41800000000E+01 0.  1.
        -11    1    3    3    0    0 -0.58123059196E+02  0.40612793507E+02  0.38224938377E+03  0.38877021542E+03  0.00000000000E+00 0. -1.
         11    1    3    3    0    0 -0.19797069480E+02 -0.20616661542E+02  0.32233314636E+02  0.43080822480E+02  0.00000000000E+00 0.  1.
</event>
<event>
 7    1  0.6584658E-006  0.1065088E+03  0.7561462E-02  0.1267175E+00
          3   -1    0    0  501    0  0.00000000000E+00  0.00000000000E+00  0.90554054118E+02  0.90554054118E+02  0.00000000000E+00 0. -1.
         -3   -1    0    0    0  501 -0.00000000000E+00 -0.00000000000E+00 -0.18300120545E+03  0.18300120545E+03  0.00000000000E+00 0.  1.
         23    2    1    2    0    0  0.32553744306E+02 -0.47995038794E+02  0.14880066757E+01  0.10672174871E+03  0.89577047655E+02 0.  0.
          5    1    1    2  502    0  0.47484841198E+02  0.26860462507E+02 -0.42522182865E+02  0.69295764844E+02  0.41800000000E+01 0.  1.
         -5    1    1    2    0  502 -0.80038585503E+02  0.21134576287E+02 -0.51412975139E+02  0.97537746011E+02  0.41800000000E+01 0.  1.
        -11    1    3    3    0    0  0.41647682899E+02 -0.20430443592E+02 -0.36419903002E+02  0.58977469011E+02  0.00000000000E+00 0.  1.
         11    1    3    3    0    0 -0.90939385935E+01 -0.27564595202E+02  0.37907909678E+02  0.47744279699E+02  0.00000000000E+00 0. -1.
</event>
<event>
 7    1  0.6584658E-006  0.8912381E+02  0.7561462E-02  0.1304987E+00
          1   -1    0    0  501    0  0.00000000000E+00  0.00000000000E+00  0.13398261329E+03  0.13398261329E+03  0.00000000000E+00 0. -1.
         -1   -1    0    0    0  501 -0.00000000000E+00 -0.00000000000E+00 -0.11830554140E+03  0.11830554140E+03  0.00000000000E+00 0.  1.
         23    2    1    2    0    0  0.87939689679E+01 -0.28229136456E+02  0.63319231195E+02  0.11520264365E+03  0.91586603987E+02 0.  0.
          5    1    1    2  502    0  0.42796333930E+02  0.21958529646E+01  0.20462160723E+02  0.47670959604E+02  0.41800000000E+01 0.  1.
         -5    1    1    2    0  502 -0.51590302898E+02  0.26033283491E+02 -0.68104320024E+02  0.89414551436E+02  0.41800000000E+01 0.  1.
        -11    1    3    3    0    0  0.40342403279E+02 -0.16764449965E+02  0.68492826562E+02  0.81239298221E+02  0.00000000000E+00 0. -1.
         11    1    3    3    0    0 -0.31548434311E+02 -0.11464686491E+02 -0.51735953670E+01  0.33963345431E+02  0.00000000000E+00 0.  1.
</event>
<event>
 7    1  0.6584658E-006  0.1271061E+03  0.7561462E-02  0.1231814E+00
         -4   -1    0    0    0  501 -0.00000000000E+00  0.00000000000E+00  0.43390665423E+03  0.43390665423E+03  0.00000000000E+00 0.  1.
          4   -1    0    0  501    0  0.00000000000E+00 -0.00000000000E+00 -0.41182856613E+02  0.41182856613E+02  0.00000000000E+00 0. -1.
         23    2    1    2    0    0 -0.49191200434E+02  0.59672119784E+02  0.15873630669E+03  0.19871917412E+03  0.91167752108E+02 0.  0.
          5    1    1    2  502    0  0.16522932720E+02 -0.93439189563E+02  0.18728234249E+03  0.20999056565E+03  0.41800000000E+01 0.  1.
         -5    1    1    2    0  502  0.32668267713E+02  0.33767069779E+02  0.46705148437E+02  0.66379771071E+02  0.41800000000E+01 0.  1.
        -11    1    3    3    0    0 -0.33193431799E+02 -0.14472797333E+02  0.22048050129E+02  0.42395545660E+02  0.00000000000E+00 0.  1.
         11    1    3    3    0    0 -0.15997768634E+02  0.74144917117E+02  0.13668825656E+03  0.15632362846E+03  0.00000000000E+00 0. -1.
</event>
<event>
 7    1  0.6584658E-006  0.1492817E+03  0.7561462E-02  0.1201358E+00
          1   -1    0    0  501    0  0.00000000000E+00  0.00000000000E+00  0.45389240583E+03  0.45389240583E+03  0.00000000000E+00 0. -1.
         -1   -1    0    0    0  501 -0.00000000000E+00 -0.00000000000E+00 -0.59175923382E+02  0.59175923382E+02  0.00000000000E+00 0.  1.
         23    2    1    2    0    0 -0.11706654851E+03 -0.26924126547E+02  0.14452524039E+03  0.20864733867E+03  0.90645912509E+02 0.  0.
          5    1    1    2  502    0 -0.13628972901E+02 -0.26097613988E+02  0.25890712938E+02  0.39428869812E+02  0.41800000000E+01 0. -1.
         -5    1    1    2    0  502  0.13069552141E+03  0.53021740534E+02  0.22430052911E+03  0.26499212072E+03  0.41800000000E+01 0. -1.
        -11    1    3    3    0    0 -0.76339097353E+02  0.42147800484E+01  0.13691837750E+03  0.15681857114E+03  0.00000000000E+00 0. -1.
         11    1    3    3    0    0 -0.40727451154E+02 -0.31138906595E+02  0.76068628945E+01  0.51828767538E+02  0.00000000000E+00 0.  1.
</event>
<event>
 7    1  0.6584658E-006  0.8571577E+02  0.7561462E-02  0.1313571E+00
          1   -1    0    0  501    0  0.00000000000E+00  0.00000000000E+00  0.39608801739E+03  0.39608801739E+03  0.00000000000E+00 0. -1.
         -1   -1    0    0    0  501 -0.00000000000E+00 -0.00000000000E+00 -0.45515725398E+02  0.45515725398E+02  0.00000000000E+00 0.  1.
         23    2    1    2    0    0 -0.23426357745E+02  0.54066996613E+02  0.23896617083E+03  0.26234880407E+03  0.90829674871E+02 0.  0.
          5    1    1    2  502    0  0.58654251646E+02 -0.21141526662E+02  0.11484724703E+03  0.13074650258E+03  0.41800000000E+01 0. -1.
         -5    1    1    2    0  502 -0.35227893901E+02 -0.32925469951E+02 -0.32411258626E+01  0.48508436143E+02  0.41800000000E+01 0.  1.
        -11    1    3    3    0    0 -0.10360277313E+02  0.93463966674E+01 -0.43474357613E+01  0.14614741680E+02  0.00000000000E+00 0.  1.
         11    1    3    3    0    0 -0.13066080432E+02  0.44720599946E+02  0.24331360659E+03  0.24773406239E+03  0.00000000000E+00 0. -1.
</event>
<event>
 7    1  0.6584658E-006  0.7351081E+02  0.7561462E-02  0.1348546E+00
         -1   -1    0    0    0  501 -0.00000000000E+00  0.00000000000E+00  0.82837118395E+02  0.82837118395E+02  0.00000000000E+00 0.  1.
          1   -1    0    0  501    0  0.00000000000E+00 -0.00000000000E+00 -0.16724742238E+03  0.16724742238E+03  0.00000000000E+00 0. -1.
         23    2    1    2    0    0 -0.18237212596E+02 -0.12196307716E+02 -0.89310505739E+02  0.13102778320E+03  0.93330422097E+02 0.  0.
          5    1    1    2  502    0 -0.29826244976E+02  0.19855405417E+02 -0.39181170246E+02  0.53258600390E+02  0.41800000000E+01 0. -1.
         -5    1    1    2    0  502  0.48063457572E+02 -0.76590977010E+01  0.44081372004E+02  0.65798157186E+02  0.41800000000E+01 0.  1.
        -11    1    3    3    0    0  0.20865907250E+02 -0.94304127368E+01  0.94502927499E+01  0.24771491736E+02  0.00000000000E+00 0.  1.
         11    1    3    3    0    0 -0.39103119846E+02 -0.27658949788E+01 -0.98760798489E+02  0.10625629146E+03  0.00000000000E+00 0. -1.
</event>
<event>
 7    1  0.6584658E-006  0.9795872E+02  0.7561462E-02  0.1284648E+00
          1   -1    0    0  501    0  0.00000000000E+00  0.00000000000E+00  0.28322707350E+02  0.28322707350E+02  0.00000000000E+00 0. -1.
         -1   -1    0    0    0  501 -0.00000000000E+00 -0.00000000000E+00 -0.49619996836E+03  0.49619996836E+03  0.00000000000E+00 0.  1.
         23    2    1    2    0    0 -0.24400781860E+02  0.29000618511E+02 -0.12472589987E+03  0.15732725381E+03  0.88084508648E+02 0.  0.
          5    1    1    2  502    0 -0.30206926248E+02  0.31372653116E+02 -0.17417138884E+03  0.17958242354E+03  0.41800000000E+01 0. -1.
         -5    1    1    2    0  502  0.54607708108E+02 -0.60373271627E+02 -0.16897997231E+03  0.18761299836E+03  0.41800000000E+01 0. -1.
        -11    1    3    3    0    0 -0.44100465748E+02  0.15390015152E+02 -0.21605738541E+02  0.51463691895E+02  0.00000000000E+00 0. -1.
         11    1    3    3    0    0  0.19699683887E+02  0.13610603359E+02 -0.10312016132E+03  0.10586356191E+03  0.00000000000E+00 0.  1.
</event>
<event>
 7    1  0.6584658E-006  0.1271549E+03  0.7561462E-02  0.1231739E+00
         -1   -1    0    0    0  501 -0.00000000000E+00  0.00000000000E+00  0.10065477107E+03  0.10065477107E+03  0.00000000000E+00 0.  1.
          1   -1    0    0  501    0  0.00000000000E+00 -0.00000000000E+00 -0.23262200166E+03  0.23262200166E+03  0.00000000000E+00 0. -1.
         23    2    1    2    0    0  0.51680427280E+02  0.58223027800E+02 -0.14322838268E+03  0.18550925534E+03  0.88535454371E+02 0.  0.
          5    1    1    2  502    0 -0.66179463142E+02 -0.84641717182E+02 -0.13727199027E+02  0.10839672515E+03  0.41800000000E+01 0.  1.
         -5    1    1    2    0  502  0.14499035862E+02  0.26418689382E+02  0.24988351127E+02  0.39370792240E+02  0.41800000000E+01 0.  1.
        -11    1    3    3    0    0 -0.16028711699E+02  0.44468950722E+02 -0.43875143177E+02  0.64493684698E+02  0.00000000000E+00 0. -1.
         11    1    3    3    0    0  0.67709138978E+02  0.13754077077E+02 -0.99353239507E+02  0.12101557064E+03  0.00000000000E+00 0.  1.
</event>
<event>
 6    1  0.6584658E-006  0.7958042E+02  0.7561462E-02  0.1330246E+00
          3   -1    0    0  501    0  0.00000000000E+00  0.00000000000E+00  0.38583274359E+02  0.38583274359E+02  0.00000000000E+00 0. -1.
         -3   -1    0    0    0  501 -0.00000000000E+00 -0.00000000000E+00 -0.22501111720E+03  0.22501111720E+03  0.00000000000E+00 0.  1.
          5    1    1    2  502    0 -0.45640739869E+02 -0.35039573505E+02 -0.29325691182E+02  0.64717211084E+02  0.41800000000E+01 0.  1.
         -5    1    1    2    0  502  0.61563620324E+02  0.52076401264E+01 -0.10516008873E+03  0.12203817241E+03  0.41800000000E+01 0.  1.
        -11    1    1    2    0    0  0.20973201092E+01  0.17693477550E+02 -0.52151187133E+02  0.55110835766E+02  0.00000000000E+00 0.  1.
         11    1    1    2    0    0 -0.18020200565E+02  0.12138455829E+02  0.20912421041E+00  0.21728172294E+02  0.00000000000E+00 0. -1.
</event>
<event>
 7    1  0.6584658E-006  0.8485885E+02  0.7561462E-02  0.1315802E+00
         -3   -1    0    0    0  501 -0.00000000000E+00  0.00000000000E+00  0.58613154219E+03  0.58613154219E+03  0.00000000000E+00 0.  1.
          3   -1    0    0  501    0  0.00000000000E+00 -0.00000000000E+00 -0.50030627936E+02  0.50030627936E+02  0.00000000000E+00 0. -1.
         23    2    1    2    0    0 -0.51485702516E+02 -0.25910916152E+02  0.33984191362E+02  0.11549886139E+03  0.94143021938E+02 0.  0.
          5    1    1    2  502    0  0.76972106305E+02  0.57669709615E+01  0.16783776191E+03  0.18478352152E+03  0.41800000000E+01 0. -1.
         -5    1    1    2    0  502 -0.25486403788E+02  0.20143945190E+02  0.33427896098E+03  0.33587978722E+03  0.41800000000E+01 0. -1.
        -11    1    3    3    0    0 -0.40909648790E+02 -0.12898839466E+02  0.66372636343E+02  0.79027250229E+02  0.00000000000E+00 0.  1.
         11    1    3    3    0    0 -0.10576053726E+02 -0.13012076686E+02 -0.32388444981E+02  0.36471611157E+02  0.00000000000E+00 0. -1.
</event>
<event>
 7    1  0.6584658E-006  0.1063603E+03  0.7561462E-02  0.1267462E+00
         -1   -1    0    0    0  501 -0.00000000000E+00  0.00000000000E+00  0.35913736084E+03  0.35913736084E+03  0.00000000000E+00 0.  1.
          1   -1    0    0  501    0  0.00000000000E+00 -0.00000000000E+00 -0.44317473288E+02  0.44317473288E+02  0.00000000000E+00 0. -1.
         23    2    1    2    0    0  0.30141390071E+02  0.35663378722E+02  0.69693902098E+02  0.12432426587E+03  0.91754580900E+02 0.  0.
          5    1    1    2  502    0 -0.27628912151E+02 -0.80732499553E+02  0.18551316639E+03  0.20423932181E+03  0.41800000000E+01 0.  1.
         -5    1    1    2    0  502 -0.25124779202E+01  0.45069120831E+02  0.59612819064E+02  0.74891246448E+02  0.41800000000E+01 0.  1.
        -11    1    3    3    0    0  0.48498109249E+02  0.85993800914E+01  0.76439068931E+02  0.90933751697E+02  0.00000000000E+00 0.  1.
         11    1    3    3    0    0 -0.18356719177E+02  0.27063998630E+02 -0.67451668332E+01  0.33390514168E+02  0.00000000000E+00 0. -1.
</event>
<event>
 7    1  0.6584658E-006  0.1363789E+03  0.7561462E-02  0.1218286E+00
          2   -1    0    0  501    0  0.00000000000E+00  0.00000000000E+00  0.19171822571E+03  0.19171822571E+03  0.00000000000E+00 0. -1.
         -2   -1    0    0    0  501 -0.00000000000E+00 -0.00000000000E+00 -0.10991228941E+03  0.10991228941E+03  0.00000000000E+00 0.  1.
         23    2    1    2    0    0 -0.31958604451E+02  0.90581872942E+02  0.43808047663E+02  0.13940463204E+03  0.91038883396E+02 0.  0.
          5    1    1    2  502    0  0.57410263153E+02 -0.10344813531E+03  0.51102210859E+01  0.11849490189E+03  0.41800000000E+01 0.  1.
         -5    1    1    2    0  502 -0.25451658702E+02  0.12866262371E+02  0.32887667560E+02  0.43730981187E+02  0.41800000000E+01 0.  1.
        -11    1    3    3    0    0 -0.56165818549E+02  0.38434269559E+02  0.45536647633E+02  0.81886375714E+02  0.00000000000E+00 0. -1.
         11    1    3    3    0    0  0.24207214098E+02  0.52147603382E+02 -0.17285999705E+01  0.57518256326E+02  0.00000000000E+00 0.  1.
</event>
<event>
 7    1  0.6584658E-006  0.1048700E+03  0.7561462E-02  0.1270376E+00
          1   -1    0    0  501    0  0.00000000000E+00  0.00000000000E+00  0.54917843269E+03  0.54917843269E+03  0.00000000000E+00 0. -1.
         -1   -1    0    0    0  501 -0.00000000000E+00 -0.00000000000E+00 -0.32913201967E+02  0.32913201967E+02  0.00000000000E+00 0.  1.
         23    2    1    2    0    0 -0.28207668737E+02 -0.73425863098E+02  0.24700627992E+03  0.27495058102E+03  0.91644365539E+02 0.  0.
          5    1    1    2  502    0  0.38880461699E+02  0.50721883589E+02  0.27389960230E+03  0.28128786735E+03  0.41800000000E+01 0. -1.
         -5    1    1    2    0  502 -0.10672792962E+02  0.22703979509E+02 -0.46406514966E+01  0.25853186293E+02  0.41800000000E+01 0. -1.
        -11    1    3    3    0    0 -0.32384160554E+02  0.12146064585E+02  0.60039382639E+02  0.69289163708E+02  0.00000000000E+00 0. -1.
         11    1    3    3    0    0  0.41764918168E+01 -0.85571927683E+02  0.18696689728E+03  0.20566141731E+03  0.00000000000E+00 0.  1.
</event>
<event>
 7    1  0.6584658E-006  0.1452443E+03  0.7561462E-02  0.1206442E+00
          1   -1    0    0  501    0  0.00000000000E+00  0.00000000000E+00  0.22079737798E+03  0.22079737798E+03  0.00000000000E+00 0. -1.
         -1   -1    0    0    0  501 -0.00000000000E+00 -0.00000000000E+00 -0.14957742626E+03  0.14957742626E+03  0.00000000000E+00 0.  1.
         23    2    1    2    0    0 -0.93525582004E+02  0.70794351677E+02  0.12124702176E+03  0.19174424027E+03  0.91138019900E+02 0.  0.
          5    1    1    2  502    0 -0.84786081311E+01  0.15556434471E+02 -0.40710369948E+02  0.44594798694E+02  0.41800000000E+01 0.  1.
         -5    1    1    2    0  502  0.10200419013E+03 -0.86350786147E+02 -0.93167000912E+01  0.13403576528E+03  0.41800000000E+01 0.  1.
        -11    1    3    3    0    0 -0.99476382448E+02  0.40012488976E+02  0.59823197858E+02  0.12278177772E+03  0.00000000000E+00 0.  1.
         11    1    3    3    0    0  0.59508004447E+01  0.30781862701E+02  0.61423823902E+02  0.68962462543E+02  0.00000000000E+00 0. -1.
</event>
<event>
 7    1  0.6584658E-006  0.1190740E+03  0.7561462E-02  0.1244632E+00
         -2   -1    0    0    0  501 -0.00000000000E+00  0.00000000000E+00  0.50120765070E+03  0.50120765070E+03  0.00000000000E+00 0.  1.
          2   -1    0    0  501    0  0.00000000000E+00 -0.00000000000E+00 -0.31261420104E+02  0.31261420104E+02  0.00000000000E+00 0. -1.
         23    2    1    2    0    0 -0.62772998783E+02 -0.79772771891E+01  0.16943146276E+03  0.20086424017E+03  0.87380410150E+02 0.  0.
          5    1    1    2  502    0  0.91242679932E+02  0.33508689473E+02  0.17378560806E+03  0.19916568199E+03  0.41800000000E+01 0. -1.
         -5    1    1    2    0  502 -0.28469681149E+02 -0.25531412284E+02  0.12672915978E+03  0.13243914865E+03  0.41800000000E+01 0. -1.
        -11    1    3    3    0    0 -0.65856434682E+02  0.24126536941E+02  0.14258446085E+03  0.15890087555E+03  0.00000000000E+00 0.  1.
         11    1    3    3    0    0  0.30834358990E+01 -0.32103814130E+02  0.26847001904E+02  0.41963364616E+02  0.00000000000E+00 0. -1.
</event>
<event>
 7    1  0.6584658E-006  0.1174020E+03  0.7561462E-02  0.1247445E+00
          1   -1    0    0  501    0  0.00000000000E+00  0.00000000000E+00  0.37905438231E+03  0.37905438231E+03  0.00000000000E+00 0. -1.
         -1   -1    0    0    0  501 -0.00000000000E+00 -0.00000000000E+00 -0.44161729664E+02  0.44161729664E+02  0.00000000000E+00 0.  1.
         23    2    1    2    0    0 -0.48833879928E+01 -0.66490270018E+02  0.19251311868E+03  0.22230678058E+03  0.88961791470E+02 0.  0.
          5    1    1    2  502    0 -0.57269825784E+02  0.48799714715E+02  0.91620062139E+02  0.11862947900E+03  0.41800000000E+01 0. -1.
         -5    1    1    2    0  502  0.62153213777E+02  0.17690555303E+02  0.50759471824E+02  0.82279852392E+02  0.41800000000E+01 0. -1.
        -11    1    3    3    0    0 -0.35336345197E+02 -0.25277523669E+02  0.14860199226E+03  0.15482300410E+03  0.00000000000E+00 0. -1.
         11    1    3    3    0    0  0.30452957205E+02 -0.41212746349E+02  0.43911126417E+02  0.67483776475E+02  0.00000000000E+00 0.  1.
</event>
<event>
 7    1  0.6584658E-006  0.2312444E+03  0.7561462E-02  0.1125767E+00
          1   -1    0    0  501    0  0.00000000000E+00  0.00000000000E+00  0.10746836701E+03  0.10746836701E+03  0.00000000000E+00 0. -1.
         -1   -1    0    0    0  501 -0.00000000000E+00 -0.00000000000E+00 -0.50227210661E+03  0.50227210661E+03  0.00000000000E+00 0.  1.
         23    2    1    2    0    0 -0.19384258774E+03 -0.64015653200E+02 -0.16672651674E+03  0.27907506981E+03  0.91718103616E+02 0.  0.
          5    1    1    2  502    0  0.31452449243E+02  0.69273261523E+02 -0.84766702696E+02  0.11397766277E+03  0.41800000000E+01 0.  1.
         -5    1    1    2    0  502  0.16239013849E+03 -0.52576083238E+01 -0.14331052017E+03  0.21668774104E+03  0.41800000000E+01 0.  1.
        -11    1    3    3    0    0 -0.84570430633E+02 -0.76175142069E+02 -0.82470906393E+02  0.14055696499E+03  0.00000000000E+00 0. -1.
         11    1    3    3    0    0 -0.10927215710E+03  0.12159488869E+02 -0.84255610342E+02  0.13851810482E+03  0.00000000000E+00 0.  1.
</event>
<event>
 7    1  0.6584658E-006  0.1191380E+03  0.7561462E-02  0.1244526E+00
         -1   -1    0    0    0  501 -0.00000000000E+00  0.00000000000E+00  0.34469638329E+02  0.34469638329E+02  0.00000000000E+00 0.  1.
          1   -1    0    0  501    0  0.00000000000E+00 -0.00000000000E+00 -0.49394665411E+03  0.49394665411E+03  0.00000000000E+00 0. -1.
         23    2    1    2    0    0  0.52415190701E+02  0.47822757337E+02 -0.22861221016E+03  0.25642823167E+03  0.91964814074E+02 0.  0.
          5    1    1    2  502    0 -0.82712658365E+02 -0.26188922383E+02 -0.85527637746E+02  0.12190033933E+03  0.41800000000E+01 0. -1.
         -5    1    1    2    0  502  0.30297467664E+02 -0.21633834954E+02 -0.14533716788E+03  0.15008772144E+03  0.41800000000E+01 0. -1.
        -11    1    3    3    0    0  0.48108749179E+02 -0.15454147596E+02 -0.77168827067E+02  0.92240502472E+02  0.00000000000E+00 0.  1.
         11    1    3    3    0    0  0.43064415224E+01  0.63276904933E+02 -0.15144338309E+03  0.16418772919E+03  0.00000000000E+00 0. -1.
</event>
<event>
 7    1  0.6584658E-006  0.2387640E+03  0.7561462E-02  0.1120619E+00
         -1   -1    0    0    0  501 -0.00000000000E+00  0.00000000000E+00  0.27330292446E+02  0.27330292446E+02  0.00000000000E+00 0.  1.
          1   -1    0    0  501    0  0.00000000000E+00 -0.00000000000E+00 -0.22161017926E+04  0.22161017926E+04  0.00000000000E+00 0. -1.
         23    2    1    2    0    0 -0.10496085375E+03 -0.19411461446E+03 -0.10546072429E+04  0.10812471972E+04  0.90563792313E+02 0.  0.
          5    1    1    2  502    0  0.44567934952E+02 -0.51287763556E+01 -0.17879361220E+03  0.18438338682E+03  0.41800000000E+01 0.  1.
         -5    1    1    2    0  502  0.60392918796E+02  0.19924339081E+03 -0.95537064514E+03  0.97780150103E+03  0.41800000000E+01 0.  1.
        -11    1    3    3    0    0 -0.52385642758E+02 -0.13665360163E+03 -0.84619881011E+03  0.85876125240E+03  0.00000000000E+00 0.  1.
         11    1    3    3    0    0 -0.52575210990E+02 -0.57461012829E+02 -0.20840843275E+03  0.22248594483E+03  0.00000000000E+00 0. -1.
</event>
<event>
 7    1  0.6584658E-006  0.6930480E+02  0.7561462E-02  0.1362473E+00
         -1   -1    0    0    0  501 -0.00000000000E+00  0.00000000000E+00  0.50001447451E+02  0.50001447451E+02  0.00000000000E+00 0.  1.
          1   -1    0    0  501    0  0.00000000000E+00 -0.00000000000E+00 -0.29986737692E+03  0.29986737692E+03  0.00000000000E+00 0. -1.
         23    2    1    2    0    0 -0.30131112761E+02  0.45598787893E+02 -0.15112091196E+03  0.18138967492E+03  0.84128180322E+02 0.  0.
          5    1    1    2  502    0  0.20422095043E+02 -0.18376932405E+02 -0.12570188897E+03  0.12873698343E+03  0.41800000000E+01 0. -1.
         -5    1    1    2    0  502  0.97090177180E+01 -0.27221855488E+02  0.26956871459E+02  0.39742166022E+02  0.41800000000E+01 0. -1.
        -11    1    3    3    0    0 -0.15496116184E+02 -0.13611918469E+02 -0.99106198607E+02  0.10122970188E+03  0.00000000000E+00 0. -1.
         11    1    3    3    0    0 -0.14634996577E+02  0.59210706362E+02 -0.52014713351E+02  0.80159973039E+02  0.00000000000E+00 0.  1.
</event>
<event>
 7    1  0.6584658E-006  0.1059244E+03  0.7561462E-02  0.1268309E+00
         -1   -1    0    0    0  501 -0.00000000000E+00  0.00000000000E+00  0.19718974879E+02  0.19718974879E+02  0.00000000000E+00 0.  1.
          1   -1    0    0  501    0  0.00000000000E+00 -0.00000000000E+00 -0.65834982259E+03  0.65834982259E+03  0.00000000000E+00 0. -1.
         23    2    1    2    0    0 -0.71761022365E+01  0.34303606720E+02 -0.25871490296E+03  0.27656008055E+03  0.91235098876E+02 0.  0.
          5    1    1    2  502    0  0.62267305584E+02 -0.49723869324E+00 -0.14574895176E+03  0.15854871154E+03  0.41800000000E+01 0.  1.
         -5    1    1    2    0  502 -0.55091203347E+02 -0.33806368027E+02 -0.23416699299E+03  0.24296000537E+03  0.41800000000E+01 0.  1.
        -11    1    3    3    0    0  0.70652605775E+01 -0.23809109116E+02 -0.24736048780E+02  0.35052299399E+02  0.00000000000E+00 0.  1.
         11    1    3    3    0    0 -0.14241362814E+02  0.58112715836E+02 -0.23397885418E+03  0.24150778115E+03  0.00000000000E+00 0. -1.
</event>
<event>
 7    1  0.6584658E-006  0.1321416E+03  0.7561462E-02  0.1224312E+00
          2   -1    0    0  501    0  0.00000000000E+00  0.00000000000E+00  0.16942425571E+02  0.16942425571E+02  0.00000000000E+00 0.  1.
         -2   -1    0    0    0  501 -0.00000000000E+00 -0.00000000000E+00 -0.11261647096E+04  0.11261647096E+04  0.00000000000E+00 0. -1.
         23    2    1    2    0    0  0.87305300732E+02 -0.11923789648E+02 -0.56821383813E+03  0.58087825221E+03  0.82390446977E+02 0.  0.
          5    1    1    2  502    0 -0.10207425280E+03 -0.27041700171E+02 -0.44686097801E+03  0.45918690389E+03  0.41800000000E+01 0. -1.
         -5    1    1    2    0  502  0.14768952066E+02  0.38965489819E+02 -0.94147467905E+02  0.10304197909E+03  0.41800000000E+01 0. -1.
        -11    1    3    3    0    0  0.46289504195E+02 -0.44603737246E+02 -0.38406626867E+03  0.38940866747E+03  0.00000000000E+00 0.  1.
         11    1    3    3    0    0  0.41015796537E+02  0.32679947598E+02 -0.18414756947E+03  0.19146958474E+03  0.00000000000E+00 0. -1.
</event>
<event>
 7    1  0.6584658E-006  0.1208662E+03  0.7561462E-02  0.1241675E+00
          2   -1    0    0  501    0  0.00000000000E+00  0.00000000000E+00  0.10191281027E+04  0.10191281027E+04  0.00000000000E+00 0. -1.
         -2   -1    0    0    0  501 -0.00000000000E+00 -0.00000000000E+00 -0.15078397160E+02  0.15078397160E+02  0.00000000000E+00 0.  1.
         23    2    1    2    0    0  0.34347564522E+02  0.51649456797E+02  0.51309128619E+03  0.52378062735E+03  0.85065010698E+02 0.  0.
          5    1    1    2  502    0  0.35069229195E+02  0.18883076988E+02  0.16213863030E+03  0.16701146448E+03  0.41800000000E+01 0. -1.
         -5    1    1    2    0  502 -0.69416793717E+02 -0.70532533785E+02  0.32881978904E+03  0.34341440802E+03  0.41800000000E+01 0. -1.
        -11    1    3    3    0    0  0.45568415984E+02  0.68569837199E+02  0.45103286222E+03  0.45848549149E+03  0.00000000000E+00 0.  1.
         11    1    3    3    0    0 -0.11220851462E+02 -0.16920380402E+02  0.62058423971E+02  0.65295135855E+02  0.00000000000E+00 0. -1.
</event>
<event>
 7    1  0.6584658E-006  0.9115946E+02  0.7561462E-02  0.1300068E+00
          1   -1    0    0  501    0  0.00000000000E+00  0.00000000000E+00  0.12639022421E+03  0.12639022421E+03  0.00000000000E+00 0. -1.
         -1   -1    0    0    0  501 -0.00000000000E+00 -0.00000000000E+00 -0.10543021227E+03  0.10543021227E+03  0.00000000000E+00 0.  1.
         23    2    1    2    0    0 -0.17213141378E+02  0.41583060310E+02  0.24438543186E+02  0.10516762915E+03  0.91856108601E+02 0.  0.
          5    1    1    2  502    0  0.61957251918E+02 -0.14152875746E+02  0.23005309262E+02  0.67717956343E+02  0.41800000000E+01 0. -1.
         -5    1    1    2    0  502 -0.44744110539E+02 -0.27430184564E+02 -0.26483840502E+02  0.58934850987E+02  0.41800000000E+01 0.  1.
        -11    1    3    3    0    0 -0.20131881854E+02 -0.38128268505E+01 -0.28670755435E+02  0.35239786220E+02  0.00000000000E+00 0.  1.
         11    1    3    3    0    0  0.29187404761E+01  0.45395887160E+02  0.53109298621E+02  0.69927842931E+02  0.00000000000E+00 0. -1.
</event>
<event>
 7    1  0.6584658E-006  0.1168458E+03  0.7561462E-02  0.1248393E+00
         -1   -1    0    0    0  501 -0.00000000000E+00  0.00000000000E+00  0.10312999856E+03  0.10312999856E+03  0.00000000000E+00 0.  1.
          1   -1    0    0  501    0  0.00000000000E+00 -0.00000000000E+00 -0.17519097797E+03  0.17519097797E+03  0.00000000000E+00 0. -1.
         23    2    1    2    0    0 -0.51677998815E+02 -0.54608869585E+02 -0.61469678811E+02  0.13199117664E+03  0.89389065878E+02 0.  0.
          5    1    1    2  502    0 -0.23417264056E+02 -0.36776776943E+01 -0.40045228496E+02  0.46722438875E+02  0.41800000000E+01 0.  1.
         -5    1    1    2    0  502  0.75095262872E+02  0.58286547279E+02  0.29453927907E+02  0.99607361016E+02  0.41800000000E+01 0.  1.
        -11    1    3    3    0    0  0.50959665606E+01 -0.57400182608E+02 -0.44067639708E+02  0.72544515355E+02  0.00000000000E+00 0.  1.
         11    1    3    3    0    0 -0.56773965376E+02  0.27913130230E+01 -0.17402039103E+02  0.59446661284E+02  0.00000000000E+00 0. -1.
</event>
<event>
 7    1  0.6584658E-006  0.1496892E+03  0.7561462E-02  0.1200855E+00
         -2   -1    0    0    0  501 -0.00000000000E+00  0.00000000000E+00  0.73279813415E+02  0.73279813415E+02  0.00000000000E+00 0. -1.
          2   -1    0    0  501    0  0.00000000000E+00 -0.00000000000E+00 -0.60184941281E+03  0.60184941281E+03  0.00000000000E+00 0.  1.
         23    2    1    2    0    0 -0.12916932434E+03 -0.70040439224E+02 -0.41881359480E+03  0.45314097691E+03  0.91332033166E+02 0.  0.
          5    1    1    2  502    0  0.59435120661E+02  0.33686090139E+02 -0.12430492065E+03  0.14190303709E+03  0.41800000000E+01 0.  1.
         -5    1    1    2    0  502  0.69734203675E+02  0.36354349085E+02  0.14548916060E+02  0.80085212231E+02  0.41800000000E+01 0.  1.
        -11    1    3    3    0    0 -0.97500082373E+02 -0.31856255591E+02 -0.16319369130E+03  0.19275182999E+03  0.00000000000E+00 0. -1.
         11    1    3    3    0    0 -0.31669241963E+02 -0.38184183634E+02 -0.25561990350E+03  0.26038914692E+03  0.00000000000E+00 0.  1.
</event>
<event>
 7    1  0.6584658E-006  0.8387181E+02  0.7561462E-02  0.1318410E+00
          1   -1    0    0  501    0  0.00000000000E+00  0.00000000000E+00  0.12599798281E+03  0.12599798281E+03  0.00000000000E+00 0. -1.
         -1   -1    0    0    0  501 -0.00000000000E+00 -0.00000000000E+00 -0.13092590998E+03  0.13092590998E+03  0.00000000000E+00 0.  1.
         23    2    1    2    0    0  0.32834230024E+02  0.60596771873E+02  0.57017813547E+01  0.11371306388E+03  0.90266799901E+02 0.  0.
          5    1    1    2  502    0 -0.15485846938E+02 -0.43782713107E+02  0.55614181706E+02  0.72575113015E+02  0.41800000000E+01 0.  1.
         -5    1    1    2    0  502 -0.17348383087E+02 -0.16814058766E+02 -0.66243890230E+02  0.70635715900E+02  0.41800000000E+01 0.  1.
        -11    1    3    3    0    0  0.18434731130E+02  0.74400099522E+02 -0.21845622399E+02  0.79702229195E+02  0.00000000000E+00 0.  1.
         11    1    3    3    0    0  0.14399498895E+02 -0.13803327649E+02  0.27547403754E+02  0.34010834688E+02  0.00000000000E+00 0. -1.
</event>
<event>
 7    1  0.6584658E-006  0.1442814E+03  0.7561462E-02  0.1207681E+00
         -2   -1    0    0    0  501 -0.00000000000E+00  0.00000000000E+00  0.21039610001E+03  0.21039610001E+03  0.00000000000E+00 0. -1.
          2   -1    0    0  501    0  0.00000000000E+00 -0.00000000000E+00 -0.11909858372E+03  0.11909858372E+03  0.00000000000E+00 0.  1.
         23    2    1    2    0    0 -0.86798190225E+02 -0.69848927113E+02  0.14615014973E+02  0.14527431222E+03  0.92077297330E+02 0.  0.
          5    1    1    2  502    0 -0.25848493079E+02  0.49506291554E+01 -0.93843630452E+01  0.28252291823E+02  0.41800000000E+01 0. -1.
         -5    1    1    2    0  502  0.11264668330E+03  0.64898297958E+02  0.86066864363E+02  0.15596807968E+03  0.41800000000E+01 0. -1.
        -11    1    3    3    0    0 -0.78139550924E+02 -0.84332705976E+02 -0.10030478091E+02  0.11540539505E+03  0.00000000000E+00 0.  1.
         11    1    3    3    0    0 -0.86586393008E+01  0.14483778862E+02  0.24645493064E+02  0.29868917172E+02  0.00000000000E+00 0. -1.
</event>
<event>
 7    1  0.6584658E-006  0.6751890E+02  0.7561462E-02  0.1368739E+00
         -1   -1    0    0    0  501 -0.00000000000E+00  0.00000000000E+00  0.85390084001E+02  0.85390084001E+02  0.00000000000E+00 0.  1.
          1   -1    0    0  501    0  0.00000000000E+00 -0.00000000000E+00 -0.13971858521E+03  0.13971858521E+03  0.00000000000E+00 0. -1.
         23    2    1    2    0    0 -0.55111638122E+01 -0.25620855477E+02 -0.60581792765E+02  0.11061145746E+03  0.88757758792E+02 0.  0.
          5    1    1    2  502    0  0.48576502459E+02  0.28765657895E+02  0.31012130301E+02  0.64547380203E+02  0.41800000000E+01 0. -1.
         -5    1    1    2    0  502 -0.43065338647E+02 -0.31448024182E+01 -0.24758838742E+02  0.49949831540E+02  0.41800000000E+01 0.  1.
        -11    1    3    3    0    0  0.90246687759E+01 -0.12819314467E+02  0.21312615306E+02  0.26457646174E+02  0.00000000000E+00 0.  1.
         11    1    3    3    0    0 -0.14535832588E+02 -0.12801541010E+02 -0.81894408071E+02  0.84153811289E+02  0.00000000000E+00 0. -1.
</event>
<event>
 7    1  0.6584658E-006  0.1275700E+03  0.7561462E-02  0.1231107E+00
         -1   -1    0    0    0  501 -0.00000000000E+00  0.00000000000E+00  0.30467190796E+02  0.30467190796E+02  0.00000000000E+00 0.  1.
          1   -1    0    0  501    0  0.00000000000E+00 -0.00000000000E+00 -0.63578994212E+03  0.63578994212E+03  0.00000000000E+00 0. -1.
         23    2    1    2    0    0 -0.39667829544E+02  0.76822951448E+02 -0.26023078189E+03  0.28914959589E+03  0.91717644918E+02 0.  0.
          5    1    1    2  502    0  0.64148188752E+02 -0.15253370919E+02 -0.79631751731E+02  0.10347146335E+03  0.41800000000E+01 0.  1.
         -5    1    1    2    0  502 -0.24480359209E+02 -0.61569580529E+02 -0.26546021770E+03  0.27363607367E+03  0.41800000000E+01 0.  1.
        -11    1    3    3    0    0 -0.52663671827E+02  0.87580612105E+01 -0.81219660732E+02  0.97194646230E+02  0.00000000000E+00 0.  1.
         11    1    3    3    0    0  0.12995842283E+02  0.68064890237E+02 -0.17901112116E+03  0.19195494966E+03  0.00000000000E+00 0. -1.
</event>
<event>
 7    1  0.6584658E-006  0.9946506E+02  0.7561462E-02  0.1281425E+00
          2   -1    0    0  501    0  0.00000000000E+00  0.00000000000E+00  0.62905249200E+02  0.62905249200E+02  0.00000000000E+00 0. -1.
         -2   -1    0    0    0  501 -0.00000000000E+00 -0.00000000000E+00 -0.19170608930E+03  0.19170608930E+03  0.00000000000E+00 0.  1.
         23    2    1    2    0    0 -0.28835935459E+01 -0.15777987421E+02 -0.40636455726E+02  0.10073627523E+03  0.90770125118E+02 0.  0.
          5    1    1    2  502    0  0.40968209450E+02  0.56419909081E+02 -0.55111157832E+02  0.88973661518E+02  0.41800000000E+01 0. -1.
         -5    1    1    2    0  502 -0.38084615904E+02 -0.40641921660E+02 -0.33053226541E+02  0.64901401753E+02  0.41800000000E+01 0. -1.
        -11    1    3    3    0    0  0.44219157700E+01 -0.43924519936E+02  0.72246031014E+01  0.44733786791E+02  0.00000000000E+00 0. -1.
         11    1    3    3    0    0 -0.73055093159E+01  0.28146532515E+02 -0.47861058827E+02  0.56002488436E+02  0.00000000000E+00 0.  1.
</event>
<event>
 7    1  0.6584658E-006  0.6385220E+02  0.7561462E-02  0.1382342E+00
         -2   -1    0    0    0  501 -0.00000000000E+00  0.00000000000E+00  0.26564977547E+03  0.26564977547E+03  0.00000000000E+00 0.  1.
          2   -1    0    0  501    0  0.00000000000E+00 -0.00000000000E+00 -0.53290616841E+02  0.53290616841E+02  0.00000000000E+00 0. -1.
         23    2    1    2    0    0 -0.61339267233E+01  0.13510867167E+02  0.26854185615E+02  0.94709405402E+02  0.89602207551E+02 0.  0.
          5    1    1    2  502    0 -0.31060482176E+02  0.33847634908E+01  0.18006912830E+03  0.18280747672E+03  0.41800000000E+01 0.  1.
         -5    1    1    2    0  502  0.37194408899E+02 -0.16895630658E+02  0.54358447128E+01  0.41423510190E+02  0.41800000000E+01 0.  1.
        -11    1    3    3    0    0 -0.29339909352E+02  0.12490493522E+02 -0.23262518099E+02  0.39471349831E+02  0.00000000000E+00 0. -1.
         11    1    3    3    0    0  0.23205982629E+02  0.10203736451E+01  0.50116703713E+02  0.55238055571E+02  0.00000000000E+00 0.  1.
</event>
<event>
 7    1  0.6584658E-006  0.1087797E+03  0.7561462E-02  0.1262847E+00
         -2   -1    0    0    0  501 -0.00000000000E+00  0.00000000000E+00  0.20149228796E+02  0.20149228796E+02  0.00000000000E+00 0.  1.
          2   -1    0    0  501    0  0.00000000000E+00 -0.00000000000E+00 -0.65040825056E+03  0.65040825056E+03  0.00000000000E+00 0. -1.
         23    2    1    2    0    0 -0.51990676785E+01  0.17438075886E+02 -0.32890815121E+03  0.34226798863E+03  0.92928398826E+02 0.  0.
          5    1    1    2  502    0 -0.48295165670E+02  0.24970520475E+02 -0.18946510566E+03  0.19715589918E+03  0.41800000000E+01 0. -1.
         -5    1    1    2    0  502  0.53494233348E+02 -0.42408596361E+02 -0.11188576490E+03  0.13113359155E+03  0.41800000000E+01 0.  1.
        -11    1    3    3    0    0  0.43215809739E+02  0.16364732773E+02 -0.16648685260E+03  0.17278102552E+03  0.00000000000E+00 0.  1.
         11    1    3    3    0    0 -0.48414877417E+02  0.10733431126E+01 -0.16242129861E+03  0.16948696311E+03  0.00000000000E+00 0. -1.
</event>
<event>
 7    1  0.6584658E-006  0.9067798E+02  0.7561462E-02  0.1301218E+00
         -2   -1    0    0    0  501 -0.00000000000E+00  0.00000000000E+00  0.89931227499E+02  0.89931227499E+02  0.00000000000E+00 0. -1.
          2   -1    0    0  501    0  0.00000000000E+00 -0.00000000000E+00 -0.19800822546E+03  0.19800822546E+03  0.00000000000E+00 0.  1.
         23    2    1    2    0    0 -0.13595998904E+02  0.19755354388E+02 -0.12639880389E+03  0.15926287365E+03  0.93876941171E+02 0.  0.
          5    1    1    2  502    0  0.20701733173E+02  0.31173969345E+02  0.54084519023E+02  0.65901333211E+02  0.41800000000E+01 0.  1.
         -5    1    1    2    0  502 -0.71057342688E+01 -0.50929323733E+02 -0.35762713091E+02  0.62775246101E+02  0.41800000000E+01 0.  1.
        -11    1    3    3    0    0 -0.44879343140E+02  0.35373497988E+02 -0.10100459025E+03  0.11604898557E+03  0.00000000000E+00 0.  1.
         11    1    3    3    0    0  0.31283344236E+02 -0.15618143600E+02 -0.25394213645E+02  0.43213888077E+02  0.00000000000E+00 0. -1.
</event>
<event>
 7    1  0.6584658E-006  0.1255824E+03  0.7561462E-02  0.1234162E+00
          1   -1    0    0  501    0  0.00000000000E+00  0.00000000000E+00  0.13022820264E+03  0.13022820264E+03  0.00000000000E+00 0. -1.
         -1   -1    0    0    0  501 -0.00000000000E+00 -0.00000000000E+00 -0.16943005580E+03  0.16943005580E+03  0.00000000000E+00 0.  1.
         23    2    1    2    0    0  0.77516437879E+02  0.70449634606E+02 -0.33710837224E+02  0.14429578914E+03  0.93342943273E+02 0.  0.
          5    1    1    2  502    0 -0.63528007258E+02 -0.28006072174E+02  0.48766618296E+02  0.84945884213E+02  0.41800000000E+01 0. -1.
         -5    1    1    2    0  502 -0.13988430622E+02 -0.42443562432E+02 -0.54257634235E+02  0.70416585091E+02  0.41800000000E+01 0.  1.
        -11    1    3    3    0    0  0.91833887298E+02  0.78047277366E+02 -0.39890644012E+02  0.12694921756E+03  0.00000000000E+00 0.  1.
         11    1    3    3    0    0 -0.14317449419E+02 -0.75976427606E+01  0.61798067883E+01  0.17346571573E+02  0.00000000000E+00 0. -1.
</event>
<event>
 7    1  0.6584658E-006  0.7851290E+02  0.7561462E-02  0.1333325E+00
          1   -1    0    0  501    0  0.00000000000E+00  0.00000000000E+00  0.42873213489E+02  0.42873213489E+02  0.00000000000E+00 0. -1.
         -1   -1    0    0    0  501 -0.00000000000E+00 -0.00000000000E+00 -0.29639999353E+03  0.29639999353E+03  0.00000000000E+00 0.  1.
         23    2    1    2    0    0 -0.30461730313E+02  0.26010706518E+02 -0.72037203657E+02  0.12238032925E+03  0.90460557207E+02 0.  0.
          5    1    1    2  502    0  0.48271191659E+02 -0.60546424379E+02 -0.10025187932E+03  0.12674339887E+03  0.41800000000E+01 0. -1.
         -5    1    1    2    0  502 -0.17809461346E+02  0.34535717861E+02 -0.81237697063E+02  0.90149478899E+02  0.41800000000E+01 0.  1.
        -11    1    3    3    0    0 -0.12696118684E+02  0.75221326343E+01  0.21116631512E+02  0.25762104639E+02  0.00000000000E+00 0. -1.
         11    1    3    3    0    0 -0.17765611629E+02  0.18488573884E+02 -0.93153835170E+02  0.96618224614E+02  0.00000000000E+00 0.  1.
</event>
<event>
 7    1  0.6584658E-006  0.1293592E+03  0.7561462E-02  0.1228410E+00
          1   -1    0    0  501    0  0.00000000000E+00  0.00000000000E+00  0.17100492317E+03  0.17100492317E+03  0.00000000000E+00 0. -1.
         -1   -1    0    0    0  501 -0.00000000000E+00 -0.00000000000E+00 -0.11498840987E+03  0.11498840987E+03  0.00000000000E+00 0.  1.
         23    2    1    2    0    0 -0.74308678762E+02  0.46568707584E+02  0.51521487607E+02  0.13315820242E+03  0.85943114454E+02 0.  0.
          5    1    1    2  502    0  0.50967146487E+02 -0.86011660814E+02 -0.17898783805E+02  0.10165379815E+03  0.41800000000E+01 0. -1.
         -5    1    1    2    0  502  0.23341532275E+02  0.39442953230E+02  0.22393809507E+02  0.51181332463E+02  0.41800000000E+01 0. -1.
        -11    1    3    3    0    0 -0.79358844626E+02  0.59212892264E+02  0.61246362200E+02  0.11642641330E+03  0.00000000000E+00 0. -1.
         11    1    3    3    0    0  0.50501658637E+01 -0.12644184680E+02 -0.97248745937E+01  0.16731789126E+02  0.00000000000E+00 0.  1.
</event>
<event>
 7    1  0.6584658E-006  0.8735923E+02  0.7561462E-02  0.1309376E+00
         -1   -1    0    0    0  501 -0.00000000000E+00  0.00000000000E+00  0.25279839790E+02  0.25279839790E+02  0.00000000000E+00 0.  1.
          1   -1    0    0  501    0  0.00000000000E+00 -0.00000000000E+00 -0.60643012003E+03  0.60643012003E+03  0.00000000000E+00 0. -1.
         23    2    1    2    0    0  0.21856932664E+02 -0.52711341015E+02 -0.27128230918E+03  0.29270925254E+03  0.93959588506E+02 0.  0.
          5    1    1    2  502    0  0.27594321571E+02  0.13072453715E+02 -0.98819270797E+01  0.32364494619E+02  0.41800000000E+01 0.  1.
         -5    1    1    2    0  502 -0.49451254235E+02  0.39638887299E+02 -0.29998604399E+03  0.30663621267E+03  0.41800000000E+01 0.  1.
        -11    1    3    3    0    0 -0.19101810004E+02 -0.11578551734E+02 -0.90028597461E+01  0.24083053986E+02  0.00000000000E+00 0.  1.
         11    1    3    3    0    0  0.40958742668E+02 -0.41132789280E+02 -0.26227944943E+03  0.26862619855E+03  0.00000000000E+00 0. -1.
</event>
<event>
 7    1  0.6584658E-006  0.1051425E+03  0.7561462E-02  0.1269839E+00
          3   -1    0    0  501    0  0.00000000000E+00  0.00000000000E+00  0.72775036636E+03  0.72775036636E+03  0.00000000000E+00 0. -1.
         -3   -1    0    0    0  501 -0.00000000000E+00 -0.00000000000E+00 -0.24573999369E+02  0.24573999369E+02  0.00000000000E+00 0.  1.
         23    2    1    2    0    0  0.79695544118E+02  0.92952286418E+01  0.32456528998E+03  0.34559679865E+03  0.87502792790E+02 0.  0.
          5    1    1    2  502    0 -0.66990975085E+02 -0.50983463159E+02  0.33301030900E+03  0.34351192492E+03  0.41800000000E+01 0.  1.
         -5    1    1    2    0  502 -0.12704569033E+02  0.41688234518E+02  0.45600768003E+02  0.63215642162E+02  0.41800000000E+01 0.  1.
        -11    1    3    3    0    0  0.60127885819E+02 -0.93395303098E+00  0.31638639383E+03  0.32205059404E+03  0.00000000000E+00 0. -1.
         11    1    3    3    0    0  0.19567658299E+02  0.10229181673E+02  0.81788961496E+01  0.23546204604E+02  0.00000000000E+00 0.  1.
</event>
<event>
 7    1  0.6584658E-006  0.1405331E+03  0.7561462E-02  0.1212613E+00
         -1   -1    0    0    0  501 -0.00000000000E+00  0.00000000000E+00  0.10903258314E+03  0.10903258314E+03  0.00000000000E+00 0.  1.
          1   -1    0    0  501    0  0.00000000000E+00 -0.00000000000E+00 -0.20042440797E+03  0.20042440797E+03  0.00000000000E+00 0. -1.
         23    2    1    2    0    0  0.48662212515E+02  0.79687869595E+02 -0.81196802093E+02  0.15324797159E+03  0.90409361457E+02 0.  0.
          5    1    1    2  502    0 -0.48220836879E+02  0.21879357496E+02  0.52992760753E+01  0.53380802922E+02  0.41800000000E+01 0.  1.
         -5    1    1    2    0  502 -0.44137563656E+00 -0.10156722709E+03 -0.15494298811E+02  0.10282821659E+03  0.41800000000E+01 0.  1.
        -11    1    3    3    0    0  0.72632724066E+02  0.50195542003E+02 -0.72543781665E+02  0.11427031680E+03  0.00000000000E+00 0. -1.
         11    1    3    3    0    0 -0.23970511551E+02  0.29492327592E+02 -0.86530204276E+01  0.38977654795E+02  0.00000000000E+00 0.  1.
</event>
<event>
 7    1  0.6584658E-006  0.1124076E+03  0.7561462E-02  0.1256175E+00
         -1   -1    0    0    0  501 -0.00000000000E+00  0.00000000000E+00  0.95722431907E+02  0.95722431907E+02  0.00000000000E+00 0.  1.
          1   -1    0    0  501    0  0.00000000000E+00 -0.00000000000E+00 -0.14438509933E+03  0.14438509933E+03  0.00000000000E+00 0. -1.
         23    2    1    2    0    0 -0.18045629400E+02  0.33515450512E+02 -0.24022703557E+02  0.10705355628E+03  0.97131063327E+02 0.  0.
          5    1    1    2  502    0  0.68012818555E+02 -0.71217466054E+01 -0.32530640383E+02  0.75843112582E+02  0.41800000000E+01 0. -1.
         -5    1    1    2    0  502 -0.49967189154E+02 -0.26393703907E+02  0.78906765151E+01  0.57210862375E+02  0.41800000000E+01 0. -1.
        -11    1    3    3    0    0 -0.62591913569E+01  0.65372462018E+02 -0.30607340612E+02  0.72453747771E+02  0.00000000000E+00 0. -1.
         11    1    3    3    0    0 -0.11786438044E+02 -0.31857011506E+02  0.65846370550E+01  0.34599808511E+02  0.00000000000E+00 0.  1.
</event>
<event>
 7    1  0.6584658E-006  0.7936631E+02  0.7561462E-02  0.1330859E+00
          2   -1    0    0  501    0  0.00000000000E+00  0.00000000000E+00  0.45319030445E+03  0.45319030445E+03  0.00000000000E+00 0. -1.
         -2   -1    0    0    0  501 -0.00000000000E+00 -0.00000000000E+00 -0.26959910775E+02  0.26959910775E+02  0.00000000000E+00 0.  1.
         23    2    1    2    0    0 -0.32496689042E+02  0.14738413969E+02  0.17528372539E+03  0.19749475496E+03  0.83705066772E+02 0.  0.
          5    1    1    2  502    0  0.18631025606E+02  0.24883441125E+02  0.23573294654E+03  0.23781041870E+03  0.41800000000E+01 0. -1.
         -5    1    1    2    0  502  0.13865663436E+02 -0.39621855093E+02  0.15213721735E+02  0.44845041561E+02  0.41800000000E+01 0. -1.
        -11    1    3    3    0    0 -0.55056945400E+02 -0.48959123154E+01  0.77166127972E+02  0.94920221767E+02  0.00000000000E+00 0.  1.
         11    1    3    3    0    0  0.22560256359E+02  0.19634326284E+02  0.98117597421E+02  0.10257453319E+03  0.00000000000E+00 0. -1.
</event>
<event>
 7    1  0.6584658E-006  0.8343163E+02  0.7561462E-02  0.1319586E+00
         -1   -1    0    0    0  501 -0.00000000000E+00  0.00000000000E+00  0.35299084748E+03  0.35299084748E+03  0.00000000000E+00 0.  1.
          1   -1    0    0  501    0  0.00000000000E+00 -0.00000000000E+00 -0.34307250190E+02  0.34307250190E+02  0.00000000000E+00 0. -1.
         23    2    1    2    0    0 -0.24294295576E+02 -0.64626084084E+01  0.88510896145E+02  0.12412696133E+03  0.83314738721E+02 0.  0.
          5    1    1    2  502    0  0.94716320807E+01  0.58702630751E+02  0.17813743252E+03  0.18784602188E+03  0.41800000000E+01 0. -1.
         -5    1    1    2    0  502  0.14822663495E+02 -0.52240022342E+02  0.52035268627E+02  0.75325114460E+02  0.41800000000E+01 0. -1.
        -11    1    3    3    0    0 -0.19087035889E+01  0.18881104325E+02 -0.89388671009E+01  0.20977192256E+02  0.00000000000E+00 0. -1.
         11    1    3    3    0    0 -0.22385591987E+02 -0.25343712733E+02  0.97449763246E+02  0.10314976908E+03  0.00000000000E+00 0.  1.
</event>
<event>
 7    1  0.6584658E-006  0.1247109E+03  0.7561462E-02  0.1235522E+00
          2   -1    0    0  501    0  0.00000000000E+00  0.00000000000E+00  0.10081438543E+04  0.10081438543E+04  0.00000000000E+00 0. -1.
         -2   -1    0    0    0  501 -0.00000000000E+00 -0.00000000000E+00 -0.20513598871E+02  0.20513598871E+02  0.00000000000E+00 0.  1.
         23    2    1    2    0    0  0.79032311873E+02 -0.40961481187E+02  0.56028226494E+03  0.57456406175E+03  0.91014808626E+02 0.  0.
          5    1    1    2  502    0 -0.85078065190E+02  0.70884016426E+02  0.39121276886E+03  0.40660512034E+03  0.41800000000E+01 0.  1.
         -5    1    1    2    0  502  0.60457533172E+01 -0.29922535239E+02  0.36135221609E+02  0.47488271068E+02  0.41800000000E+01 0.  1.
        -11    1    3    3    0    0 -0.68909186221E+01 -0.17374868973E+02  0.21608723184E+02  0.28571099890E+02  0.00000000000E+00 0.  1.
         11    1    3    3    0    0  0.85923230495E+02 -0.23586612214E+02  0.53867354175E+03  0.54599296186E+03  0.00000000000E+00 0. -1.
</event>
<event>
 7    1  0.6584658E-006  0.1256467E+03  0.7561462E-02  0.1234062E+00
         -1   -1    0    0    0  501 -0.00000000000E+00  0.00000000000E+00  0.51309460482E+02  0.51309460482E+02  0.00000000000E+00 0.  1.
          1   -1    0    0  501    0  0.00000000000E+00 -0.00000000000E+00 -0.43016635150E+03  0.43016635150E+03  0.00000000000E+00 0. -1.
         23    2    1    2    0    0  0.96767260111E+02  0.12020204003E+02 -0.21149132710E+03  0.25088771962E+03  0.93314942442E+02 0.  0.
          5    1    1    2  502    0 -0.89917496485E+02  0.41425048484E+02 -0.77807504333E+02  0.12598678878E+03  0.41800000000E+01 0.  1.
         -5    1    1    2    0  502 -0.68497636257E+01 -0.53445252488E+02 -0.89558059588E+02  0.10460130359E+03  0.41800000000E+01 0.  1.
        -11    1    3    3    0    0  0.61447355932E+02  0.21424470494E+01 -0.35253689284E+02  0.70874468171E+02  0.00000000000E+00 0.  1.
         11    1    3    3    0    0  0.35319904179E+02  0.98777569541E+01 -0.17623763781E+03  0.18001325144E+03  0.00000000000E+00 0. -1.
</event>
<event>
 7    1  0.6584658E-006  0.6783931E+02  0.7561462E-02  0.1367599E+00
         -1   -1    0    0    0  501 -0.00000000000E+00  0.00000000000E+00  0.89378695926E+02  0.89378695926E+02  0.00000000000E+00 0.  1.
          1   -1    0    0  501    0  0.00000000000E+00 -0.00000000000E+00 -0.15908727107E+03  0.15908727107E+03  0.00000000000E+00 0. -1.
         23    2    1    2    0    0  0.26173604081E+02  0.36873260287E+02 -0.52762489197E+02  0.11438062668E+03  0.90853467835E+02 0.  0.
          5    1    1    2  502    0  0.56186650450E+01  0.11994545518E+02 -0.59939052131E+02  0.61527236973E+02  0.41800000000E+01 0. -1.
         -5    1    1    2    0  502 -0.31792269126E+02 -0.48867805805E+02  0.42992966183E+02  0.72558103349E+02  0.41800000000E+01 0. -1.
        -11    1    3    3    0    0 -0.14028944104E+01  0.35711906091E+02  0.16837878051E+02  0.39507246001E+02  0.00000000000E+00 0.  1.
         11    1    3    3    0    0  0.27576498492E+02  0.11613541962E+01 -0.69600367248E+02  0.74873380675E+02  0.00000000000E+00 0. -1.
</event>
<event>
 7    1  0.6584658E-006  0.1512474E+03  0.7561462E-02  0.1198949E+00
          1   -1    0    0  501    0  0.00000000000E+00  0.00000000000E+00  0.62925891105E+02  0.62925891105E+02  0.00000000000E+00 0. -1.
         -1   -1    0    0    0  501 -0.00000000000E+00 -0.00000000000E+00 -0.40305001209E+03  0.40305001209E+03  0.00000000000E+00 0.  1.
         23    2    1    2    0    0 -0.43969771290E+01  0.11447303200E+03 -0.18603129815E+03  0.23681465643E+03  0.91379041069E+02 0.  0.
          5    1    1    2  502    0  0.53918164997E+02 -0.75797318588E+02 -0.13377846279E+03  0.16299248918E+03  0.41800000000E+01 0. -1.
         -5    1    1    2    0  502 -0.49521187868E+02 -0.38675713413E+02 -0.20314360039E+02  0.66168757580E+02  0.41800000000E+01 0. -1.
        -11    1    3    3    0    0  0.37773687588E+02  0.90109931913E+02 -0.11941028052E+03  0.15429020188E+03  0.00000000000E+00 0. -1.
         11    1    3    3    0    0 -0.42170664717E+02  0.24363100088E+02 -0.66621017632E+02  0.82524454551E+02  0.00000000000E+00 0.  1.
</event>
<event>
 7    1  0.6584658E-006  0.1214471E+03  0.7561462E-02  0.1240729E+00
          1   -1    0    0  501    0  0.00000000000E+00  0.00000000000E+00  0.23198561374E+03  0.23198561374E+03  0.00000000000E+00 0. -1.
         -1   -1    0    0    0  501 -0.00000000000E+00 -0.00000000000E+00 -0.10199036523E+03  0.10199036523E+03  0.00000000000E+00 0.  1.
         23    2    1    2    0    0  0.89655861475E+02  0.51677780096E+02  0.86941000465E+02  0.16601784719E+03  0.96407580473E+02 0.  0.
          5    1    1    2  502    0 -0.27340006428E+02 -0.21768748773E+02  0.81484416727E+02  0.88761122931E+02  0.41800000000E+01 0.  1.
         -5    1    1    2    0  502 -0.62315855047E+02 -0.29909031322E+02 -0.38430168677E+02  0.79197008841E+02  0.41800000000E+01 0.  1.
        -11    1    3    3    0    0  0.23662264698E+02  0.66695288463E+02  0.27443502776E+02  0.75903294516E+02  0.00000000000E+00 0. -1.
         11    1    3    3    0    0  0.65993596777E+02 -0.15017508367E+02  0.59497497689E+02  0.90114552679E+02  0.00000000000E+00 0.  1.
</event>
<event>
 7    1  0.6584658E-006  0.1219275E+03  0.7561462E-02  0.1239951E+00
          1   -1    0    0  501    0  0.00000000000E+00  0.00000000000E+00  0.72342620164E+02  0.72342620164E+02  0.00000000000E+00 0. -1.
         -1   -1    0    0    0  501 -0.00000000000E+00 -0.00000000000E+00 -0.24422510985E+03  0.24422510985E+03  0.00000000000E+00 0.  1.
         23    2    1    2    0    0  0.60009240994E+02  0.33131177293E+02 -0.34051870573E+02  0.11821544531E+03  0.90092051290E+02 0.  0.
          5    1    1    2  502    0 -0.25237956441E+02 -0.79807379270E+02 -0.73176714903E+02  0.11125860073E+03  0.41800000000E+01 0. -1.
         -5    1    1    2    0  502 -0.34771284552E+02  0.46676201977E+02 -0.64653904215E+02  0.87093683988E+02  0.41800000000E+01 0. -1.
        -11    1    3    3    0    0 -0.10844266283E+02  0.28724736072E+02  0.12685808451E+02  0.33221052206E+02  0.00000000000E+00 0. -1.
         11    1    3    3    0    0  0.70853507276E+02  0.44064412210E+01 -0.46737679025E+02  0.84994393099E+02  0.00000000000E+00 0.  1.
</event>
<event>
 7    1  0.6584658E-006  0.1065396E+03  0.7561462E-02  0.1267116E+00
          1   -1    0    0  501    0  0.00000000000E+00  0.00000000000E+00  0.37816901934E+03  0.37816901934E+03  0.00000000000E+00 0. -1.
         -1   -1    0    0    0  501 -0.00000000000E+00 -0.00000000000E+00 -0.56142035390E+02  0.56142035390E+02  0.00000000000E+00 0.  1.
         23    2    1    2    0    0 -0.94226498794E+02 -0.23103227692E+02  0.15431163651E+03  0.20368637166E+03  0.90904700829E+02 0.  0.
          5    1    1    2  502    0  0.69646459697E+02  0.31923819886E+02  0.18414418476E+03  0.19949013210E+03  0.41800000000E+01 0.  1.
         -5    1    1    2    0  502  0.24580039097E+02 -0.88205921937E+01 -0.16428837316E+02  0.31134550972E+02  0.41800000000E+01 0.  1.
        -11    1    3    3    0    0 -0.62532094850E+02  0.10838795438E+02  0.14216097380E+03  0.15568392610E+03  0.00000000000E+00 0. -1.
         11    1    3    3    0    0 -0.31694403944E+02 -0.33942023131E+02  0.12150662705E+02  0.48002445560E+02  0.00000000000E+00 0.  1.
</event>
<event>
 7    1  0.6584658E-006  0.1548906E+03  0.7561462E-02  0.1194589E+00
          2   -1    0    0  501    0  0.00000000000E+00  0.00000000000E+00  0.13735207168E+04  0.13735207168E+04  0.00000000000E+00 0. -1.
         -2   -1    0    0    0  501 -0.00000000000E+00 -0.00000000000E+00 -0.19346116523E+02  0.19346116523E+02  0.00000000000E+00 0.  1.
         23    2    1    2    0    0  0.11904471566E+03 -0.23805323013E+02  0.63598008328E+03  0.65382242461E+03  0.90965701611E+02 0.  0.
          5    1    1    2  502    0 -0.14031159125E+02  0.49998937980E+02  0.11565935225E+03  0.12685158804E+03  0.41800000000E+01 0.  1.
         -5    1    1    2    0  502 -0.10501355653E+03 -0.26193614967E+02  0.60253516470E+03  0.61219282062E+03  0.41800000000E+01 0.  1.
        -11    1    3    3    0    0  0.65961165811E+02 -0.56649434842E+02  0.31229148605E+03  0.32416971808E+03  0.00000000000E+00 0.  1.
         11    1    3    3    0    0  0.53083549846E+02  0.32844111829E+02  0.32368859723E+03  0.32965270653E+03  0.00000000000E+00 0. -1.
</event>
<event>
 7    1  0.6584658E-006  0.1020024E+03  0.7561462E-02  0.1276141E+00
         -1   -1    0    0    0  501 -0.00000000000E+00  0.00000000000E+00  0.68211891008E+03  0.68211891008E+03  0.00000000000E+00 0.  1.
          1   -1    0    0  501    0  0.00000000000E+00 -0.00000000000E+00 -0.21611935539E+02  0.21611935539E+02  0.00000000000E+00 0. -1.
         23    2    1    2    0    0 -0.13526991736E+02  0.53467070071E+02  0.20688281601E+03  0.22995202536E+03  0.83879242480E+02 0.  0.
          5    1    1    2  502    0 -0.40021419190E+02 -0.25726620208E+02  0.65994239242E+02  0.81463396654E+02  0.41800000000E+01 0. -1.
         -5    1    1    2    0  502  0.53548410925E+02 -0.27740449863E+02  0.38762991929E+03  0.39231542361E+03  0.41800000000E+01 0. -1.
        -11    1    3    3    0    0 -0.42947460706E+02  0.11358027198E+02  0.62312075243E+02  0.76526360713E+02  0.00000000000E+00 0. -1.
         11    1    3    3    0    0  0.29420468970E+02  0.42109042873E+02  0.14457074076E+03  0.15342566464E+03  0.00000000000E+00 0.  1.
</event>
<event>
 7    1  0.6584658E-006  0.1062291E+03  0.7561462E-02  0.1267717E+00
         -1   -1    0    0    0  501 -0.00000000000E+00  0.00000000000E+00  0.12561226224E+04  0.12561226224E+04  0.00000000000E+00 0.  1.
          1   -1    0    0  501    0  0.00000000000E+00 -0.00000000000E+00 -0.29184894211E+02  0.29184894211E+02  0.00000000000E+00 0. -1.
         23    2    1    2    0    0 -0.65077588385E+02  0.54148041788E+01  0.11692079306E+03  0.16635738685E+03  0.98690909895E+02 0.  0.
          5    1    1    2  502    0  0.51534684844E+02 -0.49269966446E+02  0.94269915214E+03  0.94540071778E+03  0.41800000000E+01 0. -1.
         -5    1    1    2    0  502  0.13542903541E+02  0.43855162267E+02  0.16731778296E+03  0.17354941196E+03  0.41800000000E+01 0. -1.
        -11    1    3    3    0    0 -0.74837391406E+02 -0.11209289416E+02  0.12445930585E+03  0.14565851206E+03  0.00000000000E+00 0.  1.
         11    1    3    3    0    0  0.97598030211E+01  0.16624093594E+02 -0.75385127869E+01  0.20698874798E+02  0.00000000000E+00 0. -1.
</event>
<event>
 7    1  0.6584658E-006  0.9644204E+02  0.7561462E-02  0.1287961E+00
          3   -1    0    0  501    0  0.00000000000E+00  0.00000000000E+00  0.44785061488E+03  0.44785061488E+03  0.00000000000E+00 0. -1.
         -3   -1    0    0    0  501 -0.00000000000E+00 -0.00000000000E+00 -0.34618854424E+02  0.34618854424E+02  0.00000000000E+00 0.  1.
         23    2    1    2    0    0 -0.31253406333E+02 -0.43143601828E+02  0.23831385177E+03  0.26092401091E+03  0.91922259217E+02 0.  0.
          5    1    1    2  502    0  0.62312369039E+02 -0.15767908744E+02  0.56784147369E+02  0.85868329865E+02  0.41800000000E+01 0.  1.
         -5    1    1    2    0  502 -0.31058962706E+02  0.58911510572E+02  0.11813376132E+03  0.13567712853E+03  0.41800000000E+01 0.  1.
        -11    1    3    3    0    0 -0.16034180972E+02 -0.42578124734E-01 -0.21290158531E+01  0.16174964632E+02  0.00000000000E+00 0.  1.
         11    1    3    3    0    0 -0.15219225361E+02 -0.43101023704E+02  0.24044286762E+03  0.24474904628E+03  0.00000000000E+00 0. -1.
</event>
<event>
 7    1  0.6584658E-006  0.1147527E+03  0.7561462E-02  0.1252013E+00
         -1   -1    0    0    0  501 -0.00000000000E+00  0.00000000000E+00  0.53197114356E+02  0.53197114356E+02  0.00000000000E+00 0.  1.
          1   -1    0    0  501    0  0.00000000000E+00 -0.00000000000E+00 -0.29203365192E+03  0.29203365192E+03  0.00000000000E+00 0. -1.
         23    2    1    2    0    0 -0.29160976741E+02  0.52307851637E+02 -0.95375838638E+02  0.14569106322E+03  0.92427600853E+02 0.  0.
          5    1    1    2  502    0  0.64786020264E+02 -0.11878101114E+02 -0.27302259159E+02  0.71422709714E+02  0.41800000000E+01 0. -1.
         -5    1    1    2    0  502 -0.35625043522E+02 -0.40429750523E+02 -0.11615843977E+03  0.12811699334E+03  0.41800000000E+01 0. -1.
        -11    1    3    3    0    0 -0.39659795058E+02 -0.14201759186E+02 -0.44674486688E+02  0.61403575375E+02  0.00000000000E+00 0.  1.
         11    1    3    3    0    0  0.10498818317E+02  0.66509610824E+02 -0.50701351951E+02  0.84287487847E+02  0.00000000000E+00 0. -1.
</event>
<event>
 7    1  0.6584658E-006  0.1209668E+03  0.7561462E-02  0.1241511E+00
         -2   -1    0    0    0  501 -0.00000000000E+00  0.00000000000E+00  0.17121881655E+03  0.17121881655E+03  0.00000000000E+00 0.  1.
          2   -1    0    0  501    0  0.00000000000E+00 -0.00000000000E+00 -0.10766921474E+03  0.10766921474E+03  0.00000000000E+00 0. -1.
         23    2    1    2    0    0  0.80665678180E+02  0.46907042003E+01  0.43421539152E+02  0.12861565477E+03  0.90153215396E+02 0.  0.
          5    1    1    2  502    0 -0.11227591004E+03  0.79039789333E+01  0.48399613824E+01  0.11273531161E+03  0.41800000000E+01 0.  1.
         -5    1    1    2    0  502  0.31610231860E+02 -0.12594683134E+02  0.15288101282E+02  0.37537064913E+02  0.41800000000E+01 0.  1.
        -11    1    3    3    0    0  0.92812172983E+00  0.14634914986E+02 -0.21007996744E+02  0.25619876538E+02  0.00000000000E+00 0. -1.
         11    1    3    3    0    0  0.79737556450E+02 -0.99442107861E+01  0.64429535897E+02  0.10299577823E+03  0.00000000000E+00 0.  1.
</event>
<event>
 7    1  0.6584658E-006  0.2542730E+03  0.7561462E-02  0.1110634E+00
          2   -1    0    0  501    0  0.00000000000E+00  0.00000000000E+00  0.94394856549E+03  0.94394856549E+03  0.00000000000E+00 0. -1.
         -2   -1    0    0    0  501 -0.00000000000E+00 -0.00000000000E+00 -0.87171367882E+02  0.87171367882E+02  0.00000000000E+00 0.  1.
         23    2    1    2    0    0 -0.88112207998E+02  0.23189679170E+03  0.58840949775E+03  0.64483999622E+03  0.89738511707E+02 0.  0.
          5    1    1    2  502    0  0.95697239163E+02 -0.21713282274E+03  0.18428140797E+03  0.30046918980E+03  0.41800000000E+01 0.  1.
         -5    1    1    2    0  502 -0.75850311653E+01 -0.14763968961E+02  0.84086291888E+02  0.85810747349E+02  0.41800000000E+01 0.  1.
        -11    1    3    3    0    0 -0.70957412252E+02  0.10928284663E+03  0.21458522713E+03  0.25104683751E+03  0.00000000000E+00 0.  1.
         11    1    3    3    0    0 -0.17154795746E+02  0.12261394507E+03  0.37382427062E+03  0.39379315871E+03  0.00000000000E+00 0. -1.
</event>
<event>
 7    1  0.6584658E-006  0.6836235E+02  0.7561462E-02  0.1365752E+00
         -2   -1    0    0    0  501 -0.00000000000E+00  0.00000000000E+00  0.43769243419E+03  0.43769243419E+03  0.00000000000E+00 0.  1.
          2   -1    0    0  501    0  0.00000000000E+00 -0.00000000000E+00 -0.59732910651E+02  0.59732910651E+02  0.00000000000E+00 0. -1.
         23    2    1    2    0    0  0.39328469717E+01 -0.63197592208E+02  0.27907321105E+02  0.12033993548E+03  0.98455464824E+02 0.  0.
          5    1    1    2  502    0  0.14703225403E+02  0.34293495241E+02  0.15297431403E+02  0.40542723892E+02  0.41800000000E+01 0.  1.
         -5    1    1    2    0  502 -0.18636072375E+02  0.28904096967E+02  0.33475477103E+03  0.33654268547E+03  0.41800000000E+01 0.  1.
        -11    1    3    3    0    0 -0.38818791883E+01 -0.36807840114E+02 -0.35457849308E+02  0.51255684148E+02  0.00000000000E+00 0. -1.
         11    1    3    3    0    0  0.78147261601E+01 -0.26389752093E+02  0.63365170413E+02  0.69084251331E+02  0.00000000000E+00 0.  1.
</event>
<event>
 7    1  0.6584658E-006  0.1579667E+03  0.7561462E-02  0.1191012E+00
         -1   -1    0    0    0  501 -0.00000000000E+00  0.00000000000E+00  0.19792786303E+03  0.19792786303E+03  0.00000000000E+00 0.  1.
          1   -1    0    0  501    0  0.00000000000E+00 -0.00000000000E+00 -0.14022257066E+03  0.14022257066E+03  0.00000000000E+00 0. -1.
         23    2    1    2    0    0  0.35990395384E+02  0.12410022379E+03  0.30462470414E+01  0.15631633991E+03  0.87916690102E+02 0.  0.
          5    1    1    2  502    0  0.87553483595E+01  0.17427282145E+02 -0.68755547989E+01  0.21097676214E+02  0.41800000000E+01 0. -1.
         -5    1    1    2    0  502 -0.44745743743E+02 -0.14152750593E+03  0.61534600121E+02  0.16073641756E+03  0.41800000000E+01 0.  1.
        -11    1    3    3    0    0  0.89323700099E+01  0.11975944058E+03 -0.18431963959E+02  0.12149834623E+03  0.00000000000E+00 0. -1.
         11    1    3    3    0    0  0.27058025374E+02  0.43407832062E+01  0.21478211000E+02  0.34817993678E+02  0.00000000000E+00 0.  1.
</event>
<event>
 7    1  0.6584658E-006  0.8646440E+02  0.7561462E-02  0.1311647E+00
          1   -1    0    0  501    0  0.00000000000E+00  0.00000000000E+00  0.59710564549E+02  0.59710564549E+02  0.00000000000E+00 0. -1.
         -1   -1    0    0    0  501 -0.00000000000E+00 -0.00000000000E+00 -0.32065820592E+03  0.32065820592E+03  0.00000000000E+00 0.  1.
         23    2    1    2    0    0  0.10839137111E+02 -0.13751618459E+02 -0.30974608223E+01  0.93243802391E+02  0.91532609038E+02 0.  0.
          5    1    1    2  502    0 -0.28121598079E+02  0.50815018688E+02 -0.23052208971E+03  0.23776226918E+03  0.41800000000E+01 0.  1.
         -5    1    1    2    0  502  0.17282460967E+02 -0.37063400229E+02 -0.27328090846E+02  0.49362698902E+02  0.41800000000E+01 0.  1.
        -11    1    3    3    0    0 -0.16282503777E+02 -0.35351755913E+02  0.26968412130E+02  0.47351471236E+02  0.00000000000E+00 0. -1.
         11    1    3    3    0    0  0.27121640888E+02  0.21600137454E+02 -0.30065872952E+02  0.45892331155E+02  0.00000000000E+00 0.  1.
</event>
<event>
 7    1  0.6584658E-006  0.1045057E+03  0.7561462E-02  0.1271097E+00
         -3   -1    0    0    0  501 -0.00000000000E+00  0.00000000000E+00  0.28254279348E+02  0.28254279348E+02  0.00000000000E+00 0.  1.
          3   -1    0    0  501    0  0.00000000000E+00 -0.00000000000E+00 -0.45093160206E+03  0.45093160206E+03  0.00000000000E+00 0. -1.
         23    2    1    2    0    0 -0.23721379842E+02  0.21614956775E+02 -0.16048118201E+03  0.18690985171E+03  0.90283845018E+02 0.  0.
          5    1    1    2  502    0 -0.31395977705E+02  0.31126456381E+02 -0.15076321635E+03  0.15716737418E+03  0.41800000000E+01 0. -1.
         -5    1    1    2    0  502  0.55117357547E+02 -0.52741413156E+02 -0.11143292436E+03  0.13510865552E+03  0.41800000000E+01 0. -1.
        -11    1    3    3    0    0 -0.41093322992E+01  0.51932664860E+02 -0.56565565775E+02  0.76899619783E+02  0.00000000000E+00 0.  1.
         11    1    3    3    0    0 -0.19612047543E+02 -0.30317708085E+02 -0.10391561623E+03  0.11001023193E+03  0.00000000000E+00 0. -1.
</event>
<event>
 7    1  0.6584658E-006  0.1024138E+03  0.7561462E-02  0.1275300E+00
          1   -1    0    0  501    0  0.00000000000E+00  0.00000000000E+00  0.10618175286E+03  0.10618175286E+03  0.00000000000E+00 0. -1.
         -1   -1    0    0    0  501 -0.00000000000E+00 -0.00000000000E+00 -0.18400140601E+03  0.18400140601E+03  0.00000000000E+00 0.  1.
         23    2    1    2    0    0 -0.80296581410E+02  0.20841597764E+02 -0.38189946642E+01  0.12283408924E+03  0.90508096741E+02 0.  0.
          5    1    1    2  502    0  0.65603757188E+02 -0.31968918088E+02  0.16465761132E+02  0.74929689513E+02  0.41800000000E+01 0.  1.
         -5    1    1    2    0  502  0.14692824222E+02  0.11127320325E+02 -0.90466419622E+02  0.92419380113E+02  0.41800000000E+01 0.  1.
        -11    1    3    3    0    0 -0.70155219585E+02  0.47222256750E+02  0.18802824928E+02  0.86632803215E+02  0.00000000000E+00 0.  1.
         11    1    3    3    0    0 -0.10141361825E+02 -0.26380658986E+02 -0.22621819592E+02  0.36201286025E+02  0.00000000000E+00 0. -1.
</event>
<event>
 7    1  0.6584658E-006  0.1305435E+03  0.7561462E-02  0.1226651E+00
          1   -1    0    0  501    0  0.00000000000E+00  0.00000000000E+00  0.10051835699E+03  0.10051835699E+03  0.00000000000E+00 0. -1.
         -1   -1    0    0    0  501 -0.00000000000E+00 -0.00000000000E+00 -0.24206586221E+03  0.24206586221E+03  0.00000000000E+00 0.  1.
         23    2    1    2    0    0 -0.71340152787E+01  0.96043574220E+02 -0.68062820743E+01  0.13503251547E+03  0.94404408986E+02 0.  0.
          5    1    1    2  502    0 -0.38957849523E+02 -0.33590962964E+02 -0.11691874992E+03  0.12780271248E+03  0.41800000000E+01 0. -1.
         -5    1    1    2    0  502  0.46091864801E+02 -0.62452611257E+02 -0.17822473226E+02  0.79748991251E+02  0.41800000000E+01 0. -1.
        -11    1    3    3    0    0  0.36735671163E+02  0.15179935840E+02 -0.15416258210E+02  0.42633332090E+02  0.00000000000E+00 0.  1.
         11    1    3    3    0    0 -0.43869686441E+02  0.80863638381E+02  0.86099761362E+01  0.92399183382E+02  0.00000000000E+00 0. -1.
</event>
<event>
 7    1  0.6584658E-006  0.1478324E+03  0.7561462E-02  0.1203162E+00
          1   -1    0    0  501    0  0.00000000000E+00  0.00000000000E+00  0.12655373795E+03  0.12655373795E+03  0.00000000000E+00 0. -1.
         -1   -1    0    0    0  501 -0.00000000000E+00 -0.00000000000E+00 -0.20107491661E+03  0.20107491661E+03  0.00000000000E+00 0.  1.
         23    2    1    2    0    0  0.11162092076E+03  0.32951139791E+01 -0.43758478542E+01  0.14586695609E+03  0.93743976382E+02 0.  0.
          5    1    1    2  502    0  0.50542619057E+01 -0.30518826780E+02  0.15085688358E+02  0.34669795856E+02  0.41800000000E+01 0.  1.
         -5    1    1    2    0  502 -0.11667518266E+03  0.27223712801E+02 -0.85231019161E+02  0.14709190262E+03  0.41800000000E+01 0.  1.
        -11    1    3    3    0    0  0.48231478760E+01 -0.31790024815E+02  0.69122364670E+01  0.32888408994E+02  0.00000000000E+00 0.  1.
         11    1    3    3    0    0  0.10679777288E+03  0.35085138794E+02 -0.11288084321E+02  0.11297854710E+03  0.00000000000E+00 0. -1.
</event>
<event>
 7    1  0.1196058E-005  0.2558396E+03  0.7561462E-02  0.1109669E+00
          2   -1    0    0  501    0  0.00000000000E+00  0.00000000000E+00  0.45600277466E+03  0.45600277466E+03  0.00000000000E+00 0. -1.
         -2   -1    0    0    0  501 -0.00000000000E+00 -0.00000000000E+00 -0.14995577528E+03  0.14995577528E+03  0.00000000000E+00 0.  1.
         23    2    1    2    0    0  0.29289086492E+00 -0.23529731803E+03  0.18524791046E+03  0.31337551902E+03  0.92317462777E+02 0.  0.
          5    1    1    2  502    0  0.13941906474E+02 -0.77115375098E+01 -0.66698217549E+01  0.17770860675E+02  0.41800000000E+01 0.  1.
         -5    1    1    2    0  502 -0.14234797339E+02  0.24300885554E+03  0.12746891068E+03  0.27481217025E+03  0.41800000000E+01 0.  1.
        -11    1    3    3    0    0  0.43852776687E+02 -0.90962880768E+02  0.88197349770E+02  0.13407492013E+03  0.00000000000E+00 0. -1.
         11    1    3    3    0    0 -0.43559885823E+02 -0.14433443726E+03  0.97050560690E+02  0.17930059889E+03  0.00000000000E+00 0.  1.
</event>
<event>
 7    1  0.6584658E-006  0.1647435E+03  0.7561462E-02  0.1183443E+00
          2   -1    0    0  501    0  0.00000000000E+00  0.00000000000E+00  0.20901687140E+03  0.20901687140E+03  0.00000000000E+00 0. -1.
         -2   -1    0    0    0  501 -0.00000000000E+00 -0.00000000000E+00 -0.16104261886E+03  0.16104261886E+03  0.00000000000E+00 0.  1.
         23    2    1    2    0    0  0.96775171920E+02  0.10864864646E+03  0.43984166166E+02  0.17814183446E+03  0.92897492075E+02 0.  0.
          5    1    1    2  502    0  0.23255846288E+02 -0.72775880418E+01  0.22798148956E+02  0.33630725090E+02  0.41800000000E+01 0.  1.
         -5    1    1    2    0  502 -0.12003101821E+03 -0.10137105842E+03 -0.18808062580E+02  0.15828693071E+03  0.41800000000E+01 0.  1.
        -11    1    3    3    0    0  0.35098756774E+02  0.22664482917E+02  0.57914108266E+02  0.71411801891E+02  0.00000000000E+00 0. -1.
         11    1    3    3    0    0  0.61676415146E+02  0.85984163540E+02 -0.13929942101E+02  0.10673003257E+03  0.00000000000E+00 0.  1.
</event>
<event>
 7    1  0.6584658E-006  0.1443828E+03  0.7561462E-02  0.1207550E+00
         -3   -1    0    0    0  501 -0.00000000000E+00  0.00000000000E+00  0.40304709984E+03  0.40304709984E+03  0.00000000000E+00 0.  1.
          3   -1    0    0  501    0  0.00000000000E+00 -0.00000000000E+00 -0.69886196198E+02  0.69886196198E+02  0.00000000000E+00 0. -1.
         23    2    1    2    0    0 -0.25577570591E+02 -0.10588406629E+03  0.58368721582E+02  0.15196030965E+03  0.88427260713E+02 0.  0.
          5    1    1    2  502    0 -0.17721671011E+02 -0.13837157753E+02  0.61812116671E+01  0.23689751704E+02  0.41800000000E+01 0.  1.
         -5    1    1    2    0  502  0.43299241602E+02  0.11972122405E+03  0.26861097039E+03  0.29728323468E+03  0.41800000000E+01 0.  1.
        -11    1    3    3    0    0  0.65463958314E+01  0.13437378347E+02  0.14526585868E+02  0.20843227490E+02  0.00000000000E+00 0. -1.
         11    1    3    3    0    0 -0.32123966422E+02 -0.11932144464E+03  0.43842135714E+02  0.13111708216E+03  0.00000000000E+00 0.  1.
</event>
<event>
 7    1  0.6584658E-006  0.1339808E+03  0.7561462E-02  0.1221666E+00
         -1   -1    0    0    0  501 -0.00000000000E+00  0.00000000000E+00  0.31630080129E+03  0.31630080129E+03  0.00000000000E+00 0.  1.
          1   -1    0    0  501    0  0.00000000000E+00 -0.00000000000E+00 -0.97609955454E+02  0.97609955454E+02  0.00000000000E+00 0. -1.
         23    2    1    2    0    0 -0.29218858813E+00 -0.10120311118E+03 -0.14496709990E+02  0.13059884376E+03  0.81263449992E+02 0.  0.
          5    1    1    2  502    0  0.29307665422E+02  0.10744624197E+03  0.22674525390E+03  0.25265493610E+03  0.41800000000E+01 0.  1.
         -5    1    1    2    0  502 -0.29015476834E+02 -0.62431307957E+01  0.64423019250E+01  0.30656976891E+02  0.41800000000E+01 0.  1.
        -11    1    3    3    0    0  0.28623417934E+02 -0.91759841719E+02 -0.23353950632E+02  0.98917013787E+02  0.00000000000E+00 0. -1.
         11    1    3    3    0    0 -0.28915606522E+02 -0.94432694579E+01  0.88572406412E+01  0.31681829972E+02  0.00000000000E+00 0.  1.
</event>
<event>
 7    1  0.6584658E-006  0.1767641E+03  0.7561462E-02  0.1170972E+00
         -1   -1    0    0    0  501 -0.00000000000E+00  0.00000000000E+00  0.93975363736E+02  0.93975363736E+02  0.00000000000E+00 0.  1.
          1   -1    0    0  501    0  0.00000000000E+00 -0.00000000000E+00 -0.40247939513E+03  0.40247939513E+03  0.00000000000E+00 0. -1.
         23    2    1    2    0    0  0.13311959715E+03  0.87614053066E+02 -0.17460887575E+03  0.25361532300E+03  0.91844559598E+02 0.  0.
          5    1    1    2  502    0  0.90317955821E+01  0.48700703335E+01  0.13950168123E+02  0.17814895654E+02  0.41800000000E+01 0. -1.
         -5    1    1    2    0  502 -0.14215139274E+03 -0.92484123399E+02 -0.14784532377E+03  0.22502454021E+03  0.41800000000E+01 0. -1.
        -11    1    3    3    0    0  0.61955018272E+02  0.26963130520E+01 -0.23669618156E+02  0.66377294438E+02  0.00000000000E+00 0. -1.
         11    1    3    3    0    0  0.71164578883E+02  0.84917740014E+02 -0.15093925759E+03  0.18723802856E+03  0.00000000000E+00 0.  1.
</event>
<event>
 7    1  0.6584658E-006  0.8858764E+02  0.7561462E-02  0.1306308E+00
          1   -1    0    0  501    0  0.00000000000E+00  0.00000000000E+00  0.35438965968E+03  0.35438965968E+03  0.00000000000E+00 0. -1.
         -1   -1    0    0    0  501 -0.00000000000E+00 -0.00000000000E+00 -0.53436579545E+02  0.53436579545E+02  0.00000000000E+00 0.  1.
         23    2    1    2    0    0  0.70589161789E+01  0.24586967569E+02  0.25475896705E+03  0.27203403273E+03  0.91902319875E+02 0.  0.
          5    1    1    2  502    0  0.68865732273E+01  0.40991359636E+02 -0.15526761843E+02  0.44567580021E+02  0.41800000000E+01 0.  1.
         -5    1    1    2    0  502 -0.13945489406E+02 -0.65578327205E+02  0.61720874926E+02  0.91224626474E+02  0.41800000000E+01 0.  1.
        -11    1    3    3    0    0 -0.95246576572E+01  0.42651853131E+02  0.23882232911E+03  0.24278798273E+03  0.00000000000E+00 0. -1.
         11    1    3    3    0    0  0.16583573836E+02 -0.18064885562E+02  0.15936637946E+02  0.29246050000E+02  0.00000000000E+00 0.  1.
</event>
<event>
 7    1  0.6584658E-006  0.4351421E+03  0.7561462E-02  0.1032248E+00
         -1   -1    0    0    0  501 -0.00000000000E+00  0.00000000000E+00  0.57034571051E+03  0.57034571051E+03  0.00000000000E+00 0. -1.
          1   -1    0    0  501    0  0.00000000000E+00 -0.00000000000E+00 -0.33979050654E+03  0.33979050654E+03  0.00000000000E+00 0.  1.
         23    2    1    2    0    0  0.42160875636E+03 -0.42904847464E+02  0.16001049029E+03  0.46268525108E+03  0.94231179487E+02 0.  0.
          5    1    1    2  502    0 -0.13495273166E+03  0.68867311685E+02  0.21692489336E+01  0.15158207164E+03  0.41800000000E+01 0.  1.
         -5    1    1    2    0  502 -0.28665602470E+03 -0.25962464221E+02  0.68375464743E+02  0.29586889432E+03  0.41800000000E+01 0.  1.
        -11    1    3    3    0    0  0.28840892156E+03 -0.65505196850E+02  0.83024975065E+02  0.30718688666E+03  0.00000000000E+00 0.  1.
         11    1    3    3    0    0  0.13319983480E+03  0.22600349385E+02  0.76985515229E+02  0.15549836443E+03  0.00000000000E+00 0. -1.
</event>
<event>
 7    1  0.6584658E-006  0.1000964E+03  0.7561462E-02  0.1280093E+00
          1   -1    0    0  501    0  0.00000000000E+00  0.00000000000E+00  0.12329701129E+03  0.12329701129E+03  0.00000000000E+00 0. -1.
         -1   -1    0    0    0  501 -0.00000000000E+00 -0.00000000000E+00 -0.10162933230E+03  0.10162933230E+03  0.00000000000E+00 0.  1.
         23    2    1    2    0    0  0.77255638481E+01  0.13562375905E+02  0.43196626362E+02  0.97047700701E+02  0.85490849249E+02 0.  0.
          5    1    1    2  502    0  0.57674934988E+02 -0.14432767366E+02 -0.17936195444E+02  0.62240520617E+02  0.41800000000E+01 0. -1.
         -5    1    1    2    0  502 -0.65400498836E+02  0.87039146124E+00 -0.35927519243E+01  0.65638122274E+02  0.41800000000E+01 0. -1.
        -11    1    3    3    0    0 -0.33014841481E+02  0.45420912407E+01  0.44142704642E+02  0.55309933321E+02  0.00000000000E+00 0.  1.
         11    1    3    3    0    0  0.40740405329E+02  0.90202846642E+01 -0.94607827980E+00  0.41737767380E+02  0.00000000000E+00 0. -1.
</event>
<event>
 7    1  0.6584658E-006  0.1116864E+03  0.7561462E-02  0.1257478E+00
          1   -1    0    0  501    0  0.00000000000E+00  0.00000000000E+00  0.47925684974E+03  0.47925684974E+03  0.00000000000E+00 0. -1.
         -1   -1    0    0    0  501 -0.00000000000E+00 -0.00000000000E+00 -0.30010987856E+02  0.30010987856E+02  0.00000000000E+00 0.  1.
         23    2    1    2    0    0  0.22404151174E+01  0.45401101021E+02  0.25940590541E+03  0.27741939399E+03  0.87199867944E+02 0.  0.
          5    1    1    2  502    0 -0.49850499419E+02 -0.63405919460E+02  0.13140395974E+03  0.15423960565E+03  0.41800000000E+01 0. -1.
         -5    1    1    2    0  502  0.47610084302E+02  0.18004818439E+02  0.58435996734E+02  0.77608837954E+02  0.41800000000E+01 0. -1.
        -11    1    3    3    0    0  0.38116794567E+02  0.65876497681E+01  0.16245900540E+03  0.16700064549E+03  0.00000000000E+00 0.  1.
         11    1    3    3    0    0 -0.35876379450E+02  0.38813451253E+02  0.96946900007E+02  0.11041874851E+03  0.00000000000E+00 0. -1.
</event>
<event>
 7    1  0.6584658E-006  0.9524918E+02  0.7561462E-02  0.1290616E+00
         -1   -1    0    0    0  501 -0.00000000000E+00  0.00000000000E+00  0.12481603399E+03  0.12481603399E+03  0.00000000000E+00 0.  1.
          1   -1    0    0  501    0  0.00000000000E+00 -0.00000000000E+00 -0.10762021867E+03  0.10762021867E+03  0.00000000000E+00 0. -1.
         23    2    1    2    0    0  0.25470101599E+02 -0.21577642613E+02 -0.18930396095E+02  0.98027570666E+02  0.90203791374E+02 0.  0.
          5    1    1    2  502    0 -0.29191763876E+02  0.64426543777E+02  0.52512999391E+02  0.88193118361E+02  0.41800000000E+01 0. -1.
         -5    1    1    2    0  502  0.37216622764E+01 -0.42848901164E+02 -0.16386787975E+02  0.46215563625E+02  0.41800000000E+01 0. -1.
        -11    1    3    3    0    0  0.41282294809E+02 -0.36190828234E+02 -0.39981669359E+02  0.67915666805E+02  0.00000000000E+00 0. -1.
         11    1    3    3    0    0 -0.15812193209E+02  0.14613185621E+02  0.21051273264E+02  0.30111903861E+02  0.00000000000E+00 0.  1.
</event>
<event>
 7    1  0.6584658E-006  0.1767854E+03  0.7561462E-02  0.1170951E+00
          1   -1    0    0  501    0  0.00000000000E+00  0.00000000000E+00  0.67448943079E+02  0.67448943079E+02  0.00000000000E+00 0. -1.
         -1   -1    0    0    0  501 -0.00000000000E+00 -0.00000000000E+00 -0.87686046190E+03  0.87686046190E+03  0.00000000000E+00 0.  1.
         23    2    1    2    0    0  0.68504130332E+02 -0.14118154729E+03 -0.97617338488E+02  0.20476563229E+03  0.88174680182E+02 0.  0.
          5    1    1    2  502    0 -0.42718032354E+02  0.15863200352E+03 -0.64687183216E+03  0.66742009445E+03  0.41800000000E+01 0. -1.
         -5    1    1    2    0  502 -0.25786097978E+02 -0.17450456229E+02 -0.64922348172E+02  0.72123678246E+02  0.41800000000E+01 0. -1.
        -11    1    3    3    0    0  0.61516626196E+02 -0.11168262822E+03 -0.11335687703E+03  0.17060799019E+03  0.00000000000E+00 0.  1.
         11    1    3    3    0    0  0.69875041365E+01 -0.29498919066E+02  0.15739538546E+02  0.34157642099E+02  0.00000000000E+00 0. -1.
</event>
<event>
 7    1  0.6584658E-006  0.1138455E+03  0.7561462E-02  0.1253610E+00
         -2   -1    0    0    0  501 -0.00000000000E+00  0.00000000000E+00  0.55226731444E+02  0.55226731444E+02  0.00000000000E+00 0. -1.
          2   -1    0    0  501    0  0.00000000000E+00 -0.00000000000E+00 -0.29342924693E+03  0.29342924693E+03  0.00000000000E+00 0.  1.
         23    2    1    2    0    0  0.40810472523E+02 -0.45188573000E+02 -0.14922782781E+03  0.18353683601E+03  0.87802754967E+02 0.  0.
          5    1    1    2  502    0  0.20898717664E+02 -0.25059371063E+02  0.40649392605E+01  0.33147015088E+02  0.41800000000E+01 0.  1.
         -5    1    1    2    0  502 -0.61709190187E+02  0.70247944063E+02 -0.93039626931E+02  0.13197212728E+03  0.41800000000E+01 0.  1.
        -11    1    3    3    0    0  0.42906660523E+02  0.11539260865E+02 -0.95709306800E+02  0.10551970179E+03  0.00000000000E+00 0. -1.
         11    1    3    3    0    0 -0.20961880000E+01 -0.56727833866E+02 -0.53518521014E+02  0.78017134213E+02  0.00000000000E+00 0.  1.
</event>
<event>
 7    1  0.6584658E-006  0.1047221E+03  0.7561462E-02  0.1270668E+00
          2   -1    0    0  501    0  0.00000000000E+00  0.00000000000E+00  0.42987197713E+03  0.42987197713E+03  0.00000000000E+00 0. -1.
         -2   -1    0    0    0  501 -0.00000000000E+00 -0.00000000000E+00 -0.33048246211E+02  0.33048246211E+02  0.00000000000E+00 0.  1.
         23    2    1    2    0    0  0.38809498848E+02  0.26706836629E+02  0.20003410500E+03  0.22502737274E+03  0.91674658429E+02 0.  0.
          5    1    1    2  502    0 -0.70891166012E+02 -0.27703143618E+02  0.19013756935E+03  0.20484821030E+03  0.41800000000E+01 0.  1.
         -5    1    1    2    0  502  0.32081667164E+02  0.99630698812E+00  0.66520565693E+01  0.33044640296E+02  0.41800000000E+01 0.  1.
        -11    1    3    3    0    0 -0.13404830493E+01 -0.30736415484E+02  0.84164321288E+02  0.89611143891E+02  0.00000000000E+00 0. -1.
         11    1    3    3    0    0  0.40149981897E+02  0.57443252113E+02  0.11586978371E+03  0.13541622885E+03  0.00000000000E+00 0.  1.
</event>
<event>
 7    1  0.6584658E-006  0.9825881E+02  0.7561462E-02  0.1284001E+00
         -2   -1    0    0    0  501 -0.00000000000E+00  0.00000000000E+00  0.73372638961E+02  0.73372638961E+02  0.00000000000E+00 0.  1.
          2   -1    0    0  501    0  0.00000000000E+00 -0.00000000000E+00 -0.27264107331E+03  0.27264107331E+03  0.00000000000E+00 0. -1.
         23    2    1    2    0    0 -0.19856495302E+02 -0.72806981366E+02 -0.15207420067E+03  0.19247818292E+03  0.90698133643E+02 0.  0.
          5    1    1    2  502    0  0.71807032741E+01 -0.14616776133E+02 -0.61670906713E+02  0.63921716019E+02  0.41800000000E+01 0. -1.
         -5    1    1    2    0  502  0.12675792028E+02  0.87423757498E+02  0.14476673038E+02  0.89613813338E+02  0.41800000000E+01 0. -1.
        -11    1    3    3    0    0 -0.37445282475E+02 -0.49215670150E+02 -0.15084138111E+03  0.16302592930E+03  0.00000000000E+00 0. -1.
         11    1    3    3    0    0  0.17588787173E+02 -0.23591311216E+02 -0.12328195639E+01  0.29452253618E+02  0.00000000000E+00 0.  1.
</event>
<event>
 7    1  0.6584658E-006  0.2430818E+03  0.7561462E-02  0.1117757E+00
         -1   -1    0    0    0  501 -0.00000000000E+00  0.00000000000E+00  0.75353081727E+02  0.75353081727E+02  0.00000000000E+00 0.  1.
          1   -1    0    0  501    0  0.00000000000E+00 -0.00000000000E+00 -0.85808000732E+03  0.85808000732E+03  0.00000000000E+00 0. -1.
         23    2    1    2    0    0 -0.22004398802E+03 -0.52980333044E+02 -0.44039628893E+03  0.50441032735E+03  0.96200907874E+02 0.  0.
          5    1    1    2  502    0  0.22667449054E+03  0.23557704936E+02 -0.30736175708E+03  0.38265521327E+03  0.41800000000E+01 0. -1.
         -5    1    1    2    0  502 -0.66305025200E+01  0.29422628109E+02 -0.34968879579E+02  0.46367548431E+02  0.41800000000E+01 0. -1.
        -11    1    3    3    0    0 -0.58801850081E+02 -0.26302491813E+01 -0.21395603908E+03  0.22190484997E+03  0.00000000000E+00 0. -1.
         11    1    3    3    0    0 -0.16124213794E+03 -0.50350083863E+02 -0.22644024986E+03  0.28250547738E+03  0.00000000000E+00 0.  1.
</event>
<event>
 7    1  0.6584658E-006  0.1152508E+03  0.7561462E-02  0.1251144E+00
         -4   -1    0    0    0  501 -0.00000000000E+00  0.00000000000E+00  0.54390695298E+03  0.54390695298E+03  0.00000000000E+00 0.  1.
          4   -1    0    0  501    0  0.00000000000E+00 -0.00000000000E+00 -0.31053507062E+02  0.31053507062E+02  0.00000000000E+00 0. -1.
         23    2    1    2    0    0  0.47362026158E+02  0.52831539568E+02  0.18938137685E+03  0.22096050368E+03  0.89016319807E+02 0.  0.
          5    1    1    2  502    0 -0.51454444815E+02 -0.77083960261E+02  0.13452759128E+03  0.16341555017E+03  0.41800000000E+01 0. -1.
         -5    1    1    2    0  502  0.40924186575E+01  0.24252420694E+02  0.18894447779E+03  0.19058440620E+03  0.41800000000E+01 0. -1.
        -11    1    3    3    0    0  0.73439372873E+02  0.36490072412E+02  0.15030860677E+03  0.17122366701E+03  0.00000000000E+00 0.  1.
         11    1    3    3    0    0 -0.26077346715E+02  0.16341467156E+02  0.39072770079E+02  0.49736836672E+02  0.00000000000E+00 0. -1.
</event>
<event>
 7    1  0.6584658E-006  0.8404576E+02  0.7561462E-02  0.1317947E+00
         -2   -1    0    0    0  501 -0.00000000000E+00  0.00000000000E+00  0.17345332862E+02  0.17345332862E+02  0.00000000000E+00 0.  1.
          2   -1    0    0  501    0  0.00000000000E+00 -0.00000000000E+00 -0.70434346196E+03  0.70434346196E+03  0.00000000000E+00 0. -1.
         23    2    1    2    0    0  0.44800812740E+01  0.14420583105E+02 -0.33656469481E+03  0.34929231157E+03  0.92202498806E+02 0.  0.
          5    1    1    2  502    0  0.28248778534E+02  0.17948120941E+02 -0.20989762516E+02  0.39726201233E+02  0.41800000000E+01 0. -1.
         -5    1    1    2    0  502 -0.32728859808E+02 -0.32368704046E+02 -0.32944367177E+03  0.33267028202E+03  0.41800000000E+01 0. -1.
        -11    1    3    3    0    0  0.54504482872E+01 -0.36654663108E+02 -0.87179275059E+02  0.94728547513E+02  0.00000000000E+00 0. -1.
         11    1    3    3    0    0 -0.97036701325E+00  0.51075246214E+02 -0.24938541975E+03  0.25456376406E+03  0.00000000000E+00 0.  1.
</event>
<event>
 7    1  0.6584658E-006  0.1574986E+03  0.7561462E-02  0.1191550E+00
         -2   -1    0    0    0  501 -0.00000000000E+00  0.00000000000E+00  0.26117071723E+03  0.26117071723E+03  0.00000000000E+00 0.  1.
          2   -1    0    0  501    0  0.00000000000E+00 -0.00000000000E+00 -0.10100107565E+03  0.10100107565E+03  0.00000000000E+00 0. -1.
         23    2    1    2    0    0 -0.85755083452E+02 -0.84914310175E+02  0.67347565146E+02  0.16512897879E+03  0.90374281149E+02 0.  0.
          5    1    1    2  502    0  0.11082273500E+02  0.97266873091E+02  0.53878433059E+02  0.11182137245E+03  0.41800000000E+01 0. -1.
         -5    1    1    2    0  502  0.74672809952E+02 -0.12352562916E+02  0.38943643380E+02  0.85221441647E+02  0.41800000000E+01 0. -1.
        -11    1    3    3    0    0 -0.74458960827E+02 -0.22505140857E+02  0.78744853148E+01  0.78183282940E+02  0.00000000000E+00 0. -1.
         11    1    3    3    0    0 -0.11296122626E+02 -0.62409169318E+02  0.59473079831E+02  0.86945695845E+02  0.00000000000E+00 0.  1.
</event>
<event>
 7    1  0.6584658E-006  0.1146264E+03  0.7561462E-02  0.1252235E+00
          2   -1    0    0  501    0  0.00000000000E+00  0.00000000000E+00  0.22560382709E+03  0.22560382709E+03  0.00000000000E+00 0. -1.
         -2   -1    0    0    0  501 -0.00000000000E+00 -0.00000000000E+00 -0.64581818398E+02  0.64581818398E+02  0.00000000000E+00 0.  1.
         23    2    1    2    0    0  0.19324010856E+02  0.39353538757E+02  0.30319314406E+02  0.10402705617E+03  0.89332240439E+02 0.  0.
          5    1    1    2  502    0 -0.64362322050E+02 -0.52034456383E+02  0.64653074474E+02  0.10510749540E+03  0.41800000000E+01 0.  1.
         -5    1    1    2    0  502  0.45038311193E+02  0.12680917626E+02  0.66049619810E+02  0.81051093910E+02  0.41800000000E+01 0.  1.
        -11    1    3    3    0    0  0.41502490336E+02  0.57386786008E+02  0.23743820916E+02  0.74695842883E+02  0.00000000000E+00 0.  1.
         11    1    3    3    0    0 -0.22178479479E+02 -0.18033247251E+02  0.65754934900E+01  0.29331213290E+02  0.00000000000E+00 0. -1.
</event>
<event>
 7    1  0.6584658E-006  0.9056588E+02  0.7561462E-02  0.1301487E+00
         -4   -1    0    0    0  501 -0.00000000000E+00  0.00000000000E+00  0.46895614963E+02  0.46895614963E+02  0.00000000000E+00 0.  1.
          4   -1    0    0  501    0  0.00000000000E+00 -0.00000000000E+00 -0.31934365601E+03  0.31934365601E+03  0.00000000000E+00 0. -1.
         23    2    1    2    0    0  0.48516474423E+02  0.28999410465E+02 -0.13270241187E+03  0.17035346840E+03  0.90639726291E+02 0.  0.
          5    1    1    2  502    0 -0.58540261740E+02 -0.11422575844E+02 -0.15761146542E+03  0.16857130217E+03  0.41800000000E+01 0.  1.
         -5    1    1    2    0  502  0.10023787317E+02 -0.17576834620E+02  0.17865836245E+02  0.27314500401E+02  0.41800000000E+01 0.  1.
        -11    1    3    3    0    0  0.14111496418E+02 -0.29563308162E+02 -0.18890512648E+02  0.37815010098E+02  0.00000000000E+00 0.  1.
         11    1    3    3    0    0  0.34404978005E+02  0.58562718627E+02 -0.11381189922E+03  0.13253845830E+03  0.00000000000E+00 0. -1.
</event>
<event>
 7    1  0.6584658E-006  0.1171371E+03  0.7561462E-02  0.1247896E+00
          4   -1    0    0  501    0  0.00000000000E+00  0.00000000000E+00  0.25013408920E+02  0.25013408920E+02  0.00000000000E+00 0.  1.
         -4   -1    0    0    0  501 -0.00000000000E+00 -0.00000000000E+00 -0.66910223277E+03  0.66910223277E+03  0.00000000000E+00 0. -1.
         23    2    1    2    0    0 -0.21306202600E+01 -0.65190151652E+02 -0.29490595929E+03  0.31751196430E+03  0.97928684414E+02 0.  0.
          5    1    1    2  502    0  0.30104935014E+02 -0.13306950982E+02 -0.22218573690E+03  0.22464940716E+03  0.41800000000E+01 0. -1.
         -5    1    1    2    0  502 -0.27974314754E+02  0.78497102634E+02 -0.12699712765E+03  0.15195427023E+03  0.41800000000E+01 0. -1.
        -11    1    3    3    0    0 -0.13889529384E+02 -0.89543211649E+02 -0.22828307826E+03  0.24560958776E+03  0.00000000000E+00 0.  1.
         11    1    3    3    0    0  0.11758909124E+02  0.24353059997E+02 -0.66622881031E+02  0.71902376539E+02  0.00000000000E+00 0. -1.
</event>
<event>
 7    1  0.6584658E-006  0.8735354E+02  0.7561462E-02  0.1309390E+00
         -2   -1    0    0    0  501 -0.00000000000E+00  0.00000000000E+00  0.16631820646E+02  0.16631820646E+02  0.00000000000E+00 0.  1.
          2   -1    0    0  501    0  0.00000000000E+00 -0.00000000000E+00 -0.78161034429E+03  0.78161034429E+03  0.00000000000E+00 0. -1.
         23    2    1    2    0    0 -0.22005518226E+02 -0.46891407095E+01 -0.34177665522E+03  0.35636814648E+03  0.98390766356E+02 0.  0.
          5    1    1    2  502    0 -0.10421628393E+02  0.30259602548E+02 -0.38209728682E+03  0.38345803275E+03  0.41800000000E+01 0. -1.
         -5    1    1    2    0  502  0.32427146620E+02 -0.25570461839E+02 -0.41104581607E+02  0.58415985703E+02  0.41800000000E+01 0. -1.
        -11    1    3    3    0    0  0.46522322511E+01 -0.48995810994E+02 -0.16866947864E+03  0.17570323214E+03  0.00000000000E+00 0. -1.
         11    1    3    3    0    0 -0.26657750478E+02  0.44306670285E+02 -0.17310717657E+03  0.18066491434E+03  0.00000000000E+00 0.  1.
</event>
<event>
 7    1  0.6584658E-006  0.7362481E+02  0.7561462E-02  0.1348183E+00
         -4   -1    0    0    0  501 -0.00000000000E+00  0.00000000000E+00  0.17645823967E+03  0.17645823967E+03  0.00000000000E+00 0.  1.
          4   -1    0    0  501    0  0.00000000000E+00 -0.00000000000E+00 -0.92982622717E+02  0.92982622717E+02  0.00000000000E+00 0. -1.
         23    2    1    2    0    0 -0.11291599378E+02 -0.44387271744E+02 -0.16016683912E+02  0.10317554316E+03  0.91054535489E+02 0.  0.
          5    1    1    2  502    0  0.19228114097E+02  0.63213551939E+02  0.11997813909E+03  0.13703247710E+03  0.41800000000E+01 0. -1.
         -5    1    1    2    0  502 -0.79365147189E+01 -0.18826280196E+02 -0.20485838217E+02  0.29232842136E+02  0.41800000000E+01 0. -1.
        -11    1    3    3    0    0  0.11376093759E+02 -0.32832435460E+02 -0.49898130590E+02  0.60804668931E+02  0.00000000000E+00 0. -1.
         11    1    3    3    0    0 -0.22667693138E+02 -0.11554836284E+02  0.33881446679E+02  0.42370874227E+02  0.00000000000E+00 0.  1.
</event>
<event>
 7    1  0.6584658E-006  0.1149587E+03  0.7561462E-02  0.1251653E+00
          2   -1    0    0  501    0  0.00000000000E+00  0.00000000000E+00  0.12627182237E+03  0.12627182237E+03  0.00000000000E+00 0. -1.
         -2   -1    0    0    0  501 -0.00000000000E+00 -0.00000000000E+00 -0.10961293735E+03  0.10961293735E+03  0.00000000000E+00 0.  1.
         23    2    1    2    0    0  0.42166402653E+02  0.16444927946E+02  0.22142032683E+01  0.10204066076E+03  0.91427307652E+02 0.  0.
          5    1    1    2  502    0 -0.13529476290E+02  0.52137204311E+02  0.23386885364E+02  0.58870651509E+02  0.41800000000E+01 0. -1.
         -5    1    1    2    0  502 -0.28636926362E+02 -0.68582132258E+02 -0.89422036165E+01  0.74973447447E+02  0.41800000000E+01 0. -1.
        -11    1    3    3    0    0  0.45701692588E+02 -0.30132714102E+02  0.65326448559E+01  0.55129852289E+02  0.00000000000E+00 0.  1.
         11    1    3    3    0    0 -0.35352899355E+01  0.46577642048E+02 -0.43184415876E+01  0.46910808471E+02  0.00000000000E+00 0. -1.
</event>
<event>
 7    1  0.6584658E-006  0.1162208E+03  0.7561462E-02  0.1249465E+00
         -1   -1    0    0    0  501 -0.00000000000E+00  0.00000000000E+00  0.23418662213E+02  0.23418662213E+02  0.00000000000E+00 0.  1.
          1   -1    0    0  501    0  0.00000000000E+00 -0.00000000000E+00 -0.64879196563E+03  0.64879196563E+03  0.00000000000E+00 0. -1.
         23    2    1    2    0    0 -0.52969144489E+01 -0.43549929686E+02 -0.37499996940E+03  0.38891023088E+03  0.93282029096E+02 0.  0.
          5    1    1    2  502    0  0.42196973990E+02 -0.27218835443E+02 -0.72423474362E+02  0.88227442758E+02  0.41800000000E+01 0.  1.
         -5    1    1    2    0  502 -0.36900059541E+02  0.70768765129E+02 -0.17794985965E+03  0.19507295420E+03  0.41800000000E+01 0.  1.
        -11    1    3    3    0    0 -0.16564829096E+02  0.26462723771E+02 -0.91656024123E+02  0.96827145317E+02  0.00000000000E+00 0.  1.
         11    1    3    3    0    0  0.11267914647E+02 -0.70012653456E+02 -0.28334394528E+03  0.29208308556E+03  0.00000000000E+00 0. -1.
</event>
<event>
 7    1  0.6584658E-006  0.1167734E+03  0.7561462E-02  0.1248517E+00
          2   -1    0    0  501    0  0.00000000000E+00  0.00000000000E+00  0.29202653926E+03  0.29202653926E+03  0.00000000000E+00 0.  1.
         -2   -1    0    0    0  501 -0.00000000000E+00 -0.00000000000E+00 -0.60457070443E+02  0.60457070443E+02  0.00000000000E+00 0. -1.
         23    2    1    2    0    0  0.66614452528E+02  0.34789531982E+02  0.84403908545E+02  0.14523623129E+03  0.91223605943E+02 0.  0.
          5    1    1    2  502    0 -0.68029489346E+02  0.11567311322E+02  0.20217293812E+02  0.72027949304E+02  0.41800000000E+01 0.  1.
         -5    1    1    2    0  502  0.14150368177E+01 -0.46356843304E+02  0.12694826646E+03  0.13521942910E+03  0.41800000000E+01 0.  1.
        -11    1    3    3    0    0  0.77574114981E+02  0.54837764807E+02  0.72279968819E+02  0.11937050581E+03  0.00000000000E+00 0.  1.
         11    1    3    3    0    0 -0.10959662453E+02 -0.20048232824E+02  0.12123939726E+02  0.25865725486E+02  0.00000000000E+00 0. -1.
</event>
<event>
 7    1  0.6584658E-006  0.1103924E+03  0.7561462E-02  0.1259845E+00
          2   -1    0    0  501    0  0.00000000000E+00  0.00000000000E+00  0.75975367139E+03  0.75975367139E+03  0.00000000000E+00 0. -1.
         -2   -1    0    0    0  501 -0.00000000000E+00 -0.00000000000E+00 -0.18093554017E+02  0.18093554017E+02  0.00000000000E+00 0.  1.
         23    2    1    2    0    0 -0.13568876070E+01 -0.43237937513E+02  0.33150144756E+03  0.34686028961E+03  0.92452638628E+02 0.  0.
          5    1    1    2  502    0 -0.17205831717E+02  0.81078229231E+02  0.19880707248E+03  0.21543315522E+03  0.41800000000E+01 0.  1.
         -5    1    1    2    0  502  0.18562719324E+02 -0.37840291719E+02  0.21135159734E+03  0.21555378058E+03  0.41800000000E+01 0.  1.
        -11    1    3    3    0    0  0.34805672069E+02 -0.47652162129E+02  0.26000393940E+03  0.26661622582E+03  0.00000000000E+00 0. -1.
         11    1    3    3    0    0 -0.36162559676E+02  0.44142246166E+01  0.71497508152E+02  0.80244063788E+02  0.00000000000E+00 0.  1.
</event>
<event>
 7    1  0.6584658E-006  0.2151417E+03  0.7561462E-02  0.1137558E+00
         -2   -1    0    0    0  501 -0.00000000000E+00  0.00000000000E+00  0.58545012073E+02  0.58545012073E+02  0.00000000000E+00 0.  1.
          2   -1    0    0  501    0  0.00000000000E+00 -0.00000000000E+00 -0.91588995098E+03  0.91588995098E+03  0.00000000000E+00 0. -1.
         23    2    1    2    0    0 -0.11263445285E+03  0.16035718936E+03 -0.53416616522E+03  0.57632540203E+03  0.91741641674E+02 0.  0.
          5    1    1    2  502    0  0.13768494849E+03 -0.14460912674E+03 -0.29950403539E+03  0.35998483884E+03  0.41800000000E+01 0. -1.
         -5    1    1    2    0  502 -0.25050495642E+02 -0.15748062613E+02 -0.23674738288E+02  0.38124722176E+02  0.41800000000E+01 0. -1.
        -11    1    3    3    0    0 -0.43581053399E+02  0.29197757091E+02 -0.60839714751E+02  0.80332360388E+02  0.00000000000E+00 0.  1.
         11    1    3    3    0    0 -0.69053399448E+02  0.13115943226E+03 -0.47332645047E+03  0.49599304164E+03  0.00000000000E+00 0. -1.
</event>
<event>
 7    1  0.6584658E-006  0.1454133E+03  0.7561462E-02  0.1206225E+00
         -1   -1    0    0    0  501 -0.00000000000E+00  0.00000000000E+00  0.36846642944E+03  0.36846642944E+03  0.00000000000E+00 0.  1.
          1   -1    0    0  501    0  0.00000000000E+00 -0.00000000000E+00 -0.67000438139E+02  0.67000438139E+02  0.00000000000E+00 0. -1.
         23    2    1    2    0    0 -0.21631930213E+01 -0.10964201431E+03  0.11125741377E+03  0.18277476728E+03  0.94880728962E+02 0.  0.
          5    1    1    2  502    0  0.39098266798E+02  0.99953325001E+02  0.74351085182E+02  0.13063268317E+03  0.41800000000E+01 0.  1.
         -5    1    1    2    0  502 -0.36935073776E+02  0.96886893131E+01  0.11585749235E+03  0.12205941713E+03  0.41800000000E+01 0.  1.
        -11    1    3    3    0    0 -0.47223866559E+02 -0.72916870835E+02  0.65738114798E+02  0.10894247731E+03  0.00000000000E+00 0.  1.
         11    1    3    3    0    0  0.45060673538E+02 -0.36725143480E+02  0.45519298970E+02  0.73832289969E+02  0.00000000000E+00 0. -1.
</event>
<event>
 7    1  0.6584658E-006  0.2376202E+03  0.7561462E-02  0.1121388E+00
          2   -1    0    0  501    0  0.00000000000E+00  0.00000000000E+00  0.10992204415E+04  0.10992204415E+04  0.00000000000E+00 0. -1.
         -2   -1    0    0    0  501 -0.00000000000E+00 -0.00000000000E+00 -0.68727971384E+02  0.68727971384E+02  0.00000000000E+00 0.  1.
         23    2    1    2    0    0  0.14184401182E+03 -0.12878605988E+02  0.44904689707E+03  0.48223344014E+03  0.10305529023E+03 0.  0.
          5    1    1    2  502    0  0.59935431694E+02 -0.60446429243E+02  0.38619745076E+03  0.39548953230E+03  0.41800000000E+01 0. -1.
         -5    1    1    2    0  502 -0.20177944352E+03  0.73325035231E+02  0.19524812225E+03  0.29022544041E+03  0.41800000000E+01 0.  1.
        -11    1    3    3    0    0  0.12025907233E+03  0.32894768937E+02  0.33559602119E+03  0.35800698281E+03  0.00000000000E+00 0.  1.
         11    1    3    3    0    0  0.21584939495E+02 -0.45773374924E+02  0.11345087588E+03  0.12422645734E+03  0.00000000000E+00 0. -1.
</event>
<event>
 7    1  0.6584658E-006  0.1180997E+03  0.7561462E-02  0.1246265E+00
         -2   -1    0    0    0  501 -0.00000000000E+00  0.00000000000E+00  0.23133738987E+03  0.23133738987E+03  0.00000000000E+00 0. -1.
          2   -1    0    0  501    0  0.00000000000E+00 -0.00000000000E+00 -0.76433031278E+02  0.76433031278E+02  0.00000000000E+00 0.  1.
         23    2    1    2    0    0 -0.26397295355E+02  0.45575188662E+02  0.74135535373E+01  0.10733310332E+03  0.93228317949E+02 0.  0.
          5    1    1    2  502    0 -0.29439879326E+02  0.25129579730E+02  0.18656716013E+02  0.43171144582E+02  0.41800000000E+01 0. -1.
         -5    1    1    2    0  502  0.55837174682E+02 -0.70704768392E+02  0.12883408904E+03  0.15726617325E+03  0.41800000000E+01 0. -1.
        -11    1    3    3    0    0 -0.24591678607E+02 -0.25821000615E+02  0.24516369612E+01  0.35741925707E+02  0.00000000000E+00 0.  1.
         11    1    3    3    0    0 -0.18056167483E+01  0.71396189277E+02  0.49619165761E+01  0.71591177608E+02  0.00000000000E+00 0. -1.
</event>
<event>
 7    1  0.6584658E-006  0.1518304E+03  0.7561462E-02  0.1198242E+00
          2   -1    0    0  501    0  0.00000000000E+00  0.00000000000E+00  0.66564465515E+03  0.66564465515E+03  0.00000000000E+00 0. -1.
         -2   -1    0    0    0  501 -0.00000000000E+00 -0.00000000000E+00 -0.42066450297E+02  0.42066450297E+02  0.00000000000E+00 0.  1.
         23    2    1    2    0    0  0.11763570790E+02 -0.12463120777E+03  0.34238184405E+03  0.37546409738E+03  0.89870138157E+02 0.  0.
          5    1    1    2  502    0  0.43232525582E+02  0.42099554716E+01  0.84667315067E+02  0.95251255288E+02  0.41800000000E+01 0.  1.
         -5    1    1    2    0  502 -0.54996096372E+02  0.12042125230E+03  0.19652904573E+03  0.23699575278E+03  0.41800000000E+01 0.  1.
        -11    1    3    3    0    0  0.16200897470E+02 -0.45180679951E+02  0.24523103303E+03  0.24988401806E+03  0.00000000000E+00 0. -1.
         11    1    3    3    0    0 -0.44373266806E+01 -0.79450527817E+02  0.97150811019E+02  0.12558007931E+03  0.00000000000E+00 0.  1.
</event>
<event>
 7    1  0.6584658E-006  0.1076554E+03  0.7561462E-02  0.1264974E+00
          1   -1    0    0  501    0  0.00000000000E+00  0.00000000000E+00  0.31852968693E+02  0.31852968693E+02  0.00000000000E+00 0. -1.
         -1   -1    0    0    0  501 -0.00000000000E+00 -0.00000000000E+00 -0.61141827460E+03  0.61141827460E+03  0.00000000000E+00 0.  1.
         23    2    1    2    0    0 -0.49503720635E+02 -0.34095602874E+02 -0.11413479689E+03  0.15759005952E+03  0.90524839176E+02 0.  0.
          5    1    1    2  502    0  0.77031786468E+02  0.52531730559E+02 -0.23520049006E+03  0.25304193677E+03  0.41800000000E+01 0. -1.
         -5    1    1    2    0  502 -0.27528065833E+02 -0.18436127686E+02 -0.23023001896E+03  0.23263924700E+03  0.41800000000E+01 0. -1.
        -11    1    3    3    0    0 -0.65493034783E+02 -0.30237257102E+02 -0.12009570144E+03  0.14009499216E+03  0.00000000000E+00 0.  1.
         11    1    3    3    0    0  0.15989314148E+02 -0.38583457719E+01  0.59609045565E+01  0.17495067366E+02  0.00000000000E+00 0. -1.
</event>
<event>
 7    1  0.6584658E-006  0.1215638E+03  0.7561462E-02  0.1240539E+00
          2   -1    0    0  501    0  0.00000000000E+00  0.00000000000E+00  0.93764438334E+03  0.93764438334E+03  0.00000000000E+00 0. -1.
         -2   -1    0    0    0  501 -0.00000000000E+00 -0.00000000000E+00 -0.17112485414E+02  0.17112485414E+02  0.00000000000E+00 0.  1.
         23    2    1    2    0    0 -0.40936653032E+01  0.64163597669E+02  0.44195807839E+03  0.45594387005E+03  0.91783136900E+02 0.  0.
          5    1    1    2  502    0 -0.22232073929E+02  0.27891423653E+02  0.64802873937E+02  0.74088335756E+02  0.41800000000E+01 0.  1.
         -5    1    1    2    0  502  0.26325739232E+02 -0.92055021321E+02  0.41377094560E+03  0.42472466295E+03  0.41800000000E+01 0.  1.
        -11    1    3    3    0    0  0.40395032533E+02  0.50847891582E+02  0.28202249698E+03  0.28940275661E+03  0.00000000000E+00 0.  1.
         11    1    3    3    0    0 -0.44488697836E+02  0.13315706086E+02  0.15993558141E+03  0.16654111344E+03  0.00000000000E+00 0. -1.
</event>
<event>
 7    1  0.6584658E-006  0.1119636E+03  0.7561462E-02  0.1256976E+00
         -1   -1    0    0    0  501 -0.00000000000E+00  0.00000000000E+00  0.88211287564E+02  0.88211287564E+02  0.00000000000E+00 0.  1.
          1   -1    0    0  501    0  0.00000000000E+00 -0.00000000000E+00 -0.14453089279E+03  0.14453089279E+03  0.00000000000E+00 0. -1.
         23    2    1    2    0    0  0.24902932077E+02  0.18111371377E+02 -0.26517891260E+02  0.10051086501E+03  0.91929634118E+02 0.  0.
          5    1    1    2  502    0  0.48063368408E+02  0.10420604456E+02 -0.19626847897E+02  0.53116494032E+02  0.41800000000E+01 0.  1.
         -5    1    1    2    0  502 -0.72966300485E+02 -0.28531975833E+02 -0.10174866068E+02  0.79114821309E+02  0.41800000000E+01 0.  1.
        -11    1    3    3    0    0  0.16651016793E+02  0.55437791578E+02 -0.22378719107E+02  0.62059746730E+02  0.00000000000E+00 0.  1.
         11    1    3    3    0    0  0.82519152837E+01 -0.37326420201E+02 -0.41391721525E+01  0.38451118280E+02  0.00000000000E+00 0. -1.
</event>
<event>
 7    1  0.6584658E-006  0.1123717E+03  0.7561462E-02  0.1256240E+00
          1   -1    0    0  501    0  0.00000000000E+00  0.00000000000E+00  0.91029031300E+02  0.91029031300E+02  0.00000000000E+00 0. -1.
         -1   -1    0    0    0  501 -0.00000000000E+00 -0.00000000000E+00 -0.18983676938E+03  0.18983676938E+03  0.00000000000E+00 0.  1.
         23    2    1    2    0    0 -0.39190892648E+02  0.59143945195E+02 -0.19364507036E+02  0.11656971226E+03  0.90441038055E+02 0.  0.
          5    1    1    2  502    0  0.72021883846E+02 -0.58422929231E+02 -0.18085382609E+02  0.94577713426E+02  0.41800000000E+01 0. -1.
         -5    1    1    2    0  502 -0.32830991199E+02 -0.72101596430E+00 -0.61357848437E+02  0.69718374995E+02  0.41800000000E+01 0. -1.
        -11    1    3    3    0    0  0.17609247452E+02  0.30439091299E+02 -0.36477308338E+02  0.50667720480E+02  0.00000000000E+00 0.  1.
         11    1    3    3    0    0 -0.56800140100E+02  0.28704853896E+02  0.17112801302E+02  0.65901991783E+02  0.00000000000E+00 0. -1.
</event>
<event>
 7    1  0.6584658E-006  0.7733741E+02  0.7561462E-02  0.1336782E+00
          2   -1    0    0  501    0  0.00000000000E+00  0.00000000000E+00  0.38026502675E+02  0.38026502675E+02  0.00000000000E+00 0. -1.
         -2   -1    0    0    0  501 -0.00000000000E+00 -0.00000000000E+00 -0.30399027333E+03  0.30399027333E+03  0.00000000000E+00 0.  1.
         23    2    1    2    0    0  0.28151879400E+02  0.13502966877E+02 -0.89551506142E+02  0.12351055213E+03  0.79123484551E+02 0.  0.
          5    1    1    2  502    0 -0.33795591025E+02  0.32216612109E+02 -0.16406505105E+03  0.17063078692E+03  0.41800000000E+01 0. -1.
         -5    1    1    2    0  502  0.56437116241E+01 -0.45719578986E+02 -0.12347213467E+02  0.47875436958E+02  0.41800000000E+01 0. -1.
        -11    1    3    3    0    0 -0.28277671123E+01  0.27429767549E+02 -0.84852827990E+02  0.89221022369E+02  0.00000000000E+00 0.  1.
         11    1    3    3    0    0  0.30979646513E+02 -0.13926800672E+02 -0.46986781512E+01  0.34289529763E+02  0.00000000000E+00 0. -1.
</event>
<event>
 7    1  0.6584658E-006  0.1011115E+03  0.7561462E-02  0.1277976E+00
         -1   -1    0    0    0  501 -0.00000000000E+00  0.00000000000E+00  0.76151761545E+02  0.76151761545E+02  0.00000000000E+00 0.  1.
          1   -1    0    0  501    0  0.00000000000E+00 -0.00000000000E+00 -0.17690224957E+03  0.17690224957E+03  0.00000000000E+00 0. -1.
         23    2    1    2    0    0  0.30133293592E+02  0.21891047364E+02 -0.46230280339E+02  0.11160678028E+03  0.94507149181E+02 0.  0.
          5    1    1    2  502    0 -0.78627889249E+02 -0.18725927755E+02 -0.41538348109E+02  0.90972040219E+02  0.41800000000E+01 0. -1.
         -5    1    1    2    0  502  0.48494595656E+02 -0.31651196093E+01 -0.12981859579E+02  0.50475190620E+02  0.41800000000E+01 0. -1.
        -11    1    3    3    0    0  0.14459922524E+02 -0.21762745112E+02 -0.58121509220E+02  0.63724534272E+02  0.00000000000E+00 0. -1.
         11    1    3    3    0    0  0.15673371068E+02  0.43653792476E+02  0.11891228881E+02  0.47882246005E+02  0.00000000000E+00 0.  1.
</event>
<event>
 7    1  0.6584658E-006  0.9662261E+02  0.7561462E-02  0.1287563E+00
          1   -1    0    0  501    0  0.00000000000E+00  0.00000000000E+00  0.31624286435E+03  0.31624286435E+03  0.00000000000E+00 0.  1.
         -1   -1    0    0    0  501 -0.00000000000E+00 -0.00000000000E+00 -0.58673246010E+02  0.58673246010E+02  0.00000000000E+00 0. -1.
         23    2    1    2    0    0 -0.82141713828E+02 -0.18817022674E+02  0.10331521861E+03  0.15917659012E+03  0.86958673826E+02 0.  0.
          5    1    1    2  502    0  0.52363421017E+02 -0.22485338251E+02  0.42778136796E+01  0.57300003375E+02  0.41800000000E+01 0. -1.
         -5    1    1    2    0  502  0.29778292810E+02  0.41302360925E+02  0.14997658604E+03  0.15843951686E+03  0.41800000000E+01 0. -1.
        -11    1    3    3    0    0 -0.43815632487E+02 -0.15776754341E+02  0.11063749984E+03  0.12003904364E+03  0.00000000000E+00 0.  1.
         11    1    3    3    0    0 -0.38326081341E+02 -0.30402683333E+01 -0.73222812235E+01  0.39137546484E+02  0.00000000000E+00 0. -1.
</event>
<event>
 7    1  0.6584658E-006  0.1096433E+03  0.7561462E-02  0.1261232E+00
         -2   -1    0    0    0  501 -0.00000000000E+00  0.00000000000E+00  0.42108276330E+03  0.42108276330E+03  0.00000000000E+00 0.  1.
          2   -1    0    0  501    0  0.00000000000E+00 -0.00000000000E+00 -0.50213733271E+02  0.50213733271E+02  0.00000000000E+00 0. -1.
         23    2    1    2    0    0  0.32526679791E+02  0.51562816917E+02  0.51522385515E+02  0.12295046182E+03  0.93517650029E+02 0.  0.
          5    1    1    2  502    0  0.31901628025E+02 -0.34534482923E+02  0.24021097519E+03  0.24480426749E+03  0.41800000000E+01 0. -1.
         -5    1    1    2    0  502 -0.64428307816E+02 -0.17028333993E+02  0.79135669322E+02  0.10354176725E+03  0.41800000000E+01 0. -1.
        -11    1    3    3    0    0  0.61411970274E+02  0.43717861266E+02  0.17032757931E+02  0.77283868494E+02  0.00000000000E+00 0. -1.
         11    1    3    3    0    0 -0.28885290484E+02  0.78449556509E+01  0.34489627583E+02  0.45666593329E+02  0.00000000000E+00 0.  1.
</event>
<event>
 7    1  0.6584658E-006  0.8338013E+02  0.7561462E-02  0.1319724E+00
         -2   -1    0    0    0  501 -0.00000000000E+00  0.00000000000E+00  0.38426401267E+02  0.38426401267E+02  0.00000000000E+00 0.  1.
          2   -1    0    0  501    0  0.00000000000E+00 -0.00000000000E+00 -0.32702078254E+03  0.32702078254E+03  0.00000000000E+00 0. -1.
         23    2    1    2    0    0  0.29821996395E+01  0.25869035507E+02 -0.18093455179E+03  0.19836519844E+03  0.77028172804E+02 0.  0.
          5    1    1    2  502    0 -0.56403757476E+02  0.58723045830E+01 -0.81854924366E+02  0.99667290831E+02  0.41800000000E+01 0.  1.
         -5    1    1    2    0  502  0.53421557836E+02 -0.31741340090E+02 -0.25804905120E+02  0.67414694545E+02  0.41800000000E+01 0.  1.
        -11    1    3    3    0    0  0.31363597984E+01  0.36675736327E+02 -0.18358358081E+03  0.18723748965E+03  0.00000000000E+00 0. -1.
         11    1    3    3    0    0 -0.15416015897E+00 -0.10806700820E+02  0.26490290210E+01  0.11127708781E+02  0.00000000000E+00 0.  1.
</event>
<event>
 7    1  0.6584658E-006  0.1154051E+03  0.7561462E-02  0.1250876E+00
         -1   -1    0    0    0  501 -0.00000000000E+00  0.00000000000E+00  0.17982082462E+02  0.17982082462E+02  0.00000000000E+00 0.  1.
          1   -1    0    0  501    0  0.00000000000E+00 -0.00000000000E+00 -0.74979022460E+03  0.74979022460E+03  0.00000000000E+00 0. -1.
         23    2    1    2    0    0  0.32480249079E+01  0.38449306701E+02 -0.27878624949E+03  0.29621401017E+03  0.92369194356E+02 0.  0.
          5    1    1    2  502    0 -0.39375592007E+02  0.32473434257E+02 -0.17692675931E+03  0.18418879374E+03  0.41800000000E+01 0. -1.
         -5    1    1    2    0  502  0.36127567100E+02 -0.70922740958E+02 -0.27609513334E+03  0.28736950316E+03  0.41800000000E+01 0. -1.
        -11    1    3    3    0    0  0.43434979586E+02 -0.11877033377E+01 -0.11187118545E+03  0.12001320854E+03  0.00000000000E+00 0. -1.
         11    1    3    3    0    0 -0.40186954678E+02  0.39637010039E+02 -0.16691506404E+03  0.17620080163E+03  0.00000000000E+00 0.  1.
</event>
<event>
 7    1  0.6584658E-006  0.1126396E+03  0.7561462E-02  0.1255758E+00
         -1   -1    0    0    0  501 -0.00000000000E+00  0.00000000000E+00  0.26025148039E+03  0.26025148039E+03  0.00000000000E+00 0.  1.
          1   -1    0    0  501    0  0.00000000000E+00 -0.00000000000E+00 -0.13253764374E+03  0.13253764374E+03  0.00000000000E+00 0. -1.
         23    2    1    2    0    0 -0.50122084512E+02 -0.79446187822E+02 -0.64341839921E+02  0.14508613322E+03  0.89923264921E+02 0.  0.
          5    1    1    2  502    0  0.45975226931E+02  0.45001841304E+02  0.20145294469E+03  0.21151748991E+03  0.41800000000E+01 0. -1.
         -5    1    1    2    0  502  0.41468575805E+01  0.34444346518E+02 -0.93972681138E+01  0.36185501003E+02  0.41800000000E+01 0. -1.
        -11    1    3    3    0    0  0.13310960366E+02 -0.57069467308E+02 -0.11906040558E+02  0.59798491339E+02  0.00000000000E+00 0.  1.
         11    1    3    3    0    0 -0.63433044878E+02 -0.22376720514E+02 -0.52435799362E+02  0.85287641884E+02  0.00000000000E+00 0. -1.
</event>
<event>
 7    1  0.6584658E-006  0.2353530E+03  0.7561462E-02  0.1122928E+00
         -2   -1    0    0    0  501 -0.00000000000E+00  0.00000000000E+00  0.18802644095E+04  0.18802644095E+04  0.00000000000E+00 0.  1.
          2   -1    0    0  501    0  0.00000000000E+00 -0.00000000000E+00 -0.37181368415E+02  0.37181368415E+02  0.00000000000E+00 0. -1.
         23    2    1    2    0    0  0.12123236654E+03  0.19126840551E+03  0.60318972391E+03  0.65072565004E+03  0.91242199395E+02 0.  0.
          5    1    1    2  502    0 -0.73631044880E+02 -0.12980991487E+03  0.47585557015E+03  0.49872651905E+03  0.41800000000E+01 0. -1.
         -5    1    1    2    0  502 -0.47601321664E+02 -0.61458490637E+02  0.76403774705E+03  0.76799360884E+03  0.41800000000E+01 0.  1.
        -11    1    3    3    0    0  0.11849369609E+03  0.10824815696E+03  0.41834084606E+03  0.44807084593E+03  0.00000000000E+00 0. -1.
         11    1    3    3    0    0  0.27386704593E+01  0.83020248549E+02  0.18484887785E+03  0.20265480411E+03  0.00000000000E+00 0.  1.
</event>
<event>
 7    1  0.7364713E-006  0.2042375E+03  0.7561462E-02  0.1146212E+00
         -1   -1    0    0    0  501 -0.00000000000E+00  0.00000000000E+00  0.42509030583E+03  0.42509030583E+03  0.00000000000E+00 0.  1.
          1   -1    0    0  501    0  0.00000000000E+00 -0.00000000000E+00 -0.10951491940E+03  0.10951491940E+03  0.00000000000E+00 0. -1.
         23    2    1    2    0    0  0.39712001771E+02 -0.17565655352E+03  0.93387858815E+02  0.22244022894E+03  0.91247440494E+02 0.  0.
          5    1    1    2  502    0 -0.84291251805E+02  0.12609282087E+03  0.14210561345E+03  0.20788432452E+03  0.41800000000E+01 0.  1.
         -5    1    1    2    0  502  0.44579250034E+02  0.49563732649E+02  0.80081914174E+02  0.10428067177E+03  0.41800000000E+01 0.  1.
        -11    1    3    3    0    0  0.34335347559E+02 -0.34434703248E+02  0.59989807681E+02  0.77223324879E+02  0.00000000000E+00 0.  1.
         11    1    3    3    0    0  0.53766542119E+01 -0.14122185027E+03  0.33398051134E+02  0.14521690406E+03  0.00000000000E+00 0. -1.
</event>
<event>
 7    1  0.6584658E-006  0.1288568E+03  0.7561462E-02  0.1229162E+00
          3   -1    0    0  501    0  0.00000000000E+00  0.00000000000E+00  0.73846619783E+03  0.73846619783E+03  0.00000000000E+00 0. -1.
         -3   -1    0    0    0  501 -0.00000000000E+00 -0.00000000000E+00 -0.39809464321E+02  0.39809464321E+02  0.00000000000E+00 0.  1.
         23    2    1    2    0    0  0.32816281456E+02 -0.10835251090E+03  0.48137524421E+03  0.50318579813E+03  0.93041102502E+02 0.  0.
          5    1    1    2  502    0 -0.17429499075E+02  0.79263196389E+02  0.22651927367E+03  0.24065513808E+03  0.41800000000E+01 0. -1.
         -5    1    1    2    0  502 -0.15386782381E+02  0.29089314514E+02 -0.92377843675E+01  0.34434725946E+02  0.41800000000E+01 0. -1.
        -11    1    3    3    0    0  0.29472073316E+02  0.49843259398E+01  0.14998866231E+03  0.15293804442E+03  0.00000000000E+00 0.  1.
         11    1    3    3    0    0  0.33442081401E+01 -0.11333683684E+03  0.33138658191E+03  0.35024775371E+03  0.00000000000E+00 0. -1.
</event>
<event>
 7    1  0.6584658E-006  0.1076046E+03  0.7561462E-02  0.1265071E+00
          1   -1    0    0  501    0  0.00000000000E+00  0.00000000000E+00  0.68484749273E+02  0.68484749273E+02  0.00000000000E+00 0. -1.
         -1   -1    0    0    0  501 -0.00000000000E+00 -0.00000000000E+00 -0.23294874156E+03  0.23294874156E+03  0.00000000000E+00 0.  1.
         23    2    1    2    0    0 -0.38043204815E+01 -0.57148288322E+02 -0.52435964947E+02  0.12401312621E+03  0.96691909386E+02 0.  0.
          5    1    1    2  502    0  0.54611642339E+02  0.21711964483E+01 -0.77375945398E+02  0.94824337062E+02  0.41800000000E+01 0.  1.
         -5    1    1    2    0  502 -0.50807321858E+02  0.54977091873E+02 -0.34652081940E+02  0.82596027556E+02  0.41800000000E+01 0.  1.
        -11    1    3    3    0    0  0.29831871946E+02 -0.27884789368E+02 -0.65824551116E+02  0.77462078409E+02  0.00000000000E+00 0.  1.
         11    1    3    3    0    0 -0.33636192427E+02 -0.29263498954E+02  0.13388586169E+02  0.46551047803E+02  0.00000000000E+00 0. -1.
</event>
<event>
 7    1  0.6584658E-006  0.8957962E+02  0.7561462E-02  0.1303873E+00
          4   -1    0    0  501    0  0.00000000000E+00  0.00000000000E+00  0.26980965798E+03  0.26980965798E+03  0.00000000000E+00 0. -1.
         -4   -1    0    0    0  501 -0.00000000000E+00 -0.00000000000E+00 -0.60795312443E+02  0.60795312443E+02  0.00000000000E+00 0.  1.
         23    2    1    2    0    0 -0.47968165833E+02  0.37734810201E+02  0.12962474335E+03  0.17037050048E+03  0.92188244978E+02 0.  0.
          5    1    1    2  502    0 -0.31523475266E+02 -0.14658991289E+02 -0.11855657488E+02  0.36968155661E+02  0.41800000000E+01 0.  1.
         -5    1    1    2    0  502  0.79491641099E+02 -0.23075818912E+02  0.91245259680E+02  0.12326631428E+03  0.41800000000E+01 0.  1.
        -11    1    3    3    0    0 -0.21399433653E+02  0.20229836583E+02 -0.68515341425E+01  0.30234509570E+02  0.00000000000E+00 0.  1.
         11    1    3    3    0    0 -0.26568732180E+02  0.17504973618E+02  0.13647627749E+03  0.14013599091E+03  0.00000000000E+00 0. -1.
</event>
<event>
 7    1  0.6584658E-006  0.2182869E+03  0.7561462E-02  0.1135167E+00
          1   -1    0    0  501    0  0.00000000000E+00  0.00000000000E+00  0.89542388475E+03  0.89542388475E+03  0.00000000000E+00 0. -1.
         -1   -1    0    0    0  501 -0.00000000000E+00 -0.00000000000E+00 -0.58720550379E+02  0.58720550379E+02  0.00000000000E+00 0.  1.
         23    2    1    2    0    0 -0.15214245548E+03  0.11625639620E+03  0.53524486467E+03  0.57574467892E+03  0.91279755302E+02 0.  0.
          5    1    1    2  502    0  0.12127634454E+03 -0.14208220337E+03  0.23055051359E+03  0.29675969399E+03  0.41800000000E+01 0. -1.
         -5    1    1    2    0  502  0.30866110940E+02  0.25825807170E+02  0.70907956108E+02  0.81640062224E+02  0.41800000000E+01 0. -1.
        -11    1    3    3    0    0 -0.10424997222E+03  0.26559005048E+02  0.22788772721E+03  0.25200447153E+03  0.00000000000E+00 0.  1.
         11    1    3    3    0    0 -0.47892483258E+02  0.89697391149E+02  0.30735713746E+03  0.32374020739E+03  0.00000000000E+00 0. -1.
</event>
<event>
 7    1  0.6584658E-006  0.1279759E+03  0.7561462E-02  0.1230490E+00
          1   -1    0    0  501    0  0.00000000000E+00  0.00000000000E+00  0.81062389616E+02  0.81062389616E+02  0.00000000000E+00 0. -1.
         -1   -1    0    0    0  501 -0.00000000000E+00 -0.00000000000E+00 -0.23003230404E+03  0.23003230404E+03  0.00000000000E+00 0.  1.
         23    2    1    2    0    0  0.19787350536E+02 -0.76934605161E+02 -0.38491311266E+02  0.12626028221E+03  0.90275163296E+02 0.  0.
          5    1    1    2  502    0  0.44882773564E+02  0.66491717255E+02 -0.76460295711E+02  0.11090203355E+03  0.41800000000E+01 0. -1.
         -5    1    1    2    0  502 -0.64670124101E+02  0.10442887907E+02 -0.34018307445E+02  0.73932377890E+02  0.41800000000E+01 0. -1.
        -11    1    3    3    0    0  0.31974447031E+02  0.11244312704E+00 -0.36092104858E+02  0.48218439828E+02  0.00000000000E+00 0.  1.
         11    1    3    3    0    0 -0.12187096495E+02 -0.77047048288E+02 -0.23992064087E+01  0.78041842382E+02  0.00000000000E+00 0. -1.
</event>
<event>
 7    1  0.6584658E-006  0.1049164E+03  0.7561462E-02  0.1270284E+00
          1   -1    0    0  501    0  0.00000000000E+00  0.00000000000E+00  0.35432511562E+03  0.35432511562E+03  0.00000000000E+00 0. -1.
         -1   -1    0    0    0  501 -0.00000000000E+00 -0.00000000000E+00 -0.48291001726E+02  0.48291001726E+02  0.00000000000E+00 0.  1.
         23    2    1    2    0    0  0.64821645837E+02  0.33183280768E+02  0.13314910444E+03  0.17713945045E+03  0.91360412665E+02 0.  0.
          5    1    1    2  502    0 -0.57964743529E+02  0.52763950832E+01  0.11626914476E+02  0.59501339294E+02  0.41800000000E+01 0. -1.
         -5    1    1    2    0  502 -0.68569023073E+01 -0.38459675851E+02  0.16125809498E+03  0.16597532760E+03  0.41800000000E+01 0. -1.
        -11    1    3    3    0    0  0.37050284880E+02  0.61963183704E+02  0.60432715886E+02  0.94150267624E+02  0.00000000000E+00 0.  1.
         11    1    3    3    0    0  0.27771360957E+02 -0.28779902936E+02  0.72716388552E+02  0.82989182828E+02  0.00000000000E+00 0. -1.
</event>
<event>
 7    1  0.6584658E-006  0.8795553E+02  0.7561462E-02  0.1307880E+00
         -1   -1    0    0    0  501 -0.00000000000E+00  0.00000000000E+00  0.33237278097E+02  0.33237278097E+02  0.00000000000E+00 0.  1.
          1   -1    0    0  501    0  0.00000000000E+00 -0.00000000000E+00 -0.41499681487E+03  0.41499681487E+03  0.00000000000E+00 0. -1.
         23    2    1    2    0    0  0.11929406476E+02 -0.16063212758E+02 -0.24170622331E+03  0.25939052837E+03  0.91984837233E+02 0.  0.
          5    1    1    2  502    0  0.32364791151E+02 -0.26952088385E+02 -0.11417177594E+03  0.12176436916E+03  0.41800000000E+01 0. -1.
         -5    1    1    2    0  502 -0.44294197626E+02  0.43015301143E+02 -0.25881537521E+02  0.67079195435E+02  0.41800000000E+01 0. -1.
        -11    1    3    3    0    0  0.38389891367E+02  0.38537135043E+01 -0.42301691046E+02  0.57254414085E+02  0.00000000000E+00 0.  1.
         11    1    3    3    0    0 -0.26460484891E+02 -0.19916926263E+02 -0.19940453226E+03  0.20213611429E+03  0.00000000000E+00 0. -1.
</event>
<event>
 7    1  0.6584658E-006  0.6080026E+02  0.7561462E-02  0.1394504E+00
         -2   -1    0    0    0  501 -0.00000000000E+00  0.00000000000E+00  0.48109850720E+02  0.48109850720E+02  0.00000000000E+00 0.  1.
          2   -1    0    0  501    0  0.00000000000E+00 -0.00000000000E+00 -0.21579902121E+03  0.21579902121E+03  0.00000000000E+00 0. -1.
         23    2    1    2    0    0  0.47419283355E+01 -0.28324789890E+00 -0.90505261032E+02  0.11689079871E+03  0.73822018629E+02 0.  0.
          5    1    1    2  502    0 -0.21931526636E+02  0.34485621864E+02  0.17613444128E+02  0.44698498744E+02  0.41800000000E+01 0. -1.
         -5    1    1    2    0  502  0.17189598301E+02 -0.34202373965E+02 -0.94797353587E+02  0.10231957448E+03  0.41800000000E+01 0. -1.
        -11    1    3    3    0    0 -0.80682431458E+01  0.17978131305E+02 -0.92424573167E+02  0.94501912562E+02  0.00000000000E+00 0. -1.
         11    1    3    3    0    0  0.12810171481E+02 -0.18261379204E+02  0.19193121347E+01  0.22388886147E+02  0.00000000000E+00 0.  1.
</event>
<event>
 7    1  0.6584658E-006  0.1448377E+03  0.7561462E-02  0.1206964E+00
          2   -1    0    0  501    0  0.00000000000E+00  0.00000000000E+00  0.40272498888E+03  0.40272498888E+03  0.00000000000E+00 0. -1.
         -2   -1    0    0    0  501 -0.00000000000E+00 -0.00000000000E+00 -0.68173116418E+02  0.68173116418E+02  0.00000000000E+00 0.  1.
         23    2    1    2    0    0  0.41240982022E+02 -0.11791030333E+03  0.16624601870E+03  0.22681250505E+03  0.90567739763E+02 0.  0.
          5    1    1    2  502    0 -0.48876591856E+02  0.37935518427E+02  0.14894937910E+03  0.16134253848E+03  0.41800000000E+01 0.  1.
         -5    1    1    2    0  502  0.76356098341E+01  0.79974784905E+02  0.19356474664E+02  0.82743061761E+02  0.41800000000E+01 0.  1.
        -11    1    3    3    0    0 -0.18143565326E+02 -0.65649494175E+02  0.43607219093E+02  0.80874189982E+02  0.00000000000E+00 0. -1.
         11    1    3    3    0    0  0.59384547348E+02 -0.52260809157E+02  0.12263879961E+03  0.14593831507E+03  0.00000000000E+00 0.  1.
</event>
<event>
 7    1  0.6584658E-006  0.1020512E+03  0.7561462E-02  0.1276041E+00
         -1   -1    0    0    0  501 -0.00000000000E+00  0.00000000000E+00  0.93040545192E+03  0.93040545192E+03  0.00000000000E+00 0.  1.
          1   -1    0    0  501    0  0.00000000000E+00 -0.00000000000E+00 -0.13026251291E+02  0.13026251291E+02  0.00000000000E+00 0. -1.
         23    2    1    2    0    0  0.87872078545E+01  0.11863605112E+02  0.31208305130E+03  0.32516918501E+03  0.90117744218E+02 0.  0.
          5    1    1    2  502    0  0.44542487430E+02 -0.44128121944E+02  0.33482607919E+03  0.34067183628E+03  0.41800000000E+01 0. -1.
         -5    1    1    2    0  502 -0.53329695284E+02  0.32264516832E+02  0.27047007015E+03  0.27759068193E+03  0.41800000000E+01 0. -1.
        -11    1    3    3    0    0 -0.86090381655E+01  0.42607360429E+02  0.24990715970E+03  0.25365939992E+03  0.00000000000E+00 0.  1.
         11    1    3    3    0    0  0.17396246020E+02 -0.30743755318E+02  0.62175891600E+02  0.71509785085E+02  0.00000000000E+00 0. -1.
</event>
<event>
 7    1  0.6584658E-006  0.1497526E+03  0.7561462E-02  0.1200777E+00
          1   -1    0    0  501    0  0.00000000000E+00  0.00000000000E+00  0.57516976537E+03  0.57516976537E+03  0.00000000000E+00 0. -1.
         -1   -1    0    0    0  501 -0.00000000000E+00 -0.00000000000E+00 -0.54943889088E+02  0.54943889088E+02  0.00000000000E+00 0.  1.
         23    2    1    2    0    0 -0.88212548544E+02 -0.49587093596E+02  0.41245524709E+03  0.43453772014E+03  0.91996553200E+02 0.  0.
          5    1    1    2  502    0  0.18084754697E+02 -0.42950136505E+02  0.26296664341E+02  0.53672707531E+02  0.41800000000E+01 0. -1.
         -5    1    1    2    0  502  0.70127793846E+02  0.92537230101E+02  0.81473964860E+02  0.14190322679E+03  0.41800000000E+01 0.  1.
        -11    1    3    3    0    0 -0.36935127637E+02 -0.71728259342E+02  0.25595355039E+03  0.26836796902E+03  0.00000000000E+00 0.  1.
         11    1    3    3    0    0 -0.51277420907E+02  0.22141165746E+02  0.15650169670E+03  0.16616975111E+03  0.00000000000E+00 0. -1.
</event>
<event>
 7    1  0.6584658E-006  0.1125665E+03  0.7561462E-02  0.1255890E+00
          2   -1    0    0  501    0  0.00000000000E+00  0.00000000000E+00  0.44091831144E+03  0.44091831144E+03  0.00000000000E+00 0. -1.
         -2   -1    0    0    0  501 -0.00000000000E+00 -0.00000000000E+00 -0.32952040405E+02  0.32952040405E+02  0.00000000000E+00 0.  1.
         23    2    1    2    0    0  0.30813589486E+02  0.40283922948E+02  0.19434032667E+03  0.22117378578E+03  0.92614303434E+02 0.  0.
          5    1    1    2  502    0 -0.27945230749E+02  0.42938519729E+02  0.74845535073E+02  0.90796359610E+02  0.41800000000E+01 0. -1.
         -5    1    1    2    0  502 -0.28683587370E+01 -0.83222442677E+02  0.13878040929E+03  0.16190020645E+03  0.41800000000E+01 0. -1.
        -11    1    3    3    0    0  0.20798045631E+02 -0.20232118022E+02  0.12619600769E+03  0.12948872406E+03  0.00000000000E+00 0. -1.
         11    1    3    3    0    0  0.10015543855E+02  0.60516040971E+02  0.68144318986E+02  0.91685061725E+02  0.00000000000E+00 0.  1.
</event>
<event>
 7    1  0.6584658E-006  0.3677030E+03  0.7561462E-02  0.1055575E+00
          2   -1    0    0  501    0  0.00000000000E+00  0.00000000000E+00  0.16398503881E+03  0.16398503881E+03  0.00000000000E+00 0. -1.
         -2   -1    0    0    0  501 -0.00000000000E+00 -0.00000000000E+00 -0.85225956603E+03  0.85225956603E+03  0.00000000000E+00 0.  1.
         23    2    1    2    0    0 -0.22981332747E+03  0.26775637625E+03 -0.40711097938E+03  0.54804793197E+03  0.10054622670E+03 0.  0.
          5    1    1    2  502    0  0.49286676615E+02  0.18516636900E+01 -0.30252693933E+02  0.58011232019E+02  0.41800000000E+01 0. -1.
         -5    1    1    2    0  502  0.18052665085E+03 -0.26960803994E+03 -0.25091085391E+03  0.41018544084E+03  0.41800000000E+01 0. -1.
        -11    1    3    3    0    0 -0.19541997399E+03  0.17439973837E+03 -0.33466152667E+03  0.42497361378E+03  0.00000000000E+00 0. -1.
         11    1    3    3    0    0 -0.34393353480E+02  0.93356637888E+02 -0.72449452712E+02  0.12307431820E+03  0.00000000000E+00 0.  1.
</event>
<event>
 7    1  0.6584658E-006  0.8995476E+02  0.7561462E-02  0.1302961E+00
         -2   -1    0    0    0  501 -0.00000000000E+00  0.00000000000E+00  0.19024682111E+02  0.19024682111E+02  0.00000000000E+00 0. -1.
          2   -1    0    0  501    0  0.00000000000E+00 -0.00000000000E+00 -0.63696981982E+03  0.63696981982E+03  0.00000000000E+00 0.  1.
         23    2    1    2    0    0 -0.16459730836E+02  0.24477728980E+02 -0.28723235895E+03  0.30118678966E+03  0.85679474078E+02 0.  0.
          5    1    1    2  502    0 -0.69014060277E+01 -0.56957497143E+02 -0.68159179573E+02  0.89190425753E+02  0.41800000000E+01 0.  1.
         -5    1    1    2    0  502  0.23361136863E+02  0.32479768163E+02 -0.26255359919E+03  0.26561728653E+03  0.41800000000E+01 0.  1.
        -11    1    3    3    0    0 -0.12031938381E+02 -0.27486504941E+02 -0.17339201836E+03  0.17596893909E+03  0.00000000000E+00 0.  1.
         11    1    3    3    0    0 -0.44277924546E+01  0.51964233921E+02 -0.11384034060E+03  0.12521785057E+03  0.00000000000E+00 0. -1.
</event>
<event>
 7    1  0.6584658E-006  0.1434044E+03  0.7561462E-02  0.1208820E+00
         -2   -1    0    0    0  501 -0.00000000000E+00  0.00000000000E+00  0.21880375445E+03  0.21880375445E+03  0.00000000000E+00 0.  1.
          2   -1    0    0  501    0  0.00000000000E+00 -0.00000000000E+00 -0.17182995013E+03  0.17182995013E+03  0.00000000000E+00 0. -1.
         23    2    1    2    0    0  0.42236167369E+02 -0.99654403112E+02 -0.96492026182E+02  0.17166972674E+03  0.91896082980E+02 0.  0.
          5    1    1    2  502    0  0.57408102964E+01  0.10896497346E+03  0.66982201933E+02  0.12810312299E+03  0.41800000000E+01 0. -1.
         -5    1    1    2    0  502 -0.47976977665E+02 -0.93105703513E+01  0.76483628567E+02  0.90860854855E+02  0.41800000000E+01 0. -1.
        -11    1    3    3    0    0  0.60700579237E+02 -0.62797493284E+02 -0.27979058680E+02  0.91711031000E+02  0.00000000000E+00 0.  1.
         11    1    3    3    0    0 -0.18464411868E+02 -0.36856909828E+02 -0.68512967502E+02  0.79958695735E+02  0.00000000000E+00 0. -1.
</event>
<event>
 7    1  0.6584658E-006  0.1425544E+03  0.7561462E-02  0.1209933E+00
         -1   -1    0    0    0  501 -0.00000000000E+00  0.00000000000E+00  0.91110956587E+02  0.91110956587E+02  0.00000000000E+00 0.  1.
          1   -1    0    0  501    0  0.00000000000E+00 -0.00000000000E+00 -0.25839571374E+03  0.25839571374E+03  0.00000000000E+00 0. -1.
         23    2    1    2    0    0 -0.48443043285E+02  0.94233807980E+02 -0.10202706092E+03  0.17306151588E+03  0.91181292545E+02 0.  0.
          5    1    1    2  502    0 -0.34515402316E+02 -0.43504801517E+01 -0.36760245379E+02  0.50784128573E+02  0.41800000000E+01 0. -1.
         -5    1    1    2    0  502  0.82958445601E+02 -0.89883327828E+02 -0.28497450853E+02  0.12566102587E+03  0.41800000000E+01 0. -1.
        -11    1    3    3    0    0 -0.17930246723E+02  0.95475822420E+02 -0.10418322002E+03  0.14244742801E+03  0.00000000000E+00 0. -1.
         11    1    3    3    0    0 -0.30512796562E+02 -0.12420144402E+01  0.21561590982E+01  0.30614087868E+02  0.00000000000E+00 0.  1.
</event>
<event>
 7    1  0.6584658E-006  0.9771142E+02  0.7561462E-02  0.1285183E+00
         -2   -1    0    0    0  501 -0.00000000000E+00  0.00000000000E+00  0.38704034526E+02  0.38704034526E+02  0.00000000000E+00 0.  1.
          2   -1    0    0  501    0  0.00000000000E+00 -0.00000000000E+00 -0.37487779876E+03  0.37487779876E+03  0.00000000000E+00 0. -1.
         23    2    1    2    0    0  0.21611074203E+02  0.47860657824E+02 -0.16623520333E+03  0.19613244504E+03  0.89867191330E+02 0.  0.
          5    1    1    2  502    0  0.25171464388E+02 -0.54779870304E+02 -0.25826312961E+02  0.65718396596E+02  0.41800000000E+01 0. -1.
         -5    1    1    2    0  502 -0.46782538591E+02  0.69192124804E+01 -0.14411224794E+03  0.15173099165E+03  0.41800000000E+01 0. -1.
        -11    1    3    3    0    0 -0.21109493296E+02  0.38309937244E+02 -0.13618100557E+03  0.14303331178E+03  0.00000000000E+00 0. -1.
         11    1    3    3    0    0  0.42720567499E+02  0.95507205796E+01 -0.30054197757E+02  0.53099133269E+02  0.00000000000E+00 0.  1.
</event>
<event>
 7    1  0.6584658E-006  0.1049395E+03  0.7561462E-02  0.1270239E+00
          1   -1    0    0  501    0  0.00000000000E+00  0.00000000000E+00  0.52811374669E+02  0.52811374669E+02  0.00000000000E+00 0. -1.
         -1   -1    0    0    0  501 -0.00000000000E+00 -0.00000000000E+00 -0.25950462037E+03  0.25950462037E+03  0.00000000000E+00 0.  1.
         23    2    1    2    0    0 -0.15018490388E+02 -0.13283371814E+01 -0.69010844374E+02  0.12568399383E+03  0.10395503898E+03 0.  0.
          5    1    1    2  502    0  0.23886451244E+01 -0.50840922911E+02 -0.11925076624E+03  0.12972556694E+03  0.41800000000E+01 0. -1.
         -5    1    1    2    0  502  0.12629845263E+02  0.52169260092E+02 -0.18431635087E+02  0.56906434275E+02  0.41800000000E+01 0. -1.
        -11    1    3    3    0    0  0.41617536329E+02  0.17699431581E+02 -0.32024665035E+02  0.55415416438E+02  0.00000000000E+00 0.  1.
         11    1    3    3    0    0 -0.56636026717E+02 -0.19027768762E+02 -0.36986179339E+02  0.70268577391E+02  0.00000000000E+00 0. -1.
</event>
<event>
 7    1  0.6584658E-006  0.1090366E+03  0.7561462E-02  0.1262364E+00
          2   -1    0    0  501    0  0.00000000000E+00  0.00000000000E+00  0.18124588252E+03  0.18124588252E+03  0.00000000000E+00 0. -1.
         -2   -1    0    0    0  501 -0.00000000000E+00 -0.00000000000E+00 -0.92273335390E+02  0.92273335390E+02  0.00000000000E+00 0.  1.
         23    2    1    2    0    0 -0.44572154121E+02 -0.45422130562E+02  0.46332362523E+02  0.12683716714E+03  0.99454171773E+02 0.  0.
          5    1    1    2  502    0  0.48222435522E+02 -0.33407660374E+02  0.31968755764E+02  0.66939889486E+02  0.41800000000E+01 0.  1.
         -5    1    1    2    0  502 -0.36502814012E+01  0.78829790937E+02  0.10671428846E+02  0.79742161289E+02  0.41800000000E+01 0.  1.
        -11    1    3    3    0    0  0.40532271952E+01 -0.28443862598E+02 -0.25522430914E+02  0.38430150273E+02  0.00000000000E+00 0.  1.
         11    1    3    3    0    0 -0.48625381316E+02 -0.16978267964E+02  0.71854793437E+02  0.88407016866E+02  0.00000000000E+00 0. -1.
</event>
<event>
 7    1  0.6584658E-006  0.7144311E+02  0.7561462E-02  0.1355253E+00
         -2   -1    0    0    0  501 -0.00000000000E+00  0.00000000000E+00  0.64420823435E+02  0.64420823435E+02  0.00000000000E+00 0.  1.
          2   -1    0    0  501    0  0.00000000000E+00 -0.00000000000E+00 -0.37446488385E+03  0.37446488385E+03  0.00000000000E+00 0. -1.
         23    2    1    2    0    0 -0.40512570989E+02 -0.27668402077E+02 -0.29964033401E+03  0.31695471625E+03  0.90934886074E+02 0.  0.
          5    1    1    2  502    0  0.44873227768E+02  0.75708308508E+01 -0.55677219572E+02  0.72030196650E+02  0.41800000000E+01 0. -1.
         -5    1    1    2    0  502 -0.43606567789E+01  0.20097571226E+02  0.45273493167E+02  0.49900794385E+02  0.41800000000E+01 0.  1.
        -11    1    3    3    0    0 -0.44616788911E+02 -0.42011275407E+02 -0.29504823183E+03  0.30134542342E+03  0.00000000000E+00 0.  1.
         11    1    3    3    0    0  0.41042179219E+01  0.14342873330E+02 -0.45921021853E+01  0.15609292828E+02  0.00000000000E+00 0. -1.
</event>
<event>
 7    1  0.6584658E-006  0.1325016E+03  0.7561462E-02  0.1223790E+00
          1   -1    0    0  501    0  0.00000000000E+00  0.00000000000E+00  0.52699606059E+03  0.52699606059E+03  0.00000000000E+00 0. -1.
         -1   -1    0    0    0  501 -0.00000000000E+00 -0.00000000000E+00 -0.35715541670E+02  0.35715541670E+02  0.00000000000E+00 0.  1.
         23    2    1    2    0    0 -0.67046949540E+02  0.47947253583E+02  0.25387835711E+03  0.28199546598E+03  0.90955978661E+02 0.  0.
          5    1    1    2  502    0  0.96889128436E+02 -0.55565117456E+02  0.21528147232E+03  0.24256663046E+03  0.41800000000E+01 0. -1.
         -5    1    1    2    0  502 -0.29842178896E+02  0.76178638727E+01  0.22120689489E+02  0.38149505825E+02  0.41800000000E+01 0. -1.
        -11    1    3    3    0    0 -0.89341465657E+01 -0.26352190783E+02  0.46832054780E+02  0.54474749094E+02  0.00000000000E+00 0.  1.
         11    1    3    3    0    0 -0.58112802975E+02  0.74299444366E+02  0.20704630233E+03  0.22752071688E+03  0.00000000000E+00 0. -1.
</event>
<event>
 7    1  0.6584658E-006  0.1254206E+03  0.7561462E-02  0.1234413E+00
         -3   -1    0    0    0  501 -0.00000000000E+00  0.00000000000E+00  0.15626847414E+03  0.15626847414E+03  0.00000000000E+00 0.  1.
          3   -1    0    0  501    0  0.00000000000E+00 -0.00000000000E+00 -0.13580808840E+03  0.13580808840E+03  0.00000000000E+00 0. -1.
         23    2    1    2    0    0  0.22859293400E+02 -0.59334120612E+02 -0.64431221353E+02  0.12808741291E+03  0.90619633074E+02 0.  0.
          5    1    1    2  502    0 -0.74198110167E+02  0.25412955604E+02  0.44619214597E+02  0.90330086772E+02  0.41800000000E+01 0. -1.
         -5    1    1    2    0  502  0.51338816767E+02  0.33921165008E+02  0.40272392492E+02  0.73659062848E+02  0.41800000000E+01 0. -1.
        -11    1    3    3    0    0  0.17464080113E+02 -0.83785371187E+02 -0.47826388324E+02  0.98042572076E+02  0.00000000000E+00 0. -1.
         11    1    3    3    0    0  0.53952132876E+01  0.24451250575E+02 -0.16604833029E+02  0.30044840839E+02  0.00000000000E+00 0.  1.
</event>
<event>
 7    1  0.6584658E-006  0.1044548E+03  0.7561462E-02  0.1271197E+00
          2   -1    0    0  501    0  0.00000000000E+00  0.00000000000E+00  0.11000814850E+03  0.11000814850E+03  0.00000000000E+00 0. -1.
         -2   -1    0    0    0  501 -0.00000000000E+00 -0.00000000000E+00 -0.14446290172E+03  0.14446290172E+03  0.00000000000E+00 0.  1.
         23    2    1    2    0    0  0.11538455421E+02 -0.29109104650E+02  0.42425813135E+02  0.10434767330E+03  0.90044496643E+02 0.  0.
          5    1    1    2  502    0  0.53828938676E+02  0.30012103540E+02 -0.25324293333E+02  0.66761315375E+02  0.41800000000E+01 0. -1.
         -5    1    1    2    0  502 -0.65367394097E+02 -0.90299889004E+00 -0.51556273017E+02  0.83362061547E+02  0.41800000000E+01 0. -1.
        -11    1    3    3    0    0  0.43785461115E+02 -0.13606756448E+02  0.49930718793E+02  0.67789284591E+02  0.00000000000E+00 0. -1.
         11    1    3    3    0    0 -0.32247005694E+02 -0.15502348202E+02 -0.75049056583E+01  0.36558388708E+02  0.00000000000E+00 0.  1.
</event>
<event>
 7    1  0.6584658E-006  0.1521934E+03  0.7561462E-02  0.1197803E+00
          2   -1    0    0  501    0  0.00000000000E+00  0.00000000000E+00  0.35486061459E+03  0.35486061459E+03  0.00000000000E+00 0. -1.
         -2   -1    0    0    0  501 -0.00000000000E+00 -0.00000000000E+00 -0.70295961521E+02  0.70295961521E+02  0.00000000000E+00 0.  1.
         23    2    1    2    0    0  0.93620974688E+02 -0.65393978810E+02  0.14806220133E+03  0.20762157823E+03  0.90238821584E+02 0.  0.
          5    1    1    2  502    0 -0.50994760455E+02  0.10128255255E+03  0.89693048269E+02  0.14464071471E+03  0.41800000000E+01 0.  1.
         -5    1    1    2    0  502 -0.42626214233E+02 -0.35888573739E+02  0.46809403476E+02  0.72894283168E+02  0.41800000000E+01 0.  1.
        -11    1    3    3    0    0  0.66914082125E+02 -0.27898053986E+01  0.11225326948E+03  0.13071370972E+03  0.00000000000E+00 0.  1.
         11    1    3    3    0    0  0.26706892563E+02 -0.62604173411E+02  0.35808931846E+02  0.76907868511E+02  0.00000000000E+00 0. -1.
</event>
<event>
 7    1  0.1205472E-005  0.1794199E+03  0.7561462E-02  0.1168366E+00
         -2   -1    0    0    0  501 -0.00000000000E+00  0.00000000000E+00  0.87226040729E+02  0.87226040729E+02  0.00000000000E+00 0.  1.
          2   -1    0    0  501    0  0.00000000000E+00 -0.00000000000E+00 -0.48991516637E+03  0.48991516637E+03  0.00000000000E+00 0. -1.
         23    2    1    2    0    0  0.13856557828E+03 -0.10782047475E+03 -0.19726288247E+03  0.27936107515E+03  0.91127884040E+02 0.  0.
          5    1    1    2  502    0 -0.46831054089E+02  0.38077499653E+02  0.19133036748E+01  0.60532443680E+02  0.41800000000E+01 0. -1.
         -5    1    1    2    0  502 -0.91734524187E+02  0.69742975098E+02 -0.20733954685E+03  0.23724768828E+03  0.41800000000E+01 0. -1.
        -11    1    3    3    0    0  0.13329118260E+03 -0.81610948364E+02 -0.11835732238E+03  0.19604933566E+03  0.00000000000E+00 0.  1.
         11    1    3    3    0    0  0.52743956717E+01 -0.26209526387E+02 -0.78905560088E+02  0.83311739484E+02  0.00000000000E+00 0. -1.
</event>
<event>
 7    1  0.6584658E-006  0.9876000E+02  0.7561462E-02  0.1282925E+00
          3   -1    0    0  501    0  0.00000000000E+00  0.00000000000E+00  0.71401573042E+02  0.71401573042E+02  0.00000000000E+00 0. -1.
         -3   -1    0    0    0  501 -0.00000000000E+00 -0.00000000000E+00 -0.24756995200E+03  0.24756995200E+03  0.00000000000E+00 0.  1.
         23    2    1    2    0    0  0.51323735051E+02 -0.34387359052E+02 -0.23834480456E+02  0.11240731810E+03  0.90833399486E+02 0.  0.
          5    1    1    2  502    0  0.36575258268E+02  0.30205029535E+02 -0.31775133957E+02  0.57247051143E+02  0.41800000000E+01 0.  1.
         -5    1    1    2    0  502 -0.87898993319E+02  0.41823295172E+01 -0.12055876455E+03  0.14931715580E+03  0.41800000000E+01 0.  1.
        -11    1    3    3    0    0  0.27653358835E+02 -0.17480100166E+02  0.34300961398E+02  0.47400612965E+02  0.00000000000E+00 0. -1.
         11    1    3    3    0    0  0.23670376216E+02 -0.16907258887E+02 -0.58135441854E+02  0.65006705137E+02  0.00000000000E+00 0.  1.
</event>
<event>
 7    1  0.6584658E-006  0.1243946E+03  0.7561462E-02  0.1236018E+00
          2   -1    0    0  501    0  0.00000000000E+00  0.00000000000E+00  0.34196091428E+03  0.34196091428E+03  0.00000000000E+00 0. -1.
         -2   -1    0    0    0  501 -0.00000000000E+00 -0.00000000000E+00 -0.68349160087E+02  0.68349160087E+02  0.00000000000E+00 0.  1.
         23    2    1    2    0    0  0.43947943771E+02  0.68806162276E+02  0.22040921066E+03  0.25174278819E+03  0.90158202805E+02 0.  0.
          5    1    1    2  502    0  0.38270962777E+02 -0.36078980288E+02  0.45447218296E+02  0.69636782388E+02  0.41800000000E+01 0. -1.
         -5    1    1    2    0  502 -0.82218906548E+02 -0.32727181988E+02  0.77553252378E+01  0.88930503790E+02  0.41800000000E+01 0. -1.
        -11    1    3    3    0    0 -0.98289125584E+00  0.61981577263E+02  0.64980098127E+02  0.89805874796E+02  0.00000000000E+00 0.  1.
         11    1    3    3    0    0  0.44930835027E+02  0.68245850124E+01  0.15542911253E+03  0.16193691339E+03  0.00000000000E+00 0. -1.
</event>
<event>
 7    1  0.6584658E-006  0.1032924E+03  0.7561462E-02  0.1273521E+00
         -2   -1    0    0    0  501 -0.00000000000E+00  0.00000000000E+00  0.15626710984E+03  0.15626710984E+03  0.00000000000E+00 0.  1.
          2   -1    0    0  501    0  0.00000000000E+00 -0.00000000000E+00 -0.10375684686E+03  0.10375684686E+03  0.00000000000E+00 0. -1.
         23    2    1    2    0    0  0.63446436245E+02  0.21296397444E+02  0.29517373628E+02  0.11630697445E+03  0.90427043205E+02 0.  0.
          5    1    1    2  502    0 -0.44991823285E+02 -0.71479817500E+02 -0.19086285106E+01  0.84585718270E+02  0.41800000000E+01 0. -1.
         -5    1    1    2    0  502 -0.18454612960E+02  0.50183420057E+02  0.24901517866E+02  0.59131263982E+02  0.41800000000E+01 0. -1.
        -11    1    3    3    0    0  0.35085315292E+02  0.43603469749E+01  0.61108657874E+02  0.70599292079E+02  0.00000000000E+00 0.  1.
         11    1    3    3    0    0  0.28361120953E+02  0.16936050469E+02 -0.31591284246E+02  0.45707682368E+02  0.00000000000E+00 0. -1.
</event>
<event>
 7    1  0.6584658E-006  0.1549763E+03  0.7561462E-02  0.1194488E+00
          2   -1    0    0  501    0  0.00000000000E+00  0.00000000000E+00  0.15216979965E+03  0.15216979965E+03  0.00000000000E+00 0. -1.
         -2   -1    0    0    0  501 -0.00000000000E+00 -0.00000000000E+00 -0.19877335474E+03  0.19877335474E+03  0.00000000000E+00 0.  1.
         23    2    1    2    0    0  0.99321132829E+02 -0.52600056094E+02  0.56198967526E+02  0.15384934669E+03  0.88768486508E+02 0.  0.
          5    1    1    2  502    0 -0.40490536660E+00 -0.34581927020E+02 -0.11595440388E+02  0.36715123077E+02  0.41800000000E+01 0.  1.
         -5    1    1    2    0  502 -0.98916227463E+02  0.87181983114E+02 -0.91207082230E+02  0.16037868463E+03  0.41800000000E+01 0.  1.
        -11    1    3    3    0    0  0.37248847676E+02 -0.69511691251E+02  0.29672280229E+02  0.84260287727E+02  0.00000000000E+00 0. -1.
         11    1    3    3    0    0  0.62072285153E+02  0.16911635157E+02  0.26526687297E+02  0.69589058959E+02  0.00000000000E+00 0.  1.
</event>
<event>
 7    1  0.6584658E-006  0.8755602E+02  0.7561462E-02  0.1308880E+00
          2   -1    0    0  501    0  0.00000000000E+00  0.00000000000E+00  0.70954353471E+02  0.70954353471E+02  0.00000000000E+00 0. -1.
         -2   -1    0    0    0  501 -0.00000000000E+00 -0.00000000000E+00 -0.17534440842E+03  0.17534440842E+03  0.00000000000E+00 0.  1.
         23    2    1    2    0    0 -0.25239284961E+02  0.77053104194E+01 -0.39524653827E+02  0.10293947618E+03  0.91312344088E+02 0.  0.
          5    1    1    2  502    0 -0.25753294731E+02 -0.17765822890E+02  0.24457057561E+02  0.39930899276E+02  0.41800000000E+01 0.  1.
         -5    1    1    2    0  502  0.50992579692E+02  0.10060512471E+02 -0.89322458686E+02  0.10342838643E+03  0.41800000000E+01 0.  1.
        -11    1    3    3    0    0 -0.43221854064E+02  0.37089482850E+02 -0.37977563434E+02  0.68454756819E+02  0.00000000000E+00 0.  1.
         11    1    3    3    0    0  0.17982569103E+02 -0.29384172431E+02 -0.15470903934E+01  0.34484719365E+02  0.00000000000E+00 0. -1.
</event>
<event>
 7    1  0.6584658E-006  0.1120846E+03  0.7561462E-02  0.1256758E+00
          2   -1    0    0  501    0  0.00000000000E+00  0.00000000000E+00  0.28913157114E+03  0.28913157114E+03  0.00000000000E+00 0. -1.
         -2   -1    0    0    0  501 -0.00000000000E+00 -0.00000000000E+00 -0.83030725917E+02  0.83030725917E+02  0.00000000000E+00 0.  1.
         23    2    1    2    0    0 -0.67262913120E+02 -0.39909704951E+02  0.18779784283E+03  0.22348917950E+03  0.92532694500E+02 0.  0.
          5    1    1    2  502    0  0.85482968915E+02  0.32455322053E+02 -0.30017977963E+02  0.96328797901E+02  0.41800000000E+01 0.  1.
         -5    1    1    2    0  502 -0.18220055795E+02  0.74543828980E+01  0.48320980359E+02  0.52344319657E+02  0.41800000000E+01 0.  1.
        -11    1    3    3    0    0 -0.60862111622E+02 -0.63566173173E+02  0.17490549024E+03  0.19579781796E+03  0.00000000000E+00 0.  1.
         11    1    3    3    0    0 -0.64008014985E+01  0.23656468222E+02  0.12892352593E+02  0.27691361540E+02  0.00000000000E+00 0. -1.
</event>
<event>
 7    1  0.6584658E-006  0.1102066E+03  0.7561462E-02  0.1260188E+00
          1   -1    0    0  501    0  0.00000000000E+00  0.00000000000E+00  0.21944307736E+03  0.21944307736E+03  0.00000000000E+00 0. -1.
         -1   -1    0    0    0  501 -0.00000000000E+00 -0.00000000000E+00 -0.75216055964E+02  0.75216055964E+02  0.00000000000E+00 0.  1.
         23    2    1    2    0    0  0.58250463077E+02 -0.31076702964E+02  0.93632994868E+02  0.14443906044E+03  0.87958095344E+02 0.  0.
          5    1    1    2  502    0  0.19728357760E+02  0.37659754770E+02  0.57405929441E+02  0.71556819131E+02  0.41800000000E+01 0. -1.
         -5    1    1    2    0  502 -0.77978820837E+02 -0.65830518058E+01 -0.68119029109E+01  0.78663253756E+02  0.41800000000E+01 0. -1.
        -11    1    3    3    0    0  0.41424268478E+02 -0.55753828341E+02  0.33107461201E+02  0.76945197256E+02  0.00000000000E+00 0.  1.
         11    1    3    3    0    0  0.16826194598E+02  0.24677125377E+02  0.60525533667E+02  0.67493863182E+02  0.00000000000E+00 0. -1.
</event>
<event>
 7    1  0.6584658E-006  0.9926016E+02  0.7561462E-02  0.1281859E+00
         -1   -1    0    0    0  501 -0.00000000000E+00  0.00000000000E+00  0.81354683787E+02  0.81354683787E+02  0.00000000000E+00 0.  1.
          1   -1    0    0  501    0  0.00000000000E+00 -0.00000000000E+00 -0.16227508703E+03  0.16227508703E+03  0.00000000000E+00 0. -1.
         23    2    1    2    0    0  0.19470017784E+02  0.10926402533E+02 -0.70366276053E+02  0.11612801869E+03  0.89642824892E+02 0.  0.
          5    1    1    2  502    0 -0.63491591487E+02 -0.60361562691E+01  0.26901123451E+02  0.69345224889E+02  0.41800000000E+01 0. -1.
         -5    1    1    2    0  502  0.44021573702E+02 -0.48902462636E+01 -0.37455250642E+02  0.58156527238E+02  0.41800000000E+01 0. -1.
        -11    1    3    3    0    0  0.37152217244E+02 -0.28553858812E+02 -0.49288444805E+02  0.68007065004E+02  0.00000000000E+00 0. -1.
         11    1    3    3    0    0 -0.17682199460E+02  0.39480261344E+02 -0.21077831248E+02  0.48120953686E+02  0.00000000000E+00 0.  1.
</event>
<event>
 7    1  0.6584658E-006  0.2786751E+03  0.7561462E-02  0.1096415E+00
          2   -1    0    0  501    0  0.00000000000E+00  0.00000000000E+00  0.13886585466E+04  0.13886585466E+04  0.00000000000E+00 0. -1.
         -2   -1    0    0    0  501 -0.00000000000E+00 -0.00000000000E+00 -0.64263180257E+02  0.64263180257E+02  0.00000000000E+00 0.  1.
         23    2    1    2    0    0 -0.18588175310E+03 -0.20095197501E+03  0.53537638572E+03  0.60845007499E+03  0.93004822311E+02 0.  0.
          5    1    1    2  502    0  0.18552233472E+03  0.17070190403E+03  0.76540921886E+03  0.80586997800E+03  0.41800000000E+01 0. -1.
         -5    1    1    2    0  502  0.35941837863E+00  0.30250070982E+02  0.23609761792E+02  0.38601673900E+02  0.41800000000E+01 0. -1.
        -11    1    3    3    0    0 -0.10110610624E+03 -0.12566843457E+03  0.21620812680E+03  0.26974238499E+03  0.00000000000E+00 0.  1.
         11    1    3    3    0    0 -0.84775646861E+02 -0.75283540438E+02  0.31916825893E+03  0.33870769001E+03  0.00000000000E+00 0. -1.
</event>
<event>
 7    1  0.6584658E-006  0.8200739E+02  0.7561462E-02  0.1323449E+00
          2   -1    0    0  501    0  0.00000000000E+00  0.00000000000E+00  0.51372903187E+03  0.51372903187E+03  0.00000000000E+00 0.  1.
         -2   -1    0    0    0  501 -0.00000000000E+00 -0.00000000000E+00 -0.24079324705E+02  0.24079324705E+02  0.00000000000E+00 0. -1.
         23    2    1    2    0    0  0.29485561671E+02 -0.96075717556E-01  0.20112019514E+03  0.22194996924E+03  0.89123781213E+02 0.  0.
          5    1    1    2  502    0  0.34106532534E+02 -0.38771974308E+01  0.20224330212E+02  0.40059757288E+02  0.41800000000E+01 0. -1.
         -5    1    1    2    0  502 -0.63592094205E+02  0.39732731484E+01  0.26830518182E+03  0.27579863005E+03  0.41800000000E+01 0. -1.
        -11    1    3    3    0    0  0.21813924112E+02  0.28548075031E+02  0.18448090760E+03  0.18794692108E+03  0.00000000000E+00 0.  1.
         11    1    3    3    0    0  0.76716375586E+01 -0.28644150748E+02  0.16639287537E+02  0.34003048167E+02  0.00000000000E+00 0. -1.
</event>
<event>
 7    1  0.6645134E-006  0.2166693E+03  0.7561462E-02  0.1136391E+00
          2   -1    0    0  501    0  0.00000000000E+00  0.00000000000E+00  0.38286982863E+03  0.38286982863E+03  0.00000000000E+00 0. -1.
         -2   -1    0    0    0  501 -0.00000000000E+00 -0.00000000000E+00 -0.14754350950E+03  0.14754350950E+03  0.00000000000E+00 0.  1.
         23    2    1    2    0    0  0.14247099421E+03 -0.12753984766E+03  0.21333266104E+03  0.30085782604E+03  0.91870617136E+02 0.  0.
          5    1    1    2  502    0 -0.15817603820E+03  0.78103341807E+02  0.17447121059E+02  0.17731797849E+03  0.41800000000E+01 0. -1.
         -5    1    1    2    0  502  0.15705043994E+02  0.49436505855E+02  0.45465370336E+01  0.52237533604E+02  0.41800000000E+01 0. -1.
        -11    1    3    3    0    0  0.39075389359E+02 -0.84017197212E+02  0.13614724890E+03  0.16468712416E+03  0.00000000000E+00 0. -1.
         11    1    3    3    0    0  0.10339560485E+03 -0.43522650451E+02  0.77185412139E+02  0.13617070188E+03  0.00000000000E+00 0.  1.
</event>
<event>
 7    1  0.6584658E-006  0.8968929E+02  0.7561462E-02  0.1303606E+00
         -2   -1    0    0    0  501 -0.00000000000E+00  0.00000000000E+00  0.30003032506E+03  0.30003032506E+03  0.00000000000E+00 0. -1.
          2   -1    0    0  501    0  0.00000000000E+00 -0.00000000000E+00 -0.45676557971E+02  0.45676557971E+02  0.00000000000E+00 0.  1.
         23    2    1    2    0    0  0.30896887478E+02 -0.29797262550E+02  0.94848392207E+02  0.13850735616E+03  0.91354122491E+02 0.  0.
          5    1    1    2  502    0  0.28900492726E+02  0.29679618737E+02  0.55732182330E+01  0.42007754161E+02  0.41800000000E+01 0. -1.
         -5    1    1    2    0  502 -0.59797380204E+02  0.11764381252E+00  0.15393215665E+03  0.16519177271E+03  0.41800000000E+01 0. -1.
        -11    1    3    3    0    0  0.47550254324E+02 -0.36401123746E+02  0.22495682686E+02  0.63969713426E+02  0.00000000000E+00 0.  1.
         11    1    3    3    0    0 -0.16653366846E+02  0.66038611968E+01  0.72352709521E+02  0.74537642738E+02  0.00000000000E+00 0. -1.
</event>
<event>
 7    1  0.6584658E-006  0.1074982E+03  0.7561462E-02  0.1265274E+00
          4   -1    0    0  501    0  0.00000000000E+00  0.00000000000E+00  0.44405573993E+03  0.44405573993E+03  0.00000000000E+00 0. -1.
         -4   -1    0    0    0  501 -0.00000000000E+00 -0.00000000000E+00 -0.36647836318E+02  0.36647836318E+02  0.00000000000E+00 0.  1.
         23    2    1    2    0    0  0.16771132722E+02 -0.24424273672E+00  0.30302753462E+03  0.31698311804E+03  0.91494698400E+02 0.  0.
          5    1    1    2  502    0 -0.60743210851E+02  0.32024080861E+02  0.75405082607E+02  0.10207192710E+03  0.41800000000E+01 0. -1.
         -5    1    1    2    0  502  0.43972078129E+02 -0.31779838124E+02  0.28975286378E+02  0.61648531100E+02  0.41800000000E+01 0.  1.
        -11    1    3    3    0    0  0.26384153091E+02  0.41375069413E+02  0.13607285634E+03  0.14465075920E+03  0.00000000000E+00 0.  1.
         11    1    3    3    0    0 -0.96130203693E+01 -0.41619312150E+02  0.16695467828E+03  0.17233235884E+03  0.00000000000E+00 0. -1.
</event>
<event>
 7    1  0.6584658E-006  0.2933968E+03  0.7561462E-02  0.1088589E+00
          2   -1    0    0  501    0  0.00000000000E+00  0.00000000000E+00  0.27031566664E+03  0.27031566664E+03  0.00000000000E+00 0. -1.
         -2   -1    0    0    0  501 -0.00000000000E+00 -0.00000000000E+00 -0.35032300831E+03  0.35032300831E+03  0.00000000000E+00 0.  1.
         23    2    1    2    0    0  0.19394440929E+03  0.21028360732E+03 -0.70692707682E+02  0.30828010012E+03  0.90584390546E+02 0.  0.
          5    1    1    2  502    0 -0.74860446258E+02 -0.22958793168E+02  0.35161526581E+02  0.85936010782E+02  0.41800000000E+01 0. -1.
         -5    1    1    2    0  502 -0.11908396304E+03 -0.18732481415E+03 -0.44476160571E+02  0.22642256404E+03  0.41800000000E+01 0. -1.
        -11    1    3    3    0    0  0.14503754611E+03  0.14858637075E+03 -0.91411073070E+02  0.22686952998E+03  0.00000000000E+00 0.  1.
         11    1    3    3    0    0  0.48906863182E+02  0.61697236571E+02  0.20718365388E+02  0.81410570144E+02  0.00000000000E+00 0. -1.
</event>
<event>
 7    1  0.6584658E-006  0.1532278E+03  0.7561462E-02  0.1196562E+00
         -2   -1    0    0    0  501 -0.00000000000E+00  0.00000000000E+00  0.14315594852E+02  0.14315594852E+02  0.00000000000E+00 0.  1.
          2   -1    0    0  501    0  0.00000000000E+00 -0.00000000000E+00 -0.16809846683E+04  0.16809846683E+04  0.00000000000E+00 0. -1.
         23    2    1    2    0    0  0.65587247030E+02 -0.88950840887E+02 -0.75523645184E+03  0.76871007299E+03  0.91209314528E+02 0.  0.
          5    1    1    2  502    0 -0.39288201218E+02 -0.26968869350E+02 -0.24475380093E+03  0.24938479933E+03  0.41800000000E+01 0. -1.
         -5    1    1    2    0  502 -0.26299045811E+02  0.11591971024E+03 -0.66667882073E+03  0.67720539088E+03  0.41800000000E+01 0. -1.
        -11    1    3    3    0    0 -0.20672841574E+02 -0.11003024582E+02 -0.73787001470E+02  0.77414175153E+02  0.00000000000E+00 0.  1.
         11    1    3    3    0    0  0.86260088604E+02 -0.77947816305E+02 -0.68144945037E+03  0.69129589784E+03  0.00000000000E+00 0. -1.
</event>
<event>
 7    1  0.6584658E-006  0.8113123E+02  0.7561462E-02  0.1325871E+00
         -2   -1    0    0    0  501 -0.00000000000E+00  0.00000000000E+00  0.46312977538E+03  0.46312977538E+03  0.00000000000E+00 0.  1.
          2   -1    0    0  501    0  0.00000000000E+00 -0.00000000000E+00 -0.88512133079E+02  0.88512133079E+02  0.00000000000E+00 0. -1.
         23    2    1    2    0    0 -0.14112995637E+02  0.15527483772E+02 -0.54656786753E+02  0.10402386359E+03  0.85984419862E+02 0.  0.
          5    1    1    2  502    0  0.59217794887E+02  0.18462062622E+02  0.14513638867E+03  0.15789122428E+03  0.41800000000E+01 0. -1.
         -5    1    1    2    0  502 -0.45104799251E+02 -0.33989546394E+02  0.28413804039E+03  0.28972682060E+03  0.41800000000E+01 0. -1.
        -11    1    3    3    0    0 -0.17194504199E+02 -0.85387128582E+01 -0.71795822953E+02  0.74318239924E+02  0.00000000000E+00 0. -1.
         11    1    3    3    0    0  0.30815085619E+01  0.24066196631E+02  0.17139036200E+02  0.29705623662E+02  0.00000000000E+00 0.  1.
</event>
<event>
 7    1  0.6584658E-006  0.2272875E+03  0.7561462E-02  0.1128564E+00
          1   -1    0    0  501    0  0.00000000000E+00  0.00000000000E+00  0.45379828949E+02  0.45379828949E+02  0.00000000000E+00 0. -1.
         -1   -1    0    0    0  501 -0.00000000000E+00 -0.00000000000E+00 -0.14940900557E+04  0.14940900557E+04  0.00000000000E+00 0.  1.
         23    2    1    2    0    0  0.15348878761E+03 -0.90467439856E+01 -0.28315555184E+03  0.33505279567E+03  0.91883936844E+02 0.  0.
          5    1    1    2  502    0 -0.16944634190E+03  0.92938423035E+02 -0.55059795875E+03  0.58354536913E+03  0.41800000000E+01 0. -1.
         -5    1    1    2    0  502  0.15957554289E+02 -0.83891679050E+02 -0.61495671621E+03  0.62087171989E+03  0.41800000000E+01 0.  1.
        -11    1    3    3    0    0  0.10990620860E+03 -0.45500934533E+02 -0.15953888162E+03  0.19900342831E+03  0.00000000000E+00 0.  1.
         11    1    3    3    0    0  0.43582579010E+02  0.36454190547E+02 -0.12361667023E+03  0.13604936736E+03  0.00000000000E+00 0. -1.
</event>
<event>
 7    1  0.6584658E-006  0.1051268E+03  0.7561462E-02  0.1269870E+00
         -1   -1    0    0    0  501 -0.00000000000E+00  0.00000000000E+00  0.75200014954E+02  0.75200014954E+02  0.00000000000E+00 0.  1.
          1   -1    0    0  501    0  0.00000000000E+00 -0.00000000000E+00 -0.25476629539E+03  0.25476629539E+03  0.00000000000E+00 0. -1.
         23    2    1    2    0    0  0.81175980286E+01 -0.62313320383E+02 -0.15039603311E+03  0.18697118538E+03  0.91599192641E+02 0.  0.
          5    1    1    2  502    0  0.32368673281E+02  0.48047472364E+02 -0.64822005569E+02  0.87038241116E+02  0.41800000000E+01 0. -1.
         -5    1    1    2    0  502 -0.40486271310E+02  0.14265848019E+02  0.35651758242E+02  0.55956883848E+02  0.41800000000E+01 0. -1.
        -11    1    3    3    0    0  0.46013713914E+01 -0.85482295317E+02 -0.13129790924E+03  0.15674034707E+03  0.00000000000E+00 0. -1.
         11    1    3    3    0    0  0.35162266372E+01  0.23168974933E+02 -0.19098123877E+02  0.30230838309E+02  0.00000000000E+00 0.  1.
</event>
<event>
 7    1  0.6584658E-006  0.1443438E+03  0.7561462E-02  0.1207601E+00
         -1   -1    0    0    0  501 -0.00000000000E+00  0.00000000000E+00  0.22560306104E+04  0.22560306104E+04  0.00000000000E+00 0.  1.
          1   -1    0    0  501    0  0.00000000000E+00 -0.00000000000E+00 -0.16287955852E+02  0.16287955852E+02  0.00000000000E+00 0. -1.
         23    2    1    2    0    0 -0.14716869799E+02 -0.10852420782E+03  0.55870819122E+03  0.58308241555E+03  0.12584184695E+03 0.  0.
          5    1    1    2  502    0 -0.40602134876E+02 -0.37848594211E+01  0.41888209862E+03  0.42088305200E+03  0.41800000000E+01 0.  1.
         -5    1    1    2    0  502  0.55319004674E+02  0.11230906724E+03  0.12621523647E+04  0.12683530987E+04  0.41800000000E+01 0.  1.
        -11    1    3    3    0    0 -0.22641953358E+02 -0.12080195265E+02  0.12826455762E+02  0.28689843794E+02  0.00000000000E+00 0. -1.
         11    1    3    3    0    0  0.79250835592E+01 -0.96444012550E+02  0.54588173546E+03  0.55439257175E+03  0.00000000000E+00 0.  1.
</event>
<event>
 7    1  0.6584658E-006  0.1451499E+03  0.7561462E-02  0.1206563E+00
         -2   -1    0    0    0  501 -0.00000000000E+00  0.00000000000E+00  0.65199460478E+02  0.65199460478E+02  0.00000000000E+00 0.  1.
          2   -1    0    0  501    0  0.00000000000E+00 -0.00000000000E+00 -0.46634795034E+03  0.46634795034E+03  0.00000000000E+00 0. -1.
         23    2    1    2    0    0 -0.11226835045E+03 -0.62783597596E+02 -0.25401033450E+03  0.29950770289E+03  0.92938966084E+02 0.  0.
          5    1    1    2  502    0  0.11320151543E+03  0.20192740575E+02 -0.49173360982E+02  0.12513121792E+03  0.41800000000E+01 0.  1.
         -5    1    1    2    0  502 -0.93316498009E+00  0.42590857021E+02 -0.97964794378E+02  0.10690849001E+03  0.41800000000E+01 0.  1.
        -11    1    3    3    0    0 -0.69951681127E+02 -0.21182068424E+02 -0.53981053698E+02  0.90861828474E+02  0.00000000000E+00 0.  1.
         11    1    3    3    0    0 -0.42316669321E+02 -0.41601529172E+02 -0.20002928080E+03  0.20864587441E+03  0.00000000000E+00 0. -1.
</event>
<event>
 7    1  0.6584658E-006  0.1921466E+03  0.7561462E-02  0.1156539E+00
          2   -1    0    0  501    0  0.00000000000E+00  0.00000000000E+00  0.27877088126E+03  0.27877088126E+03  0.00000000000E+00 0. -1.
         -2   -1    0    0    0  501 -0.00000000000E+00 -0.00000000000E+00 -0.14745603700E+03  0.14745603700E+03  0.00000000000E+00 0.  1.
         23    2    1    2    0    0  0.13218471417E+03  0.10570757991E+03  0.43089396267E+02  0.19802193237E+03  0.93322550966E+02 0.  0.
          5    1    1    2  502    0  0.15876142110E+02 -0.48652948466E+02  0.15719350368E+02  0.53700387883E+02  0.41800000000E+01 0. -1.
         -5    1    1    2    0  502 -0.14806085628E+03 -0.57054631448E+02  0.72506097622E+02  0.17450459800E+03  0.41800000000E+01 0. -1.
        -11    1    3    3    0    0  0.43082252107E+02  0.11594247752E+02 -0.25501237401E+02  0.51388910638E+02  0.00000000000E+00 0.  1.
         11    1    3    3    0    0  0.89102462059E+02  0.94113332162E+02  0.68590633668E+02  0.14663302173E+03  0.00000000000E+00 0. -1.
</event>
<event>
 7    1  0.6584658E-006  0.1065979E+03  0.7561462E-02  0.1267003E+00
         -2   -1    0    0    0  501 -0.00000000000E+00  0.00000000000E+00  0.27788820233E+02  0.27788820233E+02  0.00000000000E+00 0.  1.
          2   -1    0    0  501    0  0.00000000000E+00 -0.00000000000E+00 -0.56550962449E+03  0.56550962449E+03  0.00000000000E+00 0. -1.
         23    2    1    2    0    0 -0.57202129653E+02  0.12562624326E+02 -0.26788667329E+03  0.29016845236E+03  0.94892348743E+02 0.  0.
          5    1    1    2  502    0 -0.20037528060E+02  0.18112444945E+02 -0.17432926674E+03  0.17645885876E+03  0.41800000000E+01 0. -1.
         -5    1    1    2    0  502  0.77239657713E+02 -0.30675069271E+02 -0.95504864230E+02  0.12667113361E+03  0.41800000000E+01 0. -1.
        -11    1    3    3    0    0 -0.79451673173E+02  0.72922024543E+01 -0.24561583599E+03  0.25824965339E+03  0.00000000000E+00 0. -1.
         11    1    3    3    0    0  0.22249543520E+02  0.52704218714E+01 -0.22270837306E+02  0.31918798973E+02  0.00000000000E+00 0.  1.
</event>
<event>
 7    1  0.6584658E-006  0.1130380E+03  0.7561462E-02  0.1255045E+00
         -2   -1    0    0    0  501 -0.00000000000E+00  0.00000000000E+00  0.54762677231E+03  0.54762677231E+03  0.00000000000E+00 0.  1.
          2   -1    0    0  501    0  0.00000000000E+00 -0.00000000000E+00 -0.28478423268E+02  0.28478423268E+02  0.00000000000E+00 0. -1.
         23    2    1    2    0    0 -0.13767504866E+02  0.35204768255E+02  0.11107856891E+03  0.14762248678E+03  0.89582533087E+02 0.  0.
          5    1    1    2  502    0 -0.45365656264E+02 -0.51853034492E+02  0.22311349610E+03  0.23354632195E+03  0.41800000000E+01 0.  1.
         -5    1    1    2    0  502  0.59133161130E+02  0.16648266237E+02  0.18495628403E+03  0.19493638684E+03  0.41800000000E+01 0.  1.
        -11    1    3    3    0    0 -0.50853179856E+02  0.26673399661E+02  0.80077332330E+02  0.98538801008E+02  0.00000000000E+00 0.  1.
         11    1    3    3    0    0  0.37085674990E+02  0.85313685942E+01  0.31001236576E+02  0.49083685770E+02  0.00000000000E+00 0. -1.
</event>
<event>
 7    1  0.6584658E-006  0.1122002E+03  0.7561462E-02  0.1256549E+00
          1   -1    0    0  501    0  0.00000000000E+00  0.00000000000E+00  0.26175502958E+03  0.26175502958E+03  0.00000000000E+00 0. -1.
         -1   -1    0    0    0  501 -0.00000000000E+00 -0.00000000000E+00 -0.93415646135E+02  0.93415646135E+02  0.00000000000E+00 0.  1.
         23    2    1    2    0    0 -0.67231945553E+02 -0.45277791229E+02  0.16654971336E+03  0.20610245282E+03  0.90383633237E+02 0.  0.
          5    1    1    2  502    0  0.33629936615E+02 -0.29860861306E+02  0.38021005270E+02  0.59039926460E+02  0.41800000000E+01 0.  1.
         -5    1    1    2    0  502  0.33602008938E+02  0.75138652535E+02 -0.36231335185E+02  0.90028296434E+02  0.41800000000E+01 0.  1.
        -11    1    3    3    0    0 -0.27834025268E+02  0.94397622313E+01  0.34224083139E+01  0.29589777834E+02  0.00000000000E+00 0.  1.
         11    1    3    3    0    0 -0.39397920285E+02 -0.54717553460E+02  0.16312730504E+03  0.17651267498E+03  0.00000000000E+00 0. -1.
</event>
<event>
 7    1  0.6584658E-006  0.2743730E+03  0.7561462E-02  0.1098803E+00
         -1   -1    0    0    0  501 -0.00000000000E+00  0.00000000000E+00  0.31722365315E+03  0.31722365315E+03  0.00000000000E+00 0.  1.
          1   -1    0    0  501    0  0.00000000000E+00 -0.00000000000E+00 -0.41428476845E+03  0.41428476845E+03  0.00000000000E+00 0. -1.
         23    2    1    2    0    0  0.16886626886E+03  0.21264370856E+03 -0.26380899760E+03  0.38918518259E+03  0.90203966571E+02 0.  0.
          5    1    1    2  502    0 -0.13750193931E+03 -0.17094200963E+03  0.18487953083E+03  0.28692484607E+03  0.41800000000E+01 0.  1.
         -5    1    1    2    0  502 -0.31364329554E+02 -0.41701698928E+02 -0.18131648542E+02  0.55398392943E+02  0.41800000000E+01 0.  1.
        -11    1    3    3    0    0  0.13612533664E+00  0.23544974645E+02 -0.25006614613E+00  0.23546696036E+02  0.00000000000E+00 0.  1.
         11    1    3    3    0    0  0.16873014352E+03  0.18909873392E+03 -0.26355893145E+03  0.36563848655E+03  0.00000000000E+00 0. -1.
</event>
<event>
 7    1  0.6584658E-006  0.8092065E+02  0.7561462E-02  0.1326459E+00
         -1   -1    0    0    0  501 -0.00000000000E+00  0.00000000000E+00  0.23609667855E+02  0.23609667855E+02  0.00000000000E+00 0.  1.
          1   -1    0    0  501    0  0.00000000000E+00 -0.00000000000E+00 -0.72755963680E+03  0.72755963680E+03  0.00000000000E+00 0. -1.
         23    2    1    2    0    0  0.36152321900E+02 -0.40520002389E+02 -0.45546026200E+03  0.46772247852E+03  0.91495386105E+02 0.  0.
          5    1    1    2  502    0 -0.91628148938E+01  0.22714850907E+01  0.13657100744E+02  0.17120327743E+02  0.41800000000E+01 0. -1.
         -5    1    1    2    0  502 -0.26989507006E+02  0.38248517299E+02 -0.26214680769E+03  0.26632649839E+03  0.41800000000E+01 0. -1.
        -11    1    3    3    0    0  0.64172952469E+02 -0.13469259545E+02 -0.24135470717E+03  0.25010334555E+03  0.00000000000E+00 0.  1.
         11    1    3    3    0    0 -0.28020630569E+02 -0.27050742844E+02 -0.21410555483E+03  0.21761913297E+03  0.00000000000E+00 0. -1.
</event>
<event>
 7    1  0.6584658E-006  0.1541565E+03  0.7561462E-02  0.1195457E+00
          2   -1    0    0  501    0  0.00000000000E+00  0.00000000000E+00  0.32175210539E+03  0.32175210539E+03  0.00000000000E+00 0. -1.
         -2   -1    0    0    0  501 -0.00000000000E+00 -0.00000000000E+00 -0.83683370227E+02  0.83683370227E+02  0.00000000000E+00 0.  1.
         23    2    1    2    0    0 -0.27983832397E+02 -0.11015977964E+03  0.16683203485E+03  0.22202407453E+03  0.92431000718E+02 0.  0.
          5    1    1    2  502    0  0.63746560938E+02  0.15597489183E+02  0.14264011171E+02  0.67289227332E+02  0.41800000000E+01 0. -1.
         -5    1    1    2    0  502 -0.35762728541E+02  0.94562290454E+02  0.56972689140E+02  0.11612217375E+03  0.41800000000E+01 0. -1.
        -11    1    3    3    0    0 -0.51114512115E+02 -0.33063101740E+02  0.43777959477E+02  0.74982476495E+02  0.00000000000E+00 0.  1.
         11    1    3    3    0    0  0.23130679718E+02 -0.77096677897E+02  0.12305407537E+03  0.14704159804E+03  0.00000000000E+00 0. -1.
</event>
<event>
 7    1  0.6584658E-006  0.1175303E+03  0.7561462E-02  0.1247228E+00
          3   -1    0    0  501    0  0.00000000000E+00  0.00000000000E+00  0.35866011730E+02  0.35866011730E+02  0.00000000000E+00 0. -1.
         -3   -1    0    0    0  501 -0.00000000000E+00 -0.00000000000E+00 -0.49937128744E+03  0.49937128744E+03  0.00000000000E+00 0.  1.
         23    2    1    2    0    0 -0.74943673099E+02 -0.22994953456E+02 -0.19655847816E+03  0.23018963879E+03  0.90590907083E+02 0.  0.
          5    1    1    2  502    0 -0.23672320511E+02 -0.68443492808E+01 -0.13648674823E+03  0.13875636460E+03  0.41800000000E+01 0.  1.
         -5    1    1    2    0  502  0.98615993610E+02  0.29839302737E+02 -0.13046004931E+03  0.16629129577E+03  0.41800000000E+01 0.  1.
        -11    1    3    3    0    0  0.14744524262E+02 -0.25893123873E+01 -0.81603559446E+02  0.82965332812E+02  0.00000000000E+00 0.  1.
         11    1    3    3    0    0 -0.89688197361E+02 -0.20405641068E+02 -0.11495491872E+03  0.14722430598E+03  0.00000000000E+00 0. -1.
</event>
<event>
 7    1  0.6584658E-006  0.1136811E+03  0.7561462E-02  0.1253901E+00
          1   -1    0    0  501    0  0.00000000000E+00  0.00000000000E+00  0.33705623605E+03  0.33705623605E+03  0.00000000000E+00 0. -1.
         -1   -1    0    0    0  501 -0.00000000000E+00 -0.00000000000E+00 -0.48189128954E+02  0.48189128954E+02  0.00000000000E+00 0.  1.
         23    2    1    2    0    0 -0.21572169059E+02  0.59807616628E+02  0.15596874226E+03  0.19197897742E+03  0.92126921823E+02 0.  0.
          5    1    1    2  502    0 -0.18600795170E+02  0.25959599632E+02  0.28529666708E+01  0.32334226647E+02  0.41800000000E+01 0. -1.
         -5    1    1    2    0  502  0.40172964228E+02 -0.85767216260E+02  0.13004539816E+03  0.16093216093E+03  0.41800000000E+01 0. -1.
        -11    1    3    3    0    0  0.28808892898E+02  0.13086143079E+02  0.14706369078E+02  0.34892359367E+02  0.00000000000E+00 0.  1.
         11    1    3    3    0    0 -0.50381061957E+02  0.46721473548E+02  0.14126237318E+03  0.15708661805E+03  0.00000000000E+00 0. -1.
</event>
<event>
 7    1  0.6584658E-006  0.1007490E+03  0.7561462E-02  0.1278729E+00
         -1   -1    0    0    0  501 -0.00000000000E+00  0.00000000000E+00  0.42949713825E+03  0.42949713825E+03  0.00000000000E+00 0.  1.
          1   -1    0    0  501    0  0.00000000000E+00 -0.00000000000E+00 -0.28204724328E+03  0.28204724328E+03  0.00000000000E+00 0. -1.
         23    2    1    2    0    0  0.27693101410E+02 -0.65241802115E+00 -0.26553357839E+03  0.28258178438E+03  0.92612364713E+02 0.  0.
          5    1    1    2  502    0  0.39377553014E+02 -0.17158680456E+02  0.11134058846E+03  0.11941193841E+03  0.41800000000E+01 0. -1.
         -5    1    1    2    0  502 -0.67070654424E+02  0.17811098477E+02  0.30164288490E+03  0.30955065874E+03  0.41800000000E+01 0.  1.
        -11    1    3    3    0    0 -0.25311159503E+02 -0.20141156752E+02 -0.48324854626E+02  0.58151634245E+02  0.00000000000E+00 0.  1.
         11    1    3    3    0    0  0.53004260913E+02  0.19488738731E+02 -0.21720872376E+03  0.22443015014E+03  0.00000000000E+00 0. -1.
</event>
<event>
 7    1  0.6584658E-006  0.1015387E+03  0.7561462E-02  0.1277093E+00
         -2   -1    0    0    0  501 -0.00000000000E+00  0.00000000000E+00  0.48967955023E+02  0.48967955023E+02  0.00000000000E+00 0.  1.
          2   -1    0    0  501    0  0.00000000000E+00 -0.00000000000E+00 -0.26097424075E+03  0.26097424075E+03  0.00000000000E+00 0. -1.
         23    2    1    2    0    0  0.18800798919E+01 -0.65058779400E+01 -0.11368892819E+03  0.15069393008E+03  0.98679415397E+02 0.  0.
          5    1    1    2  502    0 -0.52735773970E+02  0.96504784706E+01 -0.93548058163E+02  0.10790229459E+03  0.41800000000E+01 0. -1.
         -5    1    1    2    0  502  0.50855694078E+02 -0.31446005306E+01 -0.47692993806E+01  0.51345971110E+02  0.41800000000E+01 0. -1.
        -11    1    3    3    0    0 -0.17878879359E+02 -0.48542490478E+02 -0.68996159828E+02  0.86235130776E+02  0.00000000000E+00 0.  1.
         11    1    3    3    0    0  0.19758959251E+02  0.42036612538E+02 -0.44692768360E+02  0.64458799306E+02  0.00000000000E+00 0. -1.
</event>
<event>
 7    1  0.6584658E-006  0.8490747E+02  0.7561462E-02  0.1315675E+00
         -4   -1    0    0    0  501 -0.00000000000E+00  0.00000000000E+00  0.11309652134E+03  0.11309652134E+03  0.00000000000E+00 0.  1.
          4   -1    0    0  501    0  0.00000000000E+00 -0.00000000000E+00 -0.12944769337E+03  0.12944769337E+03  0.00000000000E+00 0. -1.
         23    2    1    2    0    0  0.14290668958E+02  0.50376714930E+02 -0.32045667309E+01  0.10628445658E+03  0.92434191927E+02 0.  0.
          5    1    1    2  502    0  0.27137939670E+01 -0.65212709182E+02 -0.57005304602E+02  0.86759087532E+02  0.41800000000E+01 0.  1.
         -5    1    1    2    0  502 -0.17004462925E+02  0.14835994253E+02  0.43858699303E+02  0.49500670595E+02  0.41800000000E+01 0.  1.
        -11    1    3    3    0    0  0.38515707117E+02  0.38586946844E+02 -0.34863318727E+02  0.64713701440E+02  0.00000000000E+00 0. -1.
         11    1    3    3    0    0 -0.24225038159E+02  0.11789768086E+02  0.31658751996E+02  0.41570755144E+02  0.00000000000E+00 0.  1.
</event>
<event>
 7    1  0.6584658E-006  0.1175065E+03  0.7561462E-02  0.1247268E+00
         -1   -1    0    0    0  501 -0.00000000000E+00  0.00000000000E+00  0.77379996596E+02  0.77379996596E+02  0.00000000000E+00 0.  1.
          1   -1    0    0  501    0  0.00000000000E+00 -0.00000000000E+00 -0.32307552746E+03  0.32307552746E+03  0.00000000000E+00 0. -1.
         23    2    1    2    0    0 -0.67554772383E+02  0.37165733434E+01 -0.23819245749E+03  0.26339106606E+03  0.89787230086E+02 0.  0.
          5    1    1    2  502    0 -0.19262380322E+01  0.40858298924E+02 -0.30586631651E+02  0.51245735624E+02  0.41800000000E+01 0. -1.
         -5    1    1    2    0  502  0.69481010415E+02 -0.44574872267E+02  0.23083558280E+02  0.85818722368E+02  0.41800000000E+01 0.  1.
        -11    1    3    3    0    0 -0.89210202856E+02  0.62950106061E+01 -0.17475135801E+03  0.19630620107E+03  0.00000000000E+00 0. -1.
         11    1    3    3    0    0  0.21655430473E+02 -0.25784372628E+01 -0.63441099478E+02  0.67084864990E+02  0.00000000000E+00 0.  1.
</event>
<event>
 7    1  0.6584658E-006  0.7999550E+02  0.7561462E-02  0.1329064E+00
          1   -1    0    0  501    0  0.00000000000E+00  0.00000000000E+00  0.29252981100E+03  0.29252981100E+03  0.00000000000E+00 0. -1.
         -1   -1    0    0    0  501 -0.00000000000E+00 -0.00000000000E+00 -0.65499669002E+02  0.65499669002E+02  0.00000000000E+00 0.  1.
         23    2    1    2    0    0  0.58141580074E+02 -0.31662444194E+02  0.16971493568E+03  0.20533520331E+03  0.94744037395E+02 0.  0.
          5    1    1    2  502    0  0.81073001236E+01 -0.53423781706E+01 -0.33003613690E+02  0.34655161757E+02  0.41800000000E+01 0. -1.
         -5    1    1    2    0  502 -0.66248880198E+02  0.37004822365E+02  0.90318820008E+02  0.11803911493E+03  0.41800000000E+01 0. -1.
        -11    1    3    3    0    0  0.21861904335E+02  0.43642383561E+01 -0.53756401905E+01  0.22932225034E+02  0.00000000000E+00 0.  1.
         11    1    3    3    0    0  0.36279675739E+02 -0.36026682550E+02  0.17509057587E+03  0.18240297828E+03  0.00000000000E+00 0. -1.
</event>
<event>
 7    1  0.6584658E-006  0.1639095E+03  0.7561462E-02  0.1184352E+00
          2   -1    0    0  501    0  0.00000000000E+00  0.00000000000E+00  0.51471358270E+03  0.51471358270E+03  0.00000000000E+00 0.  1.
         -2   -1    0    0    0  501 -0.00000000000E+00 -0.00000000000E+00 -0.87881360026E+02  0.87881360026E+02  0.00000000000E+00 0. -1.
         23    2    1    2    0    0  0.14178801855E+03  0.26979840515E+02  0.36489137822E+03  0.40180926882E+03  0.86447768131E+02 0.  0.
          5    1    1    2  502    0 -0.14518885396E+03 -0.13155414671E+02  0.88333289512E+02  0.17050838890E+03  0.41800000000E+01 0.  1.
         -5    1    1    2    0  502  0.34008354100E+01 -0.13824425845E+02 -0.26392445056E+02  0.30277285008E+02  0.41800000000E+01 0.  1.
        -11    1    3    3    0    0  0.11689304438E+03  0.55399531878E+02  0.30036775194E+03  0.32703803810E+03  0.00000000000E+00 0.  1.
         11    1    3    3    0    0  0.24894974170E+02 -0.28419691363E+02  0.64523626280E+02  0.74771230727E+02  0.00000000000E+00 0. -1.
</event>
<event>
 7    1  0.6584658E-006  0.1085576E+03  0.7561462E-02  0.1263264E+00
          2   -1    0    0  501    0  0.00000000000E+00  0.00000000000E+00  0.48784249399E+02  0.48784249399E+02  0.00000000000E+00 0. -1.
         -2   -1    0    0    0  501 -0.00000000000E+00 -0.00000000000E+00 -0.29058432214E+03  0.29058432214E+03  0.00000000000E+00 0.  1.
         23    2    1    2    0    0  0.44721661290E+02  0.48892152335E+00 -0.67465131439E+02  0.12019878385E+03  0.88859088704E+02 0.  0.
          5    1    1    2  502    0  0.22414732655E+02  0.34885731857E+02 -0.18113757521E+02  0.45442437641E+02  0.41800000000E+01 0. -1.
         -5    1    1    2    0  502 -0.67136393945E+02 -0.35374653381E+02 -0.15622118378E+03  0.17372735005E+03  0.41800000000E+01 0. -1.
        -11    1    3    3    0    0  0.18327639627E+02  0.44496032153E+02 -0.34385605229E+02  0.59145321866E+02  0.00000000000E+00 0. -1.
         11    1    3    3    0    0  0.26394021663E+02 -0.44007110630E+02 -0.33079526210E+02  0.61053461980E+02  0.00000000000E+00 0.  1.
</event>
<event>
 7    1  0.6584658E-006  0.1455103E+03  0.7561462E-02  0.1206101E+00
          2   -1    0    0  501    0  0.00000000000E+00  0.00000000000E+00  0.50006013707E+03  0.50006013707E+03  0.00000000000E+00 0. -1.
         -2   -1    0    0    0  501 -0.00000000000E+00 -0.00000000000E+00 -0.43376873557E+02  0.43376873557E+02  0.00000000000E+00 0.  1.
         23    2    1    2    0    0  0.78884123984E+02  0.58502009854E+02  0.23357208228E+03  0.26942911335E+03  0.91602070514E+02 0.  0.
          5    1    1    2  502    0 -0.10075416738E+03 -0.79321355928E+02  0.18647210264E+03  0.22634618887E+03  0.41800000000E+01 0. -1.
         -5    1    1    2    0  502  0.21870043397E+02  0.20819346074E+02  0.36639078589E+02  0.47661708415E+02  0.41800000000E+01 0. -1.
        -11    1    3    3    0    0 -0.14642966023E+02  0.31744116479E+02  0.84246754964E+02  0.91211957040E+02  0.00000000000E+00 0.  1.
         11    1    3    3    0    0  0.93527090007E+02  0.26757893375E+02  0.14932532732E+03  0.17821715631E+03  0.00000000000E+00 0. -1.
</event>
<event>
 7    1  0.6584658E-006  0.1104671E+03  0.7561462E-02  0.1259707E+00
          2   -1    0    0  501    0  0.00000000000E+00  0.00000000000E+00  0.29630765063E+03  0.29630765063E+03  0.00000000000E+00 0. -1.
         -2   -1    0    0    0  501 -0.00000000000E+00 -0.00000000000E+00 -0.62586831064E+02  0.62586831064E+02  0.00000000000E+00 0.  1.
         23    2    1    2    0    0 -0.60379784192E+02  0.56080533312E+01  0.18046160133E+03  0.21002670853E+03  0.88699831672E+02 0.  0.
          5    1    1    2  502    0  0.19045104936E+02 -0.57972170970E+02  0.54632736800E+02  0.82010346659E+02  0.41800000000E+01 0.  1.
         -5    1    1    2    0  502  0.41334679256E+02  0.52364117638E+02 -0.13735185700E+01  0.66857426502E+02  0.41800000000E+01 0.  1.
        -11    1    3    3    0    0 -0.30983058881E+02  0.38102128851E+02  0.14672619301E+03  0.15472652609E+03  0.00000000000E+00 0. -1.
         11    1    3    3    0    0 -0.29396725311E+02 -0.32494075520E+02  0.33735408317E+02  0.55300182434E+02  0.00000000000E+00 0.  1.
</event>
<event>
 7    1  0.6584658E-006  0.2450895E+03  0.7561462E-02  0.1116448E+00
          1   -1    0    0  501    0  0.00000000000E+00  0.00000000000E+00  0.97646894248E+03  0.97646894248E+03  0.00000000000E+00 0. -1.
         -1   -1    0    0    0  501 -0.00000000000E+00 -0.00000000000E+00 -0.62317088970E+02  0.62317088970E+02  0.00000000000E+00 0.  1.
         23    2    1    2    0    0 -0.19204666522E+03  0.11172461304E+03  0.43686659884E+03  0.49766365136E+03  0.86327133178E+02 0.  0.
          5    1    1    2  502    0 -0.16618030743E+02  0.17151390547E+01  0.27077483279E+02  0.32089922850E+02  0.41800000000E+01 0.  1.
         -5    1    1    2    0  502  0.20866469597E+03 -0.11343975210E+03  0.45020777139E+03  0.50903245723E+03  0.41800000000E+01 0.  1.
        -11    1    3    3    0    0 -0.44721362064E+02  0.68630140575E+02  0.19086251850E+03  0.20769833266E+03  0.00000000000E+00 0.  1.
         11    1    3    3    0    0 -0.14732530316E+03  0.43094472470E+02  0.24600408034E+03  0.28996531870E+03  0.00000000000E+00 0. -1.
</event>
<event>
 7    1  0.6584658E-006  0.9840419E+02  0.7561462E-02  0.1283688E+00
          2   -1    0    0  501    0  0.00000000000E+00  0.00000000000E+00  0.33914683354E+02  0.33914683354E+02  0.00000000000E+00 0. -1.
         -2   -1    0    0    0  501 -0.00000000000E+00 -0.00000000000E+00 -0.90873498990E+03  0.90873498990E+03  0.00000000000E+00 0.  1.
         23    2    1    2    0    0 -0.49415674873E+02 -0.67855453626E+02 -0.12141582088E+03  0.17433158864E+03  0.92754674954E+02 0.  0.
          5    1    1    2  502    0  0.38561932387E+02  0.18289031678E+02 -0.66438649768E+03  0.66576903052E+03  0.41800000000E+01 0. -1.
         -5    1    1    2    0  502  0.10853742485E+02  0.49566421947E+02 -0.89017987985E+02  0.10254905409E+03  0.41800000000E+01 0. -1.
        -11    1    3    3    0    0 -0.47102492091E+02 -0.14044635785E+02 -0.10824843408E+03  0.11888490247E+03  0.00000000000E+00 0.  1.
         11    1    3    3    0    0 -0.23131827817E+01 -0.53810817840E+02 -0.13167386804E+02  0.55446686163E+02  0.00000000000E+00 0. -1.
</event>
<event>
 7    1  0.6584658E-006  0.8397981E+02  0.7561462E-02  0.1318122E+00
          1   -1    0    0  501    0  0.00000000000E+00  0.00000000000E+00  0.41450054174E+03  0.41450054174E+03  0.00000000000E+00 0. -1.
         -1   -1    0    0    0  501 -0.00000000000E+00 -0.00000000000E+00 -0.31932399862E+02  0.31932399862E+02  0.00000000000E+00 0.  1.
         23    2    1    2    0    0  0.36842678016E+01  0.61366344052E+01  0.23479106031E+03  0.25268003162E+03  0.93108132115E+02 0.  0.
          5    1    1    2  502    0 -0.34580174932E+02  0.30810847460E+02  0.97637089808E+01  0.47517357172E+02  0.41800000000E+01 0.  1.
         -5    1    1    2    0  502  0.30895907131E+02 -0.36947481865E+02  0.13801337259E+03  0.14623555281E+03  0.41800000000E+01 0.  1.
        -11    1    3    3    0    0  0.17020721556E+02 -0.30055859281E+02  0.34903993376E+02  0.49105482311E+02  0.00000000000E+00 0.  1.
         11    1    3    3    0    0 -0.13336453754E+02  0.36192493687E+02  0.19988706693E+03  0.20357454931E+03  0.00000000000E+00 0. -1.
</event>
<event>
 7    1  0.6584658E-006  0.1254462E+03  0.7561462E-02  0.1234374E+00
          2   -1    0    0  501    0  0.00000000000E+00  0.00000000000E+00  0.12861061699E+04  0.12861061699E+04  0.00000000000E+00 0. -1.
         -2   -1    0    0    0  501 -0.00000000000E+00 -0.00000000000E+00 -0.16502430296E+02  0.16502430296E+02  0.00000000000E+00 0.  1.
         23    2    1    2    0    0 -0.79635921905E+02 -0.52610724149E+02  0.57486371520E+03  0.59027286163E+03  0.94042499776E+02 0.  0.
          5    1    1    2  502    0  0.27141457458E+02  0.60955707348E+02  0.14113577736E+03  0.15616989794E+03  0.41800000000E+01 0.  1.
         -5    1    1    2    0  502  0.52494464448E+02 -0.83449831996E+01  0.55360424708E+03  0.55616584067E+03  0.41800000000E+01 0.  1.
        -11    1    3    3    0    0  0.18665299294E+02 -0.19493761795E+02  0.73685151861E+02  0.78472299261E+02  0.00000000000E+00 0.  1.
         11    1    3    3    0    0 -0.98301221199E+02 -0.33116962354E+02  0.50117856334E+03  0.51180056237E+03  0.00000000000E+00 0. -1.
</event>
<event>
 7    1  0.6584658E-006  0.2083042E+03  0.7561462E-02  0.1142916E+00
         -2   -1    0    0    0  501 -0.00000000000E+00  0.00000000000E+00  0.21069169372E+03  0.21069169372E+03  0.00000000000E+00 0. -1.
          2   -1    0    0  501    0  0.00000000000E+00 -0.00000000000E+00 -0.21034085437E+03  0.21034085437E+03  0.00000000000E+00 0.  1.
         23    2    1    2    0    0  0.11168734416E+03  0.13844852430E+03  0.28885722203E+02  0.20170876469E+03  0.90608962469E+02 0.  0.
          5    1    1    2  502    0 -0.16910135798E+02  0.23794744240E+02 -0.50349823584E+01  0.29915982242E+02  0.41800000000E+01 0. -1.
         -5    1    1    2    0  502 -0.94777208357E+02 -0.16224326854E+03 -0.23499900495E+02  0.18940780115E+03  0.41800000000E+01 0. -1.
        -11    1    3    3    0    0  0.12667168328E+03  0.11355282923E+03  0.29440500735E+02  0.17264617996E+03  0.00000000000E+00 0. -1.
         11    1    3    3    0    0 -0.14984339123E+02  0.24895695072E+02 -0.55477853144E+00  0.29062584731E+02  0.00000000000E+00 0.  1.
</event>
<event>
 7    1  0.6584658E-006  0.1325458E+03  0.7561462E-02  0.1223726E+00
         -2   -1    0    0    0  501 -0.00000000000E+00  0.00000000000E+00  0.27632844642E+03  0.27632844642E+03  0.00000000000E+00 0.  1.
          2   -1    0    0  501    0  0.00000000000E+00 -0.00000000000E+00 -0.80647794752E+02  0.80647794752E+02  0.00000000000E+00 0. -1.
         23    2    1    2    0    0  0.71222864780E+01 -0.17876259245E+02  0.75515836307E+01  0.94269676401E+02  0.91975311166E+02 0.  0.
          5    1    1    2  502    0 -0.94209660096E+02  0.10835267699E+00  0.92880187217E+02  0.13236190303E+03  0.41800000000E+01 0. -1.
         -5    1    1    2    0  502  0.87087373618E+02  0.17767906568E+02  0.95248880821E+02  0.13034466174E+03  0.41800000000E+01 0.  1.
        -11    1    3    3    0    0  0.20617321811E+02  0.27556072754E+02  0.26287588806E+02  0.43306447898E+02  0.00000000000E+00 0.  1.
         11    1    3    3    0    0 -0.13495035333E+02 -0.45432331999E+02 -0.18736005175E+02  0.50963228503E+02  0.00000000000E+00 0. -1.
</event>
<event>
 7    1  0.6584658E-006  0.1287030E+03  0.7561462E-02  0.1229393E+00
          1   -1    0    0  501    0  0.00000000000E+00  0.00000000000E+00  0.65583387046E+03  0.65583387046E+03  0.00000000000E+00 0. -1.
         -1   -1    0    0    0  501 -0.00000000000E+00 -0.00000000000E+00 -0.37155393401E+02  0.37155393401E+02  0.00000000000E+00 0.  1.
         23    2    1    2    0    0  0.34450381493E+02 -0.10712580099E+03  0.28186879033E+03  0.31649123391E+03  0.89743635744E+02 0.  0.
          5    1    1    2  502    0  0.31283479610E+02  0.32831318291E+02  0.21289856834E+03  0.21771500720E+03  0.41800000000E+01 0. -1.
         -5    1    1    2    0  502 -0.65733861103E+02  0.74294482699E+02  0.12391111839E+03  0.15878302275E+03  0.41800000000E+01 0. -1.
        -11    1    3    3    0    0  0.14197676517E+02 -0.49485008821E+02  0.35189970802E+02  0.62359234774E+02  0.00000000000E+00 0.  1.
         11    1    3    3    0    0  0.20252704976E+02 -0.57640792168E+02  0.24667881953E+03  0.25413199914E+03  0.00000000000E+00 0. -1.
</event>
<event>
 7    1  0.6584658E-006  0.5759901E+02  0.7561462E-02  0.1408193E+00
          1   -1    0    0  501    0  0.00000000000E+00  0.00000000000E+00  0.42908903803E+03  0.42908903803E+03  0.00000000000E+00 0. -1.
         -1   -1    0    0    0  501 -0.00000000000E+00 -0.00000000000E+00 -0.30584944785E+02  0.30584944785E+02  0.00000000000E+00 0.  1.
         23    2    1    2    0    0 -0.12561173533E+02  0.19817698897E+02  0.22983107484E+03  0.24837161265E+03  0.91189970609E+02 0.  0.
          5    1    1    2  502    0  0.20647055536E+02  0.82855724604E+01  0.17868352048E+03  0.18011170007E+03  0.41800000000E+01 0. -1.
         -5    1    1    2    0  502 -0.80858820028E+01 -0.28103271357E+02 -0.10010502072E+02  0.31190670087E+02  0.41800000000E+01 0. -1.
        -11    1    3    3    0    0 -0.19319049528E+02 -0.16911218138E+02  0.13824447573E+02  0.29160423938E+02  0.00000000000E+00 0.  1.
         11    1    3    3    0    0  0.67578759946E+01  0.36728917035E+02  0.21600662726E+03  0.21921118871E+03  0.00000000000E+00 0. -1.
</event>
<event>
 7    1  0.6584658E-006  0.7030785E+02  0.7561462E-02  0.1359049E+00
          2   -1    0    0  501    0  0.00000000000E+00  0.00000000000E+00  0.38785791046E+02  0.38785791046E+02  0.00000000000E+00 0. -1.
         -2   -1    0    0    0  501 -0.00000000000E+00 -0.00000000000E+00 -0.45851739317E+03  0.45851739317E+03  0.00000000000E+00 0.  1.
         23    2    1    2    0    0  0.20563453355E+02  0.25288731335E+02 -0.54886185698E+02  0.11023362687E+03  0.89869814544E+02 0.  0.
          5    1    1    2  502    0  0.10465533336E+02 -0.12057352974E+01  0.68752759290E+01  0.13256055398E+02  0.41800000000E+01 0.  1.
         -5    1    1    2    0  502 -0.31028986691E+02 -0.24082996037E+02 -0.37172069236E+03  0.37381350195E+03  0.41800000000E+01 0.  1.
        -11    1    3    3    0    0  0.42000820708E+02  0.44359971414E+02 -0.53988441038E+02  0.81526853059E+02  0.00000000000E+00 0.  1.
         11    1    3    3    0    0 -0.21437367353E+02 -0.19071240079E+02 -0.89774465943E+00  0.28706773811E+02  0.00000000000E+00 0. -1.
</event>
<event>
 7    1  0.6584658E-006  0.1264660E+03  0.7561462E-02  0.1232796E+00
         -1   -1    0    0    0  501 -0.00000000000E+00  0.00000000000E+00  0.23919089494E+02  0.23919089494E+02  0.00000000000E+00 0.  1.
          1   -1    0    0  501    0  0.00000000000E+00 -0.00000000000E+00 -0.86679013911E+03  0.86679013911E+03  0.00000000000E+00 0. -1.
         23    2    1    2    0    0  0.40265408782E+02 -0.84142109074E+02 -0.41836817705E+03  0.43843737883E+03  0.92164016457E+02 0.  0.
          5    1    1    2  502    0 -0.32101976252E+02 -0.26487134308E+02 -0.79242517965E+02  0.89604431902E+02  0.41800000000E+01 0.  1.
         -5    1    1    2    0  502 -0.81634325291E+01  0.11062924338E+03 -0.34526035461E+03  0.36266741787E+03  0.41800000000E+01 0.  1.
        -11    1    3    3    0    0 -0.34575440020E+01 -0.31386342109E+02 -0.28316675682E+02  0.42413337563E+02  0.00000000000E+00 0.  1.
         11    1    3    3    0    0  0.43722952783E+02 -0.52755766965E+02 -0.39005150136E+03  0.39602404127E+03  0.00000000000E+00 0. -1.
</event>
<event>
 7    1  0.6584658E-006  0.1130530E+03  0.7561462E-02  0.1255018E+00
          2   -1    0    0  501    0  0.00000000000E+00  0.00000000000E+00  0.57694652676E+02  0.57694652676E+02  0.00000000000E+00 0. -1.
         -2   -1    0    0    0  501 -0.00000000000E+00 -0.00000000000E+00 -0.38302012410E+03  0.38302012410E+03  0.00000000000E+00 0.  1.
         23    2    1    2    0    0  0.31657827020E+02  0.27740181211E+02 -0.10182049349E+02  0.99050297149E+02  0.89081712888E+02 0.  0.
          5    1    1    2  502    0 -0.18177772066E+02 -0.76835836179E+02 -0.21822719974E+03  0.23210937126E+03  0.41800000000E+01 0.  1.
         -5    1    1    2    0  502 -0.13480054954E+02  0.49095654968E+02 -0.96916222335E+02  0.10955510837E+03  0.41800000000E+01 0.  1.
        -11    1    3    3    0    0 -0.22047912745E+02  0.35400869257E+02 -0.15608077698E+02  0.44530260386E+02  0.00000000000E+00 0.  1.
         11    1    3    3    0    0  0.53705739765E+02 -0.76606880462E+01  0.54260283487E+01  0.54520036764E+02  0.00000000000E+00 0. -1.
</event>
<event>
 7    1  0.6584658E-006  0.1564766E+03  0.7561462E-02  0.1192733E+00
         -3   -1    0    0    0  501 -0.00000000000E+00  0.00000000000E+00  0.24602407534E+03  0.24602407534E+03  0.00000000000E+00 0.  1.
          3   -1    0    0  501    0  0.00000000000E+00 -0.00000000000E+00 -0.12125573953E+03  0.12125573953E+03  0.00000000000E+00 0. -1.
         23    2    1    2    0    0 -0.85442516993E+02  0.78015373077E+02 -0.13607863729E+02  0.14777505564E+03  0.90914635606E+02 0.  0.
          5    1    1    2  502    0 -0.75954351705E-01 -0.80075757110E+02  0.92250515925E+02  0.12222832214E+03  0.41800000000E+01 0.  1.
         -5    1    1    2    0  502  0.85518471345E+02  0.20603840326E+01  0.46125683610E+02  0.97276437085E+02  0.41800000000E+01 0.  1.
        -11    1    3    3    0    0  0.85496452561E+01 -0.13472886384E+02 -0.64569821940E+00  0.15969722218E+02  0.00000000000E+00 0.  1.
         11    1    3    3    0    0 -0.93992162250E+02  0.91488259461E+02 -0.12962165510E+02  0.13180533342E+03  0.00000000000E+00 0. -1.
</event>
<event>
 7    1  0.6584658E-006  0.1239195E+03  0.7561462E-02  0.1236768E+00
         -2   -1    0    0    0  501 -0.00000000000E+00  0.00000000000E+00  0.13775589348E+03  0.13775589348E+03  0.00000000000E+00 0.  1.
          2   -1    0    0  501    0  0.00000000000E+00 -0.00000000000E+00 -0.15678579054E+03  0.15678579054E+03  0.00000000000E+00 0. -1.
         23    2    1    2    0    0  0.43195305333E+02  0.70560193544E+01 -0.13813213685E+02  0.10045614554E+03  0.89358885920E+02 0.  0.
          5    1    1    2  502    0 -0.23210117587E+02  0.72974818146E+02 -0.57922991546E+02  0.96107122481E+02  0.41800000000E+01 0. -1.
         -5    1    1    2    0  502 -0.19985187746E+02 -0.80030837501E+02  0.52706308165E+02  0.97978415994E+02  0.41800000000E+01 0.  1.
        -11    1    3    3    0    0  0.27900494043E+02  0.41992284670E+02 -0.30395001481E+02  0.58869734623E+02  0.00000000000E+00 0.  1.
         11    1    3    3    0    0  0.15294811290E+02 -0.34936265315E+02  0.16581787796E+02  0.41586410918E+02  0.00000000000E+00 0. -1.
</event>
<event>
 7    1  0.6584658E-006  0.8039103E+02  0.7561462E-02  0.1327945E+00
         -1   -1    0    0    0  501 -0.00000000000E+00  0.00000000000E+00  0.32221694259E+03  0.32221694259E+03  0.00000000000E+00 0.  1.
          1   -1    0    0  501    0  0.00000000000E+00 -0.00000000000E+00 -0.30139713171E+03  0.30139713171E+03  0.00000000000E+00 0. -1.
         23    2    1    2    0    0 -0.32285250828E+02 -0.15898760618E+02 -0.28045454113E+03  0.29638272689E+03  0.88841787157E+02 0.  0.
          5    1    1    2  502    0  0.20258464560E+02 -0.24643155038E+02  0.11210128491E+02  0.34070953279E+02  0.41800000000E+01 0. -1.
         -5    1    1    2    0  502  0.12026786268E+02  0.40541915656E+02  0.29006422353E+03  0.29316039413E+03  0.41800000000E+01 0.  1.
        -11    1    3    3    0    0  0.25023362002E+02  0.42193276139E+01 -0.33257809829E+02  0.41833638212E+02  0.00000000000E+00 0.  1.
         11    1    3    3    0    0 -0.57308612831E+02 -0.20118088232E+02 -0.24719673131E+03  0.25454908868E+03  0.00000000000E+00 0. -1.
</event>
<event>
 7    1  0.6584658E-006  0.8215602E+02  0.7561462E-02  0.1323042E+00
         -1   -1    0    0    0  501 -0.00000000000E+00  0.00000000000E+00  0.63464410526E+02  0.63464410526E+02  0.00000000000E+00 0.  1.
          1   -1    0    0  501    0  0.00000000000E+00 -0.00000000000E+00 -0.26783502948E+03  0.26783502948E+03  0.00000000000E+00 0. -1.
         23    2    1    2    0    0 -0.16630178387E+02 -0.17412271302E+01 -0.18184331508E+03  0.20347327958E+03  0.89748479423E+02 0.  0.
          5    1    1    2  502    0 -0.24822613063E+01 -0.36105029071E+02  0.38754850332E+02  0.53189713006E+02  0.41800000000E+01 0. -1.
         -5    1    1    2    0  502  0.19112439693E+02  0.37846256201E+02 -0.61282154212E+02  0.74636447426E+02  0.41800000000E+01 0. -1.
        -11    1    3    3    0    0  0.13456944474E+02  0.35170318858E+02 -0.11775508772E+03  0.12362969452E+03  0.00000000000E+00 0. -1.
         11    1    3    3    0    0 -0.30087122861E+02 -0.36911545988E+02 -0.64088227360E+02  0.79843585061E+02  0.00000000000E+00 0.  1.
</event>
<event>
 7    1  0.6584658E-006  0.9617530E+02  0.7561462E-02  0.1288551E+00
         -2   -1    0    0    0  501 -0.00000000000E+00  0.00000000000E+00  0.96055501988E+02  0.96055501988E+02  0.00000000000E+00 0.  1.
          2   -1    0    0  501    0  0.00000000000E+00 -0.00000000000E+00 -0.19423465667E+03  0.19423465667E+03  0.00000000000E+00 0. -1.
         23    2    1    2    0    0 -0.42579328024E+02  0.56034330775E+01 -0.12034274227E+03  0.15613775250E+03  0.89734188029E+02 0.  0.
          5    1    1    2  502    0 -0.14953825991E+02 -0.35906716615E+02 -0.31113475064E+02  0.49984296939E+02  0.41800000000E+01 0. -1.
         -5    1    1    2    0  502  0.57533154014E+02  0.30303283538E+02  0.53277062656E+02  0.84168109218E+02  0.41800000000E+01 0. -1.
        -11    1    3    3    0    0  0.16857742573E+02 -0.17502119937E+02 -0.57116180763E+01  0.24962577351E+02  0.00000000000E+00 0.  1.
         11    1    3    3    0    0 -0.59437070597E+02  0.23105553014E+02 -0.11463112420E+03  0.13117517515E+03  0.00000000000E+00 0. -1.
</event>
<event>
 7    1  0.6584658E-006  0.1316392E+03  0.7561462E-02  0.1225044E+00
          4   -1    0    0  501    0  0.00000000000E+00  0.00000000000E+00  0.87719844310E+02  0.87719844310E+02  0.00000000000E+00 0.  1.
         -4   -1    0    0    0  501 -0.00000000000E+00 -0.00000000000E+00 -0.22695097576E+03  0.22695097576E+03  0.00000000000E+00 0. -1.
         23    2    1    2    0    0 -0.63397718643E+02  0.56770018237E+02 -0.29180303985E+02  0.12758775943E+03  0.90471213745E+02 0.  0.
          5    1    1    2  502    0  0.95243415363E+02 -0.16273840136E+02 -0.88459229603E+02  0.13106736338E+03  0.41800000000E+01 0.  1.
         -5    1    1    2    0  502 -0.31845696720E+02 -0.40496178101E+02 -0.21591597861E+02  0.56015697251E+02  0.41800000000E+01 0.  1.
        -11    1    3    3    0    0 -0.18219593572E+02 -0.19212657170E+02  0.13164338847E+02  0.29569910428E+02  0.00000000000E+00 0.  1.
         11    1    3    3    0    0 -0.45178125071E+02  0.75982675407E+02 -0.42344642832E+02  0.98017849005E+02  0.00000000000E+00 0. -1.
</event>
<event>
 7    1  0.6584658E-006  0.2771347E+03  0.7561462E-02  0.1097264E+00
         -1   -1    0    0    0  501 -0.00000000000E+00  0.00000000000E+00  0.30791729342E+03  0.30791729342E+03  0.00000000000E+00 0.  1.
          1   -1    0    0  501    0  0.00000000000E+00 -0.00000000000E+00 -0.28302750104E+03  0.28302750104E+03  0.00000000000E+00 0. -1.
         23    2    1    2    0    0  0.15355319750E+03  0.22184141649E+03 -0.37828305120E+02  0.28701657496E+03  0.90306893983E+02 0.  0.
          5    1    1    2  502    0 -0.11670024834E+03 -0.12072256406E+03 -0.18579695904E+02  0.16898391325E+03  0.41800000000E+01 0.  1.
         -5    1    1    2    0  502 -0.36852949160E+02 -0.10111885242E+03  0.81297793403E+02  0.13494430625E+03  0.41800000000E+01 0.  1.
        -11    1    3    3    0    0  0.12519883043E+03  0.12198657286E+03 -0.51711572780E+02  0.18228976344E+03  0.00000000000E+00 0. -1.
         11    1    3    3    0    0  0.28354367073E+02  0.99854843633E+02  0.13883267660E+02  0.10472681151E+03  0.00000000000E+00 0.  1.
</event>
<event>
 7    1  0.6584658E-006  0.1154841E+03  0.7561462E-02  0.1250738E+00
         -1   -1    0    0    0  501 -0.00000000000E+00  0.00000000000E+00  0.40174120011E+02  0.40174120011E+02  0.00000000000E+00 0.  1.
          1   -1    0    0  501    0  0.00000000000E+00 -0.00000000000E+00 -0.43007691070E+03  0.43007691070E+03  0.00000000000E+00 0. -1.
         23    2    1    2    0    0 -0.73169733359E+02 -0.72180819789E+01 -0.19979042898E+03  0.23109323122E+03  0.89899696429E+02 0.  0.
          5    1    1    2  502    0  0.76756153558E+02  0.56113366988E+02 -0.11371418452E+03  0.14828555299E+03  0.41800000000E+01 0. -1.
         -5    1    1    2    0  502 -0.35864201996E+01 -0.48895285010E+02 -0.76398177185E+02  0.90872246496E+02  0.41800000000E+01 0. -1.
        -11    1    3    3    0    0 -0.87604600548E+01 -0.19175671444E+02 -0.25974542292E+00  0.21083631171E+02  0.00000000000E+00 0.  1.
         11    1    3    3    0    0 -0.64409273304E+02  0.11957589465E+02 -0.19953068356E+03  0.21000960005E+03  0.00000000000E+00 0. -1.
</event>
<event>
 7    1  0.6584658E-006  0.9510221E+02  0.7561462E-02  0.1290946E+00
          2   -1    0    0  501    0  0.00000000000E+00  0.00000000000E+00  0.38084117903E+03  0.38084117903E+03  0.00000000000E+00 0.  1.
         -2   -1    0    0    0  501 -0.00000000000E+00 -0.00000000000E+00 -0.38783120699E+02  0.38783120699E+02  0.00000000000E+00 0. -1.
         23    2    1    2    0    0 -0.50230520466E+02  0.44675088581E+01  0.20200768064E+03  0.22518797115E+03  0.85787268827E+02 0.  0.
          5    1    1    2  502    0 -0.23617507581E+02  0.24265512167E+02  0.75748329867E+00  0.34126938421E+02  0.41800000000E+01 0.  1.
         -5    1    1    2    0  502  0.73848028047E+02 -0.28733021025E+02  0.13929289439E+03  0.16030939015E+03  0.41800000000E+01 0.  1.
        -11    1    3    3    0    0 -0.12807001887E+02  0.29194547748E+02  0.19772801066E+02  0.37514058399E+02  0.00000000000E+00 0.  1.
         11    1    3    3    0    0 -0.37423518579E+02 -0.24727038890E+02  0.18223487957E+03  0.18767391275E+03  0.00000000000E+00 0. -1.
</event>
<event>
 7    1  0.6584658E-006  0.9471679E+02  0.7561462E-02  0.1291815E+00
          1   -1    0    0  501    0  0.00000000000E+00  0.00000000000E+00  0.35785433600E+03  0.35785433600E+03  0.00000000000E+00 0. -1.
         -1   -1    0    0    0  501 -0.00000000000E+00 -0.00000000000E+00 -0.40747232661E+02  0.40747232661E+02  0.00000000000E+00 0.  1.
         23    2    1    2    0    0 -0.32235901314E+02 -0.10570094479E+02  0.20862279968E+03  0.22958274470E+03  0.89631935640E+02 0.  0.
          5    1    1    2  502    0  0.72117031174E+02  0.34471349370E+02  0.50757036175E+02  0.94778105245E+02  0.41800000000E+01 0.  1.
         -5    1    1    2    0  502 -0.39881129860E+02 -0.23901254891E+02  0.57727267487E+02  0.74240718719E+02  0.41800000000E+01 0.  1.
        -11    1    3    3    0    0 -0.28332657117E+02  0.18201027287E+02  0.19432006299E+03  0.19721638810E+03  0.00000000000E+00 0. -1.
         11    1    3    3    0    0 -0.39032441963E+01 -0.28771121766E+02  0.14302736691E+02  0.32366356603E+02  0.00000000000E+00 0.  1.
</event>
<event>
 7    1  0.6584658E-006  0.1211644E+03  0.7561462E-02  0.1241188E+00
         -2   -1    0    0    0  501 -0.00000000000E+00  0.00000000000E+00  0.45202439550E+02  0.45202439550E+02  0.00000000000E+00 0.  1.
          2   -1    0    0  501    0  0.00000000000E+00 -0.00000000000E+00 -0.50540034857E+03  0.50540034857E+03  0.00000000000E+00 0. -1.
         23    2    1    2    0    0  0.91880194694E+02  0.50363654803E+02 -0.19611263452E+03  0.24016878170E+03  0.90787721539E+02 0.  0.
          5    1    1    2  502    0 -0.17950029018E+02 -0.14143690179E+02  0.92000175234E+01  0.24987201445E+02  0.41800000000E+01 0.  1.
         -5    1    1    2    0  502 -0.73930165676E+02 -0.36219964624E+02 -0.27328529202E+03  0.28544680497E+03  0.41800000000E+01 0.  1.
        -11    1    3    3    0    0  0.32357330035E+01  0.47876449789E+02 -0.50380121950E+02  0.69575722060E+02  0.00000000000E+00 0.  1.
         11    1    3    3    0    0  0.88644461691E+02  0.24872050144E+01 -0.14573251257E+03  0.17059305964E+03  0.00000000000E+00 0. -1.
</event>
<event>
 7    1  0.6584658E-006  0.7233373E+02  0.7561462E-02  0.1352332E+00
          1   -1    0    0  501    0  0.00000000000E+00  0.00000000000E+00  0.75193890842E+02  0.75193890842E+02  0.00000000000E+00 0. -1.
         -1   -1    0    0    0  501 -0.00000000000E+00 -0.00000000000E+00 -0.17949148278E+03  0.17949148278E+03  0.00000000000E+00 0.  1.
         23    2    1    2    0    0  0.91087575863E+01  0.30010054524E+02 -0.14412028018E+02  0.97477551025E+02  0.91162456993E+02 0.  0.
          5    1    1    2  502    0 -0.23545474786E+00  0.23435248897E+02 -0.99253253630E+02  0.10206834517E+03  0.41800000000E+01 0. -1.
         -5    1    1    2    0  502 -0.88733028384E+01 -0.53445303420E+02  0.93676897058E+01  0.55139477431E+02  0.41800000000E+01 0. -1.
        -11    1    3    3    0    0 -0.18355546543E+02 -0.76722708718E+01 -0.39719782134E+02  0.44423540178E+02  0.00000000000E+00 0.  1.
         11    1    3    3    0    0  0.27464304129E+02  0.37682325395E+02  0.25307754116E+02  0.53054010847E+02  0.00000000000E+00 0. -1.
</event>
<event>
 7    1  0.6584658E-006  0.1742191E+03  0.7561462E-02  0.1173518E+00
         -2   -1    0    0    0  501 -0.00000000000E+00  0.00000000000E+00  0.23825993450E+02  0.23825993450E+02  0.00000000000E+00 0.  1.
          2   -1    0    0  501    0  0.00000000000E+00 -0.00000000000E+00 -0.16810491123E+04  0.16810491123E+04  0.00000000000E+00 0. -1.
         23    2    1    2    0    0  0.14348961709E+03 -0.78085559739E+02 -0.94945205890E+03  0.96780809838E+03  0.92231655495E+02 0.  0.
          5    1    1    2  502    0 -0.61593687518E+02  0.42851037686E+01 -0.88163061197E+02  0.10771416906E+03  0.41800000000E+01 0. -1.
         -5    1    1    2    0  502 -0.81895929567E+02  0.73800455970E+02 -0.61960799873E+03  0.62935283830E+03  0.41800000000E+01 0. -1.
        -11    1    3    3    0    0  0.90990617805E+00 -0.23567535805E+02 -0.47532435290E+02  0.53062124700E+02  0.00000000000E+00 0.  1.
         11    1    3    3    0    0  0.14257971091E+03 -0.54518023934E+02 -0.90191962361E+03  0.91474597368E+03  0.00000000000E+00 0. -1.
</event>
<event>
 7    1  0.6584658E-006  0.6002654E+02  0.7561462E-02  0.1397720E+00
         -1   -1    0    0    0  501 -0.00000000000E+00  0.00000000000E+00  0.20366351429E+03  0.20366351429E+03  0.00000000000E+00 0.  1.
          1   -1    0    0  501    0  0.00000000000E+00 -0.00000000000E+00 -0.61500832619E+02  0.61500832619E+02  0.00000000000E+00 0. -1.
         23    2    1    2    0    0  0.31651441824E+02 -0.22509750178E+02  0.57939336755E+02  0.10944678518E+03  0.84339370517E+02 0.  0.
          5    1    1    2  502    0 -0.42186209608E+02  0.37637472873E+01 -0.21546635555E+02  0.47702955658E+02  0.41800000000E+01 0. -1.
         -5    1    1    2    0  502  0.10534767784E+02  0.18746002891E+02  0.10576998047E+03  0.10801460607E+03  0.41800000000E+01 0. -1.
        -11    1    3    3    0    0  0.78120939631E+01 -0.29681964275E+02  0.73800485970E+02  0.79928465172E+02  0.00000000000E+00 0.  1.
         11    1    3    3    0    0  0.23839347861E+02  0.71722140965E+01 -0.15861149215E+02  0.29518320005E+02  0.00000000000E+00 0. -1.
</event>
<event>
 7    1  0.6584658E-006  0.1389227E+03  0.7561462E-02  0.1214786E+00
          2   -1    0    0  501    0  0.00000000000E+00  0.00000000000E+00  0.77220426682E+03  0.77220426682E+03  0.00000000000E+00 0. -1.
         -2   -1    0    0    0  501 -0.00000000000E+00 -0.00000000000E+00 -0.36543637102E+02  0.36543637102E+02  0.00000000000E+00 0.  1.
         23    2    1    2    0    0  0.10297164501E+02 -0.12163536397E+03  0.25653877347E+03  0.29874168426E+03  0.92375636710E+02 0.  0.
          5    1    1    2  502    0  0.29700688226E+02  0.46782935297E+02  0.35659263919E+03  0.36089687812E+03  0.41800000000E+01 0. -1.
         -5    1    1    2    0  502 -0.39997852727E+02  0.74852428670E+02  0.12252921707E+03  0.14910934154E+03  0.41800000000E+01 0. -1.
        -11    1    3    3    0    0  0.26722289098E+02 -0.11731211931E+03  0.15719131160E+03  0.19795282901E+03  0.00000000000E+00 0.  1.
         11    1    3    3    0    0 -0.16425124597E+02 -0.43232446582E+01  0.99347461869E+02  0.10078885525E+03  0.00000000000E+00 0. -1.
</event>
<event>
 7    1  0.6584658E-006  0.1043461E+03  0.7561462E-02  0.1271413E+00
          2   -1    0    0  501    0  0.00000000000E+00  0.00000000000E+00  0.69673327273E+03  0.69673327273E+03  0.00000000000E+00 0. -1.
         -2   -1    0    0    0  501 -0.00000000000E+00 -0.00000000000E+00 -0.18197306032E+02  0.18197306032E+02  0.00000000000E+00 0.  1.
         23    2    1    2    0    0  0.26622813505E+02 -0.14428806907E+02  0.31998143174E+03  0.33397645487E+03  0.90747953599E+02 0.  0.
          5    1    1    2  502    0  0.33479296798E+02 -0.28811621034E+02  0.68837562769E+02  0.81896613292E+02  0.41800000000E+01 0.  1.
         -5    1    1    2    0  502 -0.60102110304E+02  0.43240427941E+02  0.28971697219E+03  0.29905751060E+03  0.41800000000E+01 0.  1.
        -11    1    3    3    0    0  0.29660580567E+02 -0.48018175725E+02  0.25000245969E+03  0.25629421588E+03  0.00000000000E+00 0. -1.
         11    1    3    3    0    0 -0.30377670619E+01  0.33589368819E+02  0.69978972044E+02  0.77682238991E+02  0.00000000000E+00 0.  1.
</event>
<event>
 7    1  0.6584658E-006  0.1567607E+03  0.7561462E-02  0.1192403E+00
          3   -1    0    0  501    0  0.00000000000E+00  0.00000000000E+00  0.24947600448E+03  0.24947600448E+03  0.00000000000E+00 0. -1.
         -3   -1    0    0    0  501 -0.00000000000E+00 -0.00000000000E+00 -0.11732296308E+03  0.11732296308E+03  0.00000000000E+00 0.  1.
         23    2    1    2    0    0  0.11318195993E+03 -0.61713892436E+02  0.92559364537E+02  0.18286262337E+03  0.90844606268E+02 0.  0.
          5    1    1    2  502    0 -0.46588885018E+02  0.92942032299E+02  0.99431844530E+01  0.10452313090E+03  0.41800000000E+01 0.  1.
         -5    1    1    2    0  502 -0.66593074915E+02 -0.31228139863E+02  0.29650492409E+02  0.79413213296E+02  0.41800000000E+01 0.  1.
        -11    1    3    3    0    0  0.10824663892E+03 -0.43044188528E+02  0.34224328370E+02  0.12141433875E+03  0.00000000000E+00 0.  1.
         11    1    3    3    0    0  0.49353210171E+01 -0.18669703908E+02  0.58335036167E+02  0.61448284615E+02  0.00000000000E+00 0. -1.
</event>
<event>
 7    1  0.6584658E-006  0.1990467E+03  0.7561462E-02  0.1150546E+00
         -2   -1    0    0    0  501 -0.00000000000E+00  0.00000000000E+00  0.16971306054E+03  0.16971306054E+03  0.00000000000E+00 0.  1.
          2   -1    0    0  501    0  0.00000000000E+00 -0.00000000000E+00 -0.25339107174E+03  0.25339107174E+03  0.00000000000E+00 0. -1.
         23    2    1    2    0    0  0.82836671762E+02 -0.15019109016E+03 -0.81500642906E+02  0.21082015214E+03  0.91561476631E+02 0.  0.
          5    1    1    2  502    0  0.46859388955E+01 -0.16971836837E+02  0.13966691700E+02  0.22859180782E+02  0.41800000000E+01 0. -1.
         -5    1    1    2    0  502 -0.87522610657E+02  0.16716292699E+03 -0.16144059995E+02  0.18942479935E+03  0.41800000000E+01 0. -1.
        -11    1    3    3    0    0 -0.14791767412E+02 -0.46706731885E+02 -0.38146783249E+02  0.62092610340E+02  0.00000000000E+00 0. -1.
         11    1    3    3    0    0  0.97628439174E+02 -0.10348435827E+03 -0.43353859657E+02  0.14872754180E+03  0.00000000000E+00 0.  1.
</event>
<event>
 7    1  0.6584658E-006  0.7066231E+02  0.7561462E-02  0.1357855E+00
          2   -1    0    0  501    0  0.00000000000E+00  0.00000000000E+00  0.38841521453E+02  0.38841521453E+02  0.00000000000E+00 0. -1.
         -2   -1    0    0    0  501 -0.00000000000E+00 -0.00000000000E+00 -0.35403429440E+03  0.35403429440E+03  0.00000000000E+00 0.  1.
         23    2    1    2    0    0  0.66096690966E+01 -0.19326674025E+02 -0.89509259490E+02  0.13405469638E+03  0.97680837596E+02 0.  0.
          5    1    1    2  502    0  0.23652431435E+02  0.73772104137E+01 -0.22459878629E+03  0.22599988484E+03  0.41800000000E+01 0. -1.
         -5    1    1    2    0  502 -0.30262100532E+02  0.11949463612E+02 -0.10847271641E+01  0.32821234624E+02  0.41800000000E+01 0. -1.
        -11    1    3    3    0    0 -0.22730762934E+02 -0.41025972173E+02 -0.12043615890E+02  0.48423823269E+02  0.00000000000E+00 0. -1.
         11    1    3    3    0    0  0.29340432030E+02  0.21699298148E+02 -0.77465643600E+02  0.85630873113E+02  0.00000000000E+00 0.  1.
</event>
<event>
 7    1  0.6584658E-006  0.2476051E+03  0.7561462E-02  0.1114828E+00
          2   -1    0    0  501    0  0.00000000000E+00  0.00000000000E+00  0.82958175095E+03  0.82958175095E+03  0.00000000000E+00 0. -1.
         -2   -1    0    0    0  501 -0.00000000000E+00 -0.00000000000E+00 -0.75262439066E+02  0.75262439066E+02  0.00000000000E+00 0.  1.
         23    2    1    2    0    0  0.37747538398E+02 -0.22143807633E+03  0.39161492196E+03  0.46025285854E+03  0.89502784297E+02 0.  0.
          5    1    1    2  502    0  0.42849778691E+02  0.57278405840E+02  0.13169875557E+03  0.14992983001E+03  0.41800000000E+01 0. -1.
         -5    1    1    2    0  502 -0.80597317089E+02  0.16415967049E+03  0.23100563436E+03  0.29466150146E+03  0.41800000000E+01 0. -1.
        -11    1    3    3    0    0  0.59854182696E+02 -0.95067522269E+02  0.20558067490E+03  0.23427285559E+03  0.00000000000E+00 0.  1.
         11    1    3    3    0    0 -0.22106644298E+02 -0.12637055406E+03  0.18603424706E+03  0.22598000295E+03  0.00000000000E+00 0. -1.
</event>
<event>
 7    1  0.6584658E-006  0.7099099E+02  0.7561462E-02  0.1356755E+00
         -3   -1    0    0    0  501 -0.00000000000E+00  0.00000000000E+00  0.18305097787E+02  0.18305097787E+02  0.00000000000E+00 0.  1.
          3   -1    0    0  501    0  0.00000000000E+00 -0.00000000000E+00 -0.72121751820E+03  0.72121751820E+03  0.00000000000E+00 0. -1.
         23    2    1    2    0    0 -0.16044517590E+02 -0.32860717361E+02 -0.37575006724E+03  0.38736442753E+03  0.86751561365E+02 0.  0.
          5    1    1    2  502    0  0.32824612296E+02  0.16733129415E+02 -0.16480012693E+02  0.40577284418E+02  0.41800000000E+01 0. -1.
         -5    1    1    2    0  502 -0.16780094706E+02  0.16127587946E+02 -0.31068234049E+03  0.31158090404E+03  0.41800000000E+01 0. -1.
        -11    1    3    3    0    0  0.20260443230E+02  0.11998054222E+02 -0.37884498328E+02  0.44605762840E+02  0.00000000000E+00 0.  1.
         11    1    3    3    0    0 -0.36304960820E+02 -0.44858771582E+02 -0.33786556891E+03  0.34275866469E+03  0.00000000000E+00 0. -1.
</event>
<event>
 7    1  0.6584658E-006  0.1455418E+03  0.7561462E-02  0.1206061E+00
          1   -1    0    0  501    0  0.00000000000E+00  0.00000000000E+00  0.80918203682E+03  0.80918203682E+03  0.00000000000E+00 0. -1.
         -1   -1    0    0    0  501 -0.00000000000E+00 -0.00000000000E+00 -0.28860653482E+02  0.28860653482E+02  0.00000000000E+00 0.  1.
         23    2    1    2    0    0 -0.80697593841E+02 -0.55779349698E+02  0.48169639010E+03  0.49973613252E+03  0.89896342585E+02 0.  0.
          5    1    1    2  502    0 -0.28888627981E+02 -0.10275793857E+02  0.56571266402E+02  0.64481976927E+02  0.41800000000E+01 0. -1.
         -5    1    1    2    0  502  0.10958622182E+03  0.66055143555E+02  0.24205372684E+03  0.27382458086E+03  0.41800000000E+01 0. -1.
        -11    1    3    3    0    0 -0.98792703906E+02 -0.56861422285E+02  0.43373855101E+03  0.44846666579E+03  0.00000000000E+00 0. -1.
         11    1    3    3    0    0  0.18095110065E+02  0.10820725867E+01  0.47957839087E+02  0.51269466735E+02  0.00000000000E+00 0.  1.
</event>
<event>
 7    1  0.6584658E-006  0.1063537E+03  0.7561462E-02  0.1267475E+00
          1   -1    0    0  501    0  0.00000000000E+00  0.00000000000E+00  0.24120170369E+03  0.24120170369E+03  0.00000000000E+00 0. -1.
         -1   -1    0    0    0  501 -0.00000000000E+00 -0.00000000000E+00 -0.51749655165E+02  0.51749655165E+02  0.00000000000E+00 0.  1.
         23    2    1    2    0    0  0.40583518059E+01  0.21138114941E+02  0.11382501414E+03  0.14520223426E+03  0.87545787267E+02 0.  0.
          5    1    1    2  502    0 -0.36442392592E+02 -0.62987744400E+02  0.34734223184E+02  0.80743065229E+02  0.41800000000E+01 0.  1.
         -5    1    1    2    0  502  0.32384040786E+02  0.41849629458E+02  0.40892811200E+02  0.67006059362E+02  0.41800000000E+01 0.  1.
        -11    1    3    3    0    0  0.19529032361E+02 -0.28609099355E+02  0.26886175473E+02  0.43848946423E+02  0.00000000000E+00 0.  1.
         11    1    3    3    0    0 -0.15470680555E+02  0.49747214296E+02  0.86938838665E+02  0.10135328784E+03  0.00000000000E+00 0. -1.
</event>
<event>
 7    1  0.6584658E-006  0.1915239E+03  0.7561462E-02  0.1157094E+00
         -1   -1    0    0    0  501 -0.00000000000E+00  0.00000000000E+00  0.11672136766E+04  0.11672136766E+04  0.00000000000E+00 0.  1.
          1   -1    0    0  501    0  0.00000000000E+00 -0.00000000000E+00 -0.14026026238E+03  0.14026026238E+03  0.00000000000E+00 0. -1.
         23    2    1    2    0    0  0.94887816481E+02 -0.66801752819E+01 -0.85196151695E+02  0.15834887664E+03  0.93635783817E+02 0.  0.
          5    1    1    2  502    0  0.15043653828E+02 -0.10259316568E+03  0.71987782122E+03  0.72731920025E+03  0.41800000000E+01 0. -1.
         -5    1    1    2    0  502 -0.10993147031E+03  0.10927334097E+03  0.39227174471E+03  0.42180586211E+03  0.41800000000E+01 0.  1.
        -11    1    3    3    0    0  0.40809007811E+02  0.36702403262E+02 -0.67116186044E+02  0.86700772504E+02  0.00000000000E+00 0. -1.
         11    1    3    3    0    0  0.54078808669E+02 -0.43382578544E+02 -0.18079965651E+02  0.71648104135E+02  0.00000000000E+00 0.  1.
</event>
<event>
 7    1  0.6584658E-006  0.1549530E+03  0.7561462E-02  0.1194516E+00
         -1   -1    0    0    0  501 -0.00000000000E+00  0.00000000000E+00  0.47890549888E+03  0.47890549888E+03  0.00000000000E+00 0.  1.
          1   -1    0    0  501    0  0.00000000000E+00 -0.00000000000E+00 -0.64333697025E+02  0.64333697025E+02  0.00000000000E+00 0. -1.
         23    2    1    2    0    0 -0.23263598478E+02 -0.12836749465E+03  0.12732570577E+03  0.20386814545E+03  0.91274184095E+02 0.  0.
          5    1    1    2  502    0  0.49785449419E+02  0.73864609758E+01  0.12788882799E+03  0.13749972911E+03  0.41800000000E+01 0.  1.
         -5    1    1    2    0  502 -0.26521850941E+02  0.12098103368E+03  0.15935726809E+03  0.20187132134E+03  0.41800000000E+01 0.  1.
        -11    1    3    3    0    0 -0.29947163807E+02 -0.62847335818E+02  0.11406557493E+02  0.70545941012E+02  0.00000000000E+00 0.  1.
         11    1    3    3    0    0  0.66835653292E+01 -0.65520158836E+02  0.11591914827E+03  0.13332220444E+03  0.00000000000E+00 0. -1.
</event>
<event>
 7    1  0.6584658E-006  0.9958944E+02  0.7561462E-02  0.1281162E+00
          2   -1    0    0  501    0  0.00000000000E+00  0.00000000000E+00  0.15708913172E+03  0.15708913172E+03  0.00000000000E+00 0. -1.
         -2   -1    0    0    0  501 -0.00000000000E+00 -0.00000000000E+00 -0.86531147562E+02  0.86531147562E+02  0.00000000000E+00 0.  1.
         23    2    1    2    0    0  0.10418713521E+02  0.24035857957E+02  0.65047812694E+02  0.11569690931E+03  0.92023284161E+02 0.  0.
          5    1    1    2  502    0  0.56580242716E+02 -0.18382297534E+01 -0.21543362722E+01  0.56805074766E+02  0.41800000000E+01 0. -1.
         -5    1    1    2    0  502 -0.66998956237E+02 -0.22197628203E+02  0.76645077390E+01  0.71118295210E+02  0.41800000000E+01 0. -1.
        -11    1    3    3    0    0 -0.28568022647E+02  0.96300905762E+01 -0.84076210427E+01  0.31297901752E+02  0.00000000000E+00 0.  1.
         11    1    3    3    0    0  0.38986736168E+02  0.14405767381E+02  0.73455433737E+02  0.84399007556E+02  0.00000000000E+00 0. -1.
</event>
<event>
 7    1  0.6584658E-006  0.1167233E+03  0.7561462E-02  0.1248603E+00
         -3   -1    0    0    0  501 -0.00000000000E+00  0.00000000000E+00  0.86749321775E+03  0.86749321775E+03  0.00000000000E+00 0.  1.
          3   -1    0    0  501    0  0.00000000000E+00 -0.00000000000E+00 -0.18036119154E+02  0.18036119154E+02  0.00000000000E+00 0. -1.
         23    2    1    2    0    0 -0.27669187081E+02 -0.37602310828E+02  0.31001236615E+03  0.32980898432E+03  0.10240498657E+03 0.  0.
          5    1    1    2  502    0  0.59047710767E+02  0.60840469517E+02  0.25940550619E+03  0.27294117300E+03  0.41800000000E+01 0. -1.
         -5    1    1    2    0  502 -0.31378523686E+02 -0.23238158689E+02  0.28003922626E+03  0.28277917959E+03  0.41800000000E+01 0. -1.
        -11    1    3    3    0    0 -0.22518508743E+02  0.32203295480E+02  0.15181891731E+03  0.15682193447E+03  0.00000000000E+00 0.  1.
         11    1    3    3    0    0 -0.51506783373E+01 -0.69805606308E+02  0.15819344884E+03  0.17298704985E+03  0.00000000000E+00 0. -1.
</event>
<event>
 7    1  0.6584658E-006  0.1084130E+03  0.7561462E-02  0.1263537E+00
          2   -1    0    0  501    0  0.00000000000E+00  0.00000000000E+00  0.78020493816E+03  0.78020493816E+03  0.00000000000E+00 0. -1.
         -2   -1    0    0    0  501 -0.00000000000E+00 -0.00000000000E+00 -0.16401746050E+02  0.16401746050E+02  0.00000000000E+00 0.  1.
         23    2    1    2    0    0  0.28920437293E+02 -0.12187509996E+02  0.36374874066E+03  0.37627837166E+03  0.91034826057E+02 0.  0.
          5    1    1    2  502    0  0.44864989002E+02  0.12362991903E+02  0.87926040436E+02  0.99569934185E+02  0.41800000000E+01 0.  1.
         -5    1    1    2    0  502 -0.73785426295E+02 -0.17548190703E+00  0.31212841101E+03  0.32075837836E+03  0.41800000000E+01 0.  1.
        -11    1    3    3    0    0 -0.60766926123E+01  0.36074070274E+02  0.14652804900E+03  0.15102560671E+03  0.00000000000E+00 0.  1.
         11    1    3    3    0    0  0.34997129905E+02 -0.48261580270E+02  0.21722069166E+03  0.22525276495E+03  0.00000000000E+00 0. -1.
</event>
<event>
 7    1  0.6584658E-006  0.1039539E+03  0.7561462E-02  0.1272194E+00
          2   -1    0    0  501    0  0.00000000000E+00  0.00000000000E+00  0.36976174106E+03  0.36976174106E+03  0.00000000000E+00 0.  1.
         -2   -1    0    0    0  501 -0.00000000000E+00 -0.00000000000E+00 -0.37720417356E+02  0.37720417356E+02  0.00000000000E+00 0. -1.
         23    2    1    2    0    0  0.31918580026E+02 -0.31042868373E+02  0.16854374690E+03  0.19686251687E+03  0.91462563402E+02 0.  0.
          5    1    1    2  502    0  0.44477533320E+02  0.30646875475E+02  0.86551661882E+02  0.10210849387E+03  0.41800000000E+01 0.  1.
         -5    1    1    2    0  502 -0.76396113347E+02  0.39599289769E+00  0.76945914932E+02  0.10851114767E+03  0.41800000000E+01 0.  1.
        -11    1    3    3    0    0  0.12197746873E+02 -0.49033043953E+02  0.36970256999E+02  0.62608500466E+02  0.00000000000E+00 0. -1.
         11    1    3    3    0    0  0.19720833154E+02  0.17990175580E+02  0.13157348990E+03  0.13425401641E+03  0.00000000000E+00 0.  1.
</event>
<event>
 7    1  0.6584658E-006  0.5592588E+02  0.7561462E-02  0.1415770E+00
          4   -1    0    0  501    0  0.00000000000E+00  0.00000000000E+00  0.16780649193E+02  0.16780649193E+02  0.00000000000E+00 0. -1.
         -4   -1    0    0    0  501 -0.00000000000E+00 -0.00000000000E+00 -0.11357848618E+04  0.11357848618E+04  0.00000000000E+00 0.  1.
         23    2    1    2    0    0  0.14984319141E+02  0.31133965307E+02 -0.13332893809E+03  0.15838373013E+03  0.78198124155E+02 0.  0.
          5    1    1    2  502    0 -0.12552292972E+02 -0.39740535189E+02 -0.98308307401E+03  0.98397493514E+03  0.41800000000E+01 0. -1.
         -5    1    1    2    0  502 -0.24320261698E+01  0.86065698822E+01 -0.25922005349E+01  0.10206845744E+02  0.41800000000E+01 0. -1.
        -11    1    3    3    0    0 -0.14515031672E+02  0.26525959995E+02 -0.12319829516E+03  0.12685476983E+03  0.00000000000E+00 0.  1.
         11    1    3    3    0    0  0.29499350813E+02  0.46080053126E+01 -0.10130642929E+02  0.31528960298E+02  0.00000000000E+00 0. -1.
</event>
<event>
 7    1  0.6584658E-006  0.1874989E+03  0.7561462E-02  0.1160737E+00
         -2   -1    0    0    0  501 -0.00000000000E+00  0.00000000000E+00  0.44000562976E+02  0.44000562976E+02  0.00000000000E+00 0.  1.
          2   -1    0    0  501    0  0.00000000000E+00 -0.00000000000E+00 -0.96253754328E+03  0.96253754328E+03  0.00000000000E+00 0. -1.
         23    2    1    2    0    0  0.14333099590E+03 -0.89629344856E+02 -0.54525159086E+03  0.57809215161E+03  0.91181382875E+02 0.  0.
          5    1    1    2  502    0 -0.10514902576E+03  0.98426949998E+02 -0.35847553542E+03  0.38635005370E+03  0.41800000000E+01 0.  1.
         -5    1    1    2    0  502 -0.38181970133E+02 -0.87976051417E+01 -0.14809854035E+02  0.42095900941E+02  0.41800000000E+01 0.  1.
        -11    1    3    3    0    0  0.11611232543E+03 -0.10807319574E+03 -0.46735726519E+03  0.49354300834E+03  0.00000000000E+00 0.  1.
         11    1    3    3    0    0  0.27218670465E+02  0.18443850888E+02 -0.77894325665E+02  0.84549143273E+02  0.00000000000E+00 0. -1.
</event>
<event>
 7    1  0.6584658E-006  0.1002435E+03  0.7561462E-02  0.1279785E+00
          1   -1    0    0  501    0  0.00000000000E+00  0.00000000000E+00  0.17178961034E+03  0.17178961034E+03  0.00000000000E+00 0. -1.
         -1   -1    0    0    0  501 -0.00000000000E+00 -0.00000000000E+00 -0.99083777506E+02  0.99083777506E+02  0.00000000000E+00 0.  1.
         23    2    1    2    0    0  0.28260164111E+02  0.31224553929E+02  0.91264396446E+02  0.13758456099E+03  0.93950581265E+02 0.  0.
          5    1    1    2  502    0 -0.65541028647E+02 -0.90231523794E+01 -0.46979799683E+02  0.81250339649E+02  0.41800000000E+01 0. -1.
         -5    1    1    2    0  502  0.37280864536E+02 -0.22201401550E+02  0.28421236072E+02  0.52038487211E+02  0.41800000000E+01 0. -1.
        -11    1    3    3    0    0  0.49223606903E+02  0.44027120299E+02  0.31905082062E+02  0.73343609536E+02  0.00000000000E+00 0.  1.
         11    1    3    3    0    0 -0.20963442792E+02 -0.12802566370E+02  0.59359314384E+02  0.64240951452E+02  0.00000000000E+00 0. -1.
</event>
<event>
 7    1  0.6584658E-006  0.1187880E+03  0.7561462E-02  0.1245110E+00
          2   -1    0    0  501    0  0.00000000000E+00  0.00000000000E+00  0.27073009760E+03  0.27073009760E+03  0.00000000000E+00 0. -1.
         -2   -1    0    0    0  501 -0.00000000000E+00 -0.00000000000E+00 -0.83299173064E+02  0.83299173064E+02  0.00000000000E+00 0.  1.
         23    2    1    2    0    0 -0.48794694365E+02 -0.83005339996E+01  0.19328100604E+03  0.21937685093E+03  0.91207644217E+02 0.  0.
          5    1    1    2  502    0  0.70864084834E+02  0.50224658022E+02 -0.43369014629E+01  0.87066158219E+02  0.41800000000E+01 0. -1.
         -5    1    1    2    0  502 -0.22069390469E+02 -0.41924124022E+02 -0.15131800495E+01  0.47586261511E+02  0.41800000000E+01 0. -1.
        -11    1    3    3    0    0 -0.73887491731E+02  0.60749019099E+01  0.12687894457E+03  0.14695078238E+03  0.00000000000E+00 0. -1.
         11    1    3    3    0    0  0.25092797366E+02 -0.14375435910E+02  0.66402061475E+02  0.72426068549E+02  0.00000000000E+00 0.  1.
</event>
<event>
 7    1  0.6584658E-006  0.9615074E+02  0.7561462E-02  0.1288605E+00
          3   -1    0    0  501    0  0.00000000000E+00  0.00000000000E+00  0.12899594734E+03  0.12899594734E+03  0.00000000000E+00 0. -1.
         -3   -1    0    0    0  501 -0.00000000000E+00 -0.00000000000E+00 -0.11774113027E+03  0.11774113027E+03  0.00000000000E+00 0.  1.
         23    2    1    2    0    0 -0.76676633688E+01  0.37180070622E+02  0.41918475042E+02  0.11246634573E+03  0.97213011783E+02 0.  0.
          5    1    1    2  502    0 -0.18667900018E+02  0.24475808532E+02 -0.54715973427E+02  0.62919518772E+02  0.41800000000E+01 0. -1.
         -5    1    1    2    0  502  0.26335563387E+02 -0.61655879154E+02  0.24052315459E+02  0.71351213109E+02  0.41800000000E+01 0. -1.
        -11    1    3    3    0    0  0.17272850694E+01  0.64833131354E+02  0.45174423208E+01  0.65013273414E+02  0.00000000000E+00 0.  1.
         11    1    3    3    0    0 -0.93949484382E+01 -0.27653060732E+02  0.37401032721E+02  0.47453072320E+02  0.00000000000E+00 0. -1.
</event>
<event>
 7    1  0.6584658E-006  0.1300346E+03  0.7561462E-02  0.1227404E+00
          1   -1    0    0  501    0  0.00000000000E+00  0.00000000000E+00  0.48683736728E+03  0.48683736728E+03  0.00000000000E+00 0. -1.
         -1   -1    0    0    0  501 -0.00000000000E+00 -0.00000000000E+00 -0.42707842829E+02  0.42707842829E+02  0.00000000000E+00 0.  1.
         23    2    1    2    0    0 -0.22586222770E+02  0.79591517715E+02  0.28923213517E+03  0.31393477583E+03  0.89748918164E+02 0.  0.
          5    1    1    2  502    0  0.47286929351E+01  0.28317146339E+02  0.41361384191E+01  0.29305312738E+02  0.41800000000E+01 0. -1.
         -5    1    1    2    0  502  0.17857529835E+02 -0.10790866405E+03  0.15076125087E+03  0.18630512154E+03  0.41800000000E+01 0. -1.
        -11    1    3    3    0    0 -0.38443879082E+02  0.93128385511E+02  0.24925363482E+03  0.26884605725E+03  0.00000000000E+00 0. -1.
         11    1    3    3    0    0  0.15857656312E+02 -0.13536867796E+02  0.39978500342E+02  0.45088718579E+02  0.00000000000E+00 0.  1.
</event>
<event>
 7    1  0.6584658E-006  0.1326417E+03  0.7561462E-02  0.1223588E+00
         -3   -1    0    0    0  501 -0.00000000000E+00  0.00000000000E+00  0.23617988979E+03  0.23617988979E+03  0.00000000000E+00 0.  1.
          3   -1    0    0  501    0  0.00000000000E+00 -0.00000000000E+00 -0.82076146597E+02  0.82076146597E+02  0.00000000000E+00 0. -1.
         23    2    1    2    0    0  0.69202803547E+02  0.41304864508E+02  0.38412134823E+02  0.12976819564E+03  0.94176284946E+02 0.  0.
          5    1    1    2  502    0  0.94953248564E+01 -0.62367577444E+02  0.72458866216E+02  0.96164627612E+02  0.41800000000E+01 0. -1.
         -5    1    1    2    0  502 -0.78698128403E+02  0.21062712936E+02  0.43232742156E+02  0.92323213142E+02  0.41800000000E+01 0. -1.
        -11    1    3    3    0    0  0.23640916949E+02  0.64973465243E+02  0.36971929213E+02  0.78405150912E+02  0.00000000000E+00 0.  1.
         11    1    3    3    0    0  0.45561886598E+02 -0.23668600735E+02  0.14402056103E+01  0.51363044724E+02  0.00000000000E+00 0. -1.
</event>
<event>
 7    1  0.6584658E-006  0.1032259E+03  0.7561462E-02  0.1273655E+00
         -1   -1    0    0    0  501 -0.00000000000E+00  0.00000000000E+00  0.49324356733E+03  0.49324356733E+03  0.00000000000E+00 0.  1.
          1   -1    0    0  501    0  0.00000000000E+00 -0.00000000000E+00 -0.36190555609E+02  0.36190555609E+02  0.00000000000E+00 0. -1.
         23    2    1    2    0    0  0.35677028519E+02 -0.39616873386E+01  0.67830262355E+02  0.11903282308E+03  0.90990786067E+02 0.  0.
          5    1    1    2  502    0  0.45485207478E+02  0.10723000540E+02  0.11194438813E+03  0.12137917974E+03  0.41800000000E+01 0. -1.
         -5    1    1    2    0  502 -0.81162235998E+02 -0.67613132009E+01  0.27727836123E+03  0.28902212012E+03  0.41800000000E+01 0. -1.
        -11    1    3    3    0    0  0.54765633783E+02 -0.13843039094E+02  0.77138042246E+02  0.95609528482E+02  0.00000000000E+00 0.  1.
         11    1    3    3    0    0 -0.19088605263E+02  0.98813517552E+01 -0.93077798911E+01  0.23423294600E+02  0.00000000000E+00 0. -1.
</event>
<event>
 7    1  0.6584658E-006  0.1103780E+03  0.7561462E-02  0.1259871E+00
          2   -1    0    0  501    0  0.00000000000E+00  0.00000000000E+00  0.14352834342E+03  0.14352834342E+03  0.00000000000E+00 0. -1.
         -2   -1    0    0    0  501 -0.00000000000E+00 -0.00000000000E+00 -0.12669425456E+03  0.12669425456E+03  0.00000000000E+00 0.  1.
         23    2    1    2    0    0 -0.46763455081E+02  0.62998344160E+02 -0.33902005284E+01  0.12118364481E+03  0.92295017265E+02 0.  0.
          5    1    1    2  502    0  0.81345327812E+02 -0.49615193753E+02  0.43746069964E+02  0.10492816993E+03  0.41800000000E+01 0.  1.
         -5    1    1    2    0  502 -0.34581872731E+02 -0.13383150407E+02 -0.23521780572E+02  0.44110783235E+02  0.41800000000E+01 0.  1.
        -11    1    3    3    0    0  0.56409718415E+01  0.18425028292E+02 -0.39159512810E+02  0.43643667060E+02  0.00000000000E+00 0.  1.
         11    1    3    3    0    0 -0.52404426922E+02  0.44573315868E+02  0.35769312282E+02  0.77539977751E+02  0.00000000000E+00 0. -1.
</event>
<event>
 7    1  0.6584658E-006  0.9465815E+02  0.7561462E-02  0.1291948E+00
          4   -1    0    0  501    0  0.00000000000E+00  0.00000000000E+00  0.34911888832E+02  0.34911888832E+02  0.00000000000E+00 0. -1.
         -4   -1    0    0    0  501 -0.00000000000E+00 -0.00000000000E+00 -0.41571850104E+03  0.41571850104E+03  0.00000000000E+00 0.  1.
         23    2    1    2    0    0  0.26993771143E+02 -0.72618599565E+01 -0.83890032364E+02  0.12723216424E+03  0.91482718567E+02 0.  0.
          5    1    1    2  502    0 -0.67311681109E+02 -0.28869833251E+02 -0.18465468776E+03  0.19869362294E+03  0.41800000000E+01 0. -1.
         -5    1    1    2    0  502  0.40317909966E+02  0.36131693208E+02 -0.11226189208E+03  0.12470460269E+03  0.41800000000E+01 0. -1.
        -11    1    3    3    0    0  0.23306745819E+01 -0.28810509965E+02  0.77417147051E+01  0.29923430201E+02  0.00000000000E+00 0. -1.
         11    1    3    3    0    0  0.24663096561E+02  0.21548650008E+02 -0.91631747069E+02  0.97308734038E+02  0.00000000000E+00 0.  1.
</event>
<event>
 7    1  0.6584658E-006  0.1703062E+03  0.7561462E-02  0.1177529E+00
          4   -1    0    0  501    0  0.00000000000E+00  0.00000000000E+00  0.16193004042E+03  0.16193004042E+03  0.00000000000E+00 0. -1.
         -4   -1    0    0    0  501 -0.00000000000E+00 -0.00000000000E+00 -0.20645356540E+03  0.20645356540E+03  0.00000000000E+00 0.  1.
         23    2    1    2    0    0 -0.68860887545E+02  0.13016711765E+03 -0.34911196903E+02  0.17492697911E+03  0.87723178235E+02 0.  0.
          5    1    1    2  502    0  0.97118034796E+02 -0.10023848299E+03  0.22045459753E+02  0.14136173757E+03  0.41800000000E+01 0. -1.
         -5    1    1    2    0  502 -0.28257147251E+02 -0.29928634667E+02 -0.31657787837E+02  0.52094889140E+02  0.41800000000E+01 0. -1.
        -11    1    3    3    0    0 -0.72015419055E+02  0.73665855881E+02 -0.52556354747E+02  0.11565054833E+03  0.00000000000E+00 0.  1.
         11    1    3    3    0    0  0.31545315097E+01  0.56501261771E+02  0.17645157845E+02  0.59276430780E+02  0.00000000000E+00 0. -1.
</event>
<event>
 7    1  0.6584658E-006  0.1249754E+03  0.7561462E-02  0.1235108E+00
          3   -1    0    0  501    0  0.00000000000E+00  0.00000000000E+00  0.56916837190E+02  0.56916837190E+02  0.00000000000E+00 0. -1.
         -3   -1    0    0    0  501 -0.00000000000E+00 -0.00000000000E+00 -0.34844509196E+03  0.34844509196E+03  0.00000000000E+00 0.  1.
         23    2    1    2    0    0  0.73183455914E+02 -0.45991278192E+02 -0.10337599870E+03  0.16345293865E+03  0.92516215639E+02 0.  0.
          5    1    1    2  502    0  0.30056321793E+02 -0.65964768906E+01 -0.17638031857E+02  0.35713702621E+02  0.41800000000E+01 0.  1.
         -5    1    1    2    0  502 -0.10323977771E+03  0.52587755083E+02 -0.17051422422E+03  0.20619528788E+03  0.41800000000E+01 0.  1.
        -11    1    3    3    0    0  0.22475149506E+02  0.12363197509E+02 -0.77963632814E+02  0.82075020801E+02  0.00000000000E+00 0.  1.
         11    1    3    3    0    0  0.50708306408E+02 -0.58354475701E+02 -0.25412365885E+02  0.81377917846E+02  0.00000000000E+00 0. -1.
</event>
<event>
 7    1  0.6584658E-006  0.1425984E+03  0.7561462E-02  0.1209875E+00
          3   -1    0    0  501    0  0.00000000000E+00  0.00000000000E+00  0.54846044589E+03  0.54846044589E+03  0.00000000000E+00 0. -1.
         -3   -1    0    0    0  501 -0.00000000000E+00 -0.00000000000E+00 -0.46488496314E+02  0.46488496314E+02  0.00000000000E+00 0.  1.
         23    2    1    2    0    0  0.18613798633E+02 -0.11512160655E+03  0.25734875045E+03  0.29647221397E+03  0.89821692832E+02 0.  0.
          5    1    1    2  502    0 -0.14966655912E+02 -0.24408083647E+02  0.63435465574E+02  0.69722923269E+02  0.41800000000E+01 0. -1.
         -5    1    1    2    0  502 -0.36471427214E+01  0.13952969020E+03  0.18118773355E+03  0.22875380497E+03  0.41800000000E+01 0. -1.
        -11    1    3    3    0    0  0.10113385642E+02 -0.59087585260E+02  0.22136594677E+03  0.22933928074E+03  0.00000000000E+00 0. -1.
         11    1    3    3    0    0  0.85004129907E+01 -0.56034021292E+02  0.35982803677E+02  0.67132933227E+02  0.00000000000E+00 0.  1.
</event>
<event>
 7    1  0.6584658E-006  0.2422133E+03  0.7561462E-02  0.1118327E+00
          1   -1    0    0  501    0  0.00000000000E+00  0.00000000000E+00  0.28903260977E+03  0.28903260977E+03  0.00000000000E+00 0. -1.
         -1   -1    0    0    0  501 -0.00000000000E+00 -0.00000000000E+00 -0.22130700325E+03  0.22130700325E+03  0.00000000000E+00 0.  1.
         23    2    1    2    0    0 -0.22488620978E+03  0.10132208815E+02  0.69906144985E+02  0.25279387710E+03  0.91331299056E+02 0.  0.
          5    1    1    2  502    0  0.19302031169E+03  0.36444757201E+02  0.18389598464E+02  0.19733400818E+03  0.41800000000E+01 0. -1.
         -5    1    1    2    0  502  0.31865898089E+02 -0.46576966016E+02 -0.20570136925E+02  0.60211727739E+02  0.41800000000E+01 0. -1.
        -11    1    3    3    0    0 -0.20445892815E+03 -0.71809582716E+01  0.85583763850E+02  0.22176474043E+03  0.00000000000E+00 0. -1.
         11    1    3    3    0    0 -0.20427281632E+02  0.17313167086E+02 -0.15677618865E+02  0.31029136673E+02  0.00000000000E+00 0.  1.
</event>
<event>
 7    1  0.6584658E-006  0.9119476E+02  0.7561462E-02  0.1299984E+00
         -1   -1    0    0    0  501 -0.00000000000E+00  0.00000000000E+00  0.16041898195E+03  0.16041898195E+03  0.00000000000E+00 0.  1.
          1   -1    0    0  501    0  0.00000000000E+00 -0.00000000000E+00 -0.10139994206E+03  0.10139994206E+03  0.00000000000E+00 0. -1.
         23    2    1    2    0    0  0.52246185787E+02 -0.27863966086E+02 -0.33195874510E+01  0.11003116763E+03  0.92681031795E+02 0.  0.
          5    1    1    2  502    0 -0.72243402237E+02 -0.15233803156E+02  0.83122955578E+00  0.73954994882E+02  0.41800000000E+01 0. -1.
         -5    1    1    2    0  502  0.19997216450E+02  0.43097769242E+02  0.61507397781E+02  0.77832761490E+02  0.41800000000E+01 0. -1.
        -11    1    3    3    0    0  0.41939667735E+02 -0.15653182490E+02  0.42364213901E+02  0.61633468759E+02  0.00000000000E+00 0.  1.
         11    1    3    3    0    0  0.10306518053E+02 -0.12210783597E+02 -0.45683801352E+02  0.48397698875E+02  0.00000000000E+00 0. -1.
</event>
<event>
 7    1  0.6584658E-006  0.1109745E+03  0.7561462E-02  0.1258776E+00
         -1   -1    0    0    0  501 -0.00000000000E+00  0.00000000000E+00  0.27190205255E+02  0.27190205255E+02  0.00000000000E+00 0.  1.
          1   -1    0    0  501    0  0.00000000000E+00 -0.00000000000E+00 -0.63946903851E+03  0.63946903851E+03  0.00000000000E+00 0. -1.
         23    2    1    2    0    0  0.22068823255E+02  0.62802771928E+02 -0.36107741574E+03  0.37823473691E+03  0.90848197154E+02 0.  0.
          5    1    1    2  502    0 -0.69724744640E+02 -0.26728920756E+02 -0.93545881084E+02  0.11976760617E+03  0.41800000000E+01 0. -1.
         -5    1    1    2    0  502  0.47655921384E+02 -0.36073851172E+02 -0.15765553644E+03  0.16865690069E+03  0.41800000000E+01 0. -1.
        -11    1    3    3    0    0  0.10178949536E+02  0.71684194055E+02 -0.35481471599E+03  0.36212665930E+03  0.00000000000E+00 0. -1.
         11    1    3    3    0    0  0.11889873719E+02 -0.88814221274E+01 -0.62626997427E+01  0.16108077605E+02  0.00000000000E+00 0.  1.
</event>
<event>
 7    1  0.6584658E-006  0.1137367E+03  0.7561462E-02  0.1253802E+00
         -2   -1    0    0    0  501 -0.00000000000E+00  0.00000000000E+00  0.21146483466E+02  0.21146483466E+02  0.00000000000E+00 0.  1.
          2   -1    0    0  501    0  0.00000000000E+00 -0.00000000000E+00 -0.99990260967E+03  0.99990260967E+03  0.00000000000E+00 0. -1.
         23    2    1    2    0    0 -0.31510812381E+02 -0.90847990678E+02 -0.48310698834E+03  0.50089244297E+03  0.90854766136E+02 0.  0.
          5    1    1    2  502    0  0.41580796946E+02  0.26387075763E+02 -0.40709553591E+03  0.41008473295E+03  0.41800000000E+01 0.  1.
         -5    1    1    2    0  502 -0.10069984565E+02  0.64460914915E+02 -0.88553601944E+02  0.11007191721E+03  0.41800000000E+01 0.  1.
        -11    1    3    3    0    0 -0.48231690841E+02 -0.77478240065E+02 -0.46163930712E+03  0.47057414247E+03  0.00000000000E+00 0. -1.
         11    1    3    3    0    0  0.16720878460E+02 -0.13369750612E+02 -0.21467681224E+02  0.30318300498E+02  0.00000000000E+00 0.  1.
</event>
<event>
 7    1  0.6584658E-006  0.6189869E+02  0.7561462E-02  0.1390032E+00
          2   -1    0    0  501    0  0.00000000000E+00  0.00000000000E+00  0.13331786420E+03  0.13331786420E+03  0.00000000000E+00 0.  1.
         -2   -1    0    0    0  501 -0.00000000000E+00 -0.00000000000E+00 -0.10865750877E+03  0.10865750877E+03  0.00000000000E+00 0. -1.
         23    2    1    2    0    0  0.38362356391E+02  0.18982941560E+02  0.41796028607E+02  0.10865898414E+03  0.90707465889E+02 0.  0.
          5    1    1    2  502    0 -0.26264900628E+02 -0.63001431691E+00 -0.70553145655E+02  0.75401993905E+02  0.41800000000E+01 0. -1.
         -5    1    1    2    0  502 -0.12097455764E+02 -0.18352927243E+02  0.53417472481E+02  0.57914394934E+02  0.41800000000E+01 0. -1.
        -11    1    3    3    0    0  0.15857074092E+02 -0.22558018595E+02 -0.17639510908E+02  0.32733214733E+02  0.00000000000E+00 0. -1.
         11    1    3    3    0    0  0.22505282299E+02  0.41540960156E+02  0.59435539515E+02  0.75925769403E+02  0.00000000000E+00 0.  1.
</event>
<event>
 7    1  0.6584658E-006  0.9551773E+02  0.7561462E-02  0.1290014E+00
         -2   -1    0    0    0  501 -0.00000000000E+00  0.00000000000E+00  0.37297830161E+02  0.37297830161E+02  0.00000000000E+00 0.  1.
          2   -1    0    0  501    0  0.00000000000E+00 -0.00000000000E+00 -0.43556658703E+03  0.43556658703E+03  0.00000000000E+00 0. -1.
         23    2    1    2    0    0 -0.36013576278E+02  0.42900535727E+02 -0.24378690114E+03  0.26634617043E+03  0.91492052631E+02 0.  0.
          5    1    1    2  502    0  0.20161971304E+02 -0.66917500789E+02 -0.25838640872E+02  0.74629516687E+02  0.41800000000E+01 0. -1.
         -5    1    1    2    0  502  0.15851604974E+02  0.24016965063E+02 -0.12864321486E+03  0.13188873007E+03  0.41800000000E+01 0. -1.
        -11    1    3    3    0    0 -0.55134288244E+02  0.13319346797E+02 -0.75609216314E+02  0.94519565863E+02  0.00000000000E+00 0.  1.
         11    1    3    3    0    0  0.19120711966E+02  0.29581188929E+02 -0.16817768483E+03  0.17182660457E+03  0.00000000000E+00 0. -1.
</event>
<event>
 7    1  0.6584658E-006  0.1035167E+03  0.7561462E-02  0.1273070E+00
         -2   -1    0    0    0  501 -0.00000000000E+00  0.00000000000E+00  0.14843681354E+03  0.14843681354E+03  0.00000000000E+00 0.  1.
          2   -1    0    0  501    0  0.00000000000E+00 -0.00000000000E+00 -0.82411340523E+02  0.82411340523E+02  0.00000000000E+00 0. -1.
         23    2    1    2    0    0 -0.22291450803E+02 -0.22393288193E+02  0.11720411600E+02  0.90864199016E+02  0.84383449087E+02 0.  0.
          5    1    1    2  502    0 -0.25942672407E+02 -0.40206002063E+02  0.92301993871E+01  0.48910263077E+02  0.41800000000E+01 0.  1.
         -5    1    1    2    0  502  0.48234123209E+02  0.62599290256E+02  0.45074862033E+02  0.91073691973E+02  0.41800000000E+01 0.  1.
        -11    1    3    3    0    0 -0.17060296619E+02  0.26050337306E+02  0.25477578273E+02  0.40234074975E+02  0.00000000000E+00 0.  1.
         11    1    3    3    0    0 -0.52311541839E+01 -0.48443625498E+02 -0.13757166673E+02  0.50630124041E+02  0.00000000000E+00 0. -1.
</event>
<event>
 7    1  0.6584658E-006  0.9942246E+02  0.7561462E-02  0.1281515E+00
          1   -1    0    0  501    0  0.00000000000E+00  0.00000000000E+00  0.28083509041E+03  0.28083509041E+03  0.00000000000E+00 0. -1.
         -1   -1    0    0    0  501 -0.00000000000E+00 -0.00000000000E+00 -0.90102777471E+02  0.90102777471E+02  0.00000000000E+00 0.  1.
         23    2    1    2    0    0 -0.36458338364E+02  0.75504906368E+02  0.18288632292E+03  0.22013433528E+03  0.89339337001E+02 0.  0.
          5    1    1    2  502    0  0.58883643599E+02 -0.36312901408E+02  0.52664489574E+02  0.87045569412E+02  0.41800000000E+01 0. -1.
         -5    1    1    2    0  502 -0.22425305235E+02 -0.39192004960E+02 -0.44818499555E+02  0.63757963189E+02  0.41800000000E+01 0. -1.
        -11    1    3    3    0    0 -0.22813172670E+02  0.55188438951E+02  0.18610377897E+03  0.19545030362E+03  0.00000000000E+00 0. -1.
         11    1    3    3    0    0 -0.13645165694E+02  0.20316467417E+02 -0.32174560514E+01  0.24684031651E+02  0.00000000000E+00 0.  1.
</event>
<event>
 7    1  0.6584658E-006  0.1292205E+03  0.7561462E-02  0.1228617E+00
          1   -1    0    0  501    0  0.00000000000E+00  0.00000000000E+00  0.26498966743E+03  0.26498966743E+03  0.00000000000E+00 0. -1.
         -1   -1    0    0    0  501 -0.00000000000E+00 -0.00000000000E+00 -0.91683794275E+02  0.91683794275E+02  0.00000000000E+00 0.  1.
         23    2    1    2    0    0 -0.42136932415E+02  0.10188847381E+03  0.86537133123E+02  0.16870257016E+03  0.93888761847E+02 0.  0.
          5    1    1    2  502    0  0.42461044808E+02 -0.30742426347E+02 -0.22755226175E+02  0.57300172968E+02  0.41800000000E+01 0. -1.
         -5    1    1    2    0  502 -0.32411239265E+00 -0.71146047465E+02  0.10952396621E+03  0.13067071857E+03  0.41800000000E+01 0. -1.
        -11    1    3    3    0    0 -0.53148180455E+02  0.10914406806E+03  0.52616589516E+02  0.13230896482E+03  0.00000000000E+00 0.  1.
         11    1    3    3    0    0  0.11011248039E+02 -0.72555942513E+01  0.33920543607E+02  0.36393605343E+02  0.00000000000E+00 0. -1.
</event>
<event>
 7    1  0.6890074E-006  0.2192147E+03  0.7561462E-02  0.1134470E+00
         -2   -1    0    0    0  501 -0.00000000000E+00  0.00000000000E+00  0.32968143343E+02  0.32968143343E+02  0.00000000000E+00 0.  1.
          2   -1    0    0  501    0  0.00000000000E+00 -0.00000000000E+00 -0.18911637656E+04  0.18911637656E+04  0.00000000000E+00 0. -1.
         23    2    1    2    0    0  0.18471672382E+03 -0.99503702677E+02 -0.12125646206E+04  0.12338364367E+04  0.89544058936E+02 0.  0.
          5    1    1    2  502    0 -0.76494667280E+02  0.71237784377E+02 -0.47388982096E+03  0.48529917664E+03  0.41800000000E+01 0.  1.
         -5    1    1    2    0  502 -0.10822205654E+03  0.28265918300E+02 -0.17174118069E+03  0.20499629559E+03  0.41800000000E+01 0.  1.
        -11    1    3    3    0    0  0.42461527739E+02  0.84664384248E+01 -0.14120665276E+03  0.14769556765E+03  0.00000000000E+00 0.  1.
         11    1    3    3    0    0  0.14225519608E+03 -0.10797014110E+03 -0.10713579678E+04  0.10861408691E+04  0.00000000000E+00 0. -1.
</event>
<event>
 7    1  0.6584658E-006  0.7240164E+02  0.7561462E-02  0.1352111E+00
         -3   -1    0    0    0  501 -0.00000000000E+00  0.00000000000E+00  0.15282183042E+03  0.15282183042E+03  0.00000000000E+00 0.  1.
          3   -1    0    0  501    0  0.00000000000E+00 -0.00000000000E+00 -0.85701974585E+02  0.85701974585E+02  0.00000000000E+00 0. -1.
         23    2    1    2    0    0  0.22481844078E+02 -0.20380499309E+02  0.51318293669E+02  0.10883889966E+03  0.91057897788E+02 0.  0.
          5    1    1    2  502    0 -0.27467842851E+02 -0.69773939290E+00  0.67759553946E+02  0.73237959981E+02  0.41800000000E+01 0.  1.
         -5    1    1    2    0  502  0.49859987731E+01  0.21078238702E+02 -0.51957991781E+02  0.56446945360E+02  0.41800000000E+01 0.  1.
        -11    1    3    3    0    0  0.26870005691E+02 -0.54386935012E+02  0.24988953146E+02  0.65607802014E+02  0.00000000000E+00 0. -1.
         11    1    3    3    0    0 -0.43881616134E+01  0.34006435703E+02  0.26329340522E+02  0.43231097648E+02  0.00000000000E+00 0.  1.
</event>
